 Entering Gaussian System, Link 0=/opt/g16/g16
 Input=04-IsoP_028_gaussian.com
 Output=04-IsoP_028_gaussian.log
 Initial command:
 /opt/g16/l1.exe "/tmp/Gau-2766548.inp" -scrdir="/tmp/"
 Entering Link 1 = /opt/g16/l1.exe PID=   2766550.
  
 Copyright (c) 1988,1990,1992,1993,1995,1998,2003,2009,2016,
            Gaussian, Inc.  All Rights Reserved.
  
 This is part of the Gaussian(R) 16 program.  It is based on
 the Gaussian(R) 09 system (copyright 2009, Gaussian, Inc.),
 the Gaussian(R) 03 system (copyright 2003, Gaussian, Inc.),
 the Gaussian(R) 98 system (copyright 1998, Gaussian, Inc.),
 the Gaussian(R) 94 system (copyright 1995, Gaussian, Inc.),
 the Gaussian 92(TM) system (copyright 1992, Gaussian, Inc.),
 the Gaussian 90(TM) system (copyright 1990, Gaussian, Inc.),
 the Gaussian 88(TM) system (copyright 1988, Gaussian, Inc.),
 the Gaussian 86(TM) system (copyright 1986, Carnegie Mellon
 University), and the Gaussian 82(TM) system (copyright 1983,
 Carnegie Mellon University). Gaussian is a federally registered
 trademark of Gaussian, Inc.
  
 This software contains proprietary and confidential information,
 including trade secrets, belonging to Gaussian, Inc.
  
 This software is provided under written license and may be
 used, copied, transmitted, or stored only in accord with that
 written license.
  
 The following legend is applicable only to US Government
 contracts under FAR:
  
                    RESTRICTED RIGHTS LEGEND
  
 Use, reproduction and disclosure by the US Government is
 subject to restrictions as set forth in subparagraphs (a)
 and (c) of the Commercial Computer Software - Restricted
 Rights clause in FAR 52.227-19.
  
 Gaussian, Inc.
 340 Quinnipiac St., Bldg. 40, Wallingford CT 06492
  
  
 ---------------------------------------------------------------
 Warning -- This program may not be used in any manner that
 competes with the business of Gaussian, Inc. or will provide
 assistance to any competitor of Gaussian, Inc.  The licensee
 of this program is prohibited from giving any competitor of
 Gaussian, Inc. access to this program.  By using this program,
 the user acknowledges that Gaussian, Inc. is engaged in the
 business of creating and licensing software in the field of
 computational chemistry and represents and warrants to the
 licensee that it is not a competitor of Gaussian, Inc. and that
 it will not use this program in any manner prohibited above.
 ---------------------------------------------------------------
  

 Cite this work as:
 Gaussian 16, Revision A.03,
 M. J. Frisch, G. W. Trucks, H. B. Schlegel, G. E. Scuseria, 
 M. A. Robb, J. R. Cheeseman, G. Scalmani, V. Barone, 
 G. A. Petersson, H. Nakatsuji, X. Li, M. Caricato, A. V. Marenich, 
 J. Bloino, B. G. Janesko, R. Gomperts, B. Mennucci, H. P. Hratchian, 
 J. V. Ortiz, A. F. Izmaylov, J. L. Sonnenberg, D. Williams-Young, 
 F. Ding, F. Lipparini, F. Egidi, J. Goings, B. Peng, A. Petrone, 
 T. Henderson, D. Ranasinghe, V. G. Zakrzewski, J. Gao, N. Rega, 
 G. Zheng, W. Liang, M. Hada, M. Ehara, K. Toyota, R. Fukuda, 
 J. Hasegawa, M. Ishida, T. Nakajima, Y. Honda, O. Kitao, H. Nakai, 
 T. Vreven, K. Throssell, J. A. Montgomery, Jr., J. E. Peralta, 
 F. Ogliaro, M. J. Bearpark, J. J. Heyd, E. N. Brothers, K. N. Kudin, 
 V. N. Staroverov, T. A. Keith, R. Kobayashi, J. Normand, 
 K. Raghavachari, A. P. Rendell, J. C. Burant, S. S. Iyengar, 
 J. Tomasi, M. Cossi, J. M. Millam, M. Klene, C. Adamo, R. Cammi, 
 J. W. Ochterski, R. L. Martin, K. Morokuma, O. Farkas, 
 J. B. Foresman, and D. J. Fox, Gaussian, Inc., Wallingford CT, 2016.
 
 ******************************************
 Gaussian 16:  ES64L-G16RevA.03 25-Dec-2016
                27-Jul-2021 
 ******************************************
 %chk=04-IsoP_028_gaussian.chk
 %nproc=1
 Will use up to    1 processors via shared memory.
 %mem=1000Mb
 ----------
 #p opt pm3
 ----------
 1/18=20,19=15,26=1,38=1/1,3;
 2/9=110,12=2,17=6,18=5,40=1/2;
 3/5=2,25=1,41=800000,71=1/1,2,3;
 4/35=1/1;
 5/5=2,35=1,38=5/2;
 6/7=2,8=2,9=2,10=2,28=1/1;
 7//1,2,3,16;
 1/18=20,19=15,26=1/3(2);
 2/9=110/2;
 99//99;
 2/9=110/2;
 3/5=2,25=1,41=800000,71=1,135=20/1,2,3;
 4/5=5,16=3,35=1/1;
 5/5=2,35=1,38=5/2;
 7//1,2,3,16;
 1/18=20,19=15,26=1/3(-5);
 2/9=110/2;
 6/7=2,8=2,9=2,10=2,19=2,28=1/1;
 99/9=1/99;
 Leave Link    1 at Tue Jul 27 12:13:45 2021, MaxMem=   131072000 cpu:               0.0 elap:               0.0
 (Enter /opt/g16/l101.exe)
 -------------------------------------------------
 Conformer number 028. Energy MM = 26.187 kcal/mol
 -------------------------------------------------
 Symbolic Z-matrix:
 Charge =  0 Multiplicity = 1
 C                     2.1661    1.2032   -8.9719 
 H                     1.8515    0.1782   -9.2068 
 H                     2.0158    1.7767   -9.8972 
 C                     3.6401    1.1871   -8.6024 
 C                     4.0382    0.2802   -7.4714 
 H                     4.7273    0.7804   -6.7819 
 H                     3.1747   -0.0308   -6.8782 
 H                     4.5108   -0.6279   -7.8585 
 C                     4.5211    1.9609   -9.2685 
 H                     4.1566    2.5933   -10.0776 
 C                     5.9916    2.072    -9.0206 
 H                     6.3427    1.4433   -8.1983 
 H                     6.5408    1.7822   -9.9218 
 H                     6.2465    3.1101   -8.7834 
 C                     2.4839    4.9145   -5.8938 
 H                     2.3488    5.5773   -6.7534 
 H                     1.8927    5.3147   -5.0642 
 H                     3.5421    4.9478   -5.6146 
 C                     2.0739    3.4975   -6.1944 
 C                     2.2124    2.5489   -5.0344 
 H                     2.3995    1.5197   -5.3487 
 H                     3.0599    2.8329   -4.4005 
 H                     1.3064    2.565    -4.4222 
 C                     1.6488    3.1478   -7.4215 
 H                     1.5969    3.9177   -8.1946 
 C                     1.2356    1.7771   -7.8896 
 H                     1.1512    1.0725   -7.0577 
 H                     0.2225    1.8527   -8.3074 
 
 ITRead=  0  0  0  0  0  0  0  0  0  0  0  0  0  0  0  0  0  0  0  0
 ITRead=  0  0  0  0  0  0  0  0
 MicOpt= -1 -1 -1 -1 -1 -1 -1 -1 -1 -1 -1 -1 -1 -1 -1 -1 -1 -1 -1 -1
 MicOpt= -1 -1 -1 -1 -1 -1 -1 -1
 NAtoms=     28 NQM=       28 NQMF=       0 NMMI=      0 NMMIF=      0
                NMic=       0 NMicF=      0.
                    Isotopes and Nuclear Properties:
 (Nuclear quadrupole moments (NQMom) in fm**2, nuclear magnetic moments (NMagM)
  in nuclear magnetons)

  Atom         1           2           3           4           5           6           7           8           9          10
 IAtWgt=          12           1           1          12          12           1           1           1          12           1
 AtmWgt=  12.0000000   1.0078250   1.0078250  12.0000000  12.0000000   1.0078250   1.0078250   1.0078250  12.0000000   1.0078250
 NucSpn=           0           1           1           0           0           1           1           1           0           1
 AtZEff=  -0.0000000  -0.0000000  -0.0000000  -0.0000000  -0.0000000  -0.0000000  -0.0000000  -0.0000000  -0.0000000  -0.0000000
 NQMom=    0.0000000   0.0000000   0.0000000   0.0000000   0.0000000   0.0000000   0.0000000   0.0000000   0.0000000   0.0000000
 NMagM=    0.0000000   2.7928460   2.7928460   0.0000000   0.0000000   2.7928460   2.7928460   2.7928460   0.0000000   2.7928460
 AtZNuc=   6.0000000   1.0000000   1.0000000   6.0000000   6.0000000   1.0000000   1.0000000   1.0000000   6.0000000   1.0000000

  Atom        11          12          13          14          15          16          17          18          19          20
 IAtWgt=          12           1           1           1          12           1           1           1          12          12
 AtmWgt=  12.0000000   1.0078250   1.0078250   1.0078250  12.0000000   1.0078250   1.0078250   1.0078250  12.0000000  12.0000000
 NucSpn=           0           1           1           1           0           1           1           1           0           0
 AtZEff=  -0.0000000  -0.0000000  -0.0000000  -0.0000000  -0.0000000  -0.0000000  -0.0000000  -0.0000000  -0.0000000  -0.0000000
 NQMom=    0.0000000   0.0000000   0.0000000   0.0000000   0.0000000   0.0000000   0.0000000   0.0000000   0.0000000   0.0000000
 NMagM=    0.0000000   2.7928460   2.7928460   2.7928460   0.0000000   2.7928460   2.7928460   2.7928460   0.0000000   0.0000000
 AtZNuc=   6.0000000   1.0000000   1.0000000   1.0000000   6.0000000   1.0000000   1.0000000   1.0000000   6.0000000   6.0000000

  Atom        21          22          23          24          25          26          27          28
 IAtWgt=           1           1           1          12           1          12           1           1
 AtmWgt=   1.0078250   1.0078250   1.0078250  12.0000000   1.0078250  12.0000000   1.0078250   1.0078250
 NucSpn=           1           1           1           0           1           0           1           1
 AtZEff=  -0.0000000  -0.0000000  -0.0000000  -0.0000000  -0.0000000  -0.0000000  -0.0000000  -0.0000000
 NQMom=    0.0000000   0.0000000   0.0000000   0.0000000   0.0000000   0.0000000   0.0000000   0.0000000
 NMagM=    2.7928460   2.7928460   2.7928460   0.0000000   2.7928460   0.0000000   2.7928460   2.7928460
 AtZNuc=   1.0000000   1.0000000   1.0000000   6.0000000   1.0000000   6.0000000   1.0000000   1.0000000
 Leave Link  101 at Tue Jul 27 12:13:45 2021, MaxMem=   131072000 cpu:               0.2 elap:               0.2
 (Enter /opt/g16/l103.exe)

 GradGradGradGradGradGradGradGradGradGradGradGradGradGradGradGradGradGrad
 Berny optimization.
 Initialization pass.
                           ----------------------------
                           !    Initial Parameters    !
                           ! (Angstroms and Degrees)  !
 --------------------------                            --------------------------
 ! Name  Definition              Value          Derivative Info.                !
 --------------------------------------------------------------------------------
 ! R1    R(1,2)                  1.0976         estimate D2E/DX2                !
 ! R2    R(1,3)                  1.0989         estimate D2E/DX2                !
 ! R3    R(1,4)                  1.5197         estimate D2E/DX2                !
 ! R4    R(1,26)                 1.5384         estimate D2E/DX2                !
 ! R5    R(4,5)                  1.5034         estimate D2E/DX2                !
 ! R6    R(4,9)                  1.3486         estimate D2E/DX2                !
 ! R7    R(5,6)                  1.0957         estimate D2E/DX2                !
 ! R8    R(5,7)                  1.0928         estimate D2E/DX2                !
 ! R9    R(5,8)                  1.0945         estimate D2E/DX2                !
 ! R10   R(9,10)                 1.0897         estimate D2E/DX2                !
 ! R11   R(9,11)                 1.4954         estimate D2E/DX2                !
 ! R12   R(11,12)                1.093          estimate D2E/DX2                !
 ! R13   R(11,13)                1.0944         estimate D2E/DX2                !
 ! R14   R(11,14)                1.0949         estimate D2E/DX2                !
 ! R15   R(15,16)                1.0938         estimate D2E/DX2                !
 ! R16   R(15,17)                1.0945         estimate D2E/DX2                !
 ! R17   R(15,18)                1.0949         estimate D2E/DX2                !
 ! R18   R(15,19)                1.5054         estimate D2E/DX2                !
 ! R19   R(19,20)                1.5049         estimate D2E/DX2                !
 ! R20   R(19,24)                1.3449         estimate D2E/DX2                !
 ! R21   R(20,21)                1.0923         estimate D2E/DX2                !
 ! R22   R(20,22)                1.0958         estimate D2E/DX2                !
 ! R23   R(20,23)                1.0936         estimate D2E/DX2                !
 ! R24   R(24,25)                1.0923         estimate D2E/DX2                !
 ! R25   R(24,26)                1.5062         estimate D2E/DX2                !
 ! R26   R(26,27)                1.0935         estimate D2E/DX2                !
 ! R27   R(26,28)                1.0985         estimate D2E/DX2                !
 ! A1    A(2,1,3)              105.542          estimate D2E/DX2                !
 ! A2    A(2,1,4)              108.6715         estimate D2E/DX2                !
 ! A3    A(2,1,26)             109.0003         estimate D2E/DX2                !
 ! A4    A(3,1,4)              110.0541         estimate D2E/DX2                !
 ! A5    A(3,1,26)             108.3585         estimate D2E/DX2                !
 ! A6    A(4,1,26)             114.8074         estimate D2E/DX2                !
 ! A7    A(1,4,5)              116.4971         estimate D2E/DX2                !
 ! A8    A(1,4,9)              120.4956         estimate D2E/DX2                !
 ! A9    A(5,4,9)              123.0068         estimate D2E/DX2                !
 ! A10   A(4,5,6)              111.3816         estimate D2E/DX2                !
 ! A11   A(4,5,7)              111.7653         estimate D2E/DX2                !
 ! A12   A(4,5,8)              110.4132         estimate D2E/DX2                !
 ! A13   A(6,5,7)              106.576          estimate D2E/DX2                !
 ! A14   A(6,5,8)              109.256          estimate D2E/DX2                !
 ! A15   A(7,5,8)              107.2813         estimate D2E/DX2                !
 ! A16   A(4,9,10)             118.7654         estimate D2E/DX2                !
 ! A17   A(4,9,11)             127.097          estimate D2E/DX2                !
 ! A18   A(10,9,11)            114.136          estimate D2E/DX2                !
 ! A19   A(9,11,12)            113.4441         estimate D2E/DX2                !
 ! A20   A(9,11,13)            109.7115         estimate D2E/DX2                !
 ! A21   A(9,11,14)            109.5894         estimate D2E/DX2                !
 ! A22   A(12,11,13)           107.8177         estimate D2E/DX2                !
 ! A23   A(12,11,14)           107.9133         estimate D2E/DX2                !
 ! A24   A(13,11,14)           108.2169         estimate D2E/DX2                !
 ! A25   A(16,15,17)           107.9018         estimate D2E/DX2                !
 ! A26   A(16,15,18)           107.5376         estimate D2E/DX2                !
 ! A27   A(16,15,19)           112.3207         estimate D2E/DX2                !
 ! A28   A(17,15,18)           108.5204         estimate D2E/DX2                !
 ! A29   A(17,15,19)           110.39           estimate D2E/DX2                !
 ! A30   A(18,15,19)           110.0448         estimate D2E/DX2                !
 ! A31   A(15,19,20)           114.4779         estimate D2E/DX2                !
 ! A32   A(15,19,24)           120.8646         estimate D2E/DX2                !
 ! A33   A(20,19,24)           124.6456         estimate D2E/DX2                !
 ! A34   A(19,20,21)           112.8249         estimate D2E/DX2                !
 ! A35   A(19,20,22)           110.7155         estimate D2E/DX2                !
 ! A36   A(19,20,23)           110.2427         estimate D2E/DX2                !
 ! A37   A(21,20,22)           106.1521         estimate D2E/DX2                !
 ! A38   A(21,20,23)           108.4741         estimate D2E/DX2                !
 ! A39   A(22,20,23)           108.2461         estimate D2E/DX2                !
 ! A40   A(19,24,25)           118.5236         estimate D2E/DX2                !
 ! A41   A(19,24,26)           127.3652         estimate D2E/DX2                !
 ! A42   A(25,24,26)           114.1064         estimate D2E/DX2                !
 ! A43   A(1,26,24)            113.092          estimate D2E/DX2                !
 ! A44   A(1,26,27)            109.9713         estimate D2E/DX2                !
 ! A45   A(1,26,28)            108.4176         estimate D2E/DX2                !
 ! A46   A(24,26,27)           111.7859         estimate D2E/DX2                !
 ! A47   A(24,26,28)           107.9738         estimate D2E/DX2                !
 ! A48   A(27,26,28)           105.2201         estimate D2E/DX2                !
 ! D1    D(2,1,4,5)            -56.3943         estimate D2E/DX2                !
 ! D2    D(2,1,4,9)            123.8671         estimate D2E/DX2                !
 ! D3    D(3,1,4,5)           -171.5096         estimate D2E/DX2                !
 ! D4    D(3,1,4,9)              8.7518         estimate D2E/DX2                !
 ! D5    D(26,1,4,5)            65.9356         estimate D2E/DX2                !
 ! D6    D(26,1,4,9)          -113.803          estimate D2E/DX2                !
 ! D7    D(2,1,26,24)          175.6614         estimate D2E/DX2                !
 ! D8    D(2,1,26,27)           49.9131         estimate D2E/DX2                !
 ! D9    D(2,1,26,28)          -64.6325         estimate D2E/DX2                !
 ! D10   D(3,1,26,24)          -69.9547         estimate D2E/DX2                !
 ! D11   D(3,1,26,27)          164.2969         estimate D2E/DX2                !
 ! D12   D(3,1,26,28)           49.7514         estimate D2E/DX2                !
 ! D13   D(4,1,26,24)           53.5093         estimate D2E/DX2                !
 ! D14   D(4,1,26,27)          -72.239          estimate D2E/DX2                !
 ! D15   D(4,1,26,28)          173.2154         estimate D2E/DX2                !
 ! D16   D(1,4,5,6)           -135.6127         estimate D2E/DX2                !
 ! D17   D(1,4,5,7)            -16.5205         estimate D2E/DX2                !
 ! D18   D(1,4,5,8)            102.8129         estimate D2E/DX2                !
 ! D19   D(9,4,5,6)             44.1188         estimate D2E/DX2                !
 ! D20   D(9,4,5,7)            163.2109         estimate D2E/DX2                !
 ! D21   D(9,4,5,8)            -77.4557         estimate D2E/DX2                !
 ! D22   D(1,4,9,10)            -0.2458         estimate D2E/DX2                !
 ! D23   D(1,4,9,11)           179.2699         estimate D2E/DX2                !
 ! D24   D(5,4,9,10)          -179.9669         estimate D2E/DX2                !
 ! D25   D(5,4,9,11)            -0.4512         estimate D2E/DX2                !
 ! D26   D(4,9,11,12)           -0.3103         estimate D2E/DX2                !
 ! D27   D(4,9,11,13)          120.3303         estimate D2E/DX2                !
 ! D28   D(4,9,11,14)         -120.9858         estimate D2E/DX2                !
 ! D29   D(10,9,11,12)         179.2245         estimate D2E/DX2                !
 ! D30   D(10,9,11,13)         -60.135          estimate D2E/DX2                !
 ! D31   D(10,9,11,14)          58.5489         estimate D2E/DX2                !
 ! D32   D(16,15,19,20)       -178.7585         estimate D2E/DX2                !
 ! D33   D(16,15,19,24)          2.442          estimate D2E/DX2                !
 ! D34   D(17,15,19,20)        -58.2879         estimate D2E/DX2                !
 ! D35   D(17,15,19,24)        122.9126         estimate D2E/DX2                !
 ! D36   D(18,15,19,20)         61.4704         estimate D2E/DX2                !
 ! D37   D(18,15,19,24)       -117.329          estimate D2E/DX2                !
 ! D38   D(15,19,20,21)       -151.469          estimate D2E/DX2                !
 ! D39   D(15,19,20,22)        -32.6626         estimate D2E/DX2                !
 ! D40   D(15,19,20,23)         87.0888         estimate D2E/DX2                !
 ! D41   D(24,19,20,21)         27.2784         estimate D2E/DX2                !
 ! D42   D(24,19,20,22)        146.0848         estimate D2E/DX2                !
 ! D43   D(24,19,20,23)        -94.1638         estimate D2E/DX2                !
 ! D44   D(15,19,24,25)         -0.6495         estimate D2E/DX2                !
 ! D45   D(15,19,24,26)        178.5051         estimate D2E/DX2                !
 ! D46   D(20,19,24,25)       -179.3213         estimate D2E/DX2                !
 ! D47   D(20,19,24,26)         -0.1667         estimate D2E/DX2                !
 ! D48   D(19,24,26,1)        -115.0625         estimate D2E/DX2                !
 ! D49   D(19,24,26,27)          9.7067         estimate D2E/DX2                !
 ! D50   D(19,24,26,28)        124.977          estimate D2E/DX2                !
 ! D51   D(25,24,26,1)          64.1237         estimate D2E/DX2                !
 ! D52   D(25,24,26,27)       -171.1071         estimate D2E/DX2                !
 ! D53   D(25,24,26,28)        -55.8367         estimate D2E/DX2                !
 --------------------------------------------------------------------------------
 Trust Radius=3.00D-01 FncErr=1.00D-07 GrdErr=1.00D-07 EigMax=2.50D+02 EigMin=1.00D-04
 Number of steps in this run=    138 maximum allowed number of steps=    168.
 GradGradGradGradGradGradGradGradGradGradGradGradGradGradGradGradGradGrad

 Leave Link  103 at Tue Jul 27 12:13:45 2021, MaxMem=   131072000 cpu:               0.0 elap:               0.0
 (Enter /opt/g16/l202.exe)
                          Input orientation:                          
 ---------------------------------------------------------------------
 Center     Atomic      Atomic             Coordinates (Angstroms)
 Number     Number       Type             X           Y           Z
 ---------------------------------------------------------------------
      1          6           0        2.166100    1.203200   -8.971900
      2          1           0        1.851500    0.178200   -9.206800
      3          1           0        2.015800    1.776700   -9.897200
      4          6           0        3.640100    1.187100   -8.602400
      5          6           0        4.038200    0.280200   -7.471400
      6          1           0        4.727300    0.780400   -6.781900
      7          1           0        3.174700   -0.030800   -6.878200
      8          1           0        4.510800   -0.627900   -7.858500
      9          6           0        4.521100    1.960900   -9.268500
     10          1           0        4.156600    2.593300  -10.077600
     11          6           0        5.991600    2.072000   -9.020600
     12          1           0        6.342700    1.443300   -8.198300
     13          1           0        6.540800    1.782200   -9.921800
     14          1           0        6.246500    3.110100   -8.783400
     15          6           0        2.483900    4.914500   -5.893800
     16          1           0        2.348800    5.577300   -6.753400
     17          1           0        1.892700    5.314700   -5.064200
     18          1           0        3.542100    4.947800   -5.614600
     19          6           0        2.073900    3.497500   -6.194400
     20          6           0        2.212400    2.548900   -5.034400
     21          1           0        2.399500    1.519700   -5.348700
     22          1           0        3.059900    2.832900   -4.400500
     23          1           0        1.306400    2.565000   -4.422200
     24          6           0        1.648800    3.147800   -7.421500
     25          1           0        1.596900    3.917700   -8.194600
     26          6           0        1.235600    1.777100   -7.889600
     27          1           0        1.151200    1.072500   -7.057700
     28          1           0        0.222500    1.852700   -8.307400
 ---------------------------------------------------------------------
                    Distance matrix (angstroms):
                    1          2          3          4          5
     1  C    0.000000
     2  H    1.097623   0.000000
     3  H    1.098942   1.748957   0.000000
     4  C    1.519693   2.140623   2.159279   0.000000
     5  C    2.570640   2.793506   3.494870   1.503367   0.000000
     6  H    3.396263   3.809595   4.248522   2.159081   1.095659
     7  H    2.631275   2.686432   3.704655   2.161653   1.092813
     8  H    3.176508   3.088622   4.020376   2.146097   1.094460
     9  C    2.491607   3.210699   2.589541   1.348561   2.507491
    10  H    2.667778   3.450288   2.298348   2.102471   3.486650
    11  C    3.923217   4.556487   4.081987   2.547055   3.070234
    12  H    4.254420   4.773723   4.660416   2.744628   2.681773
    13  H    4.513929   5.007352   4.525070   3.241762   3.810967
    14  H    4.507933   5.300125   4.573547   3.244073   3.821815
    15  C    4.832126   5.814502   5.108044   4.750455   5.136283
    16  H    4.907940   5.951198   4.943574   4.935596   5.606145
    17  H    5.678847   6.598974   5.990867   5.710460   5.978626
    18  H    5.214103   6.205732   5.543116   4.804104   5.047803
    19  C    3.603723   4.487958   4.083535   3.686380   3.979978
    20  C    4.161365   4.812420   4.927653   4.077187   3.797304
    21  H    3.644479   4.121269   4.571884   3.498039   2.954243
    22  H    4.934825   5.622115   5.693805   4.549863   4.111420
    23  H    4.826319   5.374602   5.576763   4.981851   4.688354
    24  C    2.540238   3.470866   2.853716   3.033833   3.732941
    25  H    2.880398   3.882426   2.767346   3.434697   4.440087
    26  C    1.538364   2.161210   2.153873   2.576394   3.204710
    27  H    2.170545   2.430807   3.050605   2.931528   3.022194
    28  H    2.154296   2.503300   2.397742   3.494286   4.210845
                    6          7          8          9         10
     6  H    0.000000
     7  H    1.754390   0.000000
     8  H    1.785847   1.761443   0.000000
     9  C    2.760304   3.390162   2.947896   0.000000
    10  H    3.804464   4.252786   3.927594   1.089694   0.000000
    11  C    2.877232   4.116621   3.291308   1.495382   2.180878
    12  H    2.248364   3.735219   2.785891   2.175193   3.103756
    13  H    3.761829   4.886829   3.766522   2.130240   2.523206
    14  H    3.426583   4.788632   4.223830   2.129081   2.511915
    15  C    4.786684   5.089424   6.219853   4.925702   5.068538
    16  H    5.354281   5.669962   6.663332   4.911513   4.818994
    17  H    5.616523   5.788652   7.069445   5.986034   6.137218
    18  H    4.487150   5.149575   6.087848   4.819855   5.083272
    19  C    3.842957   3.758756   5.072143   4.219007   4.498273
    20  C    3.536392   3.313679   4.832209   4.858337   5.405160
    21  H    2.831833   2.311786   3.920315   4.478915   5.157762
    22  H    3.558658   3.788529   5.102941   5.156832   5.787022
    23  H    4.522780   4.032451   5.680752   5.846867   6.333087
    24  C    3.935840   3.567498   4.757933   3.615280   3.694780
    25  H    4.651642   4.451181   5.409830   3.678760   3.442643
    26  C    3.796364   2.837524   4.063487   3.567865   3.739755
    27  H    3.598594   2.311719   3.849617   4.127120   4.523832
    28  H    4.875469   3.782284   4.974375   4.406062   4.377127
                   11         12         13         14         15
    11  C    0.000000
    12  H    1.093029   0.000000
    13  H    1.094425   1.767639   0.000000
    14  H    1.094938   1.769129   1.773664   0.000000
    15  C    5.491871   5.678934   6.518782   5.075707   0.000000
    16  H    5.540516   5.926966   6.481852   5.039845   1.093832
    17  H    6.555089   6.679283   7.594713   6.135820   1.094492
    18  H    5.086365   5.176909   6.129045   4.553264   1.094920
    19  C    5.036649   5.143735   6.065390   4.925809   1.505440
    20  C    5.513581   5.319022   6.573397   5.535694   2.531471
    21  H    5.166340   4.865684   6.175153   5.396846   3.439320
    22  H    5.524415   5.208747   6.611005   5.425963   2.625791
    23  H    6.583269   6.393861   7.632648   6.612245   3.012020
    24  C    4.751250   5.053854   5.661098   4.795314   2.480421
    25  H    4.837590   5.352129   5.655593   4.755805   2.659710
    26  C    4.897516   5.127298   5.681110   5.261643   3.922340
    27  H    5.318031   5.328239   6.144472   5.752559   4.229860
    28  H    5.817152   6.134848   6.521669   6.172212   4.507107
                   16         17         18         19         20
    16  H    0.000000
    17  H    1.769289   0.000000
    18  H    1.765531   1.777098   0.000000
    19  C    2.171087   2.147650   2.143630   0.000000
    20  C    3.484935   2.784375   2.803472   1.504867   0.000000
    21  H    4.294167   3.839246   3.623273   2.175527   1.092265
    22  H    3.684228   2.821734   2.485831   2.152200   1.095783
    23  H    3.949056   2.883880   3.478205   2.144599   1.093565
    24  C    2.615115   3.211200   3.176393   1.344907   2.524792
    25  H    2.323076   3.440714   3.391358   2.098785   3.498474
    26  C    4.119670   4.574853   4.533090   2.556604   3.114800
    27  H    4.671195   4.745537   4.776703   2.734463   2.720229
    28  H    4.561657   5.029250   5.277363   3.255429   3.893190
                   21         22         23         24         25
    21  H    0.000000
    22  H    1.749201   0.000000
    23  H    1.773675   1.773980   0.000000
    24  C    2.740577   3.349150   3.074523   0.000000
    25  H    3.807062   4.208605   4.018108   1.092302   0.000000
    26  C    2.806616   4.076347   3.556496   1.506211   2.192198
    27  H    2.163082   3.715219   3.032739   2.164908   3.096184
    28  H    3.688377   4.927017   4.095972   2.120480   2.483128
                   26         27         28
    26  C    0.000000
    27  H    1.093454   0.000000
    28  H    1.098473   1.741535   0.000000
 Stoichiometry    C10H18
 Framework group  C1[X(C10H18)]
 Deg. of freedom    78
 Full point group                 C1      NOp   1
 Largest Abelian subgroup         C1      NOp   1
 Largest concise Abelian subgroup C1      NOp   1
                         Standard orientation:                         
 ---------------------------------------------------------------------
 Center     Atomic      Atomic             Coordinates (Angstroms)
 Number     Number       Type             X           Y           Z
 ---------------------------------------------------------------------
      1          6           0        0.942685   -1.620039   -0.664890
      2          1           0        1.417237   -2.540013   -0.299888
      3          1           0        1.169681   -1.577911   -1.739306
      4          6           0        1.570312   -0.433278    0.047253
      5          6           0        1.519349   -0.448992    1.549674
      6          1           0        1.228339    0.528626    1.949731
      7          1           0        0.786909   -1.169108    1.922774
      8          1           0        2.492895   -0.732327    1.961709
      9          6           0        2.131551    0.569632   -0.658295
     10          1           0        2.129683    0.510330   -1.746373
     11          6           0        2.772884    1.806181   -0.114414
     12          1           0        2.756596    1.860411    0.977147
     13          1           0        3.817843    1.852255   -0.436443
     14          1           0        2.255615    2.689433   -0.503244
     15          6           0       -2.692599    1.562585   -0.593795
     16          1           0       -2.543274    1.685239   -1.670422
     17          1           0       -3.770273    1.537401   -0.404326
     18          1           0       -2.273164    2.445170   -0.099866
     19          6           0       -2.037641    0.314817   -0.064216
     20          6           0       -2.237917    0.082701    1.409091
     21          1           0       -1.417860   -0.476255    1.865290
     22          1           0       -2.294042    1.035451    1.947477
     23          1           0       -3.168863   -0.464133    1.582866
     24          6           0       -1.319964   -0.484392   -0.873526
     25          1           0       -1.230934   -0.214242   -1.928142
     26          6           0       -0.581540   -1.741751   -0.496104
     27          1           0       -0.820156   -2.062533    0.521640
     28          1           0       -0.938954   -2.552580   -1.145299
 ---------------------------------------------------------------------
 Rotational constants (GHZ):           1.6029737           0.7847777           0.6966174
 Leave Link  202 at Tue Jul 27 12:13:45 2021, MaxMem=   131072000 cpu:               0.0 elap:               0.0
 (Enter /opt/g16/l301.exe)
 Standard basis: VSTO-6G (5D, 7F)
 Ernie: Thresh=  0.10000D-02 Tol=  0.10000D-05 Strict=F.
  NNHCO=     0 NNPyr=     0 NCTC=     0               EPep=         0.000000000
    EC=       256.587456758  ECS=         3.523692001   EG=         0.892567413
   EHC=         0.000000000  EAt=       -49.524085099  AtH=         4.217842293
 EPDDG=         0.000000000  ECC=       261.003716173 EAtT=        53.741927392
 There are    58 symmetry adapted cartesian basis functions of A   symmetry.
 There are    58 symmetry adapted basis functions of A   symmetry.
    58 basis functions,   348 primitive gaussians,    58 cartesian basis functions
    29 alpha electrons       29 beta electrons
       nuclear repulsion energy       314.7456435649 Hartrees.
 IExCor=    0 DFT=F Ex=HF Corr=None ExCW=0 ScaHFX=  1.000000
 ScaDFX=  1.000000  1.000000  1.000000  1.000000 ScalE2=  1.000000  1.000000
 IRadAn=      5 IRanWt=     -1 IRanGd=            0 ICorTp=0 IEmpDi=  4
 Integral buffers will be    131072 words long.
 Regular integral format.
 Two-electron integral symmetry is turned off.
 Leave Link  301 at Tue Jul 27 12:13:45 2021, MaxMem=   131072000 cpu:               0.0 elap:               0.1
 (Enter /opt/g16/l302.exe)
 Do NDO integrals.
 NPDir=0 NMtPBC=     1 NCelOv=     1 NCel=       1 NClECP=     1 NCelD=      1
         NCelK=      1 NCelE2=     1 NClLst=     1 CellRange=     0.0.
 One-electron integrals computed using PRISM.
 NBasis=    58 RedAO= F EigKep=  0.00D+00  NBF=    58
 NBsUse=    58 1.00D-04 EigRej=  0.00D+00 NBFU=    58
 Leave Link  302 at Tue Jul 27 12:13:45 2021, MaxMem=   131072000 cpu:               0.1 elap:               0.1
 (Enter /opt/g16/l303.exe)
 DipDrv:  MaxL=1.
 Leave Link  303 at Tue Jul 27 12:13:45 2021, MaxMem=   131072000 cpu:               0.0 elap:               0.0
 (Enter /opt/g16/l401.exe)
 Simple Huckel Guess.
 JPrj=0 DoOrth=F DoCkMO=F.
 Leave Link  401 at Tue Jul 27 12:13:45 2021, MaxMem=   131072000 cpu:               0.0 elap:               0.0
 (Enter /opt/g16/l502.exe)
 Keep J ints in memory in canonical form, NReq=866866.
 FoFCou: FMM=F IPFlag=           0 FMFlag=           0 FMFlg1=           0
         NFxFlg=           0 DoJE=F BraDBF=F KetDBF=F FulRan=T
         wScrn=  0.000000 ICntrl=       600 IOpCl=  2 I1Cent=           0 NGrid=           0
         NMat0=    1 NMatS0=    118 NMatT0=    0 NMatD0=    1 NMtDS0=    0 NMtDT0=    0
 Symmetry not used in FoFCou.
 Two-electron integral symmetry not used.
 Closed shell SCF:
 Using DIIS extrapolation, IDIIS=  1040.
 Overlap will be assumed to be unity.
 NGot=   131072000 LenX=   130997697 LenY=   130993892
 Requested convergence on RMS density matrix=1.00D-08 within 128 cycles.
 Requested convergence on MAX density matrix=1.00D-06.
 Requested convergence on             energy=1.00D-06.
 No special actions if energy rises.

 Cycle   1  Pass 1  IDiag  1:
 E= 0.217163997470720    
 DIIS: error= 2.74D-02 at cycle   1 NSaved=   1.
 NSaved= 1 IEnMin= 1 EnMin= 0.217163997470720     IErMin= 1 ErrMin= 2.74D-02
 ErrMax= 2.74D-02  0.00D+00 EMaxC= 1.00D-01 BMatC= 9.41D-02 BMatP= 9.41D-02
 IDIUse=3 WtCom= 7.26D-01 WtEn= 2.74D-01
 Coeff-Com:  0.100D+01
 Coeff-En:   0.100D+01
 Coeff:      0.100D+01
 GapD=    2.000 DampG=2.000 DampE=0.500 DampFc=1.0000 IDamp=-1.
 RMSDP=7.13D-03 MaxDP=8.48D-02              OVMax= 0.00D+00

 Cycle   2  Pass 1  IDiag  1:
 E=-0.145460686871957E-02 Delta-E=       -0.218618604339 Rises=F Damp=F
 DIIS: error= 7.89D-03 at cycle   2 NSaved=   2.
 NSaved= 2 IEnMin= 2 EnMin=-0.145460686871957E-02 IErMin= 2 ErrMin= 7.89D-03
 ErrMax= 7.89D-03  0.00D+00 EMaxC= 1.00D-01 BMatC= 6.02D-03 BMatP= 9.41D-02
 IDIUse=3 WtCom= 9.21D-01 WtEn= 7.89D-02
 Coeff-Com: -0.317D+00 0.132D+01
 Coeff-En:   0.000D+00 0.100D+01
 Coeff:     -0.292D+00 0.129D+01
 RMSDP=2.58D-03 MaxDP=2.85D-02 DE=-2.19D-01 OVMax= 0.00D+00

 Cycle   3  Pass 1  IDiag  3:
 E=-0.186712842883594E-01 Delta-E=       -0.017216677420 Rises=F Damp=F
 DIIS: error= 9.08D-04 at cycle   3 NSaved=   3.
 NSaved= 3 IEnMin= 3 EnMin=-0.186712842883594E-01 IErMin= 3 ErrMin= 9.08D-04
 ErrMax= 9.08D-04  0.00D+00 EMaxC= 1.00D-01 BMatC= 7.28D-05 BMatP= 6.02D-03
 IDIUse=3 WtCom= 9.91D-01 WtEn= 9.08D-03
 Coeff-Com:  0.108D+00-0.505D+00 0.140D+01
 Coeff-En:   0.000D+00 0.000D+00 0.100D+01
 Coeff:      0.107D+00-0.500D+00 0.139D+01
 Gap=     0.381 Goal=   None    Shift=    0.000
 RMSDP=4.28D-04 MaxDP=4.06D-03 DE=-1.72D-02 OVMax= 5.25D-03

 Cycle   4  Pass 1  IDiag  3:
 E=-0.190069815124048E-01 Delta-E=       -0.000335697224 Rises=F Damp=F
 DIIS: error= 1.87D-04 at cycle   4 NSaved=   4.
 NSaved= 4 IEnMin= 4 EnMin=-0.190069815124048E-01 IErMin= 4 ErrMin= 1.87D-04
 ErrMax= 1.87D-04  0.00D+00 EMaxC= 1.00D-01 BMatC= 3.20D-06 BMatP= 7.28D-05
 IDIUse=3 WtCom= 9.98D-01 WtEn= 1.87D-03
 Coeff-Com: -0.495D-01 0.237D+00-0.764D+00 0.158D+01
 Coeff-En:   0.000D+00 0.000D+00 0.000D+00 0.100D+01
 Coeff:     -0.494D-01 0.237D+00-0.763D+00 0.158D+01
 Gap=     0.381 Goal=   None    Shift=    0.000
 RMSDP=1.10D-04 MaxDP=1.10D-03 DE=-3.36D-04 OVMax= 8.48D-04

 Cycle   5  Pass 1  IDiag  3:
 E=-0.190252812205927E-01 Delta-E=       -0.000018299708 Rises=F Damp=F
 DIIS: error= 5.57D-05 at cycle   5 NSaved=   5.
 NSaved= 5 IEnMin= 5 EnMin=-0.190252812205927E-01 IErMin= 5 ErrMin= 5.57D-05
 ErrMax= 5.57D-05  0.00D+00 EMaxC= 1.00D-01 BMatC= 1.71D-07 BMatP= 3.20D-06
 IDIUse=1 WtCom= 1.00D+00 WtEn= 0.00D+00
 Coeff-Com:  0.145D-01-0.695D-01 0.231D+00-0.612D+00 0.144D+01
 Coeff:      0.145D-01-0.695D-01 0.231D+00-0.612D+00 0.144D+01
 Gap=     0.381 Goal=   None    Shift=    0.000
 RMSDP=2.59D-05 MaxDP=2.98D-04 DE=-1.83D-05 OVMax= 2.04D-04

 Cycle   6  Pass 1  IDiag  3:
 E=-0.190263302114886E-01 Delta-E=       -0.000001048991 Rises=F Damp=F
 DIIS: error= 1.90D-05 at cycle   6 NSaved=   6.
 NSaved= 6 IEnMin= 6 EnMin=-0.190263302114886E-01 IErMin= 6 ErrMin= 1.90D-05
 ErrMax= 1.90D-05  0.00D+00 EMaxC= 1.00D-01 BMatC= 1.44D-08 BMatP= 1.71D-07
 IDIUse=1 WtCom= 1.00D+00 WtEn= 0.00D+00
 Coeff-Com: -0.493D-02 0.235D-01-0.768D-01 0.205D+00-0.691D+00 0.154D+01
 Coeff:     -0.493D-02 0.235D-01-0.768D-01 0.205D+00-0.691D+00 0.154D+01
 Gap=     0.381 Goal=   None    Shift=    0.000
 RMSDP=8.73D-06 MaxDP=1.18D-04 DE=-1.05D-06 OVMax= 8.42D-05

 Cycle   7  Pass 1  IDiag  3:
 E=-0.190264290141613E-01 Delta-E=       -0.000000098803 Rises=F Damp=F
 DIIS: error= 4.23D-06 at cycle   7 NSaved=   7.
 NSaved= 7 IEnMin= 7 EnMin=-0.190264290141613E-01 IErMin= 7 ErrMin= 4.23D-06
 ErrMax= 4.23D-06  0.00D+00 EMaxC= 1.00D-01 BMatC= 1.05D-09 BMatP= 1.44D-08
 IDIUse=1 WtCom= 1.00D+00 WtEn= 0.00D+00
 Coeff-Com:  0.914D-03-0.430D-02 0.136D-01-0.367D-01 0.195D+00-0.715D+00
 Coeff-Com:  0.155D+01
 Coeff:      0.914D-03-0.430D-02 0.136D-01-0.367D-01 0.195D+00-0.715D+00
 Coeff:      0.155D+01
 Gap=     0.381 Goal=   None    Shift=    0.000
 RMSDP=2.44D-06 MaxDP=2.82D-05 DE=-9.88D-08 OVMax= 2.81D-05

 Cycle   8  Pass 1  IDiag  3:
 E=-0.190264360583683E-01 Delta-E=       -0.000000007044 Rises=F Damp=F
 DIIS: error= 1.14D-06 at cycle   8 NSaved=   8.
 NSaved= 8 IEnMin= 8 EnMin=-0.190264360583683E-01 IErMin= 8 ErrMin= 1.14D-06
 ErrMax= 1.14D-06  0.00D+00 EMaxC= 1.00D-01 BMatC= 4.99D-11 BMatP= 1.05D-09
 IDIUse=1 WtCom= 1.00D+00 WtEn= 0.00D+00
 Coeff-Com: -0.364D-04 0.151D-03-0.301D-03 0.650D-03-0.289D-01 0.170D+00
 Coeff-Com: -0.556D+00 0.141D+01
 Coeff:     -0.364D-04 0.151D-03-0.301D-03 0.650D-03-0.289D-01 0.170D+00
 Coeff:     -0.556D+00 0.141D+01
 Gap=     0.381 Goal=   None    Shift=    0.000
 RMSDP=4.93D-07 MaxDP=6.70D-06 DE=-7.04D-09 OVMax= 6.83D-06

 Cycle   9  Pass 1  IDiag  3:
 E=-0.190264363843653E-01 Delta-E=       -0.000000000326 Rises=F Damp=F
 DIIS: error= 3.44D-07 at cycle   9 NSaved=   9.
 NSaved= 9 IEnMin= 9 EnMin=-0.190264363843653E-01 IErMin= 9 ErrMin= 3.44D-07
 ErrMax= 3.44D-07  0.00D+00 EMaxC= 1.00D-01 BMatC= 4.19D-12 BMatP= 4.99D-11
 IDIUse=1 WtCom= 1.00D+00 WtEn= 0.00D+00
 Coeff-Com:  0.160D-04-0.633D-04 0.800D-04 0.654D-04 0.125D-01-0.809D-01
 Coeff-Com:  0.282D+00-0.898D+00 0.168D+01
 Coeff:      0.160D-04-0.633D-04 0.800D-04 0.654D-04 0.125D-01-0.809D-01
 Coeff:      0.282D+00-0.898D+00 0.168D+01
 Gap=     0.381 Goal=   None    Shift=    0.000
 RMSDP=1.61D-07 MaxDP=2.28D-06 DE=-3.26D-10 OVMax= 2.20D-06

 Cycle  10  Pass 1  IDiag  3:
 E=-0.190264364143786E-01 Delta-E=       -0.000000000030 Rises=F Damp=F
 DIIS: error= 6.21D-08 at cycle  10 NSaved=  10.
 NSaved=10 IEnMin=10 EnMin=-0.190264364143786E-01 IErMin=10 ErrMin= 6.21D-08
 ErrMax= 6.21D-08  0.00D+00 EMaxC= 1.00D-01 BMatC= 2.09D-13 BMatP= 4.19D-12
 IDIUse=1 WtCom= 1.00D+00 WtEn= 0.00D+00
 Coeff-Com: -0.858D-06-0.268D-06 0.422D-04-0.194D-03-0.352D-02 0.252D-01
 Coeff-Com: -0.912D-01 0.315D+00-0.768D+00 0.152D+01
 Coeff:     -0.858D-06-0.268D-06 0.422D-04-0.194D-03-0.352D-02 0.252D-01
 Coeff:     -0.912D-01 0.315D+00-0.768D+00 0.152D+01
 Gap=     0.381 Goal=   None    Shift=    0.000
 RMSDP=3.43D-08 MaxDP=4.79D-07 DE=-3.00D-11 OVMax= 3.59D-07

 Cycle  11  Pass 1  IDiag  3:
 E=-0.190264364157997E-01 Delta-E=       -0.000000000001 Rises=F Damp=F
 DIIS: error= 1.27D-08 at cycle  11 NSaved=  11.
 NSaved=11 IEnMin=11 EnMin=-0.190264364157997E-01 IErMin=11 ErrMin= 1.27D-08
 ErrMax= 1.27D-08  0.00D+00 EMaxC= 1.00D-01 BMatC= 7.56D-15 BMatP= 2.09D-13
 IDIUse=1 WtCom= 1.00D+00 WtEn= 0.00D+00
 Coeff-Com:  0.177D-06 0.656D-06-0.163D-04 0.733D-04 0.118D-02-0.857D-02
 Coeff-Com:  0.312D-01-0.110D+00 0.284D+00-0.683D+00 0.148D+01
 Coeff:      0.177D-06 0.656D-06-0.163D-04 0.733D-04 0.118D-02-0.857D-02
 Coeff:      0.312D-01-0.110D+00 0.284D+00-0.683D+00 0.148D+01
 Gap=     0.381 Goal=   None    Shift=    0.000
 RMSDP=5.59D-09 MaxDP=8.32D-08 DE=-1.42D-12 OVMax= 5.23D-08

 Cycle  12  Pass 2  IDiag  1:
 SCF Done:  E(RPM3) = -0.190264364158E-01 A.U. after   12 cycles
            NFock= 11  Conv=0.56D-08     -V/T= 0.9998
 KE=-7.900938930993D+01 PE=-5.118817106474D+02 EE= 2.761264299561D+02
 Leave Link  502 at Tue Jul 27 12:13:45 2021, MaxMem=   131072000 cpu:               0.1 elap:               0.1
 (Enter /opt/g16/l601.exe)
 Copying SCF densities to generalized density rwf, IOpCl= 0 IROHF=0.

 **********************************************************************

            Population analysis using the SCF density.

 **********************************************************************

 Orbital symmetries:
       Occupied  (A) (A) (A) (A) (A) (A) (A) (A) (A) (A) (A) (A)
                 (A) (A) (A) (A) (A) (A) (A) (A) (A) (A) (A) (A)
                 (A) (A) (A) (A) (A)
       Virtual   (A) (A) (A) (A) (A) (A) (A) (A) (A) (A) (A) (A)
                 (A) (A) (A) (A) (A) (A) (A) (A) (A) (A) (A) (A)
                 (A) (A) (A) (A) (A)
 The electronic state is 1-A.
 Alpha  occ. eigenvalues --   -1.45936  -1.33790  -1.19442  -1.07594  -1.01381
 Alpha  occ. eigenvalues --   -0.96351  -0.88787  -0.77643  -0.65952  -0.65380
 Alpha  occ. eigenvalues --   -0.61203  -0.58498  -0.56900  -0.56005  -0.54522
 Alpha  occ. eigenvalues --   -0.53911  -0.51334  -0.50018  -0.49810  -0.48543
 Alpha  occ. eigenvalues --   -0.48282  -0.47408  -0.46763  -0.45774  -0.45557
 Alpha  occ. eigenvalues --   -0.43616  -0.42459  -0.34859  -0.34195
 Alpha virt. eigenvalues --    0.03902   0.04333   0.12135   0.12277   0.13310
 Alpha virt. eigenvalues --    0.13973   0.14101   0.14181   0.14868   0.15443
 Alpha virt. eigenvalues --    0.15646   0.15790   0.16059   0.16149   0.16319
 Alpha virt. eigenvalues --    0.16513   0.16696   0.16864   0.16959   0.17112
 Alpha virt. eigenvalues --    0.17220   0.17458   0.17740   0.18037   0.18156
 Alpha virt. eigenvalues --    0.20899   0.21458   0.22450   0.22677
          Condensed to atoms (all electrons):
               1          2          3          4          5          6
     1  C    4.044578   0.000000   0.000000   0.000000   0.000000   0.000000
     2  H    0.000000   0.950161   0.000000   0.000000   0.000000   0.000000
     3  H    0.000000   0.000000   0.952395   0.000000   0.000000   0.000000
     4  C    0.000000   0.000000   0.000000   4.118242   0.000000   0.000000
     5  C    0.000000   0.000000   0.000000   0.000000   4.068477   0.000000
     6  H    0.000000   0.000000   0.000000   0.000000   0.000000   0.952826
     7  H    0.000000   0.000000   0.000000   0.000000   0.000000   0.000000
     8  H    0.000000   0.000000   0.000000   0.000000   0.000000   0.000000
     9  C    0.000000   0.000000   0.000000   0.000000   0.000000   0.000000
    10  H    0.000000   0.000000   0.000000   0.000000   0.000000   0.000000
    11  C    0.000000   0.000000   0.000000   0.000000   0.000000   0.000000
    12  H    0.000000   0.000000   0.000000   0.000000   0.000000   0.000000
    13  H    0.000000   0.000000   0.000000   0.000000   0.000000   0.000000
    14  H    0.000000   0.000000   0.000000   0.000000   0.000000   0.000000
    15  C    0.000000   0.000000   0.000000   0.000000   0.000000   0.000000
    16  H    0.000000   0.000000   0.000000   0.000000   0.000000   0.000000
    17  H    0.000000   0.000000   0.000000   0.000000   0.000000   0.000000
    18  H    0.000000   0.000000   0.000000   0.000000   0.000000   0.000000
    19  C    0.000000   0.000000   0.000000   0.000000   0.000000   0.000000
    20  C    0.000000   0.000000   0.000000   0.000000   0.000000   0.000000
    21  H    0.000000   0.000000   0.000000   0.000000   0.000000   0.000000
    22  H    0.000000   0.000000   0.000000   0.000000   0.000000   0.000000
    23  H    0.000000   0.000000   0.000000   0.000000   0.000000   0.000000
    24  C    0.000000   0.000000   0.000000   0.000000   0.000000   0.000000
    25  H    0.000000   0.000000   0.000000   0.000000   0.000000   0.000000
    26  C    0.000000   0.000000   0.000000   0.000000   0.000000   0.000000
    27  H    0.000000   0.000000   0.000000   0.000000   0.000000   0.000000
    28  H    0.000000   0.000000   0.000000   0.000000   0.000000   0.000000
               7          8          9         10         11         12
     1  C    0.000000   0.000000   0.000000   0.000000   0.000000   0.000000
     2  H    0.000000   0.000000   0.000000   0.000000   0.000000   0.000000
     3  H    0.000000   0.000000   0.000000   0.000000   0.000000   0.000000
     4  C    0.000000   0.000000   0.000000   0.000000   0.000000   0.000000
     5  C    0.000000   0.000000   0.000000   0.000000   0.000000   0.000000
     6  H    0.000000   0.000000   0.000000   0.000000   0.000000   0.000000
     7  H    0.957034   0.000000   0.000000   0.000000   0.000000   0.000000
     8  H    0.000000   0.954867   0.000000   0.000000   0.000000   0.000000
     9  C    0.000000   0.000000   4.156555   0.000000   0.000000   0.000000
    10  H    0.000000   0.000000   0.000000   0.905988   0.000000   0.000000
    11  C    0.000000   0.000000   0.000000   0.000000   4.066778   0.000000
    12  H    0.000000   0.000000   0.000000   0.000000   0.000000   0.957737
    13  H    0.000000   0.000000   0.000000   0.000000   0.000000   0.000000
    14  H    0.000000   0.000000   0.000000   0.000000   0.000000   0.000000
    15  C    0.000000   0.000000   0.000000   0.000000   0.000000   0.000000
    16  H    0.000000   0.000000   0.000000   0.000000   0.000000   0.000000
    17  H    0.000000   0.000000   0.000000   0.000000   0.000000   0.000000
    18  H    0.000000   0.000000   0.000000   0.000000   0.000000   0.000000
    19  C    0.000000   0.000000   0.000000   0.000000   0.000000   0.000000
    20  C    0.000000   0.000000   0.000000   0.000000   0.000000   0.000000
    21  H    0.000000   0.000000   0.000000   0.000000   0.000000   0.000000
    22  H    0.000000   0.000000   0.000000   0.000000   0.000000   0.000000
    23  H    0.000000   0.000000   0.000000   0.000000   0.000000   0.000000
    24  C    0.000000   0.000000   0.000000   0.000000   0.000000   0.000000
    25  H    0.000000   0.000000   0.000000   0.000000   0.000000   0.000000
    26  C    0.000000   0.000000   0.000000   0.000000   0.000000   0.000000
    27  H    0.000000   0.000000   0.000000   0.000000   0.000000   0.000000
    28  H    0.000000   0.000000   0.000000   0.000000   0.000000   0.000000
              13         14         15         16         17         18
     1  C    0.000000   0.000000   0.000000   0.000000   0.000000   0.000000
     2  H    0.000000   0.000000   0.000000   0.000000   0.000000   0.000000
     3  H    0.000000   0.000000   0.000000   0.000000   0.000000   0.000000
     4  C    0.000000   0.000000   0.000000   0.000000   0.000000   0.000000
     5  C    0.000000   0.000000   0.000000   0.000000   0.000000   0.000000
     6  H    0.000000   0.000000   0.000000   0.000000   0.000000   0.000000
     7  H    0.000000   0.000000   0.000000   0.000000   0.000000   0.000000
     8  H    0.000000   0.000000   0.000000   0.000000   0.000000   0.000000
     9  C    0.000000   0.000000   0.000000   0.000000   0.000000   0.000000
    10  H    0.000000   0.000000   0.000000   0.000000   0.000000   0.000000
    11  C    0.000000   0.000000   0.000000   0.000000   0.000000   0.000000
    12  H    0.000000   0.000000   0.000000   0.000000   0.000000   0.000000
    13  H    0.957738   0.000000   0.000000   0.000000   0.000000   0.000000
    14  H    0.000000   0.956807   0.000000   0.000000   0.000000   0.000000
    15  C    0.000000   0.000000   4.066258   0.000000   0.000000   0.000000
    16  H    0.000000   0.000000   0.000000   0.959560   0.000000   0.000000
    17  H    0.000000   0.000000   0.000000   0.000000   0.957161   0.000000
    18  H    0.000000   0.000000   0.000000   0.000000   0.000000   0.955346
    19  C    0.000000   0.000000   0.000000   0.000000   0.000000   0.000000
    20  C    0.000000   0.000000   0.000000   0.000000   0.000000   0.000000
    21  H    0.000000   0.000000   0.000000   0.000000   0.000000   0.000000
    22  H    0.000000   0.000000   0.000000   0.000000   0.000000   0.000000
    23  H    0.000000   0.000000   0.000000   0.000000   0.000000   0.000000
    24  C    0.000000   0.000000   0.000000   0.000000   0.000000   0.000000
    25  H    0.000000   0.000000   0.000000   0.000000   0.000000   0.000000
    26  C    0.000000   0.000000   0.000000   0.000000   0.000000   0.000000
    27  H    0.000000   0.000000   0.000000   0.000000   0.000000   0.000000
    28  H    0.000000   0.000000   0.000000   0.000000   0.000000   0.000000
              19         20         21         22         23         24
     1  C    0.000000   0.000000   0.000000   0.000000   0.000000   0.000000
     2  H    0.000000   0.000000   0.000000   0.000000   0.000000   0.000000
     3  H    0.000000   0.000000   0.000000   0.000000   0.000000   0.000000
     4  C    0.000000   0.000000   0.000000   0.000000   0.000000   0.000000
     5  C    0.000000   0.000000   0.000000   0.000000   0.000000   0.000000
     6  H    0.000000   0.000000   0.000000   0.000000   0.000000   0.000000
     7  H    0.000000   0.000000   0.000000   0.000000   0.000000   0.000000
     8  H    0.000000   0.000000   0.000000   0.000000   0.000000   0.000000
     9  C    0.000000   0.000000   0.000000   0.000000   0.000000   0.000000
    10  H    0.000000   0.000000   0.000000   0.000000   0.000000   0.000000
    11  C    0.000000   0.000000   0.000000   0.000000   0.000000   0.000000
    12  H    0.000000   0.000000   0.000000   0.000000   0.000000   0.000000
    13  H    0.000000   0.000000   0.000000   0.000000   0.000000   0.000000
    14  H    0.000000   0.000000   0.000000   0.000000   0.000000   0.000000
    15  C    0.000000   0.000000   0.000000   0.000000   0.000000   0.000000
    16  H    0.000000   0.000000   0.000000   0.000000   0.000000   0.000000
    17  H    0.000000   0.000000   0.000000   0.000000   0.000000   0.000000
    18  H    0.000000   0.000000   0.000000   0.000000   0.000000   0.000000
    19  C    4.119210   0.000000   0.000000   0.000000   0.000000   0.000000
    20  C    0.000000   4.071200   0.000000   0.000000   0.000000   0.000000
    21  H    0.000000   0.000000   0.952251   0.000000   0.000000   0.000000
    22  H    0.000000   0.000000   0.000000   0.958561   0.000000   0.000000
    23  H    0.000000   0.000000   0.000000   0.000000   0.954493   0.000000
    24  C    0.000000   0.000000   0.000000   0.000000   0.000000   4.152059
    25  H    0.000000   0.000000   0.000000   0.000000   0.000000   0.000000
    26  C    0.000000   0.000000   0.000000   0.000000   0.000000   0.000000
    27  H    0.000000   0.000000   0.000000   0.000000   0.000000   0.000000
    28  H    0.000000   0.000000   0.000000   0.000000   0.000000   0.000000
              25         26         27         28
     1  C    0.000000   0.000000   0.000000   0.000000
     2  H    0.000000   0.000000   0.000000   0.000000
     3  H    0.000000   0.000000   0.000000   0.000000
     4  C    0.000000   0.000000   0.000000   0.000000
     5  C    0.000000   0.000000   0.000000   0.000000
     6  H    0.000000   0.000000   0.000000   0.000000
     7  H    0.000000   0.000000   0.000000   0.000000
     8  H    0.000000   0.000000   0.000000   0.000000
     9  C    0.000000   0.000000   0.000000   0.000000
    10  H    0.000000   0.000000   0.000000   0.000000
    11  C    0.000000   0.000000   0.000000   0.000000
    12  H    0.000000   0.000000   0.000000   0.000000
    13  H    0.000000   0.000000   0.000000   0.000000
    14  H    0.000000   0.000000   0.000000   0.000000
    15  C    0.000000   0.000000   0.000000   0.000000
    16  H    0.000000   0.000000   0.000000   0.000000
    17  H    0.000000   0.000000   0.000000   0.000000
    18  H    0.000000   0.000000   0.000000   0.000000
    19  C    0.000000   0.000000   0.000000   0.000000
    20  C    0.000000   0.000000   0.000000   0.000000
    21  H    0.000000   0.000000   0.000000   0.000000
    22  H    0.000000   0.000000   0.000000   0.000000
    23  H    0.000000   0.000000   0.000000   0.000000
    24  C    0.000000   0.000000   0.000000   0.000000
    25  H    0.904217   0.000000   0.000000   0.000000
    26  C    0.000000   4.051282   0.000000   0.000000
    27  H    0.000000   0.000000   0.947379   0.000000
    28  H    0.000000   0.000000   0.000000   0.950839
 Mulliken charges:
               1
     1  C   -0.044578
     2  H    0.049839
     3  H    0.047605
     4  C   -0.118242
     5  C   -0.068477
     6  H    0.047174
     7  H    0.042966
     8  H    0.045133
     9  C   -0.156555
    10  H    0.094012
    11  C   -0.066778
    12  H    0.042263
    13  H    0.042262
    14  H    0.043193
    15  C   -0.066258
    16  H    0.040440
    17  H    0.042839
    18  H    0.044654
    19  C   -0.119210
    20  C   -0.071200
    21  H    0.047749
    22  H    0.041439
    23  H    0.045507
    24  C   -0.152059
    25  H    0.095783
    26  C   -0.051282
    27  H    0.052621
    28  H    0.049161
 Sum of Mulliken charges =  -0.00000
 Mulliken charges with hydrogens summed into heavy atoms:
               1
     1  C    0.052866
     4  C   -0.118242
     5  C    0.066796
     9  C   -0.062543
    11  C    0.060940
    15  C    0.061675
    19  C   -0.119210
    20  C    0.063495
    24  C   -0.056275
    26  C    0.050499
 Charge=             -0.0000 electrons
 Dipole moment (field-independent basis, Debye):
    X=             -0.0872    Y=              0.0757    Z=              0.3026  Tot=              0.3239
 N-N= 3.147456435649D+02 E-N=-5.118817109244D+02  KE=-7.900938930993D+01
 Leave Link  601 at Tue Jul 27 12:13:46 2021, MaxMem=   131072000 cpu:               0.0 elap:               0.0
 (Enter /opt/g16/l701.exe)
 ... and contract with generalized density number  0.
 Compute integral first derivatives.
 Leave Link  701 at Tue Jul 27 12:13:46 2021, MaxMem=   131072000 cpu:               0.1 elap:               0.1
 (Enter /opt/g16/l702.exe)
 L702 exits ... SP integral derivatives will be done elsewhere.
 Leave Link  702 at Tue Jul 27 12:13:46 2021, MaxMem=   131072000 cpu:               0.0 elap:               0.0
 (Enter /opt/g16/l703.exe)
 Integral derivatives from FoFJK, PRISM(SPDF).
 Compute integral first derivatives, UseDBF=F ICtDFT=           0.
 Calling FoFJK, ICntrl=      2127 FMM=F ISym2X=0 I1Cent= 0 IOpClX= 0 NMat=1 NMatS=1 NMatT=0.
 FoFJK:  IHMeth= 9 ICntrl=    2127 DoSepK=F KAlg= 0 I1Cent=           0 FoldK=F
 IRaf=         0 NMat=       1 IRICut=       1 DoRegI=T DoRafI=F ISym2E= 0 IDoP0=3 IntGTp=3.
 FoFCou: FMM=F IPFlag=           0 FMFlag=      100000 FMFlg1=         800
         NFxFlg=           0 DoJE=F BraDBF=F KetDBF=F FulRan=T
         wScrn=  0.000000 ICntrl=      2127 IOpCl=  0 I1Cent=           0 NGrid=           0
         NMat0=    1 NMatS0=      1 NMatT0=    0 NMatD0=    1 NMtDS0=    0 NMtDT0=    0
 Symmetry not used in FoFCou.
 Leave Link  703 at Tue Jul 27 12:13:46 2021, MaxMem=   131072000 cpu:               0.1 elap:               0.1
 (Enter /opt/g16/l716.exe)
 Dipole        =-3.42985182D-02 2.97654513D-02 1.19050548D-01
 ***** Axes restored to original set *****
 -------------------------------------------------------------------
 Center     Atomic                   Forces (Hartrees/Bohr)
 Number     Number              X              Y              Z
 -------------------------------------------------------------------
      1        6           0.012347877    0.007810048    0.011328366
      2        1          -0.001098481   -0.006652497   -0.000293407
      3        1           0.000678179    0.003826196   -0.005347802
      4        6          -0.000479607    0.001930384    0.003802872
      5        6          -0.004336784    0.009322405   -0.012086601
      6        1           0.002669727    0.000016273    0.000134747
      7        1          -0.004315159   -0.001319448    0.001599839
      8        1           0.002462694   -0.000907069   -0.000412006
      9        6           0.001079269   -0.008352366    0.009991491
     10        1          -0.001827313    0.003196777   -0.003947761
     11        6          -0.016806474   -0.002966427   -0.001543144
     12        1           0.000442257   -0.001891605    0.002367579
     13        1           0.001620446   -0.000352560   -0.001652504
     14        1           0.000980319    0.001675084    0.000338830
     15        6          -0.005333137   -0.013949616   -0.004028690
     16        1          -0.000619653    0.001775342   -0.001907621
     17        1          -0.000407739    0.000763651    0.001807661
     18        1           0.001735674    0.000375182    0.001308775
     19        6           0.002110136   -0.004413233    0.002677584
     20        6          -0.000065358    0.011697455   -0.011729890
     21        1          -0.001245482   -0.004543238   -0.003240781
     22        1           0.000719019    0.001724125    0.001979841
     23        1          -0.001959799   -0.000139390    0.001392452
     24        6           0.001229629   -0.009543254    0.004459422
     25        1          -0.000037253    0.002256662   -0.003128337
     26        6           0.015159159    0.012588395   -0.000322808
     27        1           0.001497957   -0.005066903    0.008966477
     28        1          -0.006200103    0.001139625   -0.002514585
 -------------------------------------------------------------------
 Cartesian Forces:  Max     0.016806474 RMS     0.005485394
 Leave Link  716 at Tue Jul 27 12:13:46 2021, MaxMem=   131072000 cpu:               0.0 elap:               0.0
 (Enter /opt/g16/l103.exe)

 GradGradGradGradGradGradGradGradGradGradGradGradGradGradGradGradGradGrad
 Berny optimization.
 FormGI is forming the generalized inverse of G from B-inverse, IUseBI=4.
 Internal  Forces:  Max     0.018299808 RMS     0.004489054
 Search for a local minimum.
 Step number   1 out of a maximum of  138
 All quantities printed in internal units (Hartrees-Bohrs-Radians)
 RMS Force = .44891D-02 SwitMx=.10000D-02 MixMth= 1
 Mixed Optimization -- RFO/linear search
 Second derivative matrix not updated -- first step.
 ITU=  0
     Eigenvalues ---    0.00258   0.00505   0.00684   0.00694   0.00702
     Eigenvalues ---    0.00721   0.00827   0.01197   0.01294   0.01577
     Eigenvalues ---    0.01642   0.02769   0.02818   0.03752   0.03916
     Eigenvalues ---    0.05307   0.05390   0.07020   0.07059   0.07098
     Eigenvalues ---    0.07137   0.07209   0.07269   0.07321   0.07501
     Eigenvalues ---    0.09474   0.09666   0.12943   0.13068   0.15999
     Eigenvalues ---    0.16000   0.16000   0.16000   0.16000   0.16000
     Eigenvalues ---    0.16000   0.16000   0.16000   0.16000   0.16000
     Eigenvalues ---    0.16000   0.16000   0.16000   0.21898   0.21946
     Eigenvalues ---    0.22000   0.22000   0.24993   0.24996   0.25000
     Eigenvalues ---    0.25000   0.28664   0.30396   0.31734   0.31813
     Eigenvalues ---    0.31872   0.32027   0.32867   0.33799   0.33852
     Eigenvalues ---    0.33946   0.34153   0.34167   0.34248   0.34250
     Eigenvalues ---    0.34299   0.34302   0.34306   0.34374   0.34404
     Eigenvalues ---    0.34416   0.34465   0.34490   0.34548   0.34552
     Eigenvalues ---    0.34848   0.55329   0.56119
 RFO step:  Lambda=-8.52253484D-03 EMin= 2.58461255D-03
 Linear search not attempted -- first point.
 Iteration  1 RMS(Cart)=  0.06469865 RMS(Int)=  0.00111829
 Iteration  2 RMS(Cart)=  0.00248874 RMS(Int)=  0.00006823
 Iteration  3 RMS(Cart)=  0.00000251 RMS(Int)=  0.00006823
 Iteration  4 RMS(Cart)=  0.00000000 RMS(Int)=  0.00006823
 ITry= 1 IFail=0 DXMaxC= 2.18D-01 DCOld= 1.00D+10 DXMaxT= 3.00D-01 DXLimC= 3.00D+00 Rises=F
 Variable       Old X    -DE/DX   Delta X   Delta X   Delta X     New X
                                 (Linear)    (Quad)   (Total)
    R1        2.07421   0.00659   0.00000   0.01894   0.01894   2.09314
    R2        2.07670   0.00641   0.00000   0.01849   0.01849   2.09519
    R3        2.87180  -0.01830   0.00000  -0.05856  -0.05856   2.81324
    R4        2.90709  -0.00898   0.00000  -0.03044  -0.03044   2.87665
    R5        2.84095  -0.01332   0.00000  -0.04051  -0.04051   2.80044
    R6        2.54841  -0.01721   0.00000  -0.03063  -0.03063   2.51778
    R7        2.07050   0.00177   0.00000   0.00506   0.00506   2.07555
    R8        2.06512   0.00465   0.00000   0.01317   0.01317   2.07828
    R9        2.06823   0.00196   0.00000   0.00558   0.00558   2.07381
   R10        2.05922   0.00540   0.00000   0.01512   0.01512   2.07434
   R11        2.82586  -0.01388   0.00000  -0.04116  -0.04116   2.78470
   R12        2.06553   0.00301   0.00000   0.00853   0.00853   2.07405
   R13        2.06816   0.00227   0.00000   0.00645   0.00645   2.07461
   R14        2.06913   0.00189   0.00000   0.00538   0.00538   2.07452
   R15        2.06704   0.00265   0.00000   0.00753   0.00753   2.07457
   R16        2.06829   0.00187   0.00000   0.00532   0.00532   2.07361
   R17        2.06910   0.00202   0.00000   0.00576   0.00576   2.07486
   R18        2.84487  -0.01221   0.00000  -0.03738  -0.03738   2.80749
   R19        2.84379  -0.01468   0.00000  -0.04487  -0.04487   2.79891
   R20        2.54151  -0.01406   0.00000  -0.02468  -0.02468   2.51683
   R21        2.06408   0.00500   0.00000   0.01412   0.01412   2.07821
   R22        2.07073   0.00215   0.00000   0.00614   0.00614   2.07687
   R23        2.06654   0.00240   0.00000   0.00681   0.00681   2.07335
   R24        2.06415   0.00381   0.00000   0.01075   0.01075   2.07490
   R25        2.84633  -0.01703   0.00000  -0.05228  -0.05228   2.79405
   R26        2.06633   0.00997   0.00000   0.02827   0.02827   2.09460
   R27        2.07581   0.00675   0.00000   0.01946   0.01946   2.09527
    A1        1.84205   0.00010   0.00000   0.01335   0.01328   1.85533
    A2        1.89668   0.00011   0.00000  -0.01072  -0.01084   1.88584
    A3        1.90241   0.00148   0.00000   0.00393   0.00363   1.90604
    A4        1.92081   0.00096   0.00000   0.00422   0.00434   1.92514
    A5        1.89121   0.00178   0.00000   0.01372   0.01371   1.90492
    A6        2.00377  -0.00410   0.00000  -0.02155  -0.02162   1.98214
    A7        2.03326  -0.00008   0.00000  -0.00026  -0.00043   2.03283
    A8        2.10304  -0.00039   0.00000  -0.00148  -0.00165   2.10139
    A9        2.14687   0.00047   0.00000   0.00188   0.00171   2.14858
   A10        1.94398   0.00024   0.00000   0.00050   0.00047   1.94445
   A11        1.95067  -0.00085   0.00000  -0.00148  -0.00149   1.94918
   A12        1.92707   0.00006   0.00000  -0.00232  -0.00234   1.92474
   A13        1.86010   0.00129   0.00000   0.01265   0.01264   1.87274
   A14        1.90688  -0.00148   0.00000  -0.01546  -0.01549   1.89139
   A15        1.87241   0.00076   0.00000   0.00637   0.00637   1.87878
   A16        2.07285   0.00355   0.00000   0.01553   0.01551   2.08836
   A17        2.21826  -0.00711   0.00000  -0.03110  -0.03111   2.18715
   A18        1.99205   0.00357   0.00000   0.01564   0.01562   2.00767
   A19        1.97997  -0.00113   0.00000  -0.00719  -0.00718   1.97280
   A20        1.91483   0.00087   0.00000   0.00548   0.00547   1.92030
   A21        1.91269   0.00082   0.00000   0.00502   0.00502   1.91771
   A22        1.88177   0.00003   0.00000  -0.00014  -0.00013   1.88164
   A23        1.88344   0.00001   0.00000  -0.00054  -0.00053   1.88291
   A24        1.88874  -0.00063   0.00000  -0.00271  -0.00273   1.88601
   A25        1.88324  -0.00015   0.00000  -0.00061  -0.00061   1.88263
   A26        1.87688   0.00010   0.00000   0.00300   0.00299   1.87987
   A27        1.96037   0.00023   0.00000   0.00275   0.00274   1.96311
   A28        1.89404  -0.00088   0.00000  -0.00797  -0.00797   1.88607
   A29        1.92667   0.00017   0.00000  -0.00024  -0.00024   1.92643
   A30        1.92064   0.00047   0.00000   0.00268   0.00267   1.92331
   A31        1.99802   0.00253   0.00000   0.00995   0.00980   2.00781
   A32        2.10949   0.00073   0.00000   0.00301   0.00286   2.11234
   A33        2.17548  -0.00324   0.00000  -0.01234  -0.01249   2.16298
   A34        1.96917  -0.00250   0.00000  -0.01451  -0.01455   1.95462
   A35        1.93235   0.00046   0.00000   0.00596   0.00598   1.93833
   A36        1.92410   0.00016   0.00000  -0.00260  -0.00266   1.92144
   A37        1.85270   0.00233   0.00000   0.02039   0.02042   1.87313
   A38        1.89323   0.00013   0.00000  -0.00504  -0.00515   1.88808
   A39        1.88925  -0.00046   0.00000  -0.00337  -0.00337   1.88588
   A40        2.06863   0.00446   0.00000   0.02046   0.02040   2.08903
   A41        2.22294  -0.00782   0.00000  -0.03417  -0.03423   2.18872
   A42        1.99153   0.00337   0.00000   0.01394   0.01389   2.00542
   A43        1.97383  -0.00317   0.00000  -0.01788  -0.01793   1.95590
   A44        1.91936   0.00174   0.00000   0.01069   0.01058   1.92994
   A45        1.89224   0.00091   0.00000   0.00449   0.00435   1.89659
   A46        1.95103   0.00004   0.00000  -0.00590  -0.00586   1.94518
   A47        1.88450   0.00033   0.00000  -0.00462  -0.00463   1.87986
   A48        1.83644   0.00041   0.00000   0.01569   0.01560   1.85204
    D1       -0.98427   0.00130   0.00000   0.05943   0.05929  -0.92497
    D2        2.16189   0.00061   0.00000   0.02590   0.02580   2.18769
    D3       -2.99341   0.00059   0.00000   0.04718   0.04719  -2.94622
    D4        0.15275  -0.00010   0.00000   0.01365   0.01370   0.16645
    D5        1.15079   0.00047   0.00000   0.04146   0.04152   1.19232
    D6       -1.98624  -0.00022   0.00000   0.00793   0.00803  -1.97820
    D7        3.06587  -0.00058   0.00000   0.03416   0.03411   3.09998
    D8        0.87115   0.00038   0.00000   0.04704   0.04707   0.91821
    D9       -1.12805  -0.00153   0.00000   0.02021   0.02014  -1.10791
   D10       -1.22094   0.00125   0.00000   0.05919   0.05924  -1.16170
   D11        2.86752   0.00222   0.00000   0.07208   0.07220   2.93972
   D12        0.86833   0.00030   0.00000   0.04525   0.04527   0.91359
   D13        0.93391   0.00101   0.00000   0.06017   0.06012   0.99403
   D14       -1.26081   0.00197   0.00000   0.07305   0.07308  -1.18773
   D15        3.02318   0.00006   0.00000   0.04622   0.04615   3.06933
   D16       -2.36689  -0.00119   0.00000  -0.02087  -0.02088  -2.38776
   D17       -0.28834   0.00004   0.00000  -0.00548  -0.00549  -0.29383
   D18        1.79442   0.00049   0.00000   0.00001  -0.00002   1.79441
   D19        0.77002  -0.00048   0.00000   0.01357   0.01360   0.78361
   D20        2.84857   0.00075   0.00000   0.02896   0.02898   2.87755
   D21       -1.35186   0.00119   0.00000   0.03445   0.03446  -1.31740
   D22       -0.00429   0.00064   0.00000   0.02375   0.02375   0.01946
   D23        3.12885   0.00090   0.00000   0.03433   0.03433  -3.12000
   D24       -3.14101  -0.00009   0.00000  -0.01203  -0.01203   3.13014
   D25       -0.00787   0.00017   0.00000  -0.00145  -0.00145  -0.00932
   D26       -0.00542  -0.00015   0.00000  -0.00539  -0.00539  -0.01080
   D27        2.10016  -0.00024   0.00000  -0.00649  -0.00649   2.09366
   D28       -2.11160   0.00001   0.00000  -0.00347  -0.00346  -2.11506
   D29        3.12806   0.00010   0.00000   0.00478   0.00478   3.13284
   D30       -1.04955   0.00001   0.00000   0.00368   0.00367  -1.04588
   D31        1.02187   0.00026   0.00000   0.00670   0.00671   1.02858
   D32       -3.11993   0.00056   0.00000   0.02205   0.02217  -3.09776
   D33        0.04262  -0.00007   0.00000  -0.00865  -0.00876   0.03386
   D34       -1.01732   0.00063   0.00000   0.02295   0.02307  -0.99425
   D35        2.14523   0.00001   0.00000  -0.00774  -0.00786   2.13737
   D36        1.07286  -0.00005   0.00000   0.01462   0.01473   1.08759
   D37       -2.04778  -0.00067   0.00000  -0.01607  -0.01619  -2.06397
   D38       -2.64363  -0.00147   0.00000  -0.03540  -0.03530  -2.67894
   D39       -0.57007   0.00014   0.00000  -0.01499  -0.01495  -0.58502
   D40        1.51999  -0.00003   0.00000  -0.01706  -0.01706   1.50293
   D41        0.47610  -0.00076   0.00000  -0.00315  -0.00314   0.47295
   D42        2.54966   0.00085   0.00000   0.01726   0.01721   2.56687
   D43       -1.64347   0.00068   0.00000   0.01520   0.01511  -1.62836
   D44       -0.01134   0.00037   0.00000   0.01315   0.01303   0.00169
   D45        3.11550   0.00086   0.00000   0.03365   0.03359  -3.13409
   D46       -3.12975  -0.00040   0.00000  -0.02111  -0.02104   3.13240
   D47       -0.00291   0.00009   0.00000  -0.00061  -0.00048  -0.00339
   D48       -2.00822  -0.00088   0.00000  -0.04225  -0.04224  -2.05046
   D49        0.16941  -0.00099   0.00000  -0.04662  -0.04654   0.12287
   D50        2.18126  -0.00028   0.00000  -0.03364  -0.03367   2.14759
   D51        1.11917  -0.00040   0.00000  -0.02245  -0.02248   1.09669
   D52       -2.98638  -0.00051   0.00000  -0.02682  -0.02678  -3.01316
   D53       -0.97453   0.00021   0.00000  -0.01384  -0.01391  -0.98844
         Item               Value     Threshold  Converged?
 Maximum Force            0.018300     0.000450     NO 
 RMS     Force            0.004489     0.000300     NO 
 Maximum Displacement     0.217783     0.001800     NO 
 RMS     Displacement     0.064326     0.001200     NO 
 Predicted change in Energy=-4.584219D-03
 Lowest energy point so far.  Saving SCF results.
 GradGradGradGradGradGradGradGradGradGradGradGradGradGradGradGradGradGrad

 Leave Link  103 at Tue Jul 27 12:13:46 2021, MaxMem=   131072000 cpu:               0.0 elap:               0.0
 (Enter /opt/g16/l202.exe)
                          Input orientation:                          
 ---------------------------------------------------------------------
 Center     Atomic      Atomic             Coordinates (Angstroms)
 Number     Number       Type             X           Y           Z
 ---------------------------------------------------------------------
      1          6           0        2.182514    1.227700   -8.940693
      2          1           0        1.875372    0.189475   -9.174421
      3          1           0        2.024760    1.815101   -9.867702
      4          6           0        3.626533    1.211225   -8.579066
      5          6           0        4.030538    0.260939   -7.516123
      6          1           0        4.730883    0.724890   -6.808587
      7          1           0        3.165254   -0.091706   -6.936086
      8          1           0        4.516364   -0.618795   -7.956981
      9          6           0        4.491035    1.996930   -9.219737
     10          1           0        4.130952    2.672860  -10.006117
     11          6           0        5.942218    2.049120   -8.969042
     12          1           0        6.265032    1.367563   -8.171630
     13          1           0        6.491192    1.782254   -9.881543
     14          1           0        6.234898    3.067285   -8.681268
     15          6           0        2.463152    4.913489   -5.927405
     16          1           0        2.303968    5.579763   -6.785273
     17          1           0        1.861687    5.291746   -5.091197
     18          1           0        3.521624    4.981501   -5.643597
     19          6           0        2.102285    3.504065   -6.228211
     20          6           0        2.240135    2.565275   -5.090937
     21          1           0        2.424541    1.534722   -5.427656
     22          1           0        3.078899    2.852323   -4.441362
     23          1           0        1.324816    2.569119   -4.485995
     24          6           0        1.678043    3.147508   -7.439288
     25          1           0        1.593927    3.903971   -8.230662
     26          6           0        1.285978    1.779734   -7.841261
     27          1           0        1.266446    1.091808   -6.972376
     28          1           0        0.245356    1.825137   -8.221282
 ---------------------------------------------------------------------
                    Distance matrix (angstroms):
                    1          2          3          4          5
     1  C    0.000000
     2  H    1.107644   0.000000
     3  H    1.108726   1.773588   0.000000
     4  C    1.488703   2.113052   2.142645   0.000000
     5  C    2.525711   2.720257   3.459550   1.481928   0.000000
     6  H    3.360488   3.746703   4.227274   2.142593   1.098336
     7  H    2.593272   2.598654   3.678453   2.147043   1.099781
     8  H    3.134340   3.018327   3.972757   2.127854   1.097413
     9  C    2.449255   3.179723   2.556449   1.332350   2.475485
    10  H    2.649533   3.456380   2.278366   2.104113   3.468071
    11  C    3.848494   4.476572   4.026019   2.493300   2.993841
    12  H    4.156678   4.654309   4.588775   2.674345   2.578230
    13  H    4.444933   4.933838   4.466574   3.198248   3.736901
    14  H    4.457936   5.246947   4.549819   3.202963   3.753978
    15  C    4.769036   5.762370   5.031713   4.700161   5.160131
    16  H    4.858091   5.911593   4.873603   4.904181   5.639599
    17  H    5.606962   6.534989   5.910047   5.650713   5.991094
    18  H    5.172531   6.175789   5.487235   4.779430   5.103827
    19  C    3.542010   4.440513   4.013041   3.620354   3.986821
    20  C    4.075911   4.738388   4.840107   3.990312   3.794342
    21  H    3.534723   4.018647   4.466816   3.388335   2.926335
    22  H    4.866918   5.562472   5.624252   4.484829   4.132196
    23  H    4.730686   5.286508   5.479164   4.888252   4.672291
    24  C    2.488849   3.435052   2.791543   2.974036   3.724569
    25  H    2.830726   3.842835   2.688660   3.391718   4.440645
    26  C    1.522258   2.157226   2.157201   2.519078   3.153578
    27  H    2.175298   2.456420   3.079141   2.857573   2.937041
    28  H    2.151061   2.498163   2.424268   3.455033   4.155907
                    6          7          8          9         10
     6  H    0.000000
     7  H    1.770390   0.000000
     8  H    1.780539   1.773569   0.000000
     9  C    2.736651   3.366773   2.904689   0.000000
    10  H    3.791926   4.242699   3.896472   1.097695   0.000000
    11  C    2.808644   4.053095   3.189843   1.473602   2.178362
    12  H    2.150471   3.642067   2.655095   2.154460   3.102167
    13  H    3.695912   4.821753   3.656353   2.117711   2.525753
    14  H    3.354968   4.737890   4.130998   2.115813   2.517416
    15  C    4.843908   5.153869   6.240275   4.843354   4.943467
    16  H    5.427730   5.738478   6.685037   4.852481   4.707631
    17  H    5.660202   5.838190   7.084810   5.900350   6.013698
    18  H    4.575832   5.247376   6.140404   4.757751   4.973196
    19  C    3.869131   3.815830   5.080787   4.114220   4.367947
    20  C    3.541350   3.364516   4.851158   4.736724   5.267424
    21  H    2.807491   2.338650   3.925664   4.343260   5.016921
    22  H    3.585913   3.859846   5.145342   5.055561   5.666174
    23  H    4.516293   4.058344   5.691794   5.723693   6.193296
    24  C    3.947998   3.599655   4.744376   3.522322   3.581991
    25  H    4.687147   4.484466   5.391749   3.606704   3.332322
    26  C    3.747863   2.802375   4.025136   3.495677   3.684855
    27  H    3.487661   2.237743   3.802312   4.033343   4.461917
    28  H    4.829720   3.721803   4.927897   4.364884   4.359143
                   11         12         13         14         15
    11  C    0.000000
    12  H    1.097541   0.000000
    13  H    1.097838   1.773956   0.000000
    14  H    1.097787   1.774738   1.776978   0.000000
    15  C    5.436917   5.662546   6.454839   5.021782   0.000000
    16  H    5.520068   5.945977   6.445216   5.035827   1.097815
    17  H    6.496387   6.654151   7.529692   6.079623   1.097307
    18  H    5.051407   5.194014   6.083888   4.500391   1.097969
    19  C    4.937013   5.066554   5.964391   4.825635   1.485660
    20  C    5.386235   5.208164   6.452481   5.394499   2.502704
    21  H    5.017974   4.722997   6.036226   5.239614   3.415745
    22  H    5.416975   5.125510   6.510327   5.289928   2.614551
    23  H    6.456664   6.279600   7.511494   6.477453   2.978178
    24  C    4.661522   4.974433   5.567308   4.723756   2.453748
    25  H    4.784696   5.315644   5.586617   4.737267   2.660765
    26  C    4.798440   5.006995   5.590796   5.182201   3.856035
    27  H    5.173583   5.147826   6.019795   5.613229   4.138758
    28  H    5.750091   6.037245   6.462876   6.134259   4.440542
                   16         17         18         19         20
    16  H    0.000000
    17  H    1.774390   0.000000
    18  H    1.773140   1.776736   0.000000
    19  C    2.158592   2.132251   2.130519   0.000000
    20  C    3.458611   2.752611   2.790303   1.481122   0.000000
    21  H    4.268492   3.813823   3.623604   2.150128   1.099739
    22  H    3.678773   2.802620   2.484909   2.138077   1.099031
    23  H    3.912723   2.840281   3.462022   2.124594   1.097169
    24  C    2.595262   3.185124   3.160194   1.331849   2.483887
    25  H    2.324131   3.442943   3.401468   2.104320   3.473841
    26  C    4.073283   4.497613   4.480976   2.498320   3.015256
    27  H    4.610120   4.640326   4.688410   2.659209   2.580502
    28  H    4.516329   4.942402   5.228864   3.199893   3.784972
                   21         22         23         24         25
    21  H    0.000000
    22  H    1.771167   0.000000
    23  H    1.779354   1.777359   0.000000
    24  C    2.684213   3.322212   3.030057   0.000000
    25  H    3.762992   4.203559   3.984569   1.097992   0.000000
    26  C    2.679896   3.990529   3.447093   1.478547   2.181480
    27  H    1.980787   3.576372   2.892741   2.147864   3.098192
    28  H    3.554931   4.834447   3.958676   2.100660   2.477960
                   26         27         28
    26  C    0.000000
    27  H    1.108415   0.000000
[...]
    25  H    5.153241   5.617092   5.951172   5.229512   2.675748
    26  C    4.817753   4.935466   5.608169   5.280046   3.866783
    27  H    4.870887   4.735049   5.721274   5.374719   4.133843
    28  H    5.832669   5.966896   6.550733   6.335576   4.389066
                   16         17         18         19         20
    16  H    0.000000
    17  H    1.772402   0.000000
    18  H    1.772055   1.772211   0.000000
    19  C    2.163709   2.138448   2.138069   0.000000
    20  C    3.468551   2.766152   2.802072   1.486070   0.000000
    21  H    4.305021   3.811568   3.758416   2.156119   1.103062
    22  H    3.758241   3.012893   2.565505   2.140274   1.097980
    23  H    3.833755   2.677056   3.293344   2.136463   1.098154
    24  C    2.608709   3.200663   3.174420   1.339851   2.492172
    25  H    2.344992   3.465702   3.415401   2.113620   3.484273
    26  C    4.094364   4.509166   4.497988   2.502371   3.006318
    27  H    4.619602   4.690563   4.630144   2.650974   2.552827
    28  H    4.541281   4.845083   5.189431   3.107016   3.587949
                   21         22         23         24         25
    21  H    0.000000
    22  H    1.777421   0.000000
    23  H    1.777885   1.773520   0.000000
    24  C    2.648004   3.260725   3.154323   0.000000
    25  H    3.739878   4.160692   4.085734   1.098301   0.000000
    26  C    2.570304   3.856423   3.648338   1.486137   2.196487
    27  H    1.771879   3.345879   3.202830   2.154724   3.110873
    28  H    3.173855   4.579219   3.950410   2.110714   2.612211
                   26         27         28
    26  C    0.000000
    27  H    1.119412   0.000000
    28  H    1.107852   1.781094   0.000000
 Stoichiometry    C10H18
 Framework group  C1[X(C10H18)]
 Deg. of freedom    78
 Full point group                 C1      NOp   1
 RotChk:  IX=0 Diff= 1.48D-15
 Largest Abelian subgroup         C1      NOp   1
 Largest concise Abelian subgroup C1      NOp   1
                         Standard orientation:                         
 ---------------------------------------------------------------------
 Center     Atomic      Atomic             Coordinates (Angstroms)
 Number     Number       Type             X           Y           Z
 ---------------------------------------------------------------------
      1          6           0        0.897520   -1.312216   -0.968614
      2          1           0        1.412829   -2.293967   -0.977090
      3          1           0        0.878499   -0.972865   -2.024000
      4          6           0        1.697886   -0.374920   -0.117641
      5          6           0        1.876343   -0.791586    1.297905
      6          1           0        2.283755    0.022335    1.918644
      7          1           0        0.906909   -1.103267    1.723693
      8          1           0        2.563700   -1.644733    1.367961
      9          6           0        2.211193    0.754156   -0.624003
     10          1           0        2.042174    1.008099   -1.678413
     11          6           0        3.016228    1.725994    0.146874
     12          1           0        3.049421    1.481147    1.221683
     13          1           0        4.049988    1.749832   -0.222643
     14          1           0        2.603029    2.738119    0.047188
     15          6           0       -3.117576    1.379451   -0.456949
     16          1           0       -3.029078    1.560427   -1.536331
     17          1           0       -4.171428    1.154871   -0.243285
     18          1           0       -2.868179    2.317470    0.057776
     19          6           0       -2.239804    0.274287    0.014323
     20          6           0       -2.357217   -0.054845    1.458722
     21          1           0       -1.573527   -0.758928    1.785592
     22          1           0       -2.272214    0.849473    2.075604
     23          1           0       -3.331000   -0.515117    1.672818
     24          6           0       -1.414218   -0.361897   -0.827627
     25          1           0       -1.370521   -0.060701   -1.882917
     26          6           0       -0.523613   -1.488162   -0.444287
     27          1           0       -0.493992   -1.610516    0.668023
     28          1           0       -0.960825   -2.423254   -0.846512
 ---------------------------------------------------------------------
 Rotational constants (GHZ):           1.8144881           0.6780717           0.6298077
 Leave Link  202 at Tue Jul 27 12:14:33 2021, MaxMem=   131072000 cpu:               0.0 elap:               0.0
 (Enter /opt/g16/l601.exe)
 Copying SCF densities to generalized density rwf, IOpCl= 0 IROHF=0.

 **********************************************************************

            Population analysis using the SCF density.

 **********************************************************************

 Orbital symmetries:
       Occupied  (A) (A) (A) (A) (A) (A) (A) (A) (A) (A) (A) (A)
                 (A) (A) (A) (A) (A) (A) (A) (A) (A) (A) (A) (A)
                 (A) (A) (A) (A) (A)
       Virtual   (A) (A) (A) (A) (A) (A) (A) (A) (A) (A) (A) (A)
                 (A) (A) (A) (A) (A) (A) (A) (A) (A) (A) (A) (A)
                 (A) (A) (A) (A) (A)
 The electronic state is 1-A.
 Alpha  occ. eigenvalues --   -1.47633  -1.35658  -1.19647  -1.06538  -1.01662
 Alpha  occ. eigenvalues --   -0.96577  -0.88345  -0.77245  -0.66513  -0.65097
 Alpha  occ. eigenvalues --   -0.62185  -0.58700  -0.57770  -0.56403  -0.55190
 Alpha  occ. eigenvalues --   -0.54161  -0.51516  -0.49658  -0.49009  -0.48240
 Alpha  occ. eigenvalues --   -0.47891  -0.47546  -0.46854  -0.46280  -0.44980
 Alpha  occ. eigenvalues --   -0.43544  -0.42431  -0.34832  -0.34139
 Alpha virt. eigenvalues --    0.03898   0.04305   0.12265   0.12679   0.13213
 Alpha virt. eigenvalues --    0.13681   0.13849   0.14292   0.14735   0.15305
 Alpha virt. eigenvalues --    0.15526   0.15789   0.15974   0.16205   0.16457
 Alpha virt. eigenvalues --    0.16496   0.16545   0.16666   0.16777   0.16979
 Alpha virt. eigenvalues --    0.17134   0.17291   0.17875   0.17937   0.18125
 Alpha virt. eigenvalues --    0.21117   0.21545   0.22491   0.22705
          Condensed to atoms (all electrons):
               1          2          3          4          5          6
     1  C    4.050101   0.000000   0.000000   0.000000   0.000000   0.000000
     2  H    0.000000   0.949150   0.000000   0.000000   0.000000   0.000000
     3  H    0.000000   0.000000   0.945493   0.000000   0.000000   0.000000
     4  C    0.000000   0.000000   0.000000   4.126003   0.000000   0.000000
     5  C    0.000000   0.000000   0.000000   0.000000   4.083834   0.000000
     6  H    0.000000   0.000000   0.000000   0.000000   0.000000   0.948281
     7  H    0.000000   0.000000   0.000000   0.000000   0.000000   0.000000
     8  H    0.000000   0.000000   0.000000   0.000000   0.000000   0.000000
     9  C    0.000000   0.000000   0.000000   0.000000   0.000000   0.000000
    10  H    0.000000   0.000000   0.000000   0.000000   0.000000   0.000000
    11  C    0.000000   0.000000   0.000000   0.000000   0.000000   0.000000
    12  H    0.000000   0.000000   0.000000   0.000000   0.000000   0.000000
    13  H    0.000000   0.000000   0.000000   0.000000   0.000000   0.000000
    14  H    0.000000   0.000000   0.000000   0.000000   0.000000   0.000000
    15  C    0.000000   0.000000   0.000000   0.000000   0.000000   0.000000
    16  H    0.000000   0.000000   0.000000   0.000000   0.000000   0.000000
    17  H    0.000000   0.000000   0.000000   0.000000   0.000000   0.000000
    18  H    0.000000   0.000000   0.000000   0.000000   0.000000   0.000000
    19  C    0.000000   0.000000   0.000000   0.000000   0.000000   0.000000
    20  C    0.000000   0.000000   0.000000   0.000000   0.000000   0.000000
    21  H    0.000000   0.000000   0.000000   0.000000   0.000000   0.000000
    22  H    0.000000   0.000000   0.000000   0.000000   0.000000   0.000000
    23  H    0.000000   0.000000   0.000000   0.000000   0.000000   0.000000
    24  C    0.000000   0.000000   0.000000   0.000000   0.000000   0.000000
    25  H    0.000000   0.000000   0.000000   0.000000   0.000000   0.000000
    26  C    0.000000   0.000000   0.000000   0.000000   0.000000   0.000000
    27  H    0.000000   0.000000   0.000000   0.000000   0.000000   0.000000
    28  H    0.000000   0.000000   0.000000   0.000000   0.000000   0.000000
               7          8          9         10         11         12
     1  C    0.000000   0.000000   0.000000   0.000000   0.000000   0.000000
     2  H    0.000000   0.000000   0.000000   0.000000   0.000000   0.000000
     3  H    0.000000   0.000000   0.000000   0.000000   0.000000   0.000000
     4  C    0.000000   0.000000   0.000000   0.000000   0.000000   0.000000
     5  C    0.000000   0.000000   0.000000   0.000000   0.000000   0.000000
     6  H    0.000000   0.000000   0.000000   0.000000   0.000000   0.000000
     7  H    0.948316   0.000000   0.000000   0.000000   0.000000   0.000000
     8  H    0.000000   0.953837   0.000000   0.000000   0.000000   0.000000
     9  C    0.000000   0.000000   4.149737   0.000000   0.000000   0.000000
    10  H    0.000000   0.000000   0.000000   0.901573   0.000000   0.000000
    11  C    0.000000   0.000000   0.000000   0.000000   4.078716   0.000000
    12  H    0.000000   0.000000   0.000000   0.000000   0.000000   0.952723
    13  H    0.000000   0.000000   0.000000   0.000000   0.000000   0.000000
    14  H    0.000000   0.000000   0.000000   0.000000   0.000000   0.000000
    15  C    0.000000   0.000000   0.000000   0.000000   0.000000   0.000000
    16  H    0.000000   0.000000   0.000000   0.000000   0.000000   0.000000
    17  H    0.000000   0.000000   0.000000   0.000000   0.000000   0.000000
    18  H    0.000000   0.000000   0.000000   0.000000   0.000000   0.000000
    19  C    0.000000   0.000000   0.000000   0.000000   0.000000   0.000000
    20  C    0.000000   0.000000   0.000000   0.000000   0.000000   0.000000
    21  H    0.000000   0.000000   0.000000   0.000000   0.000000   0.000000
    22  H    0.000000   0.000000   0.000000   0.000000   0.000000   0.000000
    23  H    0.000000   0.000000   0.000000   0.000000   0.000000   0.000000
    24  C    0.000000   0.000000   0.000000   0.000000   0.000000   0.000000
    25  H    0.000000   0.000000   0.000000   0.000000   0.000000   0.000000
    26  C    0.000000   0.000000   0.000000   0.000000   0.000000   0.000000
    27  H    0.000000   0.000000   0.000000   0.000000   0.000000   0.000000
    28  H    0.000000   0.000000   0.000000   0.000000   0.000000   0.000000
              13         14         15         16         17         18
     1  C    0.000000   0.000000   0.000000   0.000000   0.000000   0.000000
     2  H    0.000000   0.000000   0.000000   0.000000   0.000000   0.000000
     3  H    0.000000   0.000000   0.000000   0.000000   0.000000   0.000000
     4  C    0.000000   0.000000   0.000000   0.000000   0.000000   0.000000
     5  C    0.000000   0.000000   0.000000   0.000000   0.000000   0.000000
     6  H    0.000000   0.000000   0.000000   0.000000   0.000000   0.000000
     7  H    0.000000   0.000000   0.000000   0.000000   0.000000   0.000000
     8  H    0.000000   0.000000   0.000000   0.000000   0.000000   0.000000
     9  C    0.000000   0.000000   0.000000   0.000000   0.000000   0.000000
    10  H    0.000000   0.000000   0.000000   0.000000   0.000000   0.000000
    11  C    0.000000   0.000000   0.000000   0.000000   0.000000   0.000000
    12  H    0.000000   0.000000   0.000000   0.000000   0.000000   0.000000
    13  H    0.955719   0.000000   0.000000   0.000000   0.000000   0.000000
    14  H    0.000000   0.956292   0.000000   0.000000   0.000000   0.000000
    15  C    0.000000   0.000000   4.067705   0.000000   0.000000   0.000000
    16  H    0.000000   0.000000   0.000000   0.958747   0.000000   0.000000
    17  H    0.000000   0.000000   0.000000   0.000000   0.957530   0.000000
    18  H    0.000000   0.000000   0.000000   0.000000   0.000000   0.955846
    19  C    0.000000   0.000000   0.000000   0.000000   0.000000   0.000000
    20  C    0.000000   0.000000   0.000000   0.000000   0.000000   0.000000
    21  H    0.000000   0.000000   0.000000   0.000000   0.000000   0.000000
    22  H    0.000000   0.000000   0.000000   0.000000   0.000000   0.000000
    23  H    0.000000   0.000000   0.000000   0.000000   0.000000   0.000000
    24  C    0.000000   0.000000   0.000000   0.000000   0.000000   0.000000
    25  H    0.000000   0.000000   0.000000   0.000000   0.000000   0.000000
    26  C    0.000000   0.000000   0.000000   0.000000   0.000000   0.000000
    27  H    0.000000   0.000000   0.000000   0.000000   0.000000   0.000000
    28  H    0.000000   0.000000   0.000000   0.000000   0.000000   0.000000
              19         20         21         22         23         24
     1  C    0.000000   0.000000   0.000000   0.000000   0.000000   0.000000
     2  H    0.000000   0.000000   0.000000   0.000000   0.000000   0.000000
     3  H    0.000000   0.000000   0.000000   0.000000   0.000000   0.000000
     4  C    0.000000   0.000000   0.000000   0.000000   0.000000   0.000000
     5  C    0.000000   0.000000   0.000000   0.000000   0.000000   0.000000
     6  H    0.000000   0.000000   0.000000   0.000000   0.000000   0.000000
     7  H    0.000000   0.000000   0.000000   0.000000   0.000000   0.000000
     8  H    0.000000   0.000000   0.000000   0.000000   0.000000   0.000000
     9  C    0.000000   0.000000   0.000000   0.000000   0.000000   0.000000
    10  H    0.000000   0.000000   0.000000   0.000000   0.000000   0.000000
    11  C    0.000000   0.000000   0.000000   0.000000   0.000000   0.000000
    12  H    0.000000   0.000000   0.000000   0.000000   0.000000   0.000000
    13  H    0.000000   0.000000   0.000000   0.000000   0.000000   0.000000
    14  H    0.000000   0.000000   0.000000   0.000000   0.000000   0.000000
    15  C    0.000000   0.000000   0.000000   0.000000   0.000000   0.000000
    16  H    0.000000   0.000000   0.000000   0.000000   0.000000   0.000000
    17  H    0.000000   0.000000   0.000000   0.000000   0.000000   0.000000
    18  H    0.000000   0.000000   0.000000   0.000000   0.000000   0.000000
    19  C    4.125098   0.000000   0.000000   0.000000   0.000000   0.000000
    20  C    0.000000   4.075478   0.000000   0.000000   0.000000   0.000000
    21  H    0.000000   0.000000   0.951184   0.000000   0.000000   0.000000
    22  H    0.000000   0.000000   0.000000   0.954542   0.000000   0.000000
    23  H    0.000000   0.000000   0.000000   0.000000   0.954659   0.000000
    24  C    0.000000   0.000000   0.000000   0.000000   0.000000   4.150355
    25  H    0.000000   0.000000   0.000000   0.000000   0.000000   0.000000
    26  C    0.000000   0.000000   0.000000   0.000000   0.000000   0.000000
    27  H    0.000000   0.000000   0.000000   0.000000   0.000000   0.000000
    28  H    0.000000   0.000000   0.000000   0.000000   0.000000   0.000000
              25         26         27         28
     1  C    0.000000   0.000000   0.000000   0.000000
     2  H    0.000000   0.000000   0.000000   0.000000
     3  H    0.000000   0.000000   0.000000   0.000000
     4  C    0.000000   0.000000   0.000000   0.000000
     5  C    0.000000   0.000000   0.000000   0.000000
     6  H    0.000000   0.000000   0.000000   0.000000
     7  H    0.000000   0.000000   0.000000   0.000000
     8  H    0.000000   0.000000   0.000000   0.000000
     9  C    0.000000   0.000000   0.000000   0.000000
    10  H    0.000000   0.000000   0.000000   0.000000
    11  C    0.000000   0.000000   0.000000   0.000000
    12  H    0.000000   0.000000   0.000000   0.000000
    13  H    0.000000   0.000000   0.000000   0.000000
    14  H    0.000000   0.000000   0.000000   0.000000
    15  C    0.000000   0.000000   0.000000   0.000000
    16  H    0.000000   0.000000   0.000000   0.000000
    17  H    0.000000   0.000000   0.000000   0.000000
    18  H    0.000000   0.000000   0.000000   0.000000
    19  C    0.000000   0.000000   0.000000   0.000000
    20  C    0.000000   0.000000   0.000000   0.000000
    21  H    0.000000   0.000000   0.000000   0.000000
    22  H    0.000000   0.000000   0.000000   0.000000
    23  H    0.000000   0.000000   0.000000   0.000000
    24  C    0.000000   0.000000   0.000000   0.000000
    25  H    0.898911   0.000000   0.000000   0.000000
    26  C    0.000000   4.075003   0.000000   0.000000
    27  H    0.000000   0.000000   0.930366   0.000000
    28  H    0.000000   0.000000   0.000000   0.944803
 Mulliken charges:
               1
     1  C   -0.050101
     2  H    0.050850
     3  H    0.054507
     4  C   -0.126003
     5  C   -0.083834
     6  H    0.051719
     7  H    0.051684
     8  H    0.046163
     9  C   -0.149737
    10  H    0.098427
    11  C   -0.078716
    12  H    0.047277
    13  H    0.044281
    14  H    0.043708
    15  C   -0.067705
    16  H    0.041253
    17  H    0.042470
    18  H    0.044154
    19  C   -0.125098
    20  C   -0.075478
    21  H    0.048816
    22  H    0.045458
    23  H    0.045341
    24  C   -0.150355
    25  H    0.101089
    26  C   -0.075003
    27  H    0.069634
    28  H    0.055197
 Sum of Mulliken charges =   0.00000
 Mulliken charges with hydrogens summed into heavy atoms:
               1
     1  C    0.055257
     4  C   -0.126003
     5  C    0.065733
     9  C   -0.051310
    11  C    0.056551
    15  C    0.060173
    19  C   -0.125098
    20  C    0.064137
    24  C   -0.049266
    26  C    0.049828
 Charge=              0.0000 electrons
 Dipole moment (field-independent basis, Debye):
    X=             -0.0784    Y=             -0.0517    Z=              0.3662  Tot=              0.3781
 N-N= 3.125620733727D+02 E-N=-5.073420368692D+02  KE=-7.911217224095D+01
 Leave Link  601 at Tue Jul 27 12:14:33 2021, MaxMem=   131072000 cpu:               0.0 elap:               0.0
 (Enter /opt/g16/l9999.exe)
 1\1\GINC-TOTEM\FOpt\RPM3\ZDO\C10H18\JRAMOS\27-Jul-2021\0\\#p opt pm3\\
 Conformer number 028. Energy MM = 26.187 kcal/mol\\0,1\C,2.2893767595,
 1.3839487857,-8.9813488482\H,1.8854259371,0.4439368916,-9.4087272511\H
 ,2.1424694054,2.157381439,-9.7621044906\C,3.7454263487,1.1771444011,-8
 .6977727409\C,4.0609452379,0.0856407125,-7.7394951374\H,5.1120944841,0
 .1169212602,-7.4110490846\H,3.4145055723,0.16818207,-6.8486826152\H,3.
 8799489406,-0.8962807227,-8.1958912068\C,4.6805710326,1.9355796927,-9.
 2851231065\H,4.3835125467,2.7289382129,-9.9831001943\C,6.135425413,1.7
 902796145,-9.0635638307\H,6.3657643683,1.0644007041,-8.265874126\H,6.6
 330895477,1.4482560375,-9.9806907413\H,6.582906751,2.7517569925,-8.780
 0334345\C,2.0283012094,5.0854608581,-5.8415208366\H,1.8225595762,5.705
 7934681,-6.7238520269\H,1.3181042589,5.3788349535,-5.0565095918\H,3.03
 68430696,5.338313499,-5.4866563951\C,1.9233198182,3.6287523072,-6.1260
 352369\C,2.1366440856,2.7384993882,-4.955417825\H,2.2125696841,1.67888
 81938,-5.252413056\H,3.0601338938,3.0034145282,-4.4238664724\H,1.30445
 52171,2.8279367833,-4.2444997583\C,1.6522504729,3.1814735185,-7.359592
 6256\H,1.5151344943,3.8956857915,-8.1826149868\C,1.5080427283,1.747768
 0577,-7.7233157748\H,1.8379396157,1.0888786733,-6.8806321803\H,0.43063
 9531,1.5392138878,-7.8751164253\\Version=ES64L-G16RevA.03\State=1-A\HF
 =-0.0274831\RMSD=5.393e-09\RMSF=2.444e-06\Dipole=0.0189099,-0.070158,0
 .1297904\PG=C01 [X(C10H18)]\\@


 ONLY THE DAY DAWNS TO WHICH YOU ARE AWAKE.

                                 -- THOREAU
 Job cpu time:       0 days  0 hours  0 minutes 47.4 seconds.
 Elapsed time:       0 days  0 hours  0 minutes 41.3 seconds.
 File lengths (MBytes):  RWF=      6 Int=      0 D2E=      0 Chk=      2 Scr=      1
 Normal termination of Gaussian 16 at Tue Jul 27 12:14:34 2021.
