 Entering Gaussian System, Link 0=/opt/gaussian/g16_legacy/g16
 Input=IsoP_rdkit_03_238_gaussian.com
 Output=IsoP_rdkit_03_238_gaussian.log
 Initial command:
 /opt/gaussian/g16_legacy/l1.exe "/scratch-local/jramos/2643485/Gau-30791.inp" -scrdir="/scratch-local/jramos/2643485/"
 Entering Link 1 = /opt/gaussian/g16_legacy/l1.exe PID=     30792.
  
 Copyright (c) 1988,1990,1992,1993,1995,1998,2003,2009,2016,
            Gaussian, Inc.  All Rights Reserved.
  
 This is part of the Gaussian(R) 16 program.  It is based on
 the Gaussian(R) 09 system (copyright 2009, Gaussian, Inc.),
 the Gaussian(R) 03 system (copyright 2003, Gaussian, Inc.),
 the Gaussian(R) 98 system (copyright 1998, Gaussian, Inc.),
 the Gaussian(R) 94 system (copyright 1995, Gaussian, Inc.),
 the Gaussian 92(TM) system (copyright 1992, Gaussian, Inc.),
 the Gaussian 90(TM) system (copyright 1990, Gaussian, Inc.),
 the Gaussian 88(TM) system (copyright 1988, Gaussian, Inc.),
 the Gaussian 86(TM) system (copyright 1986, Carnegie Mellon
 University), and the Gaussian 82(TM) system (copyright 1983,
 Carnegie Mellon University). Gaussian is a federally registered
 trademark of Gaussian, Inc.
  
 This software contains proprietary and confidential information,
 including trade secrets, belonging to Gaussian, Inc.
  
 This software is provided under written license and may be
 used, copied, transmitted, or stored only in accord with that
 written license.
  
 The following legend is applicable only to US Government
 contracts under FAR:
  
                    RESTRICTED RIGHTS LEGEND
  
 Use, reproduction and disclosure by the US Government is
 subject to restrictions as set forth in subparagraphs (a)
 and (c) of the Commercial Computer Software - Restricted
 Rights clause in FAR 52.227-19.
  
 Gaussian, Inc.
 340 Quinnipiac St., Bldg. 40, Wallingford CT 06492
  
  
 ---------------------------------------------------------------
 Warning -- This program may not be used in any manner that
 competes with the business of Gaussian, Inc. or will provide
 assistance to any competitor of Gaussian, Inc.  The licensee
 of this program is prohibited from giving any competitor of
 Gaussian, Inc. access to this program.  By using this program,
 the user acknowledges that Gaussian, Inc. is engaged in the
 business of creating and licensing software in the field of
 computational chemistry and represents and warrants to the
 licensee that it is not a competitor of Gaussian, Inc. and that
 it will not use this program in any manner prohibited above.
 ---------------------------------------------------------------
  

 Cite this work as:
 Gaussian 16, Revision A.03,
 M. J. Frisch, G. W. Trucks, H. B. Schlegel, G. E. Scuseria, 
 M. A. Robb, J. R. Cheeseman, G. Scalmani, V. Barone, 
 G. A. Petersson, H. Nakatsuji, X. Li, M. Caricato, A. V. Marenich, 
 J. Bloino, B. G. Janesko, R. Gomperts, B. Mennucci, H. P. Hratchian, 
 J. V. Ortiz, A. F. Izmaylov, J. L. Sonnenberg, D. Williams-Young, 
 F. Ding, F. Lipparini, F. Egidi, J. Goings, B. Peng, A. Petrone, 
 T. Henderson, D. Ranasinghe, V. G. Zakrzewski, J. Gao, N. Rega, 
 G. Zheng, W. Liang, M. Hada, M. Ehara, K. Toyota, R. Fukuda, 
 J. Hasegawa, M. Ishida, T. Nakajima, Y. Honda, O. Kitao, H. Nakai, 
 T. Vreven, K. Throssell, J. A. Montgomery, Jr., J. E. Peralta, 
 F. Ogliaro, M. J. Bearpark, J. J. Heyd, E. N. Brothers, K. N. Kudin, 
 V. N. Staroverov, T. A. Keith, R. Kobayashi, J. Normand, 
 K. Raghavachari, A. P. Rendell, J. C. Burant, S. S. Iyengar, 
 J. Tomasi, M. Cossi, J. M. Millam, M. Klene, C. Adamo, R. Cammi, 
 J. W. Ochterski, R. L. Martin, K. Morokuma, O. Farkas, 
 J. B. Foresman, and D. J. Fox, Gaussian, Inc., Wallingford CT, 2016.
 
 ******************************************
 Gaussian 16:  EM64L-G16RevA.03 25-Dec-2016
                14-Jul-2021 
 ******************************************
 %chk=IsoP_rdkit_03_238_gaussian.chk
 %nproc=6
 Will use up to    6 processors via shared memory.
 %mem=4000Mb
 -----------------------------
 #p opt=loose m062x/6-31g(d,p)
 -----------------------------
 1/7=-1,18=20,19=15,26=3,38=1/1,3;
 2/9=110,12=2,17=6,18=5,40=1/2;
 3/5=1,6=6,7=101,11=2,25=1,30=1,71=1,74=-55/1,2,3;
 4//1;
 5/5=2,38=5/2;
 6/7=2,8=2,9=2,10=2,28=1/1;
 7//1,2,3,16;
 1/7=-1,18=20,19=15,26=3/3(2);
 2/9=110/2;
 99//99;
 2/9=110/2;
 3/5=1,6=6,7=101,11=2,25=1,30=1,71=1,74=-55/1,2,3;
 4/5=5,16=3,69=1/1;
 5/5=2,38=5/2;
 7//1,2,3,16;
 1/7=-1,18=20,19=15,26=3/3(-5);
 2/9=110/2;
 6/7=2,8=2,9=2,10=2,19=2,28=1/1;
 99/9=1/99;
 Leave Link    1 at Wed Jul 14 20:00:22 2021, MaxMem=   524288000 cpu:               0.8 elap:               0.2
 (Enter /opt/gaussian/g16_legacy/l101.exe)
 -------------------------------------------------
 Conformer number 238. Energy MM = 23.959 kcal/mol
 -------------------------------------------------
 Symbolic Z-matrix:
 Charge =  0 Multiplicity = 1
 C                    -1.521     0.6184    0.9315 
 H                    -2.4277    0.2455    1.4247 
 H                    -1.5778    1.71      1.0358 
 C                    -1.5629    0.2429   -0.5369 
 C                    -1.0628    1.299    -1.4888 
 H                    -1.1428    0.9846   -2.5349 
 H                    -1.6482    2.2175   -1.3761 
 H                    -0.0119    1.5314   -1.2965 
 C                    -2.0414   -0.9269   -1.0062 
 H                    -2.0455   -1.0937   -2.0829 
 C                    -2.5755   -2.0759   -0.2113 
 H                    -2.5158   -1.9237    0.8687 
 H                    -3.6238   -2.2502   -0.4726 
 H                    -2.0091   -2.9815   -0.4507 
 C                     3.2631    1.1864    0.4583 
 H                     3.4364    1.3345   -0.6127 
 H                     4.1476    0.7081    0.8918 
 H                     3.1614    2.1751    0.9181 
 C                     2.0463    0.3255    0.676 
 C                     2.1429   -1.0447    0.0637 
 H                     1.2203   -1.6236    0.139 
 H                     2.9383   -1.6184    0.5505 
 H                     2.3804   -0.9628   -1.0025 
 C                     0.9827    0.8       1.354 
 H                     1.0265    1.8203    1.7351 
 C                    -0.2974    0.0805    1.6879 
 H                    -0.472     0.2231    2.7625 
 H                    -0.2104   -1.0014    1.5522 
 
 ITRead=  0  0  0  0  0  0  0  0  0  0  0  0  0  0  0  0  0  0  0  0
 ITRead=  0  0  0  0  0  0  0  0
 MicOpt= -1 -1 -1 -1 -1 -1 -1 -1 -1 -1 -1 -1 -1 -1 -1 -1 -1 -1 -1 -1
 MicOpt= -1 -1 -1 -1 -1 -1 -1 -1
 NAtoms=     28 NQM=       28 NQMF=       0 NMMI=      0 NMMIF=      0
                NMic=       0 NMicF=      0.
                    Isotopes and Nuclear Properties:
 (Nuclear quadrupole moments (NQMom) in fm**2, nuclear magnetic moments (NMagM)
  in nuclear magnetons)

  Atom         1           2           3           4           5           6           7           8           9          10
 IAtWgt=          12           1           1          12          12           1           1           1          12           1
 AtmWgt=  12.0000000   1.0078250   1.0078250  12.0000000  12.0000000   1.0078250   1.0078250   1.0078250  12.0000000   1.0078250
 NucSpn=           0           1           1           0           0           1           1           1           0           1
 AtZEff=  -0.0000000  -0.0000000  -0.0000000  -0.0000000  -0.0000000  -0.0000000  -0.0000000  -0.0000000  -0.0000000  -0.0000000
 NQMom=    0.0000000   0.0000000   0.0000000   0.0000000   0.0000000   0.0000000   0.0000000   0.0000000   0.0000000   0.0000000
 NMagM=    0.0000000   2.7928460   2.7928460   0.0000000   0.0000000   2.7928460   2.7928460   2.7928460   0.0000000   2.7928460
 AtZNuc=   6.0000000   1.0000000   1.0000000   6.0000000   6.0000000   1.0000000   1.0000000   1.0000000   6.0000000   1.0000000

  Atom        11          12          13          14          15          16          17          18          19          20
 IAtWgt=          12           1           1           1          12           1           1           1          12          12
 AtmWgt=  12.0000000   1.0078250   1.0078250   1.0078250  12.0000000   1.0078250   1.0078250   1.0078250  12.0000000  12.0000000
 NucSpn=           0           1           1           1           0           1           1           1           0           0
 AtZEff=  -0.0000000  -0.0000000  -0.0000000  -0.0000000  -0.0000000  -0.0000000  -0.0000000  -0.0000000  -0.0000000  -0.0000000
 NQMom=    0.0000000   0.0000000   0.0000000   0.0000000   0.0000000   0.0000000   0.0000000   0.0000000   0.0000000   0.0000000
 NMagM=    0.0000000   2.7928460   2.7928460   2.7928460   0.0000000   2.7928460   2.7928460   2.7928460   0.0000000   0.0000000
 AtZNuc=   6.0000000   1.0000000   1.0000000   1.0000000   6.0000000   1.0000000   1.0000000   1.0000000   6.0000000   6.0000000

  Atom        21          22          23          24          25          26          27          28
 IAtWgt=           1           1           1          12           1          12           1           1
 AtmWgt=   1.0078250   1.0078250   1.0078250  12.0000000   1.0078250  12.0000000   1.0078250   1.0078250
 NucSpn=           1           1           1           0           1           0           1           1
 AtZEff=  -0.0000000  -0.0000000  -0.0000000  -0.0000000  -0.0000000  -0.0000000  -0.0000000  -0.0000000
 NQMom=    0.0000000   0.0000000   0.0000000   0.0000000   0.0000000   0.0000000   0.0000000   0.0000000
 NMagM=    2.7928460   2.7928460   2.7928460   0.0000000   2.7928460   0.0000000   2.7928460   2.7928460
 AtZNuc=   1.0000000   1.0000000   1.0000000   6.0000000   1.0000000   6.0000000   1.0000000   1.0000000
 Leave Link  101 at Wed Jul 14 20:00:24 2021, MaxMem=   524288000 cpu:               2.4 elap:               0.6
 (Enter /opt/gaussian/g16_legacy/l103.exe)

 GradGradGradGradGradGradGradGradGradGradGradGradGradGradGradGradGradGrad
 Berny optimization.
 Initialization pass.
                           ----------------------------
                           !    Initial Parameters    !
                           ! (Angstroms and Degrees)  !
 --------------------------                            --------------------------
 ! Name  Definition              Value          Derivative Info.                !
 --------------------------------------------------------------------------------
 ! R1    R(1,2)                  1.0975         estimate D2E/DX2                !
 ! R2    R(1,3)                  1.098          estimate D2E/DX2                !
 ! R3    R(1,4)                  1.5162         estimate D2E/DX2                !
 ! R4    R(1,26)                 1.5358         estimate D2E/DX2                !
 ! R5    R(4,5)                  1.5072         estimate D2E/DX2                !
 ! R6    R(4,9)                  1.3482         estimate D2E/DX2                !
 ! R7    R(5,6)                  1.0953         estimate D2E/DX2                !
 ! R8    R(5,7)                  1.095          estimate D2E/DX2                !
 ! R9    R(5,8)                  1.0933         estimate D2E/DX2                !
 ! R10   R(9,10)                 1.0896         estimate D2E/DX2                !
 ! R11   R(9,11)                 1.4958         estimate D2E/DX2                !
 ! R12   R(11,12)                1.0923         estimate D2E/DX2                !
 ! R13   R(11,13)                1.0943         estimate D2E/DX2                !
 ! R14   R(11,14)                1.0946         estimate D2E/DX2                !
 ! R15   R(15,16)                1.095          estimate D2E/DX2                !
 ! R16   R(15,17)                1.095          estimate D2E/DX2                !
 ! R17   R(15,18)                1.0951         estimate D2E/DX2                !
 ! R18   R(15,19)                1.5064         estimate D2E/DX2                !
 ! R19   R(19,20)                1.5039         estimate D2E/DX2                !
 ! R20   R(19,24)                1.3476         estimate D2E/DX2                !
 ! R21   R(20,21)                1.0918         estimate D2E/DX2                !
 ! R22   R(20,22)                1.0949         estimate D2E/DX2                !
 ! R23   R(20,23)                1.0954         estimate D2E/DX2                !
 ! R24   R(24,25)                1.09           estimate D2E/DX2                !
 ! R25   R(24,26)                1.5059         estimate D2E/DX2                !
 ! R26   R(26,27)                1.098          estimate D2E/DX2                !
 ! R27   R(26,28)                1.0938         estimate D2E/DX2                !
 ! A1    A(2,1,3)              104.6177         estimate D2E/DX2                !
 ! A2    A(2,1,4)              109.1624         estimate D2E/DX2                !
 ! A3    A(2,1,26)             108.5356         estimate D2E/DX2                !
 ! A4    A(3,1,4)              109.6797         estimate D2E/DX2                !
 ! A5    A(3,1,26)             110.0364         estimate D2E/DX2                !
 ! A6    A(4,1,26)             114.3465         estimate D2E/DX2                !
 ! A7    A(1,4,5)              115.4011         estimate D2E/DX2                !
 ! A8    A(1,4,9)              124.1807         estimate D2E/DX2                !
 ! A9    A(5,4,9)              120.392          estimate D2E/DX2                !
 ! A10   A(4,5,6)              112.2009         estimate D2E/DX2                !
 ! A11   A(4,5,7)              110.2046         estimate D2E/DX2                !
 ! A12   A(4,5,8)              110.9035         estimate D2E/DX2                !
 ! A13   A(6,5,7)              107.46           estimate D2E/DX2                !
 ! A14   A(6,5,8)              107.4105         estimate D2E/DX2                !
 ! A15   A(7,5,8)              108.5094         estimate D2E/DX2                !
 ! A16   A(4,9,10)             118.5651         estimate D2E/DX2                !
 ! A17   A(4,9,11)             127.464          estimate D2E/DX2                !
 ! A18   A(10,9,11)            113.9677         estimate D2E/DX2                !
 ! A19   A(9,11,12)            113.5091         estimate D2E/DX2                !
 ! A20   A(9,11,13)            109.725          estimate D2E/DX2                !
 ! A21   A(9,11,14)            109.5434         estimate D2E/DX2                !
 ! A22   A(12,11,13)           108.0973         estimate D2E/DX2                !
 ! A23   A(12,11,14)           107.6519         estimate D2E/DX2                !
 ! A24   A(13,11,14)           108.16           estimate D2E/DX2                !
 ! A25   A(16,15,17)           108.5694         estimate D2E/DX2                !
 ! A26   A(16,15,18)           107.653          estimate D2E/DX2                !
 ! A27   A(16,15,19)           110.273          estimate D2E/DX2                !
 ! A28   A(17,15,18)           107.6469         estimate D2E/DX2                !
 ! A29   A(17,15,19)           110.2206         estimate D2E/DX2                !
 ! A30   A(18,15,19)           112.3508         estimate D2E/DX2                !
 ! A31   A(15,19,20)           114.2033         estimate D2E/DX2                !
 ! A32   A(15,19,24)           120.5978         estimate D2E/DX2                !
 ! A33   A(20,19,24)           125.1932         estimate D2E/DX2                !
 ! A34   A(19,20,21)           113.6243         estimate D2E/DX2                !
 ! A35   A(19,20,22)           110.0625         estimate D2E/DX2                !
 ! A36   A(19,20,23)           110.0047         estimate D2E/DX2                !
 ! A37   A(21,20,22)           107.7822         estimate D2E/DX2                !
 ! A38   A(21,20,23)           106.8576         estimate D2E/DX2                !
 ! A39   A(22,20,23)           108.3263         estimate D2E/DX2                !
 ! A40   A(19,24,25)           118.2788         estimate D2E/DX2                !
 ! A41   A(19,24,26)           127.8947         estimate D2E/DX2                !
 ! A42   A(25,24,26)           113.8191         estimate D2E/DX2                !
 ! A43   A(1,26,24)            113.6222         estimate D2E/DX2                !
 ! A44   A(1,26,27)            108.0496         estimate D2E/DX2                !
 ! A45   A(1,26,28)            110.4069         estimate D2E/DX2                !
 ! A46   A(24,26,27)           106.8652         estimate D2E/DX2                !
 ! A47   A(24,26,28)           112.1756         estimate D2E/DX2                !
 ! A48   A(27,26,28)           105.2195         estimate D2E/DX2                !
 ! D1    D(2,1,4,5)            140.1695         estimate D2E/DX2                !
 ! D2    D(2,1,4,9)            -37.97           estimate D2E/DX2                !
 ! D3    D(3,1,4,5)             26.0884         estimate D2E/DX2                !
 ! D4    D(3,1,4,9)           -152.0512         estimate D2E/DX2                !
 ! D5    D(26,1,4,5)           -98.0523         estimate D2E/DX2                !
 ! D6    D(26,1,4,9)            83.8082         estimate D2E/DX2                !
 ! D7    D(2,1,26,24)         -164.4525         estimate D2E/DX2                !
 ! D8    D(2,1,26,27)          -46.0563         estimate D2E/DX2                !
 ! D9    D(2,1,26,28)           68.5155         estimate D2E/DX2                !
 ! D10   D(3,1,26,24)          -50.5238         estimate D2E/DX2                !
 ! D11   D(3,1,26,27)           67.8724         estimate D2E/DX2                !
 ! D12   D(3,1,26,28)         -177.5558         estimate D2E/DX2                !
 ! D13   D(4,1,26,24)           73.4261         estimate D2E/DX2                !
 ! D14   D(4,1,26,27)         -168.1777         estimate D2E/DX2                !
 ! D15   D(4,1,26,28)          -53.6059         estimate D2E/DX2                !
 ! D16   D(1,4,5,6)           -178.3741         estimate D2E/DX2                !
 ! D17   D(1,4,5,7)            -58.671          estimate D2E/DX2                !
 ! D18   D(1,4,5,8)             61.5057         estimate D2E/DX2                !
 ! D19   D(9,4,5,6)             -0.1584         estimate D2E/DX2                !
 ! D20   D(9,4,5,7)            119.5448         estimate D2E/DX2                !
 ! D21   D(9,4,5,8)           -120.2786         estimate D2E/DX2                !
 ! D22   D(1,4,9,10)           178.8285         estimate D2E/DX2                !
 ! D23   D(1,4,9,11)            -1.863          estimate D2E/DX2                !
 ! D24   D(5,4,9,10)             0.7769         estimate D2E/DX2                !
 ! D25   D(5,4,9,11)          -179.9146         estimate D2E/DX2                !
 ! D26   D(4,9,11,12)           -2.5975         estimate D2E/DX2                !
 ! D27   D(4,9,11,13)          118.4556         estimate D2E/DX2                !
 ! D28   D(4,9,11,14)         -122.9494         estimate D2E/DX2                !
 ! D29   D(10,9,11,12)         176.738          estimate D2E/DX2                !
 ! D30   D(10,9,11,13)         -62.209          estimate D2E/DX2                !
 ! D31   D(10,9,11,14)          56.386          estimate D2E/DX2                !
 ! D32   D(16,15,19,20)         60.0451         estimate D2E/DX2                !
 ! D33   D(16,15,19,24)       -119.1259         estimate D2E/DX2                !
 ! D34   D(17,15,19,20)        -59.8117         estimate D2E/DX2                !
 ! D35   D(17,15,19,24)        121.0173         estimate D2E/DX2                !
 ! D36   D(18,15,19,20)       -179.8614         estimate D2E/DX2                !
 ! D37   D(18,15,19,24)          0.9676         estimate D2E/DX2                !
 ! D38   D(15,19,20,21)       -174.1519         estimate D2E/DX2                !
 ! D39   D(15,19,20,22)         64.8769         estimate D2E/DX2                !
 ! D40   D(15,19,20,23)        -54.4107         estimate D2E/DX2                !
 ! D41   D(24,19,20,21)          4.9749         estimate D2E/DX2                !
 ! D42   D(24,19,20,22)       -115.9963         estimate D2E/DX2                !
 ! D43   D(24,19,20,23)        124.7161         estimate D2E/DX2                !
 ! D44   D(15,19,24,25)          0.2189         estimate D2E/DX2                !
 ! D45   D(15,19,24,26)       -178.7282         estimate D2E/DX2                !
 ! D46   D(20,19,24,25)       -178.8558         estimate D2E/DX2                !
 ! D47   D(20,19,24,26)          2.1971         estimate D2E/DX2                !
 ! D48   D(19,24,26,1)        -110.9249         estimate D2E/DX2                !
 ! D49   D(19,24,26,27)        129.9995         estimate D2E/DX2                !
 ! D50   D(19,24,26,28)         15.1779         estimate D2E/DX2                !
 ! D51   D(25,24,26,1)          70.0886         estimate D2E/DX2                !
 ! D52   D(25,24,26,27)        -48.987          estimate D2E/DX2                !
 ! D53   D(25,24,26,28)       -163.8086         estimate D2E/DX2                !
 --------------------------------------------------------------------------------
 Trust Radius=3.00D-01 FncErr=1.00D-07 GrdErr=1.00D-06 EigMax=2.50D+02 EigMin=1.00D-04
 Number of steps in this run=    138 maximum allowed number of steps=    168.
 GradGradGradGradGradGradGradGradGradGradGradGradGradGradGradGradGradGrad

 Leave Link  103 at Wed Jul 14 20:00:24 2021, MaxMem=   524288000 cpu:               0.4 elap:               0.2
 (Enter /opt/gaussian/g16_legacy/l202.exe)
                          Input orientation:                          
 ---------------------------------------------------------------------
 Center     Atomic      Atomic             Coordinates (Angstroms)
 Number     Number       Type             X           Y           Z
 ---------------------------------------------------------------------
      1          6           0       -1.521000    0.618400    0.931500
      2          1           0       -2.427700    0.245500    1.424700
      3          1           0       -1.577800    1.710000    1.035800
      4          6           0       -1.562900    0.242900   -0.536900
      5          6           0       -1.062800    1.299000   -1.488800
      6          1           0       -1.142800    0.984600   -2.534900
      7          1           0       -1.648200    2.217500   -1.376100
      8          1           0       -0.011900    1.531400   -1.296500
      9          6           0       -2.041400   -0.926900   -1.006200
     10          1           0       -2.045500   -1.093700   -2.082900
     11          6           0       -2.575500   -2.075900   -0.211300
     12          1           0       -2.515800   -1.923700    0.868700
     13          1           0       -3.623800   -2.250200   -0.472600
     14          1           0       -2.009100   -2.981500   -0.450700
     15          6           0        3.263100    1.186400    0.458300
     16          1           0        3.436400    1.334500   -0.612700
     17          1           0        4.147600    0.708100    0.891800
     18          1           0        3.161400    2.175100    0.918100
     19          6           0        2.046300    0.325500    0.676000
     20          6           0        2.142900   -1.044700    0.063700
     21          1           0        1.220300   -1.623600    0.139000
     22          1           0        2.938300   -1.618400    0.550500
     23          1           0        2.380400   -0.962800   -1.002500
     24          6           0        0.982700    0.800000    1.354000
     25          1           0        1.026500    1.820300    1.735100
     26          6           0       -0.297400    0.080500    1.687900
     27          1           0       -0.472000    0.223100    2.762500
     28          1           0       -0.210400   -1.001400    1.552200
 ---------------------------------------------------------------------
                    Distance matrix (angstroms):
                    1          2          3          4          5
     1  C    0.000000
     2  H    1.097454   0.000000
     3  H    1.098042   1.737335   0.000000
     4  C    1.516230   2.143772   2.150811   0.000000
     5  C    2.555585   3.385454   2.609167   1.507170   0.000000
     6  H    3.506147   4.227963   3.669513   2.172235   1.095250
     7  H    2.810395   3.512960   2.465720   2.147226   1.095005
     8  H    2.841643   3.859347   2.814883   2.154722   1.093334
     9  C    2.532479   2.726357   3.367184   1.348198   2.478950
    10  H    3.506137   3.773962   4.219688   2.099885   2.653991
    11  C    3.110822   2.843807   4.108978   2.551119   3.912827
    12  H    2.730539   2.241055   3.756533   2.752796   4.249095
    13  H    3.823889   3.355432   4.705802   3.235273   4.493129
    14  H    3.886901   3.755780   4.940230   3.256268   4.505088
    15  C    4.840884   5.848455   4.903262   5.017060   4.745238
    16  H    5.241485   6.302745   5.291574   5.117650   4.583843
    17  H    5.669449   6.613059   5.814185   5.904863   5.758879
    18  H    4.934406   5.934479   4.763422   5.307488   4.940100
    19  C    3.588412   4.536918   3.896203   3.808448   3.911594
    20  C    4.116205   4.940377   4.730429   3.968827   4.263766
    21  H    3.628959   4.295866   4.443704   3.418606   4.050169
    22  H    5.003378   5.747374   5.631068   4.990759   5.355256
    23  H    4.632653   5.519884   5.192868   4.149712   4.148235
    24  C    2.545584   3.455908   2.735966   3.219618   3.537596
    25  H    2.929180   3.808916   2.698808   3.788821   3.876914
    26  C    1.535798   2.152830   2.172540   2.564683   3.487406
    27  H    2.146910   2.369593   2.532816   3.475125   4.424947
    28  H    2.174096   2.547044   3.080283   2.782423   3.907187
                    6          7          8          9         10
     6  H    0.000000
     7  H    1.765868   0.000000
     8  H    1.763961   1.776104   0.000000
     9  C    2.607343   3.190405   3.200997   0.000000
    10  H    2.310520   3.409026   3.412492   1.089551   0.000000
    11  C    4.101025   4.544219   4.556569   1.495771   2.179106
    12  H    4.682716   4.789718   4.784906   2.175756   3.101939
    13  H    4.568629   4.967862   5.293877   2.130690   2.534085
    14  H    4.563367   5.293035   5.007040   2.128616   2.495835
    15  C    5.330284   5.343132   3.731484   5.894787   6.311718
    16  H    4.978590   5.216860   3.520955   5.939282   6.173238
    17  H    6.309283   6.404136   4.771574   6.676777   7.102803
    18  H    5.645054   5.328921   3.922835   6.355664   6.841262
    19  C    4.573254   4.630346   3.095341   4.594300   5.135025
    20  C    4.654740   5.204557   3.623479   4.320524   4.706696
    21  H    4.420033   5.027710   3.678723   3.526409   3.985359
    22  H    5.740268   6.281871   4.694287   5.262974   5.661128
    23  H    4.307384   5.146212   3.468511   4.421947   4.557740
    24  C    4.435693   4.047763   2.923923   4.206888   4.956650
    25  H    4.861806   4.122057   3.217505   4.947105   5.701377
    26  C    4.400470   3.972345   3.330655   3.363713   4.318973
    27  H    5.393728   4.742266   4.289385   4.241299   5.261917
    28  H    4.638745   4.582960   3.817011   3.146986   4.073090
                   11         12         13         14         15
    11  C    0.000000
    12  H    1.092304   0.000000
    13  H    1.094345   1.770128   0.000000
    14  H    1.094638   1.765362   1.772720   0.000000
    15  C    6.721623   6.575472   7.752818   6.781870   0.000000
    16  H    6.923503   6.945437   7.919351   6.950365   1.094992
    17  H    7.359861   7.164343   8.426612   7.302083   1.095004
    18  H    7.229009   7.002371   8.219262   7.429550   1.095119
    19  C    5.283470   5.090068   6.332736   5.352754   1.506368
    20  C    4.837592   4.808758   5.915714   4.610304   2.527521
    21  H    3.838669   3.818503   4.922600   3.552557   3.488708
    22  H    5.584947   5.471898   6.671361   5.228500   2.825048
    23  H    5.140616   5.328930   6.163490   4.862853   2.744477
    24  C    4.835468   4.460220   5.818937   5.148548   2.480284
    25  H    5.651836   5.226478   6.562637   6.086861   2.652249
    26  C    3.666983   3.099872   4.600528   4.108451   3.925824
    27  H    4.307389   3.517435   5.149459   4.791325   4.493134
    28  H    3.139774   2.575399   4.160603   3.341815   4.248328
                   16         17         18         19         20
    16  H    0.000000
    17  H    1.778118   0.000000
    18  H    1.767932   1.767872   0.000000
    19  C    2.147372   2.146722   2.173265   0.000000
    20  C    2.791281   2.788706   3.483454   1.503892   0.000000
    21  H    3.771804   3.817410   4.336472   2.183950   1.091781
    22  H    3.212593   2.644143   3.817793   2.142466   1.094882
    23  H    2.558255   3.082738   3.760995   2.142126   1.095398
    24  C    3.189709   3.199792   2.612976   1.347620   2.532559
    25  H    3.399380   3.418978   2.313260   2.096691   3.499736
    26  C    4.561419   4.559132   4.116217   2.564546   3.139931
    27  H    5.282308   5.007539   4.518153   3.271972   3.965922
    28  H    4.841732   4.727651   4.675604   2.760631   2.784875
                   21         22         23         24         25
    21  H    0.000000
    22  H    1.766602   0.000000
    23  H    1.756562   1.775633   0.000000
    24  C    2.721491   3.212264   3.257932   0.000000
    25  H    3.800729   4.108882   4.131966   1.090031   0.000000
    26  C    2.757981   3.827492   3.936666   1.505930   2.186743
    27  H    3.627249   4.462534   4.870089   2.105431   2.419112
    28  H    2.105034   3.361310   3.638712   2.169749   3.086319
                   26         27         28
    26  C    0.000000
    27  H    1.097991   0.000000
    28  H    1.093842   1.741454   0.000000
 Stoichiometry    C10H18
 Framework group  C1[X(C10H18)]
 Deg. of freedom    78
 Full point group                 C1      NOp   1
 Largest Abelian subgroup         C1      NOp   1
 Largest concise Abelian subgroup C1      NOp   1
                         Standard orientation:                         
 ---------------------------------------------------------------------
 Center     Atomic      Atomic             Coordinates (Angstroms)
 Number     Number       Type             X           Y           Z
 ---------------------------------------------------------------------
      1          6           0       -1.075545    0.667156    1.227761
      2          1           0       -1.925600    0.379112    1.859302
      3          1           0       -0.812168    1.679273    1.562343
      4          6           0       -1.522851    0.708326   -0.220403
      5          6           0       -0.966059    1.846234   -1.036925
      6          1           0       -1.344531    1.842076   -2.064697
      7          1           0       -1.244540    2.805441   -0.588140
      8          1           0        0.124620    1.791357   -1.089719
      9          6           0       -2.386664   -0.167875   -0.771525
     10          1           0       -2.660295   -0.041182   -1.818519
     11          6           0       -3.033283   -1.344766   -0.112631
     12          1           0       -2.710649   -1.497872    0.919646
     13          1           0       -4.120217   -1.217630   -0.113764
     14          1           0       -2.795615   -2.254516   -0.673079
     15          6           0        3.475783    0.310397   -0.382299
     16          1           0        3.455178    0.694326   -1.407570
     17          1           0        4.268338   -0.441448   -0.307347
     18          1           0        3.743341    1.141814    0.278342
     19          6           0        2.144891   -0.298769   -0.026225
     20          6           0        1.737616   -1.448127   -0.906448
     21          1           0        0.729733   -1.816919   -0.706067
     22          1           0        2.431768   -2.284851   -0.776784
     23          1           0        1.760465   -1.141399   -1.957776
     24          6           0        1.414936    0.195562    0.993031
     25          1           0        1.811366    1.046504    1.547025
     26          6           0        0.087012   -0.297597    1.504144
     27          1           0        0.185705   -0.408577    2.592045
     28          1           0       -0.151912   -1.298749    1.133871
 ---------------------------------------------------------------------
 Rotational constants (GHZ):           1.8861750           0.7013260           0.6814737
 Leave Link  202 at Wed Jul 14 20:00:25 2021, MaxMem=   524288000 cpu:               0.4 elap:               0.2
 (Enter /opt/gaussian/g16_legacy/l301.exe)
 Standard basis: 6-31G(d,p) (6D, 7F)
 Ernie: Thresh=  0.10000D-02 Tol=  0.10000D-05 Strict=F.
 There are   240 symmetry adapted cartesian basis functions of A   symmetry.
 There are   240 symmetry adapted basis functions of A   symmetry.
   240 basis functions,   406 primitive gaussians,   240 cartesian basis functions
    39 alpha electrons       39 beta electrons
       nuclear repulsion energy       532.8963823571 Hartrees.
 IExCor= 4336 DFT=T Ex+Corr=M062X ExCW=0 ScaHFX=  0.540000
 ScaDFX=  1.000000  1.000000  1.000000  1.000000 ScalE2=  1.000000  1.000000
 IRadAn=      5 IRanWt=     -1 IRanGd=            0 ICorTp=0 IEmpDi=  4
 NAtoms=   28 NActive=   28 NUniq=   28 SFac= 1.00D+00 NAtFMM=   60 NAOKFM=F Big=F
 Integral buffers will be    131072 words long.
 Raffenetti 2 integral format.
 Two-electron integral symmetry is turned on.
 Leave Link  301 at Wed Jul 14 20:00:26 2021, MaxMem=   524288000 cpu:               1.2 elap:               0.4
 (Enter /opt/gaussian/g16_legacy/l302.exe)
 NPDir=0 NMtPBC=     1 NCelOv=     1 NCel=       1 NClECP=     1 NCelD=      1
         NCelK=      1 NCelE2=     1 NClLst=     1 CellRange=     0.0.
 One-electron integrals computed using PRISM.
 One-electron integral symmetry used in STVInt
 NBasis=   240 RedAO= T EigKep=  2.20D-03  NBF=   240
 NBsUse=   240 1.00D-06 EigRej= -1.00D+00 NBFU=   240
 Precomputing XC quadrature grid using
 IXCGrd= 4 IRadAn=           5 IRanWt=          -1 IRanGd=           0 AccXCQ= 0.00D+00.
 Generated NRdTot=       0 NPtTot=           0 NUsed=           0 NTot=          32
 NSgBfM=   240   240   240   240   240 MxSgAt=    28 MxSgA2=    28.
 Leave Link  302 at Wed Jul 14 20:00:28 2021, MaxMem=   524288000 cpu:              12.0 elap:               2.6
 (Enter /opt/gaussian/g16_legacy/l303.exe)
 DipDrv:  MaxL=1.
 Leave Link  303 at Wed Jul 14 20:00:29 2021, MaxMem=   524288000 cpu:               1.1 elap:               0.3
 (Enter /opt/gaussian/g16_legacy/l401.exe)
 ExpMin= 1.61D-01 ExpMax= 3.05D+03 ExpMxC= 4.57D+02 IAcc=3 IRadAn=         5 AccDes= 0.00D+00
 Harris functional with IExCor= 1009 and IRadAn=       5 diagonalized for initial guess.
 HarFok:  IExCor= 1009 AccDes= 0.00D+00 IRadAn=         5 IDoV= 1 UseB2=F ITyADJ=14
 ICtDFT=  3500011 ScaDFX=  1.000000  1.000000  1.000000  1.000000
 FoFCou: FMM=F IPFlag=           0 FMFlag=      100000 FMFlg1=           0
         NFxFlg=           0 DoJE=T BraDBF=F KetDBF=T FulRan=T
         wScrn=  0.000000 ICntrl=       500 IOpCl=  0 I1Cent=   200000004 NGrid=           0
         NMat0=    1 NMatS0=      1 NMatT0=    0 NMatD0=    1 NMtDS0=    0 NMtDT0=    0
 Petite list used in FoFCou.
 Harris En= -391.654744803081    
 JPrj=0 DoOrth=F DoCkMO=F.
 Leave Link  401 at Wed Jul 14 20:00:33 2021, MaxMem=   524288000 cpu:              22.4 elap:               4.1
 (Enter /opt/gaussian/g16_legacy/l502.exe)
 Integral symmetry usage will be decided dynamically.
 Closed shell SCF:
 Using DIIS extrapolation, IDIIS=  1040.
 NGot=   524288000 LenX=   524168546 LenY=   524110505
 Requested convergence on RMS density matrix=1.00D-08 within 128 cycles.
 Requested convergence on MAX density matrix=1.00D-06.
 Requested convergence on             energy=1.00D-06.
 No special actions if energy rises.
 Fock matrices will be formed incrementally for  20 cycles.
 Integral accuracy reduced to 1.0D-05 until final iterations.

 Cycle   1  Pass 0  IDiag  1:
 FoFJK:  IHMeth= 1 ICntrl=       0 DoSepK=F KAlg= 0 I1Cent=           0 FoldK=F
 IRaf= 890000000 NMat=       1 IRICut=       1 DoRegI=T DoRafI=F ISym2E= 0 IDoP0=0 IntGTp=1.
 FoFCou: FMM=F IPFlag=           0 FMFlag=      100000 FMFlg1=           0
         NFxFlg=           0 DoJE=F BraDBF=F KetDBF=F FulRan=T
         wScrn=  0.000000 ICntrl=         0 IOpCl=  0 I1Cent=           0 NGrid=           0
         NMat0=    1 NMatS0=      1 NMatT0=    0 NMatD0=    1 NMtDS0=    0 NMtDT0=    0
 Symmetry not used in FoFCou.
 E= -391.298470239198    
 DIIS: error= 2.82D-02 at cycle   1 NSaved=   1.
 NSaved= 1 IEnMin= 1 EnMin= -391.298470239198     IErMin= 1 ErrMin= 2.82D-02
 ErrMax= 2.82D-02  0.00D+00 EMaxC= 1.00D-01 BMatC= 3.71D-01 BMatP= 3.71D-01
 IDIUse=3 WtCom= 7.18D-01 WtEn= 2.82D-01
 Coeff-Com:  0.100D+01
 Coeff-En:   0.100D+01
 Coeff:      0.100D+01
 Gap=     0.342 Goal=   None    Shift=    0.000
 GapD=    0.342 DampG=1.000 DampE=0.500 DampFc=0.5000 IDamp=-1.
 Damping current iteration by 5.00D-01
 RMSDP=4.46D-03 MaxDP=1.12D-01              OVMax= 1.42D-01

 Cycle   2  Pass 0  IDiag  1:
 RMSU=  2.19D-03    CP:  9.75D-01
 E= -391.506807745494     Delta-E=       -0.208337506296 Rises=F Damp=T
 DIIS: error= 8.48D-03 at cycle   2 NSaved=   2.
 NSaved= 2 IEnMin= 2 EnMin= -391.506807745494     IErMin= 2 ErrMin= 8.48D-03
 ErrMax= 8.48D-03  0.00D+00 EMaxC= 1.00D-01 BMatC= 2.12D-02 BMatP= 3.71D-01
 IDIUse=3 WtCom= 9.15D-01 WtEn= 8.48D-02
 Coeff-Com: -0.144D+00 0.114D+01
 Coeff-En:   0.000D+00 0.100D+01
 Coeff:     -0.131D+00 0.113D+01
 Gap=     0.359 Goal=   None    Shift=    0.000
 RMSDP=9.14D-04 MaxDP=2.69D-02 DE=-2.08D-01 OVMax= 6.66D-02

 Cycle   3  Pass 0  IDiag  1:
 RMSU=  8.94D-04    CP:  9.69D-01  1.07D+00
 E= -391.687815813601     Delta-E=       -0.181008068107 Rises=F Damp=F
 DIIS: error= 1.43D-03 at cycle   3 NSaved=   3.
 NSaved= 3 IEnMin= 3 EnMin= -391.687815813601     IErMin= 3 ErrMin= 1.43D-03
 ErrMax= 1.43D-03  0.00D+00 EMaxC= 1.00D-01 BMatC= 1.28D-03 BMatP= 2.12D-02
 IDIUse=3 WtCom= 9.86D-01 WtEn= 1.43D-02
 Coeff-Com: -0.377D-01 0.183D+00 0.855D+00
 Coeff-En:   0.000D+00 0.000D+00 0.100D+01
 Coeff:     -0.371D-01 0.180D+00 0.857D+00
 Gap=     0.338 Goal=   None    Shift=    0.000
 RMSDP=2.73D-04 MaxDP=7.72D-03 DE=-1.81D-01 OVMax= 1.46D-02

 Cycle   4  Pass 0  IDiag  1:
 RMSU=  2.18D-04    CP:  9.69D-01  1.12D+00  8.62D-01
 E= -391.688460457413     Delta-E=       -0.000644643812 Rises=F Damp=F
 DIIS: error= 1.07D-03 at cycle   4 NSaved=   4.
 NSaved= 4 IEnMin= 4 EnMin= -391.688460457413     IErMin= 4 ErrMin= 1.07D-03
 ErrMax= 1.07D-03  0.00D+00 EMaxC= 1.00D-01 BMatC= 6.32D-04 BMatP= 1.28D-03
 IDIUse=3 WtCom= 9.89D-01 WtEn= 1.07D-02
 Coeff-Com: -0.107D-01 0.408D-01 0.424D+00 0.546D+00
 Coeff-En:   0.000D+00 0.000D+00 0.310D+00 0.690D+00
 Coeff:     -0.106D-01 0.404D-01 0.423D+00 0.547D+00
 Gap=     0.338 Goal=   None    Shift=    0.000
 RMSDP=1.22D-04 MaxDP=5.12D-03 DE=-6.45D-04 OVMax= 1.04D-02

 Cycle   5  Pass 0  IDiag  1:
 RMSU=  5.80D-05    CP:  9.69D-01  1.11D+00  9.26D-01  5.99D-01
 E= -391.689052661825     Delta-E=       -0.000592204412 Rises=F Damp=F
 DIIS: error= 2.85D-04 at cycle   5 NSaved=   5.
 NSaved= 5 IEnMin= 5 EnMin= -391.689052661825     IErMin= 5 ErrMin= 2.85D-04
 ErrMax= 2.85D-04  0.00D+00 EMaxC= 1.00D-01 BMatC= 4.25D-05 BMatP= 6.32D-04
 IDIUse=3 WtCom= 9.97D-01 WtEn= 2.85D-03
 Coeff-Com: -0.789D-03 0.192D-02 0.119D+00 0.257D+00 0.623D+00
 Coeff-En:   0.000D+00 0.000D+00 0.000D+00 0.000D+00 0.100D+01
 Coeff:     -0.787D-03 0.192D-02 0.118D+00 0.256D+00 0.624D+00
 Gap=     0.338 Goal=   None    Shift=    0.000
 RMSDP=2.90D-05 MaxDP=1.17D-03 DE=-5.92D-04 OVMax= 2.39D-03

 Cycle   6  Pass 0  IDiag  1:
 RMSU=  1.62D-05    CP:  9.69D-01  1.11D+00  9.36D-01  6.50D-01  6.69D-01
 E= -391.689093909442     Delta-E=       -0.000041247617 Rises=F Damp=F
 DIIS: error= 4.53D-05 at cycle   6 NSaved=   6.
 NSaved= 6 IEnMin= 6 EnMin= -391.689093909442     IErMin= 6 ErrMin= 4.53D-05
 ErrMax= 4.53D-05  0.00D+00 EMaxC= 1.00D-01 BMatC= 1.74D-06 BMatP= 4.25D-05
 IDIUse=1 WtCom= 1.00D+00 WtEn= 0.00D+00
 Coeff-Com:  0.793D-03-0.290D-02 0.107D-01 0.525D-01 0.220D+00 0.719D+00
 Coeff:      0.793D-03-0.290D-02 0.107D-01 0.525D-01 0.220D+00 0.719D+00
 Gap=     0.338 Goal=   None    Shift=    0.000
 RMSDP=6.31D-06 MaxDP=2.24D-04 DE=-4.12D-05 OVMax= 4.27D-04

 Initial convergence to 1.0D-05 achieved.  Increase integral accuracy.
 Cycle   7  Pass 1  IDiag  1:
 E= -391.689151128750     Delta-E=       -0.000057219308 Rises=F Damp=F
 DIIS: error= 1.85D-05 at cycle   1 NSaved=   1.
 NSaved= 1 IEnMin= 1 EnMin= -391.689151128750     IErMin= 1 ErrMin= 1.85D-05
 ErrMax= 1.85D-05  0.00D+00 EMaxC= 1.00D-01 BMatC= 2.58D-07 BMatP= 2.58D-07
 IDIUse=1 WtCom= 1.00D+00 WtEn= 0.00D+00
 Coeff-Com:  0.100D+01
 Coeff:      0.100D+01
 Gap=     0.338 Goal=   None    Shift=    0.000
 RMSDP=6.31D-06 MaxDP=2.24D-04 DE=-5.72D-05 OVMax= 2.43D-04

 Cycle   8  Pass 1  IDiag  1:
 RMSU=  7.15D-06    CP:  1.00D+00
 E= -391.689151251188     Delta-E=       -0.000000122438 Rises=F Damp=F
 DIIS: error= 1.73D-05 at cycle   2 NSaved=   2.
 NSaved= 2 IEnMin= 2 EnMin= -391.689151251188     IErMin= 2 ErrMin= 1.73D-05
 ErrMax= 1.73D-05  0.00D+00 EMaxC= 1.00D-01 BMatC= 1.66D-07 BMatP= 2.58D-07
 IDIUse=1 WtCom= 1.00D+00 WtEn= 0.00D+00
 Coeff-Com:  0.432D+00 0.568D+00
 Coeff:      0.432D+00 0.568D+00
 Gap=     0.338 Goal=   None    Shift=    0.000
 RMSDP=1.78D-06 MaxDP=9.13D-05 DE=-1.22D-07 OVMax= 1.60D-04

 Cycle   9  Pass 1  IDiag  1:
 RMSU=  1.71D-06    CP:  1.00D+00  9.33D-01
 E= -391.689151394263     Delta-E=       -0.000000143075 Rises=F Damp=F
 DIIS: error= 5.78D-06 at cycle   3 NSaved=   3.
 NSaved= 3 IEnMin= 3 EnMin= -391.689151394263     IErMin= 3 ErrMin= 5.78D-06
 ErrMax= 5.78D-06  0.00D+00 EMaxC= 1.00D-01 BMatC= 1.56D-08 BMatP= 1.66D-07
 IDIUse=1 WtCom= 1.00D+00 WtEn= 0.00D+00
 Coeff-Com:  0.155D-01 0.225D+00 0.760D+00
 Coeff:      0.155D-01 0.225D+00 0.760D+00
 Gap=     0.338 Goal=   None    Shift=    0.000
 RMSDP=6.44D-07 MaxDP=2.70D-05 DE=-1.43D-07 OVMax= 6.22D-05

 Cycle  10  Pass 1  IDiag  1:
 RMSU=  4.36D-07    CP:  1.00D+00  9.78D-01  7.95D-01
 E= -391.689151408229     Delta-E=       -0.000000013967 Rises=F Damp=F
 DIIS: error= 2.12D-06 at cycle   4 NSaved=   4.
 NSaved= 4 IEnMin= 4 EnMin= -391.689151408229     IErMin= 4 ErrMin= 2.12D-06
 ErrMax= 2.12D-06  0.00D+00 EMaxC= 1.00D-01 BMatC= 2.29D-09 BMatP= 1.56D-08
 IDIUse=1 WtCom= 1.00D+00 WtEn= 0.00D+00
 Coeff-Com: -0.242D-01 0.681D-01 0.384D+00 0.572D+00
 Coeff:     -0.242D-01 0.681D-01 0.384D+00 0.572D+00
 Gap=     0.338 Goal=   None    Shift=    0.000
 RMSDP=2.16D-07 MaxDP=5.56D-06 DE=-1.40D-08 OVMax= 1.38D-05

 Cycle  11  Pass 1  IDiag  1:
 RMSU=  1.56D-07    CP:  1.00D+00  9.83D-01  8.42D-01  7.19D-01
 E= -391.689151410609     Delta-E=       -0.000000002380 Rises=F Damp=F
 DIIS: error= 2.17D-07 at cycle   5 NSaved=   5.
 NSaved= 5 IEnMin= 5 EnMin= -391.689151410609     IErMin= 5 ErrMin= 2.17D-07
 ErrMax= 2.17D-07  0.00D+00 EMaxC= 1.00D-01 BMatC= 3.46D-11 BMatP= 2.29D-09
 IDIUse=1 WtCom= 1.00D+00 WtEn= 0.00D+00
 Coeff-Com: -0.601D-02 0.553D-03 0.394D-01 0.119D+00 0.847D+00
 Coeff:     -0.601D-02 0.553D-03 0.394D-01 0.119D+00 0.847D+00
 Gap=     0.338 Goal=   None    Shift=    0.000
 RMSDP=4.35D-08 MaxDP=1.33D-06 DE=-2.38D-09 OVMax= 2.77D-06

 Cycle  12  Pass 1  IDiag  1:
 RMSU=  3.95D-08    CP:  1.00D+00  9.84D-01  8.44D-01  7.55D-01  1.02D+00
 E= -391.689151410642     Delta-E=       -0.000000000033 Rises=F Damp=F
 DIIS: error= 1.77D-07 at cycle   6 NSaved=   6.
 NSaved= 6 IEnMin= 6 EnMin= -391.689151410642     IErMin= 6 ErrMin= 1.77D-07
 ErrMax= 1.77D-07  0.00D+00 EMaxC= 1.00D-01 BMatC= 1.13D-11 BMatP= 3.46D-11
 IDIUse=1 WtCom= 1.00D+00 WtEn= 0.00D+00
 Coeff-Com: -0.161D-03-0.716D-02-0.223D-01-0.533D-02 0.398D+00 0.637D+00
 Coeff:     -0.161D-03-0.716D-02-0.223D-01-0.533D-02 0.398D+00 0.637D+00
 Gap=     0.338 Goal=   None    Shift=    0.000
 RMSDP=1.89D-08 MaxDP=7.33D-07 DE=-3.27D-11 OVMax= 1.82D-06

 Cycle  13  Pass 1  IDiag  1:
 RMSU=  1.04D-08    CP:  1.00D+00  9.84D-01  8.45D-01  7.67D-01  1.09D+00
                    CP:  7.69D-01
 E= -391.689151410643     Delta-E=       -0.000000000001 Rises=F Damp=F
 DIIS: error= 6.13D-08 at cycle   7 NSaved=   7.
 NSaved= 7 IEnMin= 7 EnMin= -391.689151410643     IErMin= 7 ErrMin= 6.13D-08
 ErrMax= 6.13D-08  0.00D+00 EMaxC= 1.00D-01 BMatC= 1.26D-12 BMatP= 1.13D-11
 IDIUse=1 WtCom= 1.00D+00 WtEn= 0.00D+00
 Coeff-Com:  0.586D-03-0.369D-02-0.154D-01-0.158D-01 0.101D+00 0.313D+00
 Coeff-Com:  0.620D+00
 Coeff:      0.586D-03-0.369D-02-0.154D-01-0.158D-01 0.101D+00 0.313D+00
 Coeff:      0.620D+00
 Gap=     0.338 Goal=   None    Shift=    0.000
 RMSDP=4.98D-09 MaxDP=1.94D-07 DE=-6.82D-13 OVMax= 3.67D-07

 SCF Done:  E(RM062X) =  -391.689151411     A.U. after   13 cycles
            NFock= 13  Conv=0.50D-08     -V/T= 2.0093
 KE= 3.880715535430D+02 PE=-1.970889874580D+03 EE= 6.582327872693D+02
 Leave Link  502 at Wed Jul 14 20:01:57 2021, MaxMem=   524288000 cpu:             498.7 elap:              83.5
 (Enter /opt/gaussian/g16_legacy/l601.exe)
 Copying SCF densities to generalized density rwf, IOpCl= 0 IROHF=0.

 **********************************************************************

            Population analysis using the SCF density.

 **********************************************************************

 Orbital symmetries:
       Occupied  (A) (A) (A) (A) (A) (A) (A) (A) (A) (A) (A) (A)
                 (A) (A) (A) (A) (A) (A) (A) (A) (A) (A) (A) (A)
                 (A) (A) (A) (A) (A) (A) (A) (A) (A) (A) (A) (A)
                 (A) (A) (A)
       Virtual   (A) (A) (A) (A) (A) (A) (A) (A) (A) (A) (A) (A)
                 (A) (A) (A) (A) (A) (A) (A) (A) (A) (A) (A) (A)
                 (A) (A) (A) (A) (A) (A) (A) (A) (A) (A) (A) (A)
                 (A) (A) (A) (A) (A) (A) (A) (A) (A) (A) (A) (A)
                 (A) (A) (A) (A) (A) (A) (A) (A) (A) (A) (A) (A)
                 (A) (A) (A) (A) (A) (A) (A) (A) (A) (A) (A) (A)
                 (A) (A) (A) (A) (A) (A) (A) (A) (A) (A) (A) (A)
                 (A) (A) (A) (A) (A) (A) (A) (A) (A) (A) (A) (A)
                 (A) (A) (A) (A) (A) (A) (A) (A) (A) (A) (A) (A)
                 (A) (A) (A) (A) (A) (A) (A) (A) (A) (A) (A) (A)
                 (A) (A) (A) (A) (A) (A) (A) (A) (A) (A) (A) (A)
                 (A) (A) (A) (A) (A) (A) (A) (A) (A) (A) (A) (A)
                 (A) (A) (A) (A) (A) (A) (A) (A) (A) (A) (A) (A)
                 (A) (A) (A) (A) (A) (A) (A) (A) (A) (A) (A) (A)
                 (A) (A) (A) (A) (A) (A) (A) (A) (A) (A) (A) (A)
                 (A) (A) (A) (A) (A) (A) (A) (A) (A) (A) (A) (A)
                 (A) (A) (A) (A) (A) (A) (A) (A) (A)
 The electronic state is 1-A.
 Alpha  occ. eigenvalues --  -10.54661 -10.54092 -10.53997 -10.53917 -10.53333
 Alpha  occ. eigenvalues --  -10.53303 -10.53290 -10.53275 -10.53158 -10.52682
 Alpha  occ. eigenvalues --   -0.91929  -0.89697  -0.84645  -0.81408  -0.77682
 Alpha  occ. eigenvalues --   -0.76236  -0.71500  -0.68483  -0.58687  -0.58168
 Alpha  occ. eigenvalues --   -0.52877  -0.52405  -0.50234  -0.49357  -0.48677
 Alpha  occ. eigenvalues --   -0.47991  -0.46573  -0.45296  -0.44541  -0.44495
 Alpha  occ. eigenvalues --   -0.42725  -0.42328  -0.41150  -0.40434  -0.39626
 Alpha  occ. eigenvalues --   -0.37304  -0.36430  -0.28847  -0.26755
 Alpha virt. eigenvalues --    0.07055   0.07456   0.13113   0.14416   0.15978
 Alpha virt. eigenvalues --    0.17194   0.17752   0.19251   0.20069   0.20272
 Alpha virt. eigenvalues --    0.20957   0.21471   0.21750   0.22852   0.23396
 Alpha virt. eigenvalues --    0.24094   0.24909   0.25431   0.26796   0.27392
 Alpha virt. eigenvalues --    0.28159   0.29535   0.30310   0.30734   0.32818
 Alpha virt. eigenvalues --    0.38574   0.39232   0.47765   0.49575   0.52587
 Alpha virt. eigenvalues --    0.54770   0.54988   0.57418   0.58934   0.60111
 Alpha virt. eigenvalues --    0.60728   0.61777   0.62978   0.65141   0.65790
 Alpha virt. eigenvalues --    0.67569   0.68912   0.70053   0.71981   0.73519
 Alpha virt. eigenvalues --    0.73906   0.75615   0.77158   0.78914   0.80233
 Alpha virt. eigenvalues --    0.82252   0.82389   0.83585   0.84049   0.85007
 Alpha virt. eigenvalues --    0.88268   0.88774   0.90768   0.91958   0.92839
 Alpha virt. eigenvalues --    0.93556   0.94838   0.95685   0.96161   0.96249
 Alpha virt. eigenvalues --    0.96923   0.98805   0.99376   0.99962   1.00153
 Alpha virt. eigenvalues --    1.01513   1.02696   1.05074   1.06467   1.06739
 Alpha virt. eigenvalues --    1.08547   1.10793   1.20396   1.21903   1.25706
 Alpha virt. eigenvalues --    1.25855   1.27687   1.35288   1.36448   1.38608
 Alpha virt. eigenvalues --    1.39890   1.42716   1.45940   1.52026   1.52737
 Alpha virt. eigenvalues --    1.53474   1.57125   1.66463   1.69908   1.72362
 Alpha virt. eigenvalues --    1.74517   1.78031   1.78954   1.79928   1.83044
 Alpha virt. eigenvalues --    1.83924   1.85560   1.86395   1.88892   1.90226
 Alpha virt. eigenvalues --    1.91385   1.93683   1.94583   1.99846   2.01745
 Alpha virt. eigenvalues --    2.03129   2.05487   2.06731   2.08098   2.09543
 Alpha virt. eigenvalues --    2.10170   2.10271   2.11227   2.13481   2.14094
 Alpha virt. eigenvalues --    2.15404   2.16263   2.16655   2.17886   2.18644
 Alpha virt. eigenvalues --    2.20151   2.22106   2.23141   2.23342   2.25569
 Alpha virt. eigenvalues --    2.28732   2.30024   2.30936   2.34437   2.35464
 Alpha virt. eigenvalues --    2.38012   2.39719   2.43438   2.44397   2.46078
 Alpha virt. eigenvalues --    2.47763   2.48920   2.50134   2.52440   2.53592
 Alpha virt. eigenvalues --    2.56072   2.57575   2.61831   2.62273   2.64299
 Alpha virt. eigenvalues --    2.65460   2.66959   2.68780   2.70610   2.71598
 Alpha virt. eigenvalues --    2.74430   2.75386   2.76314   2.79027   2.84053
 Alpha virt. eigenvalues --    2.85224   2.85856   2.87026   2.88225   2.88791
 Alpha virt. eigenvalues --    2.89773   2.91490   2.92707   2.94592   3.01841
 Alpha virt. eigenvalues --    3.03248   3.08554   3.09298   3.17873   3.19924
 Alpha virt. eigenvalues --    3.20951   3.23193   3.31491   3.32105   3.40130
 Alpha virt. eigenvalues --    3.41900   3.42574   3.43374   3.44196   3.44931
 Alpha virt. eigenvalues --    3.45494   3.47200   3.48059   3.50426   3.52101
 Alpha virt. eigenvalues --    3.55930   4.18740   4.21831   4.34254   4.43006
 Alpha virt. eigenvalues --    4.51622   4.52600   4.53304   4.68296   4.71798
 Alpha virt. eigenvalues --    4.74196
          Condensed to atoms (all electrons):
               1          2          3          4          5          6
     1  C    5.052736   0.378381   0.389451   0.362016  -0.067257   0.004674
     2  H    0.378381   0.608107  -0.034800  -0.033028   0.004467  -0.000188
     3  H    0.389451  -0.034800   0.609980  -0.038485  -0.006640   0.000176
     4  C    0.362016  -0.033028  -0.038485   4.750786   0.371688  -0.035622
     5  C   -0.067257   0.004467  -0.006640   0.371688   5.005661   0.383026
     6  H    0.004674  -0.000188   0.000176  -0.035622   0.383026   0.584854
     7  H   -0.004880   0.000121   0.003951  -0.033604   0.378925  -0.028183
     8  H    0.000545   0.000034   0.000085  -0.035588   0.377760  -0.026876
     9  C   -0.052253  -0.008634   0.004123   0.716804  -0.043180  -0.005304
    10  H    0.005781   0.000001  -0.000166  -0.030164  -0.013560   0.006250
    11  C   -0.012185   0.000935   0.000191  -0.045201   0.006209   0.000111
    12  H    0.003148   0.001910  -0.000071  -0.008258   0.000099   0.000007
    13  H    0.000126   0.000290   0.000016  -0.000457  -0.000142  -0.000004
    14  H    0.000365  -0.000152  -0.000011   0.000505  -0.000151  -0.000010
    15  C   -0.000115   0.000003  -0.000005  -0.000031  -0.000023  -0.000001
    16  H    0.000022  -0.000000  -0.000000  -0.000008   0.000072  -0.000004
    17  H   -0.000005   0.000000   0.000000   0.000001  -0.000001   0.000000
    18  H   -0.000004   0.000000   0.000002  -0.000000  -0.000001   0.000000
    19  C   -0.001949  -0.000074   0.000343   0.002704  -0.002660   0.000112
    20  C    0.000276  -0.000015  -0.000005  -0.000233   0.000134  -0.000008
    21  H   -0.000560   0.000036   0.000009   0.001740  -0.000021  -0.000003
    22  H   -0.000036   0.000001   0.000000   0.000037  -0.000004   0.000000
    23  H    0.000069  -0.000001   0.000001  -0.000120   0.000202  -0.000019
    24  C   -0.054269   0.005117  -0.005872  -0.001633  -0.002107   0.000015
    25  H   -0.001029  -0.000129   0.003094  -0.000440   0.000151   0.000001
    26  C    0.342718  -0.032798  -0.040720  -0.043614   0.000502  -0.000085
    27  H   -0.041294  -0.005645  -0.001854   0.005763  -0.000180   0.000004
    28  H   -0.036754  -0.003000   0.005144  -0.008244   0.000042   0.000005
               7          8          9         10         11         12
     1  C   -0.004880   0.000545  -0.052253   0.005781  -0.012185   0.003148
     2  H    0.000121   0.000034  -0.008634   0.000001   0.000935   0.001910
     3  H    0.003951   0.000085   0.004123  -0.000166   0.000191  -0.000071
     4  C   -0.033604  -0.035588   0.716804  -0.030164  -0.045201  -0.008258
     5  C    0.378925   0.377760  -0.043180  -0.013560   0.006209   0.000099
     6  H   -0.028183  -0.026876  -0.005304   0.006250   0.000111   0.000007
     7  H    0.593814  -0.033145  -0.000360   0.000325  -0.000176   0.000001
     8  H   -0.033145   0.578622  -0.001327   0.000250  -0.000175  -0.000002
     9  C   -0.000360  -0.001327   4.903833   0.378125   0.359734  -0.034247
    10  H    0.000325   0.000250   0.378125   0.611043  -0.056197   0.004572
    11  C   -0.000176  -0.000175   0.359734  -0.056197   4.978204   0.389498
    12  H    0.000001  -0.000002  -0.034247   0.004572   0.389498   0.581219
    13  H    0.000023  -0.000005  -0.035990  -0.001347   0.386048  -0.027953
    14  H   -0.000005   0.000020  -0.034126  -0.002271   0.385907  -0.029687
    15  C    0.000001   0.000052   0.000000  -0.000000  -0.000000  -0.000000
    16  H   -0.000002  -0.000089  -0.000000  -0.000000   0.000000  -0.000000
    17  H    0.000000   0.000013   0.000000   0.000000  -0.000000   0.000000
    18  H    0.000000  -0.000004   0.000000   0.000000  -0.000000   0.000000
    19  C    0.000064   0.002730   0.000294  -0.000000  -0.000007  -0.000003
    20  C   -0.000000  -0.000060  -0.000428   0.000004  -0.000017  -0.000000
    21  H    0.000006  -0.000168   0.001661  -0.000008   0.000036  -0.000038
    22  H    0.000000   0.000011   0.000016   0.000000  -0.000001   0.000000
    23  H   -0.000001  -0.000152  -0.000026  -0.000000  -0.000000   0.000000
    24  C    0.000130   0.007296  -0.000362   0.000001   0.000078   0.000046
    25  H   -0.000028   0.000159  -0.000011  -0.000000  -0.000000   0.000001
    26  C   -0.000023  -0.000566  -0.004697  -0.000119  -0.000265  -0.000509
    27  H    0.000014  -0.000013   0.000185   0.000005  -0.000083   0.000144
    28  H   -0.000003   0.000097   0.001256  -0.000081   0.000827   0.000846
              13         14         15         16         17         18
     1  C    0.000126   0.000365  -0.000115   0.000022  -0.000005  -0.000004
     2  H    0.000290  -0.000152   0.000003  -0.000000   0.000000   0.000000
     3  H    0.000016  -0.000011  -0.000005  -0.000000   0.000000   0.000002
     4  C   -0.000457   0.000505  -0.000031  -0.000008   0.000001  -0.000000
     5  C   -0.000142  -0.000151  -0.000023   0.000072  -0.000001  -0.000001
     6  H   -0.000004  -0.000010  -0.000001  -0.000004   0.000000   0.000000
     7  H    0.000023  -0.000005   0.000001  -0.000002   0.000000   0.000000
     8  H   -0.000005   0.000020   0.000052  -0.000089   0.000013  -0.000004
     9  C   -0.035990  -0.034126   0.000000  -0.000000   0.000000   0.000000
    10  H   -0.001347  -0.002271  -0.000000  -0.000000   0.000000   0.000000
    11  C    0.386048   0.385907  -0.000000   0.000000  -0.000000  -0.000000
    12  H   -0.027953  -0.029687  -0.000000  -0.000000   0.000000   0.000000
    13  H    0.577715  -0.031841   0.000000  -0.000000   0.000000   0.000000
    14  H   -0.031841   0.580337   0.000000   0.000000   0.000000  -0.000000
    15  C    0.000000   0.000000   5.006691   0.380928   0.382184   0.384802
    16  H   -0.000000   0.000000   0.380928   0.589835  -0.034193  -0.027233
    17  H    0.000000   0.000000   0.382184  -0.034193   0.588940  -0.027317
    18  H    0.000000  -0.000000   0.384802  -0.027233  -0.027317   0.573195
    19  C    0.000000  -0.000001   0.364897  -0.036043  -0.037592  -0.033153
    20  C   -0.000000   0.000024  -0.079133  -0.002150  -0.000667   0.004678
    21  H    0.000005   0.000033   0.004811  -0.000060  -0.000009  -0.000166
    22  H    0.000000  -0.000002  -0.002225  -0.000753   0.003906  -0.000054
    23  H   -0.000000   0.000001  -0.003308   0.004500  -0.000866   0.000024
    24  C   -0.000001  -0.000002  -0.036484  -0.001153  -0.001266  -0.004793
    25  H    0.000000  -0.000000  -0.013498   0.000262   0.000234   0.006172
    26  C   -0.000020   0.000086   0.005822  -0.000129  -0.000205   0.000108
    27  H    0.000004  -0.000013  -0.000180  -0.000004   0.000018  -0.000011
    28  H    0.000009   0.000013   0.000089  -0.000002   0.000002   0.000010
              19         20         21         22         23         24
     1  C   -0.001949   0.000276  -0.000560  -0.000036   0.000069  -0.054269
     2  H   -0.000074  -0.000015   0.000036   0.000001  -0.000001   0.005117
     3  H    0.000343  -0.000005   0.000009   0.000000   0.000001  -0.005872
     4  C    0.002704  -0.000233   0.001740   0.000037  -0.000120  -0.001633
     5  C   -0.002660   0.000134  -0.000021  -0.000004   0.000202  -0.002107
     6  H    0.000112  -0.000008  -0.000003   0.000000  -0.000019   0.000015
     7  H    0.000064  -0.000000   0.000006   0.000000  -0.000001   0.000130
     8  H    0.002730  -0.000060  -0.000168   0.000011  -0.000152   0.007296
     9  C    0.000294  -0.000428   0.001661   0.000016  -0.000026  -0.000362
    10  H   -0.000000   0.000004  -0.000008   0.000000  -0.000000   0.000001
    11  C   -0.000007  -0.000017   0.000036  -0.000001  -0.000000   0.000078
    12  H   -0.000003  -0.000000  -0.000038   0.000000   0.000000   0.000046
    13  H    0.000000  -0.000000   0.000005   0.000000  -0.000000  -0.000001
    14  H   -0.000001   0.000024   0.000033  -0.000002   0.000001  -0.000002
    15  C    0.364897  -0.079133   0.004811  -0.002225  -0.003308  -0.036484
    16  H   -0.036043  -0.002150  -0.000060  -0.000753   0.004500  -0.001153
    17  H   -0.037592  -0.000667  -0.000009   0.003906  -0.000866  -0.001266
    18  H   -0.033153   0.004678  -0.000166  -0.000054   0.000024  -0.004793
    19  C    4.739510   0.379739  -0.025969  -0.037077  -0.035908   0.709630
    20  C    0.379739   5.002258   0.380757   0.380845   0.385063  -0.050218
    21  H   -0.025969   0.380757   0.568892  -0.026828  -0.028363  -0.007698
    22  H   -0.037077   0.380845  -0.026828   0.586217  -0.033241   0.000107
    23  H   -0.035908   0.385063  -0.028363  -0.033241   0.583148   0.000478
    24  C    0.709630  -0.050218  -0.007698   0.000107   0.000478   4.904112
    25  H   -0.032893   0.006100   0.000008  -0.000162  -0.000158   0.376112
    26  C   -0.039469  -0.014383   0.001368   0.000278   0.000473   0.373152
    27  H    0.001857   0.000273  -0.000004   0.000048  -0.000019  -0.037621
    28  H   -0.006164   0.001010   0.003322  -0.000050  -0.000140  -0.037951
              25         26         27         28
     1  C   -0.001029   0.342718  -0.041294  -0.036754
     2  H   -0.000129  -0.032798  -0.005645  -0.003000
     3  H    0.003094  -0.040720  -0.001854   0.005144
     4  C   -0.000440  -0.043614   0.005763  -0.008244
     5  C    0.000151   0.000502  -0.000180   0.000042
     6  H    0.000001  -0.000085   0.000004   0.000005
     7  H   -0.000028  -0.000023   0.000014  -0.000003
     8  H    0.000159  -0.000566  -0.000013   0.000097
     9  C   -0.000011  -0.004697   0.000185   0.001256
    10  H   -0.000000  -0.000119   0.000005  -0.000081
    11  C   -0.000000  -0.000265  -0.000083   0.000827
    12  H    0.000001  -0.000509   0.000144   0.000846
    13  H    0.000000  -0.000020   0.000004   0.000009
    14  H   -0.000000   0.000086  -0.000013   0.000013
    15  C   -0.013498   0.005822  -0.000180   0.000089
    16  H    0.000262  -0.000129  -0.000004  -0.000002
    17  H    0.000234  -0.000205   0.000018   0.000002
    18  H    0.006172   0.000108  -0.000011   0.000010
    19  C   -0.032893  -0.039469   0.001857  -0.006164
    20  C    0.006100  -0.014383   0.000273   0.001010
    21  H    0.000008   0.001368  -0.000004   0.003322
    22  H   -0.000162   0.000278   0.000048  -0.000050
    23  H   -0.000158   0.000473  -0.000019  -0.000140
    24  C    0.376112   0.373152  -0.037621  -0.037951
    25  H    0.616283  -0.054722  -0.004766   0.004821
    26  C   -0.054722   4.971689   0.382491   0.392562
    27  H   -0.004766   0.382491   0.616140  -0.034485
    28  H    0.004821   0.392562  -0.034485   0.602463
 Mulliken charges:
               1
     1  C   -0.267720
     2  H    0.119063
     3  H    0.112063
     4  C    0.102687
     5  C   -0.393010
     6  H    0.117072
     7  H    0.123037
     8  H    0.130496
     9  C   -0.145086
    10  H    0.097557
    11  C   -0.393472
    12  H    0.119276
    13  H    0.133524
    14  H    0.130982
    15  C   -0.395276
    16  H    0.126204
    17  H    0.126823
    18  H    0.123744
    19  C    0.087079
    20  C   -0.393842
    21  H    0.127213
    22  H    0.128965
    23  H    0.128366
    24  C   -0.134843
    25  H    0.094438
    26  C   -0.238925
    27  H    0.119227
    28  H    0.114358
 Sum of Mulliken charges =  -0.00000
 Mulliken charges with hydrogens summed into heavy atoms:
               1
     1  C   -0.036594
     4  C    0.102687
     5  C   -0.022406
     9  C   -0.047529
    11  C   -0.009690
    15  C   -0.018505
    19  C    0.087079
    20  C   -0.009298
    24  C   -0.040404
    26  C   -0.005340
 Electronic spatial extent (au):  <R**2>=           2003.9812
 Charge=             -0.0000 electrons
 Dipole moment (field-independent basis, Debye):
    X=              0.1894    Y=             -0.1956    Z=             -0.0102  Tot=              0.2724
 Quadrupole moment (field-independent basis, Debye-Ang):
   XX=            -64.1757   YY=            -64.0342   ZZ=            -63.5176
   XY=              1.2010   XZ=             -0.7646   YZ=              0.9334
 Traceless Quadrupole moment (field-independent basis, Debye-Ang):
   XX=             -0.2666   YY=             -0.1250   ZZ=              0.3916
   XY=              1.2010   XZ=             -0.7646   YZ=              0.9334
 Octapole moment (field-independent basis, Debye-Ang**2):
  XXX=              3.7895  YYY=             -0.4604  ZZZ=             -1.2798  XYY=              1.2587
  XXY=             -4.4412  XXZ=             -3.7121  XZZ=             -2.5048  YZZ=              1.7789
  YYZ=              0.6402  XYZ=              1.4892
 Hexadecapole moment (field-independent basis, Debye-Ang**3):
 XXXX=          -1790.6619 YYYY=           -518.1275 ZZZZ=           -440.0686 XXXY=             10.2488
 XXXZ=              0.8363 YYYX=             -3.5905 YYYZ=              6.3892 ZZZX=              0.4349
 ZZZY=             -1.4235 XXYY=           -385.9032 XXZZ=           -374.0622 YYZZ=           -163.6380
 XXYZ=              6.5575 YYXZ=              1.9424 ZZXY=              4.3428
 N-N= 5.328963823571D+02 E-N=-1.970889872555D+03  KE= 3.880715535430D+02
 No NMR shielding tensors so no spin-rotation constants.
 Leave Link  601 at Wed Jul 14 20:02:00 2021, MaxMem=   524288000 cpu:              11.3 elap:               2.5
 (Enter /opt/gaussian/g16_legacy/l701.exe)
 ... and contract with generalized density number  0.
 Compute integral first derivatives.
 Leave Link  701 at Wed Jul 14 20:02:01 2021, MaxMem=   524288000 cpu:               3.5 elap:               1.0
 (Enter /opt/gaussian/g16_legacy/l702.exe)
 L702 exits ... SP integral derivatives will be done elsewhere.
 Leave Link  702 at Wed Jul 14 20:02:01 2021, MaxMem=   524288000 cpu:               0.3 elap:               0.1
 (Enter /opt/gaussian/g16_legacy/l703.exe)
 Integral derivatives from FoFJK, PRISM(SPDF).
 Compute integral first derivatives, UseDBF=F ICtDFT=           0.
 Calling FoFJK, ICntrl=      2127 FMM=F ISym2X=0 I1Cent= 0 IOpClX= 0 NMat=1 NMatS=1 NMatT=0.
 FoFJK:  IHMeth= 1 ICntrl=    2127 DoSepK=F KAlg= 0 I1Cent=           0 FoldK=F
 IRaf=         0 NMat=       1 IRICut=       1 DoRegI=T DoRafI=F ISym2E= 0 IDoP0=0 IntGTp=1.
 FoFCou: FMM=F IPFlag=           0 FMFlag=      100000 FMFlg1=         800
         NFxFlg=           0 DoJE=F BraDBF=F KetDBF=F FulRan=T
         wScrn=  0.000000 ICntrl=      2127 IOpCl=  0 I1Cent=           0 NGrid=           0
         NMat0=    1 NMatS0=      1 NMatT0=    0 NMatD0=    1 NMtDS0=    0 NMtDT0=    0
 Symmetry not used in FoFCou.
 Leave Link  703 at Wed Jul 14 20:02:15 2021, MaxMem=   524288000 cpu:              84.4 elap:              14.1
 (Enter /opt/gaussian/g16_legacy/l716.exe)
 Dipole        = 7.45050037D-02-7.69549330D-02-4.01694173D-03
 ***** Axes restored to original set *****
 -------------------------------------------------------------------
 Center     Atomic                   Forces (Hartrees/Bohr)
 Number     Number              X              Y              Z
 -------------------------------------------------------------------
      1        6          -0.009106767   -0.004858101   -0.000298618
      2        1           0.001132337   -0.001422043   -0.000127549
      3        1           0.003267932   -0.000546470   -0.001203509
      4        6          -0.003726157   -0.006215821   -0.008451615
      5        6          -0.000823889   -0.002720115   -0.004195907
      6        1          -0.000654454   -0.001143815    0.001653331
      7        1           0.001702763    0.001720318    0.000908261
      8        1           0.000926362    0.002342562    0.002547778
      9        6           0.006840667    0.011373610    0.006766955
     10        1           0.001271321    0.002651285   -0.000495094
     11        6           0.000318018    0.000757225    0.001981551
     12        1           0.000158940    0.001172045   -0.000064995
     13        1          -0.000423026   -0.002955839    0.000437749
     14        1          -0.001878126   -0.001761396    0.000423135
     15        6          -0.001975913    0.002774572    0.002146566
     16        1           0.002649420   -0.001241020   -0.000354165
     17        1           0.001783879   -0.000326959   -0.002361340
     18        1          -0.001199203   -0.001920376   -0.000092922
     19        6          -0.010801119    0.008397656    0.005444621
     20        6          -0.004284005   -0.001455585    0.001427174
     21        1          -0.000750791    0.001601396    0.000841203
     22        1           0.001972572   -0.000468355   -0.001936546
     23        1           0.002291338   -0.000254104    0.000455284
     24        6           0.006562302   -0.009327537   -0.006673001
     25        1           0.001652249    0.000962067   -0.001212372
     26        6           0.004397249    0.002100981    0.005669773
     27        1          -0.001205641    0.000458272    0.000163486
     28        1          -0.000098258    0.000305546   -0.003399235
 -------------------------------------------------------------------
 Cartesian Forces:  Max     0.011373610 RMS     0.003607479
 Leave Link  716 at Wed Jul 14 20:02:15 2021, MaxMem=   524288000 cpu:               0.4 elap:               0.1
 (Enter /opt/gaussian/g16_legacy/l103.exe)

 GradGradGradGradGradGradGradGradGradGradGradGradGradGradGradGradGradGrad
 Berny optimization.
 FormGI is forming the generalized inverse of G from B-inverse, IUseBI=4.
 Internal  Forces:  Max     0.015133966 RMS     0.002573970
 Search for a local minimum.
 Step number   1 out of a maximum of  138
 All quantities printed in internal units (Hartrees-Bohrs-Radians)
 RMS Force = .25740D-02 SwitMx=.10000D-02 MixMth= 1
 Mixed Optimization -- RFO/linear search
 Second derivative matrix not updated -- first step.
 ITU=  0
     Eigenvalues ---    0.00292   0.00551   0.00671   0.00682   0.00688
     Eigenvalues ---    0.00714   0.00822   0.01207   0.01288   0.01564
     Eigenvalues ---    0.01640   0.02774   0.02782   0.03778   0.03849
     Eigenvalues ---    0.05302   0.05417   0.06958   0.07045   0.07079
     Eigenvalues ---    0.07092   0.07242   0.07301   0.07352   0.07503
     Eigenvalues ---    0.09574   0.09667   0.13019   0.13059   0.15999
     Eigenvalues ---    0.15999   0.16000   0.16000   0.16000   0.16000
     Eigenvalues ---    0.16000   0.16000   0.16000   0.16000   0.16000
     Eigenvalues ---    0.16000   0.16000   0.16000   0.21899   0.21912
     Eigenvalues ---    0.22000   0.22000   0.24985   0.24992   0.24997
     Eigenvalues ---    0.24998   0.28894   0.30733   0.31637   0.31718
     Eigenvalues ---    0.31763   0.31972   0.32825   0.33900   0.33905
     Eigenvalues ---    0.33965   0.34196   0.34213   0.34228   0.34241
     Eigenvalues ---    0.34241   0.34242   0.34254   0.34282   0.34315
     Eigenvalues ---    0.34372   0.34430   0.34548   0.34608   0.34809
     Eigenvalues ---    0.34865   0.55407   0.55531
 RFO step:  Lambda=-4.92206025D-03 EMin= 2.92413640D-03
 Linear search not attempted -- first point.
 Iteration  1 RMS(Cart)=  0.17324540 RMS(Int)=  0.00461456
 Iteration  2 RMS(Cart)=  0.00791142 RMS(Int)=  0.00035059
 Iteration  3 RMS(Cart)=  0.00002992 RMS(Int)=  0.00035034
 Iteration  4 RMS(Cart)=  0.00000001 RMS(Int)=  0.00035034
 ITry= 1 IFail=0 DXMaxC= 6.32D-01 DCOld= 1.00D+10 DXMaxT= 3.00D-01 DXLimC= 3.00D+00 Rises=F
 Variable       Old X    -DE/DX   Delta X   Delta X   Delta X     New X
                                 (Linear)    (Quad)   (Total)
    R1        2.07389  -0.00051   0.00000  -0.00148  -0.00148   2.07241
    R2        2.07500  -0.00083   0.00000  -0.00240  -0.00240   2.07260
    R3        2.86526  -0.00286   0.00000  -0.00916  -0.00916   2.85610
    R4        2.90224   0.00029   0.00000   0.00099   0.00099   2.90322
    R5        2.84814  -0.00005   0.00000  -0.00017  -0.00017   2.84797
    R6        2.54772  -0.01513   0.00000  -0.02707  -0.02707   2.52065
    R7        2.06972  -0.00120   0.00000  -0.00347  -0.00347   2.06626
    R8        2.06926   0.00063   0.00000   0.00180   0.00180   2.07106
    R9        2.06610   0.00184   0.00000   0.00526   0.00526   2.07136
   R10        2.05895   0.00008   0.00000   0.00022   0.00022   2.05918
   R11        2.82660   0.00427   0.00000   0.01281   0.01281   2.83941
   R12        2.06416   0.00011   0.00000   0.00031   0.00031   2.06446
   R13        2.06801   0.00077   0.00000   0.00222   0.00222   2.07023
   R14        2.06857   0.00039   0.00000   0.00113   0.00113   2.06969
   R15        2.06924   0.00060   0.00000   0.00172   0.00172   2.07096
   R16        2.06926   0.00065   0.00000   0.00187   0.00187   2.07113
   R17        2.06948  -0.00166   0.00000  -0.00479  -0.00479   2.06469
   R18        2.84662   0.00070   0.00000   0.00218   0.00218   2.84881
   R19        2.84194   0.00016   0.00000   0.00048   0.00048   2.84243
   R20        2.54663  -0.01344   0.00000  -0.02400  -0.02400   2.52264
   R21        2.06317  -0.00016   0.00000  -0.00044  -0.00044   2.06272
   R22        2.06903   0.00082   0.00000   0.00235   0.00235   2.07138
   R23        2.07000   0.00003   0.00000   0.00010   0.00010   2.07010
   R24        2.05986   0.00054   0.00000   0.00154   0.00154   2.06140
   R25        2.84580  -0.00187   0.00000  -0.00581  -0.00581   2.83998
   R26        2.07490   0.00041   0.00000   0.00120   0.00120   2.07610
   R27        2.06706   0.00011   0.00000   0.00032   0.00032   2.06738
    A1        1.82592   0.00078   0.00000   0.02988   0.03001   1.85594
    A2        1.90524   0.00302   0.00000   0.02765   0.02792   1.93316
    A3        1.89430   0.00155   0.00000   0.01571   0.01608   1.91039
    A4        1.91427   0.00124   0.00000  -0.01345  -0.01471   1.89956
    A5        1.92050   0.00039   0.00000  -0.01730  -0.01833   1.90217
    A6        1.99572  -0.00631   0.00000  -0.03569  -0.03627   1.95945
    A7        2.01413   0.00246   0.00000   0.01023   0.00941   2.02354
    A8        2.16736  -0.00689   0.00000  -0.02636  -0.02711   2.14025
    A9        2.10124   0.00447   0.00000   0.01823   0.01739   2.11863
   A10        1.95828  -0.00190   0.00000  -0.00673  -0.00674   1.95154
   A11        1.92343   0.00160   0.00000   0.00763   0.00761   1.93105
   A12        1.93563  -0.00069   0.00000  -0.00686  -0.00688   1.92876
   A13        1.87553   0.00110   0.00000   0.01187   0.01187   1.88740
   A14        1.87467   0.00211   0.00000   0.01673   0.01673   1.89140
   A15        1.89385  -0.00220   0.00000  -0.02265  -0.02268   1.87117
   A16        2.06935  -0.00158   0.00000  -0.01200  -0.01200   2.05736
   A17        2.22467  -0.00298   0.00000  -0.01324  -0.01324   2.21143
   A18        1.98911   0.00456   0.00000   0.02524   0.02524   2.01435
   A19        1.98111  -0.00265   0.00000  -0.01571  -0.01564   1.96547
   A20        1.91506   0.00338   0.00000   0.02019   0.02016   1.93522
   A21        1.91189   0.00295   0.00000   0.01786   0.01782   1.92971
   A22        1.88665  -0.00047   0.00000  -0.00274  -0.00267   1.88398
   A23        1.87888  -0.00014   0.00000  -0.00026  -0.00019   1.87869
   A24        1.88775  -0.00327   0.00000  -0.02063  -0.02079   1.86696
   A25        1.89489  -0.00316   0.00000  -0.02643  -0.02641   1.86848
   A26        1.87890   0.00095   0.00000   0.00947   0.00949   1.88839
   A27        1.92463   0.00171   0.00000   0.00864   0.00866   1.93328
   A28        1.87879   0.00081   0.00000   0.00821   0.00823   1.88703
   A29        1.92371   0.00184   0.00000   0.00922   0.00923   1.93295
   A30        1.96089  -0.00226   0.00000  -0.01001  -0.01000   1.95090
   A31        1.99322   0.00146   0.00000   0.00572   0.00572   1.99895
   A32        2.10483   0.00253   0.00000   0.00993   0.00993   2.11476
   A33        2.18503  -0.00399   0.00000  -0.01565  -0.01565   2.16938
   A34        1.98312  -0.00253   0.00000  -0.01176  -0.01175   1.97137
   A35        1.92095   0.00185   0.00000   0.01039   0.01041   1.93136
   A36        1.91994   0.00012   0.00000  -0.00190  -0.00189   1.91805
   A37        1.88115   0.00122   0.00000   0.01233   0.01235   1.89351
   A38        1.86502   0.00162   0.00000   0.01159   0.01159   1.87660
   A39        1.89065  -0.00233   0.00000  -0.02132  -0.02131   1.86934
   A40        2.06435  -0.00102   0.00000  -0.00776  -0.00801   2.05634
   A41        2.23218  -0.00223   0.00000  -0.00978  -0.01003   2.22215
   A42        1.98652   0.00326   0.00000   0.01817   0.01791   2.00443
   A43        1.98308  -0.00286   0.00000  -0.01870  -0.01966   1.96342
   A44        1.88582   0.00090   0.00000   0.02094   0.02109   1.90691
   A45        1.92696  -0.00103   0.00000  -0.03070  -0.03188   1.89509
   A46        1.86515   0.00269   0.00000   0.03893   0.03906   1.90421
   A47        1.95783  -0.00003   0.00000  -0.02468  -0.02610   1.93173
   A48        1.83643   0.00083   0.00000   0.02253   0.02304   1.85947
    D1        2.44642   0.00185   0.00000   0.05185   0.05150   2.49792
    D2       -0.66270   0.00049   0.00000  -0.02311  -0.02258  -0.68528
    D3        0.45533  -0.00140   0.00000   0.00839   0.00818   0.46351
    D4       -2.65379  -0.00276   0.00000  -0.06657  -0.06590  -2.71969
    D5       -1.71133   0.00176   0.00000   0.06828   0.06752  -1.64381
    D6        1.46273   0.00040   0.00000  -0.00668  -0.00656   1.45617
    D7       -2.87024  -0.00272   0.00000  -0.11129  -0.11098  -2.98121
    D8       -0.80383  -0.00049   0.00000  -0.05992  -0.05984  -0.86368
    D9        1.19582   0.00045   0.00000  -0.03763  -0.03802   1.15781
   D10       -0.88181  -0.00074   0.00000  -0.07632  -0.07630  -0.95811
   D11        1.18460   0.00149   0.00000  -0.02495  -0.02517   1.15943
   D12       -3.09893   0.00243   0.00000  -0.00267  -0.00334  -3.10228
   D13        1.28153  -0.00348   0.00000  -0.13442  -0.13382   1.14771
   D14       -2.93525  -0.00125   0.00000  -0.08305  -0.08269  -3.01794
   D15       -0.93560  -0.00031   0.00000  -0.06076  -0.06086  -0.99646
   D16       -3.11322  -0.00086   0.00000  -0.05582  -0.05643   3.11354
   D17       -1.02400   0.00036   0.00000  -0.04005  -0.04066  -1.06466
   D18        1.07348  -0.00179   0.00000  -0.06783  -0.06842   1.00506
   D19       -0.00276   0.00022   0.00000   0.01517   0.01577   0.01300
   D20        2.08645   0.00144   0.00000   0.03094   0.03153   2.11798
   D21       -2.09926  -0.00070   0.00000   0.00316   0.00377  -2.09548
   D22        3.12115   0.00101   0.00000   0.04905   0.04881  -3.11323
   D23       -0.03251   0.00103   0.00000   0.04926   0.04903   0.01651
   D24        0.01356  -0.00037   0.00000  -0.02926  -0.02903  -0.01547
   D25       -3.14010  -0.00035   0.00000  -0.02905  -0.02881   3.11427
   D26       -0.04533   0.00021   0.00000   0.01273   0.01273  -0.03260
   D27        2.06744   0.00024   0.00000   0.01312   0.01304   2.08048
   D28       -2.14587   0.00006   0.00000   0.01081   0.01090  -2.13497
   D29        3.08466   0.00019   0.00000   0.01273   0.01273   3.09739
   D30       -1.08575   0.00023   0.00000   0.01312   0.01303  -1.07272
   D31        0.98412   0.00004   0.00000   0.01081   0.01090   0.99502
   D32        1.04798  -0.00084   0.00000  -0.00870  -0.00870   1.03928
   D33       -2.07914  -0.00081   0.00000  -0.00859  -0.00859  -2.08773
   D34       -1.04391   0.00083   0.00000   0.01274   0.01273  -1.03118
   D35        2.11215   0.00087   0.00000   0.01285   0.01285   2.12500
   D36       -3.13917   0.00004   0.00000   0.00262   0.00262  -3.13655
   D37        0.01689   0.00008   0.00000   0.00273   0.00273   0.01962
   D38       -3.03952   0.00022   0.00000   0.00302   0.00301  -3.03652
   D39        1.13231  -0.00096   0.00000  -0.01238  -0.01238   1.11994
   D40       -0.94965   0.00069   0.00000   0.00863   0.00863  -0.94101
   D41        0.08683   0.00025   0.00000   0.00315   0.00315   0.08997
   D42       -2.02452  -0.00093   0.00000  -0.01224  -0.01224  -2.03676
   D43        2.17671   0.00071   0.00000   0.00877   0.00877   2.18548
   D44        0.00382   0.00067   0.00000   0.02846   0.02830   0.03212
   D45       -3.11940  -0.00027   0.00000  -0.01662  -0.01646  -3.13586
   D46       -3.12162   0.00066   0.00000   0.02837   0.02821  -3.09341
   D47        0.03835  -0.00029   0.00000  -0.01672  -0.01655   0.02179
   D48       -1.93601   0.00258   0.00000   0.10105   0.10090  -1.83511
   D49        2.26892   0.00135   0.00000   0.06006   0.06008   2.32900
   D50        0.26490  -0.00121   0.00000   0.02299   0.02345   0.28835
   D51        1.22328   0.00170   0.00000   0.05786   0.05749   1.28077
   D52       -0.85498   0.00048   0.00000   0.01687   0.01667  -0.83831
   D53       -2.85900  -0.00208   0.00000  -0.02020  -0.01996  -2.87896
         Item               Value     Threshold  Converged?
 Maximum Force            0.015134     0.002500     NO 
 RMS     Force            0.002574     0.001667     NO 
 Maximum Displacement     0.632422     0.010000     NO 
 RMS     Displacement     0.176587     0.006667     NO 
 Predicted change in Energy=-2.727016D-03
 Lowest energy point so far.  Saving SCF results.
 GradGradGradGradGradGradGradGradGradGradGradGradGradGradGradGradGradGrad

 Leave Link  103 at Wed Jul 14 20:02:16 2021, MaxMem=   524288000 cpu:               4.5 elap:               0.9
 (Enter /opt/gaussian/g16_legacy/l202.exe)
                          Input orientation:                          
 ---------------------------------------------------------------------
 Center     Atomic      Atomic             Coordinates (Angstroms)
[...]
                 (A) (A) (A) (A) (A) (A) (A) (A) (A) (A) (A) (A)
                 (A) (A) (A) (A) (A) (A) (A) (A) (A) (A) (A) (A)
                 (A) (A) (A) (A) (A) (A) (A) (A) (A) (A) (A) (A)
                 (A) (A) (A) (A) (A) (A) (A) (A) (A) (A) (A) (A)
                 (A) (A) (A) (A) (A) (A) (A) (A) (A) (A) (A) (A)
                 (A) (A) (A) (A) (A) (A) (A) (A) (A) (A) (A) (A)
                 (A) (A) (A) (A) (A) (A) (A) (A) (A) (A) (A) (A)
                 (A) (A) (A) (A) (A) (A) (A) (A) (A) (A) (A) (A)
                 (A) (A) (A) (A) (A) (A) (A) (A) (A) (A) (A) (A)
                 (A) (A) (A) (A) (A) (A) (A) (A) (A) (A) (A) (A)
                 (A) (A) (A) (A) (A) (A) (A) (A) (A) (A) (A) (A)
                 (A) (A) (A) (A) (A) (A) (A) (A) (A)
 The electronic state is 1-A.
 Alpha  occ. eigenvalues --  -10.54475 -10.53983 -10.53972 -10.53897 -10.53468
 Alpha  occ. eigenvalues --  -10.53319 -10.53143 -10.53073 -10.53027 -10.52845
 Alpha  occ. eigenvalues --   -0.92302  -0.89691  -0.84490  -0.81454  -0.77582
 Alpha  occ. eigenvalues --   -0.76226  -0.71794  -0.68602  -0.58475  -0.58162
 Alpha  occ. eigenvalues --   -0.53099  -0.52562  -0.50251  -0.49647  -0.48399
 Alpha  occ. eigenvalues --   -0.47851  -0.46459  -0.45432  -0.44530  -0.44084
 Alpha  occ. eigenvalues --   -0.43045  -0.42193  -0.41333  -0.40720  -0.39643
 Alpha  occ. eigenvalues --   -0.37144  -0.36583  -0.28845  -0.27014
 Alpha virt. eigenvalues --    0.06946   0.07788   0.12649   0.14001   0.16114
 Alpha virt. eigenvalues --    0.16748   0.17358   0.19721   0.19900   0.20475
 Alpha virt. eigenvalues --    0.20956   0.21999   0.22564   0.22662   0.23050
 Alpha virt. eigenvalues --    0.24412   0.25408   0.25639   0.26796   0.27771
 Alpha virt. eigenvalues --    0.28256   0.29594   0.30707   0.32591   0.32937
 Alpha virt. eigenvalues --    0.38175   0.39340   0.48243   0.49666   0.51040
 Alpha virt. eigenvalues --    0.54810   0.55328   0.56991   0.57658   0.60428
 Alpha virt. eigenvalues --    0.60726   0.62072   0.63245   0.65038   0.66458
 Alpha virt. eigenvalues --    0.68471   0.69535   0.70035   0.71333   0.73184
 Alpha virt. eigenvalues --    0.75302   0.76324   0.77284   0.78652   0.81019
 Alpha virt. eigenvalues --    0.81725   0.83454   0.83845   0.84607   0.87230
 Alpha virt. eigenvalues --    0.88565   0.89727   0.90384   0.92183   0.93705
 Alpha virt. eigenvalues --    0.94648   0.94794   0.95246   0.96192   0.96747
 Alpha virt. eigenvalues --    0.97140   0.99376   0.99667   1.00427   1.01168
 Alpha virt. eigenvalues --    1.02455   1.04439   1.05152   1.07661   1.09451
 Alpha virt. eigenvalues --    1.11003   1.11926   1.22675   1.23403   1.24397
 Alpha virt. eigenvalues --    1.27500   1.28171   1.36853   1.37780   1.39191
 Alpha virt. eigenvalues --    1.40146   1.41919   1.46669   1.51167   1.52942
 Alpha virt. eigenvalues --    1.54097   1.55585   1.67074   1.70396   1.72762
 Alpha virt. eigenvalues --    1.75190   1.78221   1.79377   1.80044   1.82706
 Alpha virt. eigenvalues --    1.83738   1.85367   1.87339   1.89724   1.90913
 Alpha virt. eigenvalues --    1.91510   1.93644   1.95528   2.01052   2.03124
 Alpha virt. eigenvalues --    2.03914   2.05536   2.06846   2.09681   2.09944
 Alpha virt. eigenvalues --    2.10487   2.10786   2.11740   2.13381   2.15388
 Alpha virt. eigenvalues --    2.16125   2.16639   2.17359   2.18394   2.19636
 Alpha virt. eigenvalues --    2.20768   2.22197   2.23438   2.23949   2.25200
 Alpha virt. eigenvalues --    2.29054   2.30210   2.31738   2.34903   2.35961
 Alpha virt. eigenvalues --    2.38972   2.40116   2.43193   2.43937   2.46640
 Alpha virt. eigenvalues --    2.47266   2.48969   2.50099   2.52888   2.53043
 Alpha virt. eigenvalues --    2.56351   2.57883   2.61587   2.62535   2.64058
 Alpha virt. eigenvalues --    2.65389   2.66383   2.67561   2.70293   2.71599
 Alpha virt. eigenvalues --    2.74846   2.75834   2.76562   2.79371   2.84584
 Alpha virt. eigenvalues --    2.85582   2.86857   2.86922   2.87528   2.89848
 Alpha virt. eigenvalues --    2.90418   2.91411   2.92585   2.93984   3.03085
 Alpha virt. eigenvalues --    3.04467   3.09680   3.10441   3.17442   3.20205
 Alpha virt. eigenvalues --    3.20784   3.24500   3.30947   3.32286   3.40411
 Alpha virt. eigenvalues --    3.42170   3.43145   3.43520   3.44232   3.45059
 Alpha virt. eigenvalues --    3.45888   3.47139   3.48553   3.50281   3.52530
 Alpha virt. eigenvalues --    3.55989   4.18609   4.25469   4.35503   4.43272
 Alpha virt. eigenvalues --    4.51266   4.52478   4.54736   4.70030   4.71895
 Alpha virt. eigenvalues --    4.74614
          Condensed to atoms (all electrons):
               1          2          3          4          5          6
     1  C    5.059628   0.378058   0.388571   0.358164  -0.063746   0.004762
     2  H    0.378058   0.598884  -0.032167  -0.029951   0.003993  -0.000179
     3  H    0.388571  -0.032167   0.611679  -0.040707  -0.006830   0.000186
     4  C    0.358164  -0.029951  -0.040707   4.747902   0.374751  -0.035910
     5  C   -0.063746   0.003993  -0.006830   0.374751   5.005345   0.383953
     6  H    0.004762  -0.000179   0.000186  -0.035910   0.383953   0.581062
     7  H   -0.004603   0.000146   0.003377  -0.031942   0.377242  -0.027294
     8  H    0.000564   0.000040   0.000523  -0.037834   0.377487  -0.025745
     9  C   -0.056584  -0.007691   0.004934   0.719249  -0.044889  -0.005491
    10  H    0.006296  -0.000046  -0.000176  -0.030953  -0.013918   0.006627
    11  C   -0.013097  -0.000202   0.000246  -0.045515   0.006227   0.000078
    12  H    0.004181   0.002951  -0.000071  -0.008990   0.000107   0.000008
    13  H    0.000037   0.000193   0.000007   0.000992  -0.000132  -0.000007
    14  H    0.000594  -0.000235  -0.000017  -0.001394  -0.000149  -0.000004
    15  C   -0.000084   0.000003  -0.000002  -0.000126  -0.000068  -0.000011
    16  H    0.000034  -0.000000  -0.000001  -0.000026   0.000215  -0.000010
    17  H   -0.000007   0.000000   0.000000   0.000001  -0.000003   0.000000
    18  H   -0.000006   0.000000   0.000003   0.000005  -0.000010   0.000000
    19  C   -0.005288  -0.000011   0.000224   0.003895  -0.004119   0.000247
    20  C    0.000099  -0.000009   0.000002   0.000797   0.000088  -0.000047
    21  H   -0.000744   0.000053   0.000001  -0.000056   0.000013  -0.000005
    22  H   -0.000052   0.000001   0.000001   0.000179  -0.000013   0.000001
    23  H    0.000209  -0.000006  -0.000000  -0.000249   0.000649   0.000006
    24  C   -0.058963   0.005401  -0.005487  -0.003096  -0.003277  -0.000010
    25  H    0.000050  -0.000147   0.002530  -0.000494   0.000038   0.000003
    26  C    0.348031  -0.033137  -0.039768  -0.043914  -0.000049  -0.000088
    27  H   -0.040651  -0.003394  -0.003061   0.006022  -0.000186   0.000004
    28  H   -0.038669  -0.004842   0.005509  -0.009294  -0.000030   0.000010
               7          8          9         10         11         12
     1  C   -0.004603   0.000564  -0.056584   0.006296  -0.013097   0.004181
     2  H    0.000146   0.000040  -0.007691  -0.000046  -0.000202   0.002951
     3  H    0.003377   0.000523   0.004934  -0.000176   0.000246  -0.000071
     4  C   -0.031942  -0.037834   0.719249  -0.030953  -0.045515  -0.008990
     5  C    0.377242   0.377487  -0.044889  -0.013918   0.006227   0.000107
     6  H   -0.027294  -0.025745  -0.005491   0.006627   0.000078   0.000008
     7  H    0.592948  -0.034665  -0.000092   0.000299  -0.000170   0.000008
     8  H   -0.034665   0.583374  -0.001371   0.000213  -0.000179  -0.000009
     9  C   -0.000092  -0.001371   4.901475   0.377364   0.362486  -0.035427
    10  H    0.000299   0.000213   0.377364   0.611465  -0.054067   0.004435
    11  C   -0.000170  -0.000179   0.362486  -0.054067   4.981131   0.389241
    12  H    0.000008  -0.000009  -0.035427   0.004435   0.389241   0.581543
    13  H    0.000016  -0.000004  -0.031750  -0.002791   0.386336  -0.027415
    14  H   -0.000006   0.000026  -0.035417  -0.000237   0.383028  -0.030313
    15  C    0.000001   0.000294   0.000002  -0.000001  -0.000001  -0.000000
    16  H   -0.000006  -0.000084  -0.000003   0.000000   0.000000  -0.000000
    17  H    0.000000   0.000026  -0.000000   0.000000   0.000000   0.000000
    18  H    0.000000   0.000016   0.000000   0.000000   0.000000   0.000000
    19  C    0.000110   0.002635   0.000400  -0.000015   0.000023  -0.000012
    20  C    0.000014  -0.000389  -0.000132   0.000019  -0.000780   0.000033
    21  H    0.000001  -0.000020   0.000855  -0.000133   0.000336  -0.000185
    22  H    0.000000   0.000003   0.000180  -0.000001   0.000002   0.000001
    23  H   -0.000005  -0.000370   0.000505   0.000191  -0.000056   0.000003
    24  C    0.000198   0.007801  -0.001483   0.000006   0.000168   0.000115
    25  H   -0.000022   0.000372  -0.000011   0.000000  -0.000001   0.000000
    26  C    0.000046  -0.000838  -0.004968  -0.000171  -0.001160  -0.002194
    27  H    0.000017  -0.000045   0.000236   0.000005  -0.000096   0.000225
    28  H   -0.000008   0.000133   0.000787  -0.000069   0.001750   0.000856
              13         14         15         16         17         18
     1  C    0.000037   0.000594  -0.000084   0.000034  -0.000007  -0.000006
     2  H    0.000193  -0.000235   0.000003  -0.000000   0.000000   0.000000
     3  H    0.000007  -0.000017  -0.000002  -0.000001   0.000000   0.000003
     4  C    0.000992  -0.001394  -0.000126  -0.000026   0.000001   0.000005
     5  C   -0.000132  -0.000149  -0.000068   0.000215  -0.000003  -0.000010
     6  H   -0.000007  -0.000004  -0.000011  -0.000010   0.000000   0.000000
     7  H    0.000016  -0.000006   0.000001  -0.000006   0.000000   0.000000
     8  H   -0.000004   0.000026   0.000294  -0.000084   0.000026   0.000016
     9  C   -0.031750  -0.035417   0.000002  -0.000003  -0.000000   0.000000
    10  H   -0.002791  -0.000237  -0.000001   0.000000   0.000000   0.000000
    11  C    0.386336   0.383028  -0.000001   0.000000   0.000000   0.000000
    12  H   -0.027415  -0.030313  -0.000000  -0.000000   0.000000   0.000000
    13  H    0.575922  -0.033424   0.000000  -0.000000   0.000000  -0.000000
    14  H   -0.033424   0.586298   0.000000   0.000000   0.000000  -0.000000
    15  C    0.000000   0.000000   5.008829   0.381649   0.380613   0.384607
    16  H   -0.000000   0.000000   0.381649   0.592796  -0.036611  -0.026697
    17  H    0.000000   0.000000   0.380613  -0.036611   0.588981  -0.026270
    18  H   -0.000000  -0.000000   0.384607  -0.026697  -0.026270   0.572056
    19  C   -0.000000   0.000014   0.366666  -0.037170  -0.034475  -0.033824
    20  C    0.000016  -0.000074  -0.078666  -0.001044  -0.001780   0.004770
    21  H    0.000001   0.001676   0.004925  -0.000038  -0.000017  -0.000177
    22  H    0.000000  -0.000061  -0.003477  -0.001010   0.004495   0.000009
    23  H   -0.000000   0.000017  -0.002080   0.003929  -0.000714  -0.000038
    24  C   -0.000004   0.000013  -0.038027  -0.001523  -0.000842  -0.004917
    25  H    0.000000  -0.000000  -0.014460   0.000224   0.000283   0.006712
    26  C    0.000060  -0.000107   0.005941  -0.000122  -0.000200   0.000095
    27  H    0.000002  -0.000028  -0.000170  -0.000003   0.000011  -0.000009
    28  H    0.000018   0.000132   0.000063  -0.000006   0.000009   0.000012
              19         20         21         22         23         24
     1  C   -0.005288   0.000099  -0.000744  -0.000052   0.000209  -0.058963
     2  H   -0.000011  -0.000009   0.000053   0.000001  -0.000006   0.005401
     3  H    0.000224   0.000002   0.000001   0.000001  -0.000000  -0.005487
     4  C    0.003895   0.000797  -0.000056   0.000179  -0.000249  -0.003096
     5  C   -0.004119   0.000088   0.000013  -0.000013   0.000649  -0.003277
     6  H    0.000247  -0.000047  -0.000005   0.000001   0.000006  -0.000010
     7  H    0.000110   0.000014   0.000001   0.000000  -0.000005   0.000198
     8  H    0.002635  -0.000389  -0.000020   0.000003  -0.000370   0.007801
     9  C    0.000400  -0.000132   0.000855   0.000180   0.000505  -0.001483
    10  H   -0.000015   0.000019  -0.000133  -0.000001   0.000191   0.000006
    11  C    0.000023  -0.000780   0.000336   0.000002  -0.000056   0.000168
    12  H   -0.000012   0.000033  -0.000185   0.000001   0.000003   0.000115
    13  H   -0.000000   0.000016   0.000001   0.000000  -0.000000  -0.000004
    14  H    0.000014  -0.000074   0.001676  -0.000061   0.000017   0.000013
    15  C    0.366666  -0.078666   0.004925  -0.003477  -0.002080  -0.038027
    16  H   -0.037170  -0.001044  -0.000038  -0.001010   0.003929  -0.001523
    17  H   -0.034475  -0.001780  -0.000017   0.004495  -0.000714  -0.000842
    18  H   -0.033824   0.004770  -0.000177   0.000009  -0.000038  -0.004917
    19  C    4.719356   0.382808  -0.026358  -0.037475  -0.033906   0.714813
    20  C    0.382808   4.991768   0.381844   0.379371   0.383136  -0.051495
    21  H   -0.026358   0.381844   0.577451  -0.026968  -0.028157  -0.008470
    22  H   -0.037475   0.379371  -0.026968   0.596374  -0.035157   0.001509
    23  H   -0.033906   0.383136  -0.028157  -0.035157   0.584005  -0.001242
    24  C    0.714813  -0.051495  -0.008470   0.001509  -0.001242   4.914916
    25  H   -0.034514   0.006458  -0.000002  -0.000160  -0.000179   0.376248
    26  C   -0.038851  -0.015174   0.001638   0.000206   0.000693   0.372261
    27  H    0.002616   0.000371  -0.000039   0.000024  -0.000018  -0.033287
    28  H   -0.006370   0.000253   0.003467   0.000026  -0.000292  -0.040578
              25         26         27         28
     1  C    0.000050   0.348031  -0.040651  -0.038669
     2  H   -0.000147  -0.033137  -0.003394  -0.004842
     3  H    0.002530  -0.039768  -0.003061   0.005509
     4  C   -0.000494  -0.043914   0.006022  -0.009294
     5  C    0.000038  -0.000049  -0.000186  -0.000030
     6  H    0.000003  -0.000088   0.000004   0.000010
     7  H   -0.000022   0.000046   0.000017  -0.000008
     8  H    0.000372  -0.000838  -0.000045   0.000133
     9  C   -0.000011  -0.004968   0.000236   0.000787
    10  H    0.000000  -0.000171   0.000005  -0.000069
    11  C   -0.000001  -0.001160  -0.000096   0.001750
    12  H    0.000000  -0.002194   0.000225   0.000856
    13  H    0.000000   0.000060   0.000002   0.000018
    14  H   -0.000000  -0.000107  -0.000028   0.000132
    15  C   -0.014460   0.005941  -0.000170   0.000063
    16  H    0.000224  -0.000122  -0.000003  -0.000006
    17  H    0.000283  -0.000200   0.000011   0.000009
    18  H    0.006712   0.000095  -0.000009   0.000012
    19  C   -0.034514  -0.038851   0.002616  -0.006370
    20  C    0.006458  -0.015174   0.000371   0.000253
    21  H   -0.000002   0.001638  -0.000039   0.003467
    22  H   -0.000160   0.000206   0.000024   0.000026
    23  H   -0.000179   0.000693  -0.000018  -0.000292
    24  C    0.376248   0.372261  -0.033287  -0.040578
    25  H    0.618377  -0.053679  -0.004874   0.004857
    26  C   -0.053679   4.968871   0.382154   0.392834
    27  H   -0.004874   0.382154   0.609506  -0.032809
    28  H    0.004857   0.392834  -0.032809   0.610126
 Mulliken charges:
               1
     1  C   -0.266783
     2  H    0.122295
     3  H    0.110496
     4  C    0.108495
     5  C   -0.392690
     6  H    0.117855
     7  H    0.124390
     8  H    0.128045
     9  C   -0.143162
    10  H    0.095659
    11  C   -0.395729
    12  H    0.120908
    13  H    0.131928
    14  H    0.129668
    15  C   -0.396420
    16  H    0.125506
    17  H    0.126499
    18  H    0.123662
    19  C    0.098582
    20  C   -0.382259
    21  H    0.119109
    22  H    0.121990
    23  H    0.129125
    24  C   -0.140748
    25  H    0.092389
    26  C   -0.238409
    27  H    0.117476
    28  H    0.112125
 Sum of Mulliken charges =  -0.00000
 Mulliken charges with hydrogens summed into heavy atoms:
               1
     1  C   -0.033993
     4  C    0.108495
     5  C   -0.022400
     9  C   -0.047503
    11  C   -0.013224
    15  C   -0.020753
    19  C    0.098582
    20  C   -0.012035
    24  C   -0.048359
    26  C   -0.008808
 Electronic spatial extent (au):  <R**2>=           1799.2617
 Charge=             -0.0000 electrons
 Dipole moment (field-independent basis, Debye):
    X=              0.1034    Y=             -0.1163    Z=             -0.0549  Tot=              0.1650
 Quadrupole moment (field-independent basis, Debye-Ang):
   XX=            -64.8114   YY=            -63.5057   ZZ=            -64.1014
   XY=              1.1257   XZ=             -1.4643   YZ=              1.1620
 Traceless Quadrupole moment (field-independent basis, Debye-Ang):
   XX=             -0.6719   YY=              0.6338   ZZ=              0.0381
   XY=              1.1257   XZ=             -1.4643   YZ=              1.1620
 Octapole moment (field-independent basis, Debye-Ang**2):
  XXX=              4.4865  YYY=              0.7956  ZZZ=             -2.5913  XYY=              1.0380
  XXY=             -4.4058  XXZ=             -1.3598  XZZ=             -3.2200  YZZ=              1.0029
  YYZ=              0.9148  XYZ=              0.6855
 Hexadecapole moment (field-independent basis, Debye-Ang**3):
 XXXX=          -1452.1315 YYYY=           -548.0939 ZZZZ=           -472.3122 XXXY=             11.4649
 XXXZ=             -6.8475 YYYX=             -2.6411 YYYZ=              1.3904 ZZZX=             -2.4736
 ZZZY=              5.4878 XXYY=           -327.0819 XXZZ=           -327.2189 YYZZ=           -176.7156
 XXYZ=              7.8646 YYXZ=              3.2527 ZZXY=              3.2564
 N-N= 5.462112030892D+02 E-N=-1.997562291345D+03  KE= 3.881308125025D+02
 No NMR shielding tensors so no spin-rotation constants.
 Leave Link  601 at Wed Jul 14 20:20:41 2021, MaxMem=   524288000 cpu:               7.9 elap:               1.6
 (Enter /opt/gaussian/g16_legacy/l9999.exe)
 1\1\GINC-TRUENO90\FOpt\RM062X\6-31G(d,p)\C10H18\JRAMOS\14-Jul-2021\0\\
 #p opt=loose m062x/6-31g(d,p)\\Conformer number 238. Energy MM = 23.95
 9 kcal/mol\\0,1\C,-1.5876306298,0.6818208222,0.9632818831\H,-2.5257197
 273,0.2777499555,1.3595113241\H,-1.6479265031,1.7713931675,1.071277149
 2\C,-1.4335137569,0.3311485946,-0.5031681742\C,-0.9473125742,1.4387669
 297,-1.39873841\H,-0.8218722768,1.0993870211,-2.4298794455\H,-1.652434
 1446,2.2784036347,-1.3958833415\H,0.0128057101,1.8253036915,-1.0380394
 124\C,-1.6778192825,-0.8927605535,-0.9823753839\H,-1.5127275954,-1.064
 6080278,-2.0459295099\C,-2.1485049093,-2.0836967145,-0.1990363827\H,-2
 .4326047399,-1.8255263108,0.8234925713\H,-3.0130178316,-2.5514977963,-
 0.6809990002\H,-1.3666245873,-2.8512342235,-0.1428956042\C,3.082887466
 1,1.0228473957,0.2852439904\H,3.1572976598,1.1627393427,-0.7999068517\
 H,3.9840820991,0.4808227818,0.5945673767\H,3.0931840775,2.0066442521,0
 .7596477665\C,1.8411060249,0.2452136802,0.6353744661\C,1.7653837983,-1
 .1185433567,0.0024222808\H,0.892682774,-1.6905184718,0.3184059752\H,2.
 6677348618,-1.6973291818,0.231011052\H,1.7164357661,-1.0200936028,-1.0
 886353943\C,0.8982383526,0.7736998816,1.4228552334\H,1.0636094311,1.78
 78612556,1.7900670264\C,-0.4143969863,0.1579964742,1.8192395293\H,-0.6
 172164211,0.3863202852,2.872284371\H,-0.3762260554,-0.9323109262,1.734
 5049149\\Version=EM64L-G16RevA.03\State=1-A\HF=-391.6922787\RMSD=4.992
 e-09\RMSF=7.595e-06\Dipole=0.0552088,-0.0315039,-0.0132382\Quadrupole=
 -0.3858278,0.7923185,-0.4064907,0.3953868,-1.3507899,0.6452637\PG=C01 
 [X(C10H18)]\\@


 THOSE WHO TRY TO PASS CHEMISTRY OFF AS A NEW SCIENCE
 SHOW HOW LITTLE KNOWLEDGE THEY HAVE OF THE CHARACTER
 AND LITERATURE OF THE ANCIENTS.
   -- NICOLAS LEFEVRE
 "COURS DE CHYMIE" J.-N.LELOUP, PARIS, 1751
 Job cpu time:       0 days  1 hours 49 minutes 26.9 seconds.
 Elapsed time:       0 days  0 hours 20 minutes 14.8 seconds.
 File lengths (MBytes):  RWF=     42 Int=      0 D2E=      0 Chk=      6 Scr=      1
 Normal termination of Gaussian 16 at Wed Jul 14 20:20:42 2021.
