 Entering Gaussian System, Link 0=/opt/gaussian/g16_legacy/g16
 Input=IsoP_rdkit_03_419_gaussian.com
 Output=IsoP_rdkit_03_419_gaussian.log
 Initial command:
 /opt/gaussian/g16_legacy/l1.exe "/scratch-local/jramos/2643489/Gau-2196.inp" -scrdir="/scratch-local/jramos/2643489/"
 Entering Link 1 = /opt/gaussian/g16_legacy/l1.exe PID=      2197.
  
 Copyright (c) 1988,1990,1992,1993,1995,1998,2003,2009,2016,
            Gaussian, Inc.  All Rights Reserved.
  
 This is part of the Gaussian(R) 16 program.  It is based on
 the Gaussian(R) 09 system (copyright 2009, Gaussian, Inc.),
 the Gaussian(R) 03 system (copyright 2003, Gaussian, Inc.),
 the Gaussian(R) 98 system (copyright 1998, Gaussian, Inc.),
 the Gaussian(R) 94 system (copyright 1995, Gaussian, Inc.),
 the Gaussian 92(TM) system (copyright 1992, Gaussian, Inc.),
 the Gaussian 90(TM) system (copyright 1990, Gaussian, Inc.),
 the Gaussian 88(TM) system (copyright 1988, Gaussian, Inc.),
 the Gaussian 86(TM) system (copyright 1986, Carnegie Mellon
 University), and the Gaussian 82(TM) system (copyright 1983,
 Carnegie Mellon University). Gaussian is a federally registered
 trademark of Gaussian, Inc.
  
 This software contains proprietary and confidential information,
 including trade secrets, belonging to Gaussian, Inc.
  
 This software is provided under written license and may be
 used, copied, transmitted, or stored only in accord with that
 written license.
  
 The following legend is applicable only to US Government
 contracts under FAR:
  
                    RESTRICTED RIGHTS LEGEND
  
 Use, reproduction and disclosure by the US Government is
 subject to restrictions as set forth in subparagraphs (a)
 and (c) of the Commercial Computer Software - Restricted
 Rights clause in FAR 52.227-19.
  
 Gaussian, Inc.
 340 Quinnipiac St., Bldg. 40, Wallingford CT 06492
  
  
 ---------------------------------------------------------------
 Warning -- This program may not be used in any manner that
 competes with the business of Gaussian, Inc. or will provide
 assistance to any competitor of Gaussian, Inc.  The licensee
 of this program is prohibited from giving any competitor of
 Gaussian, Inc. access to this program.  By using this program,
 the user acknowledges that Gaussian, Inc. is engaged in the
 business of creating and licensing software in the field of
 computational chemistry and represents and warrants to the
 licensee that it is not a competitor of Gaussian, Inc. and that
 it will not use this program in any manner prohibited above.
 ---------------------------------------------------------------
  

 Cite this work as:
 Gaussian 16, Revision A.03,
 M. J. Frisch, G. W. Trucks, H. B. Schlegel, G. E. Scuseria, 
 M. A. Robb, J. R. Cheeseman, G. Scalmani, V. Barone, 
 G. A. Petersson, H. Nakatsuji, X. Li, M. Caricato, A. V. Marenich, 
 J. Bloino, B. G. Janesko, R. Gomperts, B. Mennucci, H. P. Hratchian, 
 J. V. Ortiz, A. F. Izmaylov, J. L. Sonnenberg, D. Williams-Young, 
 F. Ding, F. Lipparini, F. Egidi, J. Goings, B. Peng, A. Petrone, 
 T. Henderson, D. Ranasinghe, V. G. Zakrzewski, J. Gao, N. Rega, 
 G. Zheng, W. Liang, M. Hada, M. Ehara, K. Toyota, R. Fukuda, 
 J. Hasegawa, M. Ishida, T. Nakajima, Y. Honda, O. Kitao, H. Nakai, 
 T. Vreven, K. Throssell, J. A. Montgomery, Jr., J. E. Peralta, 
 F. Ogliaro, M. J. Bearpark, J. J. Heyd, E. N. Brothers, K. N. Kudin, 
 V. N. Staroverov, T. A. Keith, R. Kobayashi, J. Normand, 
 K. Raghavachari, A. P. Rendell, J. C. Burant, S. S. Iyengar, 
 J. Tomasi, M. Cossi, J. M. Millam, M. Klene, C. Adamo, R. Cammi, 
 J. W. Ochterski, R. L. Martin, K. Morokuma, O. Farkas, 
 J. B. Foresman, and D. J. Fox, Gaussian, Inc., Wallingford CT, 2016.
 
 ******************************************
 Gaussian 16:  EM64L-G16RevA.03 25-Dec-2016
                14-Jul-2021 
 ******************************************
 %chk=IsoP_rdkit_03_419_gaussian.chk
 %nproc=6
 Will use up to    6 processors via shared memory.
 %mem=4000Mb
 -----------------------------
 #p opt=loose m062x/6-31g(d,p)
 -----------------------------
 1/7=-1,18=20,19=15,26=3,38=1/1,3;
 2/9=110,12=2,17=6,18=5,40=1/2;
 3/5=1,6=6,7=101,11=2,25=1,30=1,71=1,74=-55/1,2,3;
 4//1;
 5/5=2,38=5/2;
 6/7=2,8=2,9=2,10=2,28=1/1;
 7//1,2,3,16;
 1/7=-1,18=20,19=15,26=3/3(2);
 2/9=110/2;
 99//99;
 2/9=110/2;
 3/5=1,6=6,7=101,11=2,25=1,30=1,71=1,74=-55/1,2,3;
 4/5=5,16=3,69=1/1;
 5/5=2,38=5/2;
 7//1,2,3,16;
 1/7=-1,18=20,19=15,26=3/3(-5);
 2/9=110/2;
 6/7=2,8=2,9=2,10=2,19=2,28=1/1;
 99/9=1/99;
 Leave Link    1 at Wed Jul 14 20:20:44 2021, MaxMem=   524288000 cpu:               1.9 elap:               0.5
 (Enter /opt/gaussian/g16_legacy/l101.exe)
 -------------------------------------------------
 Conformer number 419. Energy MM = 23.692 kcal/mol
 -------------------------------------------------
 Symbolic Z-matrix:
 Charge =  0 Multiplicity = 1
 C                    -1.5243    0.5026    1.2324 
 H                    -2.1939    1.2352    1.7028 
 H                    -1.8956   -0.4699    1.5744 
 C                    -1.6545    0.6449   -0.2721 
 C                    -1.7021    2.0656   -0.776 
 H                    -1.8276    2.1165   -1.8628 
 H                    -2.5426    2.6009   -0.3223 
 H                    -0.7774    2.5947   -0.5273 
 C                    -1.7539   -0.3841   -1.1373 
 H                    -1.8607   -0.1611   -2.1985 
 C                    -1.7114   -1.8481   -0.8343 
 H                    -0.9174   -2.3194   -1.4227 
 H                    -1.52     -2.0754    0.2159 
 H                    -2.6626   -2.3108   -1.1148 
 C                     2.7298   -1.6131    0.3878 
 H                     3.773    -1.4007    0.6438 
 H                     2.3979   -2.4484    1.0134 
 H                     2.6867   -1.9424   -0.6555 
 C                     1.8846   -0.3811    0.5814 
 C                     2.3045    0.7916   -0.2604 
 H                     1.6471    1.6575   -0.1635 
 H                     3.3149    1.1099    0.0165 
 H                     2.3101    0.5103   -1.319 
 C                     0.8423   -0.3932    1.4351 
 H                     0.6299   -1.3159    1.9752 
 C                    -0.1021    0.7326    1.7661 
 H                     0.2792    1.7036    1.4383 
 H                    -0.154     0.7978    2.8608 
 
 ITRead=  0  0  0  0  0  0  0  0  0  0  0  0  0  0  0  0  0  0  0  0
 ITRead=  0  0  0  0  0  0  0  0
 MicOpt= -1 -1 -1 -1 -1 -1 -1 -1 -1 -1 -1 -1 -1 -1 -1 -1 -1 -1 -1 -1
 MicOpt= -1 -1 -1 -1 -1 -1 -1 -1
 NAtoms=     28 NQM=       28 NQMF=       0 NMMI=      0 NMMIF=      0
                NMic=       0 NMicF=      0.
                    Isotopes and Nuclear Properties:
 (Nuclear quadrupole moments (NQMom) in fm**2, nuclear magnetic moments (NMagM)
  in nuclear magnetons)

  Atom         1           2           3           4           5           6           7           8           9          10
 IAtWgt=          12           1           1          12          12           1           1           1          12           1
 AtmWgt=  12.0000000   1.0078250   1.0078250  12.0000000  12.0000000   1.0078250   1.0078250   1.0078250  12.0000000   1.0078250
 NucSpn=           0           1           1           0           0           1           1           1           0           1
 AtZEff=  -0.0000000  -0.0000000  -0.0000000  -0.0000000  -0.0000000  -0.0000000  -0.0000000  -0.0000000  -0.0000000  -0.0000000
 NQMom=    0.0000000   0.0000000   0.0000000   0.0000000   0.0000000   0.0000000   0.0000000   0.0000000   0.0000000   0.0000000
 NMagM=    0.0000000   2.7928460   2.7928460   0.0000000   0.0000000   2.7928460   2.7928460   2.7928460   0.0000000   2.7928460
 AtZNuc=   6.0000000   1.0000000   1.0000000   6.0000000   6.0000000   1.0000000   1.0000000   1.0000000   6.0000000   1.0000000

  Atom        11          12          13          14          15          16          17          18          19          20
 IAtWgt=          12           1           1           1          12           1           1           1          12          12
 AtmWgt=  12.0000000   1.0078250   1.0078250   1.0078250  12.0000000   1.0078250   1.0078250   1.0078250  12.0000000  12.0000000
 NucSpn=           0           1           1           1           0           1           1           1           0           0
 AtZEff=  -0.0000000  -0.0000000  -0.0000000  -0.0000000  -0.0000000  -0.0000000  -0.0000000  -0.0000000  -0.0000000  -0.0000000
 NQMom=    0.0000000   0.0000000   0.0000000   0.0000000   0.0000000   0.0000000   0.0000000   0.0000000   0.0000000   0.0000000
 NMagM=    0.0000000   2.7928460   2.7928460   2.7928460   0.0000000   2.7928460   2.7928460   2.7928460   0.0000000   0.0000000
 AtZNuc=   6.0000000   1.0000000   1.0000000   1.0000000   6.0000000   1.0000000   1.0000000   1.0000000   6.0000000   6.0000000

  Atom        21          22          23          24          25          26          27          28
 IAtWgt=           1           1           1          12           1          12           1           1
 AtmWgt=   1.0078250   1.0078250   1.0078250  12.0000000   1.0078250  12.0000000   1.0078250   1.0078250
 NucSpn=           1           1           1           0           1           0           1           1
 AtZEff=  -0.0000000  -0.0000000  -0.0000000  -0.0000000  -0.0000000  -0.0000000  -0.0000000  -0.0000000
 NQMom=    0.0000000   0.0000000   0.0000000   0.0000000   0.0000000   0.0000000   0.0000000   0.0000000
 NMagM=    2.7928460   2.7928460   2.7928460   0.0000000   2.7928460   0.0000000   2.7928460   2.7928460
 AtZNuc=   1.0000000   1.0000000   1.0000000   6.0000000   1.0000000   6.0000000   1.0000000   1.0000000
 Leave Link  101 at Wed Jul 14 20:20:45 2021, MaxMem=   524288000 cpu:               2.3 elap:               0.6
 (Enter /opt/gaussian/g16_legacy/l103.exe)

 GradGradGradGradGradGradGradGradGradGradGradGradGradGradGradGradGradGrad
 Berny optimization.
 Initialization pass.
                           ----------------------------
                           !    Initial Parameters    !
                           ! (Angstroms and Degrees)  !
 --------------------------                            --------------------------
 ! Name  Definition              Value          Derivative Info.                !
 --------------------------------------------------------------------------------
 ! R1    R(1,2)                  1.0983         estimate D2E/DX2                !
 ! R2    R(1,3)                  1.0957         estimate D2E/DX2                !
 ! R3    R(1,4)                  1.5168         estimate D2E/DX2                !
 ! R4    R(1,26)                 1.5364         estimate D2E/DX2                !
 ! R5    R(4,5)                  1.5082         estimate D2E/DX2                !
 ! R6    R(4,9)                  1.3481         estimate D2E/DX2                !
 ! R7    R(5,6)                  1.0952         estimate D2E/DX2                !
 ! R8    R(5,7)                  1.0949         estimate D2E/DX2                !
 ! R9    R(5,8)                  1.094          estimate D2E/DX2                !
 ! R10   R(9,10)                 1.0896         estimate D2E/DX2                !
 ! R11   R(9,11)                 1.4956         estimate D2E/DX2                !
 ! R12   R(11,12)                1.0949         estimate D2E/DX2                !
 ! R13   R(11,13)                1.0914         estimate D2E/DX2                !
 ! R14   R(11,14)                1.0943         estimate D2E/DX2                !
 ! R15   R(15,16)                1.095          estimate D2E/DX2                !
 ! R16   R(15,17)                1.0951         estimate D2E/DX2                !
 ! R17   R(15,18)                1.0949         estimate D2E/DX2                !
 ! R18   R(15,19)                1.5065         estimate D2E/DX2                !
 ! R19   R(19,20)                1.5034         estimate D2E/DX2                !
 ! R20   R(19,24)                1.3473         estimate D2E/DX2                !
 ! R21   R(20,21)                1.0915         estimate D2E/DX2                !
 ! R22   R(20,22)                1.0949         estimate D2E/DX2                !
 ! R23   R(20,23)                1.0954         estimate D2E/DX2                !
 ! R24   R(24,25)                1.09           estimate D2E/DX2                !
 ! R25   R(24,26)                1.5063         estimate D2E/DX2                !
 ! R26   R(26,27)                1.0935         estimate D2E/DX2                !
 ! R27   R(26,28)                1.0979         estimate D2E/DX2                !
 ! A1    A(2,1,3)              104.5803         estimate D2E/DX2                !
 ! A2    A(2,1,4)              108.0533         estimate D2E/DX2                !
 ! A3    A(2,1,26)             108.4042         estimate D2E/DX2                !
 ! A4    A(3,1,4)              111.3319         estimate D2E/DX2                !
 ! A5    A(3,1,26)             109.7631         estimate D2E/DX2                !
 ! A6    A(4,1,26)             114.2033         estimate D2E/DX2                !
 ! A7    A(1,4,5)              114.9916         estimate D2E/DX2                !
 ! A8    A(1,4,9)              124.842          estimate D2E/DX2                !
 ! A9    A(5,4,9)              120.151          estimate D2E/DX2                !
 ! A10   A(4,5,6)              112.2684         estimate D2E/DX2                !
 ! A11   A(4,5,7)              110.2627         estimate D2E/DX2                !
 ! A12   A(4,5,8)              110.668          estimate D2E/DX2                !
 ! A13   A(6,5,7)              107.488          estimate D2E/DX2                !
 ! A14   A(6,5,8)              107.4553         estimate D2E/DX2                !
 ! A15   A(7,5,8)              108.5537         estimate D2E/DX2                !
 ! A16   A(4,9,10)             118.4293         estimate D2E/DX2                !
 ! A17   A(4,9,11)             127.9557         estimate D2E/DX2                !
 ! A18   A(10,9,11)            113.6044         estimate D2E/DX2                !
 ! A19   A(9,11,12)            109.4562         estimate D2E/DX2                !
 ! A20   A(9,11,13)            113.8144         estimate D2E/DX2                !
 ! A21   A(9,11,14)            109.7092         estimate D2E/DX2                !
 ! A22   A(12,11,13)           107.4748         estimate D2E/DX2                !
 ! A23   A(12,11,14)           108.0947         estimate D2E/DX2                !
 ! A24   A(13,11,14)           108.1203         estimate D2E/DX2                !
 ! A25   A(16,15,17)           107.6468         estimate D2E/DX2                !
 ! A26   A(16,15,18)           108.5802         estimate D2E/DX2                !
 ! A27   A(16,15,19)           110.2324         estimate D2E/DX2                !
 ! A28   A(17,15,18)           107.6388         estimate D2E/DX2                !
 ! A29   A(17,15,19)           112.3531         estimate D2E/DX2                !
 ! A30   A(18,15,19)           110.2625         estimate D2E/DX2                !
 ! A31   A(15,19,20)           114.1571         estimate D2E/DX2                !
 ! A32   A(15,19,24)           120.5362         estimate D2E/DX2                !
 ! A33   A(20,19,24)           125.3            estimate D2E/DX2                !
 ! A34   A(19,20,21)           113.6337         estimate D2E/DX2                !
 ! A35   A(19,20,22)           110.0532         estimate D2E/DX2                !
 ! A36   A(19,20,23)           110.0142         estimate D2E/DX2                !
 ! A37   A(21,20,22)           107.6212         estimate D2E/DX2                !
 ! A38   A(21,20,23)           107.0145         estimate D2E/DX2                !
 ! A39   A(22,20,23)           108.3212         estimate D2E/DX2                !
 ! A40   A(19,24,25)           118.1829         estimate D2E/DX2                !
 ! A41   A(19,24,26)           128.1373         estimate D2E/DX2                !
 ! A42   A(25,24,26)           113.679          estimate D2E/DX2                !
 ! A43   A(1,26,24)            113.0892         estimate D2E/DX2                !
 ! A44   A(1,26,27)            110.5849         estimate D2E/DX2                !
 ! A45   A(1,26,28)            108.1501         estimate D2E/DX2                !
 ! A46   A(24,26,27)           112.2833         estimate D2E/DX2                !
 ! A47   A(24,26,28)           107.046          estimate D2E/DX2                !
 ! A48   A(27,26,28)           105.2281         estimate D2E/DX2                !
 ! D1    D(2,1,4,5)             42.4949         estimate D2E/DX2                !
 ! D2    D(2,1,4,9)           -136.0729         estimate D2E/DX2                !
 ! D3    D(3,1,4,5)            156.7963         estimate D2E/DX2                !
 ! D4    D(3,1,4,9)            -21.7716         estimate D2E/DX2                !
 ! D5    D(26,1,4,5)           -78.2075         estimate D2E/DX2                !
 ! D6    D(26,1,4,9)           103.2246         estimate D2E/DX2                !
 ! D7    D(2,1,26,24)          167.1722         estimate D2E/DX2                !
 ! D8    D(2,1,26,27)          -65.9268         estimate D2E/DX2                !
 ! D9    D(2,1,26,28)           48.8061         estimate D2E/DX2                !
 ! D10   D(3,1,26,24)           53.5027         estimate D2E/DX2                !
 ! D11   D(3,1,26,27)         -179.5964         estimate D2E/DX2                !
 ! D12   D(3,1,26,28)          -64.8635         estimate D2E/DX2                !
 ! D13   D(4,1,26,24)          -72.3208         estimate D2E/DX2                !
 ! D14   D(4,1,26,27)           54.5802         estimate D2E/DX2                !
 ! D15   D(4,1,26,28)          169.3131         estimate D2E/DX2                !
 ! D16   D(1,4,5,6)           -178.22           estimate D2E/DX2                !
 ! D17   D(1,4,5,7)            -58.3975         estimate D2E/DX2                !
 ! D18   D(1,4,5,8)             61.7202         estimate D2E/DX2                !
 ! D19   D(9,4,5,6)              0.4207         estimate D2E/DX2                !
 ! D20   D(9,4,5,7)            120.2432         estimate D2E/DX2                !
 ! D21   D(9,4,5,8)           -119.6391         estimate D2E/DX2                !
 ! D22   D(1,4,9,10)           178.9477         estimate D2E/DX2                !
 ! D23   D(1,4,9,11)            -2.3215         estimate D2E/DX2                !
 ! D24   D(5,4,9,10)             0.4489         estimate D2E/DX2                !
 ! D25   D(5,4,9,11)           179.1797         estimate D2E/DX2                !
 ! D26   D(4,9,11,12)         -123.9451         estimate D2E/DX2                !
 ! D27   D(4,9,11,13)           -3.6786         estimate D2E/DX2                !
 ! D28   D(4,9,11,14)          117.6014         estimate D2E/DX2                !
 ! D29   D(10,9,11,12)          54.8368         estimate D2E/DX2                !
 ! D30   D(10,9,11,13)         175.1033         estimate D2E/DX2                !
 ! D31   D(10,9,11,14)         -63.6167         estimate D2E/DX2                !
 ! D32   D(16,15,19,20)         60.0027         estimate D2E/DX2                !
 ! D33   D(16,15,19,24)       -120.8918         estimate D2E/DX2                !
 ! D34   D(17,15,19,20)       -179.9381         estimate D2E/DX2                !
 ! D35   D(17,15,19,24)         -0.8326         estimate D2E/DX2                !
 ! D36   D(18,15,19,20)        -59.8684         estimate D2E/DX2                !
 ! D37   D(18,15,19,24)        119.2371         estimate D2E/DX2                !
 ! D38   D(15,19,20,21)        176.138          estimate D2E/DX2                !
 ! D39   D(15,19,20,22)        -63.0986         estimate D2E/DX2                !
 ! D40   D(15,19,20,23)         56.1828         estimate D2E/DX2                !
 ! D41   D(24,19,20,21)         -2.918          estimate D2E/DX2                !
 ! D42   D(24,19,20,22)        117.8454         estimate D2E/DX2                !
 ! D43   D(24,19,20,23)       -122.8732         estimate D2E/DX2                !
 ! D44   D(15,19,24,25)         -0.15           estimate D2E/DX2                !
 ! D45   D(15,19,24,26)        179.4999         estimate D2E/DX2                !
 ! D46   D(20,19,24,25)        178.8499         estimate D2E/DX2                !
 ! D47   D(20,19,24,26)         -1.5001         estimate D2E/DX2                !
 ! D48   D(19,24,26,1)         110.6513         estimate D2E/DX2                !
 ! D49   D(19,24,26,27)        -15.3468         estimate D2E/DX2                !
 ! D50   D(19,24,26,28)       -130.3425         estimate D2E/DX2                !
 ! D51   D(25,24,26,1)         -69.6856         estimate D2E/DX2                !
 ! D52   D(25,24,26,27)        164.3163         estimate D2E/DX2                !
 ! D53   D(25,24,26,28)         49.3206         estimate D2E/DX2                !
 --------------------------------------------------------------------------------
 Trust Radius=3.00D-01 FncErr=1.00D-07 GrdErr=1.00D-06 EigMax=2.50D+02 EigMin=1.00D-04
 Number of steps in this run=    138 maximum allowed number of steps=    168.
 GradGradGradGradGradGradGradGradGradGradGradGradGradGradGradGradGradGrad

 Leave Link  103 at Wed Jul 14 20:20:45 2021, MaxMem=   524288000 cpu:               0.4 elap:               0.2
 (Enter /opt/gaussian/g16_legacy/l202.exe)
                          Input orientation:                          
 ---------------------------------------------------------------------
 Center     Atomic      Atomic             Coordinates (Angstroms)
 Number     Number       Type             X           Y           Z
 ---------------------------------------------------------------------
      1          6           0       -1.524300    0.502600    1.232400
      2          1           0       -2.193900    1.235200    1.702800
      3          1           0       -1.895600   -0.469900    1.574400
      4          6           0       -1.654500    0.644900   -0.272100
      5          6           0       -1.702100    2.065600   -0.776000
      6          1           0       -1.827600    2.116500   -1.862800
      7          1           0       -2.542600    2.600900   -0.322300
      8          1           0       -0.777400    2.594700   -0.527300
      9          6           0       -1.753900   -0.384100   -1.137300
     10          1           0       -1.860700   -0.161100   -2.198500
     11          6           0       -1.711400   -1.848100   -0.834300
     12          1           0       -0.917400   -2.319400   -1.422700
     13          1           0       -1.520000   -2.075400    0.215900
     14          1           0       -2.662600   -2.310800   -1.114800
     15          6           0        2.729800   -1.613100    0.387800
     16          1           0        3.773000   -1.400700    0.643800
     17          1           0        2.397900   -2.448400    1.013400
     18          1           0        2.686700   -1.942400   -0.655500
     19          6           0        1.884600   -0.381100    0.581400
     20          6           0        2.304500    0.791600   -0.260400
     21          1           0        1.647100    1.657500   -0.163500
     22          1           0        3.314900    1.109900    0.016500
     23          1           0        2.310100    0.510300   -1.319000
     24          6           0        0.842300   -0.393200    1.435100
     25          1           0        0.629900   -1.315900    1.975200
     26          6           0       -0.102100    0.732600    1.766100
     27          1           0        0.279200    1.703600    1.438300
     28          1           0       -0.154000    0.797800    2.860800
 ---------------------------------------------------------------------
                    Distance matrix (angstroms):
                    1          2          3          4          5
     1  C    0.000000
     2  H    1.098337   0.000000
     3  H    1.095712   1.735752   0.000000
     4  C    1.516813   2.130642   2.170362   0.000000
     5  C    2.551128   2.660053   3.462742   1.508168   0.000000
     6  H    3.503845   3.691120   4.302143   2.173913   1.095206
     7  H    2.803014   2.467338   3.666864   2.148762   1.094911
     8  H    2.833952   2.971205   3.880630   2.153172   1.094015
     9  C    2.540557   3.298773   2.716755   1.348070   2.476742
    10  H    3.510661   4.157020   3.785677   2.098374   2.647046
    11  C    3.135609   4.021992   2.781223   2.556239   3.914145
    12  H    3.921934   4.902386   3.655152   3.264088   4.501355
    13  H    2.771168   3.691217   2.136405   2.766996   4.262031
    14  H    3.836704   4.553314   3.347984   3.234590   4.493353
    15  C    4.825650   5.838224   4.910117   4.975552   5.876138
    16  H    5.659540   6.608581   5.819401   5.872062   6.633837
    17  H    4.913249   5.926956   4.760601   5.257657   6.355167
    18  H    5.222520   6.283230   5.304544   5.068248   5.944758
    19  C    3.581246   4.528148   3.909456   3.782376   4.548988
    20  C    4.119670   4.928137   4.753810   3.961734   4.235772
    21  H    3.652411   4.291235   4.482951   3.455100   3.429117
    22  H    5.026438   5.762481   5.663226   4.999445   5.168337
    23  H    4.605684   5.471999   5.198122   4.102703   4.337229
    24  C    2.538571   3.455700   2.742514   3.197842   4.172365
    25  H    2.915351   3.815254   2.693419   3.756804   4.943872
    26  C    1.536356   2.152264   2.167809   2.563571   3.286208
    27  H    2.176559   2.530925   3.077723   2.790253   2.993279
    28  H    2.148616   2.386100   2.508996   3.477059   4.150933
                    6          7          8          9         10
     6  H    0.000000
     7  H    1.766072   0.000000
     8  H    1.764980   1.777075   0.000000
     9  C    2.604761   3.193196   3.193572   0.000000
    10  H    2.302445   3.407896   3.400130   1.089624   0.000000
    11  C    4.097483   4.554848   4.550283   1.495631   2.174696
    12  H    4.549655   5.297311   4.996971   2.127574   2.479907
    13  H    4.689098   4.816965   4.786819   2.178613   3.099992
    14  H    4.567025   4.976671   5.288011   2.130356   2.537451
    15  C    6.304364   6.786769   5.553687   4.892845   5.465340
    16  H    7.072514   7.538764   6.167725   5.895118   6.430696
    17  H    6.853152   7.189441   6.155416   5.111192   5.803767
    18  H    6.189600   6.935285   5.709790   4.730683   5.121789
    19  C    5.098289   5.413788   4.143772   4.024006   4.669424
    20  C    4.625721   5.174145   3.580574   4.315302   4.691776
    21  H    3.895105   4.297535   2.624670   4.084510   4.444456
    22  H    5.566895   6.053773   4.387171   5.408884   5.771352
    23  H    4.471706   5.377055   3.808434   4.165221   4.315075
    24  C    4.929818   4.848777   3.924537   3.654802   4.534659
    25  H    5.705341   5.539367   4.851370   4.029691   4.995640
    26  C    4.249876   3.715912   3.030368   3.522101   4.428253
    27  H    3.937811   3.444911   2.402924   3.889178   4.613306
    28  H    5.181921   4.369062   3.885447   4.465576   5.424835
                   11         12         13         14         15
    11  C    0.000000
    12  H    1.094885   0.000000
    13  H    1.091430   1.762859   0.000000
    14  H    1.094328   1.772174   1.769664   0.000000
    15  C    4.612267   4.132655   4.278326   5.641150   0.000000
    16  H    5.697683   5.207138   5.352959   6.733343   1.094950
    17  H    4.545404   4.116119   4.015604   5.491523   1.095107
    18  H    4.402743   3.704087   4.298064   5.381606   1.094884
    19  C    4.133704   3.952800   3.820411   5.222821   1.506542
    20  C    4.839920   4.627084   4.803473   5.918359   2.526584
    21  H    4.900890   4.896731   4.910093   5.935140   3.488982
    22  H    5.893837   5.634160   5.793285   6.979365   2.809793
    23  H    4.687158   4.293566   4.869438   5.720843   2.756473
    24  C    3.713259   3.869601   3.145903   4.739568   2.479445
    25  H    3.695702   3.866119   2.879939   4.623687   2.649103
    26  C    4.001492   4.488637   3.506911   4.911011   3.927044
    27  H    4.662807   5.079538   4.360301   5.593560   4.255525
    28  H    4.804170   5.352391   4.137237   5.635766   4.499386
                   16         17         18         19         20
    16  H    0.000000
    17  H    1.767818   0.000000
    18  H    1.778108   1.767673   0.000000
    19  C    2.146982   2.173437   2.147311   0.000000
    20  C    2.789310   3.482656   2.788716   1.503386   0.000000
    21  H    3.811007   4.336728   3.779168   2.183385   1.091489
    22  H    2.628017   3.807387   3.187908   2.141950   1.094941
    23  H    3.105573   3.768515   2.568618   2.141767   1.095352
    24  C    3.198471   2.611813   3.189426   1.347345   2.533081
    25  H    3.414512   2.309424   3.397574   2.095424   3.499107
    26  C    4.563653   4.115254   4.560392   2.567259   3.146730
    27  H    4.740733   4.680655   4.844932   2.767230   2.796277
    28  H    5.016953   4.523593   5.286080   3.277401   3.973179
                   21         22         23         24         25
    21  H    0.000000
    22  H    1.764603   0.000000
    23  H    1.758072   1.775585   0.000000
    24  C    2.721874   3.222652   3.248972   0.000000
    25  H    3.801295   4.114637   4.124298   1.090045   0.000000
    26  C    2.763783   3.857375   3.922495   1.506280   2.185383
    27  H    2.106903   3.404331   3.626461   2.171097   3.086848
    28  H    3.623456   4.496745   4.860573   2.108012   2.422089
                   26         27         28
    26  C    0.000000
    27  H    1.093473   0.000000
    28  H    1.097867   1.741161   0.000000
 Stoichiometry    C10H18
 Framework group  C1[X(C10H18)]
 Deg. of freedom    78
 Full point group                 C1      NOp   1
 Largest Abelian subgroup         C1      NOp   1
 Largest concise Abelian subgroup C1      NOp   1
                         Standard orientation:                         
 ---------------------------------------------------------------------
 Center     Atomic      Atomic             Coordinates (Angstroms)
 Number     Number       Type             X           Y           Z
 ---------------------------------------------------------------------
      1          6           0        1.311025   -0.534245    1.234810
      2          1           0        2.036248   -1.246151    1.651443
      3          1           0        1.339635    0.320973    1.919184
      4          6           0        1.779241   -0.145104   -0.154458
      5          6           0        2.295248   -1.285567   -0.995677
      6          1           0        2.649722   -0.950680   -1.976327
      7          1           0        3.134136   -1.778108   -0.493184
      8          1           0        1.508388   -2.026196   -1.166527
      9          6           0        1.784105    1.111854   -0.641620
     10          1           0        2.160228    1.275498   -1.651091
     11          6           0        1.302897    2.359737    0.027810
     12          1           0        0.552086    2.845997   -0.603545
     13          1           0        0.848061    2.188298    1.005027
     14          1           0        2.138478    3.054212    0.158430
     15          6           0       -3.078913    0.929159   -0.134057
     16          1           0       -4.061102    0.457815   -0.243859
     17          1           0       -3.110128    1.556420    0.763065
     18          1           0       -2.909552    1.586749   -0.992930
     19          6           0       -2.001912   -0.121760   -0.061194
     20          6           0       -1.922093   -1.006058   -1.274377
     21          1           0       -1.097297   -1.720199   -1.241802
     22          1           0       -2.850194   -1.576404   -1.384969
     23          1           0       -1.783138   -0.396734   -2.173939
     24          6           0       -1.196259   -0.202800    1.015697
     25          1           0       -1.345363    0.511886    1.825135
     26          6           0       -0.081287   -1.182705    1.271626
     27          1           0       -0.122635   -2.043049    0.597992
     28          1           0       -0.239880   -1.595401    2.276535
 ---------------------------------------------------------------------
 Rotational constants (GHZ):           1.5853460           0.8275264           0.7367983
 Leave Link  202 at Wed Jul 14 20:20:46 2021, MaxMem=   524288000 cpu:               0.9 elap:               0.3
 (Enter /opt/gaussian/g16_legacy/l301.exe)
 Standard basis: 6-31G(d,p) (6D, 7F)
 Ernie: Thresh=  0.10000D-02 Tol=  0.10000D-05 Strict=F.
 There are   240 symmetry adapted cartesian basis functions of A   symmetry.
 There are   240 symmetry adapted basis functions of A   symmetry.
   240 basis functions,   406 primitive gaussians,   240 cartesian basis functions
    39 alpha electrons       39 beta electrons
       nuclear repulsion energy       536.9649792663 Hartrees.
 IExCor= 4336 DFT=T Ex+Corr=M062X ExCW=0 ScaHFX=  0.540000
 ScaDFX=  1.000000  1.000000  1.000000  1.000000 ScalE2=  1.000000  1.000000
 IRadAn=      5 IRanWt=     -1 IRanGd=            0 ICorTp=0 IEmpDi=  4
 NAtoms=   28 NActive=   28 NUniq=   28 SFac= 1.00D+00 NAtFMM=   60 NAOKFM=F Big=F
 Integral buffers will be    131072 words long.
 Raffenetti 2 integral format.
 Two-electron integral symmetry is turned on.
 Leave Link  301 at Wed Jul 14 20:20:47 2021, MaxMem=   524288000 cpu:               2.6 elap:               0.7
 (Enter /opt/gaussian/g16_legacy/l302.exe)
 NPDir=0 NMtPBC=     1 NCelOv=     1 NCel=       1 NClECP=     1 NCelD=      1
         NCelK=      1 NCelE2=     1 NClLst=     1 CellRange=     0.0.
 One-electron integrals computed using PRISM.
 One-electron integral symmetry used in STVInt
 NBasis=   240 RedAO= T EigKep=  2.15D-03  NBF=   240
 NBsUse=   240 1.00D-06 EigRej= -1.00D+00 NBFU=   240
 Precomputing XC quadrature grid using
 IXCGrd= 4 IRadAn=           5 IRanWt=          -1 IRanGd=           0 AccXCQ= 0.00D+00.
 Generated NRdTot=       0 NPtTot=           0 NUsed=           0 NTot=          32
 NSgBfM=   240   240   240   240   240 MxSgAt=    28 MxSgA2=    28.
 Leave Link  302 at Wed Jul 14 20:20:49 2021, MaxMem=   524288000 cpu:               9.9 elap:               2.2
 (Enter /opt/gaussian/g16_legacy/l303.exe)
 DipDrv:  MaxL=1.
 Leave Link  303 at Wed Jul 14 20:20:50 2021, MaxMem=   524288000 cpu:               1.3 elap:               0.4
 (Enter /opt/gaussian/g16_legacy/l401.exe)
 ExpMin= 1.61D-01 ExpMax= 3.05D+03 ExpMxC= 4.57D+02 IAcc=3 IRadAn=         5 AccDes= 0.00D+00
 Harris functional with IExCor= 1009 and IRadAn=       5 diagonalized for initial guess.
 HarFok:  IExCor= 1009 AccDes= 0.00D+00 IRadAn=         5 IDoV= 1 UseB2=F ITyADJ=14
 ICtDFT=  3500011 ScaDFX=  1.000000  1.000000  1.000000  1.000000
 FoFCou: FMM=F IPFlag=           0 FMFlag=      100000 FMFlg1=           0
         NFxFlg=           0 DoJE=T BraDBF=F KetDBF=T FulRan=T
         wScrn=  0.000000 ICntrl=       500 IOpCl=  0 I1Cent=   200000004 NGrid=           0
         NMat0=    1 NMatS0=      1 NMatT0=    0 NMatD0=    1 NMtDS0=    0 NMtDT0=    0
 Petite list used in FoFCou.
 Harris En= -391.654882407655    
 JPrj=0 DoOrth=F DoCkMO=F.
 Leave Link  401 at Wed Jul 14 20:20:54 2021, MaxMem=   524288000 cpu:              22.1 elap:               4.0
 (Enter /opt/gaussian/g16_legacy/l502.exe)
 Integral symmetry usage will be decided dynamically.
 Closed shell SCF:
 Using DIIS extrapolation, IDIIS=  1040.
 NGot=   524288000 LenX=   524168546 LenY=   524110505
 Requested convergence on RMS density matrix=1.00D-08 within 128 cycles.
 Requested convergence on MAX density matrix=1.00D-06.
 Requested convergence on             energy=1.00D-06.
 No special actions if energy rises.
 Fock matrices will be formed incrementally for  20 cycles.
 Integral accuracy reduced to 1.0D-05 until final iterations.

 Cycle   1  Pass 0  IDiag  1:
 FoFJK:  IHMeth= 1 ICntrl=       0 DoSepK=F KAlg= 0 I1Cent=           0 FoldK=F
 IRaf= 900000000 NMat=       1 IRICut=       1 DoRegI=T DoRafI=F ISym2E= 0 IDoP0=0 IntGTp=1.
 FoFCou: FMM=F IPFlag=           0 FMFlag=      100000 FMFlg1=           0
         NFxFlg=           0 DoJE=F BraDBF=F KetDBF=F FulRan=T
         wScrn=  0.000000 ICntrl=         0 IOpCl=  0 I1Cent=           0 NGrid=           0
         NMat0=    1 NMatS0=      1 NMatT0=    0 NMatD0=    1 NMtDS0=    0 NMtDT0=    0
 Symmetry not used in FoFCou.
 E= -391.296752470419    
 DIIS: error= 2.93D-02 at cycle   1 NSaved=   1.
 NSaved= 1 IEnMin= 1 EnMin= -391.296752470419     IErMin= 1 ErrMin= 2.93D-02
 ErrMax= 2.93D-02  0.00D+00 EMaxC= 1.00D-01 BMatC= 3.73D-01 BMatP= 3.73D-01
 IDIUse=3 WtCom= 7.07D-01 WtEn= 2.93D-01
 Coeff-Com:  0.100D+01
 Coeff-En:   0.100D+01
 Coeff:      0.100D+01
 Gap=     0.348 Goal=   None    Shift=    0.000
 GapD=    0.348 DampG=1.000 DampE=0.500 DampFc=0.5000 IDamp=-1.
 Damping current iteration by 5.00D-01
 RMSDP=4.53D-03 MaxDP=1.14D-01              OVMax= 1.49D-01

 Cycle   2  Pass 0  IDiag  1:
 RMSU=  2.22D-03    CP:  9.75D-01
 E= -391.505848368179     Delta-E=       -0.209095897760 Rises=F Damp=T
 DIIS: error= 8.96D-03 at cycle   2 NSaved=   2.
 NSaved= 2 IEnMin= 2 EnMin= -391.505848368179     IErMin= 2 ErrMin= 8.96D-03
 ErrMax= 8.96D-03  0.00D+00 EMaxC= 1.00D-01 BMatC= 2.11D-02 BMatP= 3.73D-01
 IDIUse=3 WtCom= 9.10D-01 WtEn= 8.96D-02
 Coeff-Com: -0.139D+00 0.114D+01
 Coeff-En:   0.000D+00 0.100D+01
 Coeff:     -0.127D+00 0.113D+01
 Gap=     0.375 Goal=   None    Shift=    0.000
 RMSDP=9.27D-04 MaxDP=2.87D-02 DE=-2.09D-01 OVMax= 6.56D-02

 Cycle   3  Pass 0  IDiag  1:
 RMSU=  9.12D-04    CP:  9.69D-01  1.05D+00
 E= -391.688482851137     Delta-E=       -0.182634482957 Rises=F Damp=F
 DIIS: error= 1.77D-03 at cycle   3 NSaved=   3.
 NSaved= 3 IEnMin= 3 EnMin= -391.688482851137     IErMin= 3 ErrMin= 1.77D-03
 ErrMax= 1.77D-03  0.00D+00 EMaxC= 1.00D-01 BMatC= 1.13D-03 BMatP= 2.11D-02
 IDIUse=3 WtCom= 9.82D-01 WtEn= 1.77D-02
 Coeff-Com: -0.358D-01 0.172D+00 0.864D+00
 Coeff-En:   0.000D+00 0.000D+00 0.100D+01
 Coeff:     -0.352D-01 0.169D+00 0.867D+00
 Gap=     0.343 Goal=   None    Shift=    0.000
 RMSDP=2.53D-04 MaxDP=5.12D-03 DE=-1.83D-01 OVMax= 9.86D-03

 Cycle   4  Pass 0  IDiag  1:
 RMSU=  1.94D-04    CP:  9.69D-01  1.11D+00  8.73D-01
 E= -391.689235111542     Delta-E=       -0.000752260406 Rises=F Damp=F
 DIIS: error= 9.84D-04 at cycle   4 NSaved=   4.
 NSaved= 4 IEnMin= 4 EnMin= -391.689235111542     IErMin= 4 ErrMin= 9.84D-04
 ErrMax= 9.84D-04  0.00D+00 EMaxC= 1.00D-01 BMatC= 3.72D-04 BMatP= 1.13D-03
 IDIUse=3 WtCom= 9.90D-01 WtEn= 9.84D-03
 Coeff-Com: -0.852D-02 0.321D-01 0.376D+00 0.601D+00
 Coeff-En:   0.000D+00 0.000D+00 0.175D+00 0.825D+00
 Coeff:     -0.843D-02 0.318D-01 0.374D+00 0.603D+00
 Gap=     0.344 Goal=   None    Shift=    0.000
 RMSDP=1.05D-04 MaxDP=3.65D-03 DE=-7.52D-04 OVMax= 7.27D-03

 Cycle   5  Pass 0  IDiag  1:
 RMSU=  5.28D-05    CP:  9.69D-01  1.09D+00  9.32D-01  6.49D-01
 E= -391.689567930206     Delta-E=       -0.000332818664 Rises=F Damp=F
 DIIS: error= 2.73D-04 at cycle   5 NSaved=   5.
 NSaved= 5 IEnMin= 5 EnMin= -391.689567930206     IErMin= 5 ErrMin= 2.73D-04
 ErrMax= 2.73D-04  0.00D+00 EMaxC= 1.00D-01 BMatC= 3.94D-05 BMatP= 3.72D-04
 IDIUse=3 WtCom= 9.97D-01 WtEn= 2.73D-03
 Coeff-Com: -0.732D-03 0.175D-02 0.116D+00 0.299D+00 0.584D+00
 Coeff-En:   0.000D+00 0.000D+00 0.000D+00 0.000D+00 0.100D+01
 Coeff:     -0.730D-03 0.175D-02 0.116D+00 0.298D+00 0.585D+00
 Gap=     0.344 Goal=   None    Shift=    0.000
 RMSDP=2.83D-05 MaxDP=1.22D-03 DE=-3.33D-04 OVMax= 2.49D-03

 Cycle   6  Pass 0  IDiag  1:
 RMSU=  1.66D-05    CP:  9.69D-01  1.09D+00  9.40D-01  6.98D-01  6.29D-01
 E= -391.689605944040     Delta-E=       -0.000038013834 Rises=F Damp=F
 DIIS: error= 5.33D-05 at cycle   6 NSaved=   6.
 NSaved= 6 IEnMin= 6 EnMin= -391.689605944040     IErMin= 6 ErrMin= 5.33D-05
 ErrMax= 5.33D-05  0.00D+00 EMaxC= 1.00D-01 BMatC= 2.16D-06 BMatP= 3.94D-05
 IDIUse=1 WtCom= 1.00D+00 WtEn= 0.00D+00
 Coeff-Com:  0.785D-03-0.290D-02 0.111D-01 0.657D-01 0.235D+00 0.690D+00
 Coeff:      0.785D-03-0.290D-02 0.111D-01 0.657D-01 0.235D+00 0.690D+00
 Gap=     0.344 Goal=   None    Shift=    0.000
 RMSDP=6.63D-06 MaxDP=2.71D-04 DE=-3.80D-05 OVMax= 5.42D-04

 Initial convergence to 1.0D-05 achieved.  Increase integral accuracy.
 Cycle   7  Pass 1  IDiag  1:
 E= -391.689615462009     Delta-E=       -0.000009517968 Rises=F Damp=F
 DIIS: error= 2.28D-05 at cycle   1 NSaved=   1.
 NSaved= 1 IEnMin= 1 EnMin= -391.689615462009     IErMin= 1 ErrMin= 2.28D-05
 ErrMax= 2.28D-05  0.00D+00 EMaxC= 1.00D-01 BMatC= 2.42D-07 BMatP= 2.42D-07
 IDIUse=1 WtCom= 1.00D+00 WtEn= 0.00D+00
 Coeff-Com:  0.100D+01
 Coeff:      0.100D+01
 Gap=     0.344 Goal=   None    Shift=    0.000
 RMSDP=6.63D-06 MaxDP=2.71D-04 DE=-9.52D-06 OVMax= 1.88D-04

 Cycle   8  Pass 1  IDiag  1:
 RMSU=  5.64D-06    CP:  1.00D+00
 E= -391.689615591967     Delta-E=       -0.000000129958 Rises=F Damp=F
 DIIS: error= 1.21D-05 at cycle   2 NSaved=   2.
 NSaved= 2 IEnMin= 2 EnMin= -391.689615591967     IErMin= 2 ErrMin= 1.21D-05
 ErrMax= 1.21D-05  0.00D+00 EMaxC= 1.00D-01 BMatC= 1.23D-07 BMatP= 2.42D-07
 IDIUse=1 WtCom= 1.00D+00 WtEn= 0.00D+00
 Coeff-Com:  0.397D+00 0.603D+00
 Coeff:      0.397D+00 0.603D+00
 Gap=     0.344 Goal=   None    Shift=    0.000
 RMSDP=1.58D-06 MaxDP=7.13D-05 DE=-1.30D-07 OVMax= 1.26D-04

 Cycle   9  Pass 1  IDiag  1:
 RMSU=  1.51D-06    CP:  1.00D+00  9.14D-01
 E= -391.689615698365     Delta-E=       -0.000000106398 Rises=F Damp=F
 DIIS: error= 5.24D-06 at cycle   3 NSaved=   3.
 NSaved= 3 IEnMin= 3 EnMin= -391.689615698365     IErMin= 3 ErrMin= 5.24D-06
 ErrMax= 5.24D-06  0.00D+00 EMaxC= 1.00D-01 BMatC= 1.50D-08 BMatP= 1.23D-07
 IDIUse=1 WtCom= 1.00D+00 WtEn= 0.00D+00
 Coeff-Com:  0.209D-01 0.251D+00 0.728D+00
 Coeff:      0.209D-01 0.251D+00 0.728D+00
 Gap=     0.344 Goal=   None    Shift=    0.000
 RMSDP=6.25D-07 MaxDP=2.08D-05 DE=-1.06D-07 OVMax= 5.85D-05

 Cycle  10  Pass 1  IDiag  1:
 RMSU=  4.15D-07    CP:  1.00D+00  9.70D-01  7.73D-01
 E= -391.689615711247     Delta-E=       -0.000000012883 Rises=F Damp=F
 DIIS: error= 2.04D-06 at cycle   4 NSaved=   4.
 NSaved= 4 IEnMin= 4 EnMin= -391.689615711247     IErMin= 4 ErrMin= 2.04D-06
 ErrMax= 2.04D-06  0.00D+00 EMaxC= 1.00D-01 BMatC= 2.39D-09 BMatP= 1.50D-08
 IDIUse=1 WtCom= 1.00D+00 WtEn= 0.00D+00
 Coeff-Com: -0.212D-01 0.839D-01 0.384D+00 0.553D+00
 Coeff:     -0.212D-01 0.839D-01 0.384D+00 0.553D+00
 Gap=     0.344 Goal=   None    Shift=    0.000
 RMSDP=2.14D-07 MaxDP=7.61D-06 DE=-1.29D-08 OVMax= 1.64D-05

 Cycle  11  Pass 1  IDiag  1:
 RMSU=  1.40D-07    CP:  1.00D+00  9.77D-01  8.24D-01  6.69D-01
 E= -391.689615713733     Delta-E=       -0.000000002486 Rises=F Damp=F
 DIIS: error= 2.64D-07 at cycle   5 NSaved=   5.
 NSaved= 5 IEnMin= 5 EnMin= -391.689615713733     IErMin= 5 ErrMin= 2.64D-07
 ErrMax= 2.64D-07  0.00D+00 EMaxC= 1.00D-01 BMatC= 2.60D-11 BMatP= 2.39D-09
 IDIUse=1 WtCom= 1.00D+00 WtEn= 0.00D+00
 Coeff-Com: -0.476D-02 0.227D-02 0.287D-01 0.105D+00 0.869D+00
 Coeff:     -0.476D-02 0.227D-02 0.287D-01 0.105D+00 0.869D+00
 Gap=     0.344 Goal=   None    Shift=    0.000
 RMSDP=3.38D-08 MaxDP=7.71D-07 DE=-2.49D-09 OVMax= 1.62D-06

 Cycle  12  Pass 1  IDiag  1:
 RMSU=  2.96D-08    CP:  1.00D+00  9.79D-01  8.25D-01  7.04D-01  9.94D-01
 E= -391.689615713753     Delta-E=       -0.000000000020 Rises=F Damp=F
 DIIS: error= 5.86D-08 at cycle   6 NSaved=   6.
 NSaved= 6 IEnMin= 6 EnMin= -391.689615713753     IErMin= 6 ErrMin= 5.86D-08
 ErrMax= 5.86D-08  0.00D+00 EMaxC= 1.00D-01 BMatC= 2.32D-12 BMatP= 2.60D-11
 IDIUse=1 WtCom= 1.00D+00 WtEn= 0.00D+00
 Coeff-Com:  0.799D-03-0.709D-02-0.289D-01-0.209D-01 0.220D+00 0.836D+00
 Coeff:      0.799D-03-0.709D-02-0.289D-01-0.209D-01 0.220D+00 0.836D+00
 Gap=     0.344 Goal=   None    Shift=    0.000
 RMSDP=1.40D-08 MaxDP=2.80D-07 DE=-1.99D-11 OVMax= 6.00D-07

 Cycle  13  Pass 1  IDiag  1:
 RMSU=  5.58D-09    CP:  1.00D+00  9.79D-01  8.25D-01  7.17D-01  1.07D+00
                    CP:  9.12D-01
 E= -391.689615713772     Delta-E=       -0.000000000018 Rises=F Damp=F
 DIIS: error= 1.83D-08 at cycle   7 NSaved=   7.
 NSaved= 7 IEnMin= 7 EnMin= -391.689615713772     IErMin= 7 ErrMin= 1.83D-08
 ErrMax= 1.83D-08  0.00D+00 EMaxC= 1.00D-01 BMatC= 1.63D-13 BMatP= 2.32D-12
 IDIUse=1 WtCom= 1.00D+00 WtEn= 0.00D+00
 Coeff-Com:  0.441D-03-0.254D-02-0.111D-01-0.109D-01 0.429D-01 0.290D+00
 Coeff-Com:  0.691D+00
 Coeff:      0.441D-03-0.254D-02-0.111D-01-0.109D-01 0.429D-01 0.290D+00
 Coeff:      0.691D+00
 Gap=     0.344 Goal=   None    Shift=    0.000
 RMSDP=2.22D-09 MaxDP=6.34D-08 DE=-1.84D-11 OVMax= 8.30D-08

 SCF Done:  E(RM062X) =  -391.689615714     A.U. after   13 cycles
            NFock= 13  Conv=0.22D-08     -V/T= 2.0094
 KE= 3.880590946242D+02 PE=-1.979031519244D+03 EE= 6.623178296401D+02
 Leave Link  502 at Wed Jul 14 20:22:19 2021, MaxMem=   524288000 cpu:             504.5 elap:              85.0
 (Enter /opt/gaussian/g16_legacy/l601.exe)
 Copying SCF densities to generalized density rwf, IOpCl= 0 IROHF=0.

 **********************************************************************

            Population analysis using the SCF density.

 **********************************************************************

 Orbital symmetries:
       Occupied  (A) (A) (A) (A) (A) (A) (A) (A) (A) (A) (A) (A)
                 (A) (A) (A) (A) (A) (A) (A) (A) (A) (A) (A) (A)
                 (A) (A) (A) (A) (A) (A) (A) (A) (A) (A) (A) (A)
                 (A) (A) (A)
       Virtual   (A) (A) (A) (A) (A) (A) (A) (A) (A) (A) (A) (A)
                 (A) (A) (A) (A) (A) (A) (A) (A) (A) (A) (A) (A)
                 (A) (A) (A) (A) (A) (A) (A) (A) (A) (A) (A) (A)
                 (A) (A) (A) (A) (A) (A) (A) (A) (A) (A) (A) (A)
                 (A) (A) (A) (A) (A) (A) (A) (A) (A) (A) (A) (A)
                 (A) (A) (A) (A) (A) (A) (A) (A) (A) (A) (A) (A)
                 (A) (A) (A) (A) (A) (A) (A) (A) (A) (A) (A) (A)
                 (A) (A) (A) (A) (A) (A) (A) (A) (A) (A) (A) (A)
                 (A) (A) (A) (A) (A) (A) (A) (A) (A) (A) (A) (A)
                 (A) (A) (A) (A) (A) (A) (A) (A) (A) (A) (A) (A)
                 (A) (A) (A) (A) (A) (A) (A) (A) (A) (A) (A) (A)
                 (A) (A) (A) (A) (A) (A) (A) (A) (A) (A) (A) (A)
                 (A) (A) (A) (A) (A) (A) (A) (A) (A) (A) (A) (A)
                 (A) (A) (A) (A) (A) (A) (A) (A) (A) (A) (A) (A)
                 (A) (A) (A) (A) (A) (A) (A) (A) (A) (A) (A) (A)
                 (A) (A) (A) (A) (A) (A) (A) (A) (A) (A) (A) (A)
                 (A) (A) (A) (A) (A) (A) (A) (A) (A)
 The electronic state is 1-A.
 Alpha  occ. eigenvalues --  -10.54549 -10.54070 -10.53992 -10.53926 -10.53358
 Alpha  occ. eigenvalues --  -10.53236 -10.53195 -10.53163 -10.53124 -10.52947
 Alpha  occ. eigenvalues --   -0.91872  -0.89601  -0.84651  -0.81394  -0.77662
 Alpha  occ. eigenvalues --   -0.76079  -0.71744  -0.68329  -0.58672  -0.58067
 Alpha  occ. eigenvalues --   -0.53287  -0.51699  -0.50321  -0.49506  -0.48865
 Alpha  occ. eigenvalues --   -0.48511  -0.46377  -0.45269  -0.44477  -0.43884
 Alpha  occ. eigenvalues --   -0.42867  -0.42050  -0.41324  -0.40590  -0.39579
 Alpha  occ. eigenvalues --   -0.37100  -0.36644  -0.28081  -0.27371
 Alpha virt. eigenvalues --    0.07029   0.07748   0.12414   0.14446   0.15851
 Alpha virt. eigenvalues --    0.16377   0.18832   0.19079   0.19594   0.20080
 Alpha virt. eigenvalues --    0.21242   0.21456   0.22212   0.22990   0.24089
 Alpha virt. eigenvalues --    0.24636   0.25529   0.26435   0.27337   0.27910
 Alpha virt. eigenvalues --    0.28530   0.29338   0.29680   0.31055   0.33032
 Alpha virt. eigenvalues --    0.38095   0.39549   0.47692   0.48915   0.52192
 Alpha virt. eigenvalues --    0.53668   0.54463   0.57630   0.58630   0.59550
 Alpha virt. eigenvalues --    0.61506   0.61695   0.62911   0.65300   0.66223
 Alpha virt. eigenvalues --    0.66892   0.69079   0.70702   0.72282   0.73346
 Alpha virt. eigenvalues --    0.74378   0.75627   0.77857   0.78632   0.80268
 Alpha virt. eigenvalues --    0.81672   0.82289   0.83619   0.84265   0.87267
 Alpha virt. eigenvalues --    0.87859   0.89038   0.90633   0.92015   0.92681
 Alpha virt. eigenvalues --    0.93758   0.94709   0.94941   0.96107   0.96736
 Alpha virt. eigenvalues --    0.96882   0.97379   0.99479   0.99944   1.00610
 Alpha virt. eigenvalues --    1.01957   1.03087   1.04294   1.04857   1.05842
 Alpha virt. eigenvalues --    1.11232   1.12159   1.20283   1.21603   1.24796
 Alpha virt. eigenvalues --    1.25819   1.27206   1.36126   1.37754   1.39317
 Alpha virt. eigenvalues --    1.39950   1.42156   1.45927   1.51583   1.53029
 Alpha virt. eigenvalues --    1.54530   1.55436   1.65707   1.70028   1.73085
 Alpha virt. eigenvalues --    1.75914   1.77468   1.79312   1.80722   1.82777
 Alpha virt. eigenvalues --    1.83908   1.84927   1.87114   1.88977   1.91324
 Alpha virt. eigenvalues --    1.91560   1.92205   1.93359   1.99885   2.01954
 Alpha virt. eigenvalues --    2.03199   2.04491   2.05669   2.07602   2.09559
 Alpha virt. eigenvalues --    2.10267   2.10370   2.10787   2.13707   2.14718
 Alpha virt. eigenvalues --    2.15246   2.16102   2.16674   2.17476   2.18990
 Alpha virt. eigenvalues --    2.20174   2.21868   2.22018   2.24247   2.25344
 Alpha virt. eigenvalues --    2.29829   2.30086   2.30628   2.34117   2.35544
 Alpha virt. eigenvalues --    2.38333   2.41775   2.43162   2.44070   2.45405
 Alpha virt. eigenvalues --    2.48036   2.48798   2.50671   2.52197   2.54491
 Alpha virt. eigenvalues --    2.55700   2.57911   2.61378   2.62190   2.64199
 Alpha virt. eigenvalues --    2.66418   2.67966   2.68452   2.69714   2.71187
 Alpha virt. eigenvalues --    2.74032   2.74780   2.76421   2.80614   2.84082
 Alpha virt. eigenvalues --    2.85271   2.85533   2.87089   2.87688   2.88343
 Alpha virt. eigenvalues --    2.90164   2.91399   2.93679   2.94971   3.01508
 Alpha virt. eigenvalues --    3.03531   3.07610   3.09605   3.17971   3.19528
 Alpha virt. eigenvalues --    3.21479   3.23505   3.30998   3.32573   3.40210
 Alpha virt. eigenvalues --    3.42188   3.42472   3.43237   3.44188   3.44863
 Alpha virt. eigenvalues --    3.45398   3.47612   3.49045   3.51203   3.52011
 Alpha virt. eigenvalues --    3.55309   4.16493   4.22673   4.33974   4.42485
 Alpha virt. eigenvalues --    4.51290   4.52749   4.54452   4.68403   4.71606
 Alpha virt. eigenvalues --    4.73531
          Condensed to atoms (all electrons):
               1          2          3          4          5          6
     1  C    5.038719   0.382679   0.386305   0.374568  -0.073616   0.004515
     2  H    0.382679   0.619310  -0.034344  -0.040440  -0.006633   0.000092
     3  H    0.386305  -0.034344   0.604795  -0.031927   0.004877  -0.000165
     4  C    0.374568  -0.040440  -0.031927   4.748141   0.370036  -0.033121
     5  C   -0.073616  -0.006633   0.004877   0.370036   5.003204   0.386249
     6  H    0.004515   0.000092  -0.000165  -0.033121   0.386249   0.573435
     7  H   -0.002997   0.005051   0.000039  -0.035242   0.379807  -0.027637
     8  H   -0.001095  -0.000552  -0.000040  -0.038485   0.380024  -0.027818
     9  C   -0.045411   0.002833  -0.007640   0.714824  -0.041387  -0.005334
    10  H    0.005808  -0.000175   0.000027  -0.030968  -0.013717   0.006167
    11  C   -0.014142   0.000280   0.000392  -0.042206   0.006156   0.000117
    12  H    0.000412  -0.000016  -0.000156   0.000226  -0.000155  -0.000010
    13  H    0.002067  -0.000095   0.003395  -0.007439   0.000076   0.000009
    14  H    0.000255   0.000037   0.000117  -0.000349  -0.000153  -0.000005
    15  C   -0.000112   0.000003  -0.000005  -0.000064  -0.000000  -0.000000
    16  H   -0.000005   0.000000   0.000000   0.000000  -0.000000   0.000000
    17  H   -0.000003   0.000000   0.000001  -0.000001   0.000000   0.000000
    18  H    0.000023  -0.000000   0.000000   0.000002   0.000000  -0.000000
    19  C   -0.001612  -0.000100   0.000272   0.001275   0.000124  -0.000001
    20  C    0.000186  -0.000007  -0.000006   0.000782  -0.000401   0.000007
    21  H   -0.000447   0.000021   0.000002   0.000336   0.000045  -0.000004
    22  H   -0.000033   0.000001   0.000000   0.000032   0.000004  -0.000000
    23  H    0.000080  -0.000001   0.000002   0.000038   0.000030   0.000000
    24  C   -0.055818   0.005264  -0.006963  -0.000805  -0.000381  -0.000002
    25  H   -0.001181  -0.000093   0.002818  -0.000263  -0.000007   0.000000
    26  C    0.338508  -0.038364  -0.039228  -0.050363  -0.001947   0.000004
    27  H   -0.037767  -0.002600   0.005150  -0.007565   0.001607  -0.000123
    28  H   -0.038955  -0.004895  -0.002888   0.005437  -0.000040   0.000003
               7          8          9         10         11         12
     1  C   -0.002997  -0.001095  -0.045411   0.005808  -0.014142   0.000412
     2  H    0.005051  -0.000552   0.002833  -0.000175   0.000280  -0.000016
     3  H    0.000039  -0.000040  -0.007640   0.000027   0.000392  -0.000156
     4  C   -0.035242  -0.038485   0.714824  -0.030968  -0.042206   0.000226
     5  C    0.379807   0.380024  -0.041387  -0.013717   0.006156  -0.000155
     6  H   -0.027637  -0.027818  -0.005334   0.006167   0.000117  -0.000010
     7  H    0.591640  -0.035009  -0.000749   0.000301  -0.000169  -0.000005
     8  H   -0.035009   0.599627  -0.001096   0.000235  -0.000174   0.000021
     9  C   -0.000749  -0.001096   4.887210   0.376462   0.362958  -0.033148
    10  H    0.000301   0.000235   0.376462   0.616504  -0.056648  -0.002431
    11  C   -0.000169  -0.000174   0.362958  -0.056648   4.971373   0.385659
    12  H   -0.000005   0.000021  -0.033148  -0.002431   0.385659   0.580371
    13  H   -0.000001   0.000000  -0.033657   0.004618   0.388247  -0.028349
    14  H    0.000023  -0.000006  -0.036927  -0.000985   0.382535  -0.032639
    15  C    0.000000   0.000001  -0.000015  -0.000000   0.000018   0.000071
    16  H   -0.000000   0.000000  -0.000000   0.000000   0.000001   0.000000
    17  H   -0.000000  -0.000000   0.000001   0.000000  -0.000004   0.000003
    18  H    0.000000  -0.000000  -0.000006  -0.000001  -0.000006   0.000118
    19  C   -0.000005   0.000050   0.000047   0.000023   0.000176  -0.000009
    20  C    0.000012  -0.000211   0.000357  -0.000002  -0.000034  -0.000019
    21  H   -0.000004   0.001485   0.000061  -0.000005   0.000002  -0.000001
    22  H   -0.000000  -0.000017   0.000009   0.000000   0.000000  -0.000000
    23  H    0.000001  -0.000038   0.000081  -0.000002  -0.000019   0.000005
    24  C    0.000020   0.000051   0.002017  -0.000020   0.000271   0.000034
    25  H    0.000000  -0.000001   0.000137   0.000000  -0.000335   0.000003
    26  C   -0.000569   0.001714  -0.002308  -0.000127   0.000164   0.000079
    27  H    0.000160   0.001730   0.000060  -0.000005  -0.000027   0.000003
    28  H    0.000000  -0.000103  -0.000062   0.000004  -0.000015  -0.000002
              13         14         15         16         17         18
     1  C    0.002067   0.000255  -0.000112  -0.000005  -0.000003   0.000023
     2  H   -0.000095   0.000037   0.000003   0.000000   0.000000  -0.000000
     3  H    0.003395   0.000117  -0.000005   0.000000   0.000001   0.000000
     4  C   -0.007439  -0.000349  -0.000064   0.000000  -0.000001   0.000002
     5  C    0.000076  -0.000153  -0.000000  -0.000000   0.000000   0.000000
     6  H    0.000009  -0.000005  -0.000000   0.000000   0.000000  -0.000000
     7  H   -0.000001   0.000023   0.000000  -0.000000  -0.000000   0.000000
     8  H    0.000000  -0.000006   0.000001   0.000000  -0.000000  -0.000000
     9  C   -0.033657  -0.036927  -0.000015  -0.000000   0.000001  -0.000006
    10  H    0.004618  -0.000985  -0.000000   0.000000   0.000000  -0.000001
    11  C    0.388247   0.382535   0.000018   0.000001  -0.000004  -0.000006
    12  H   -0.028349  -0.032639   0.000071   0.000000   0.000003   0.000118
    13  H    0.579190  -0.028366  -0.000010   0.000001   0.000022  -0.000023
    14  H   -0.028366   0.587449  -0.000000   0.000000   0.000000  -0.000002
    15  C   -0.000010  -0.000000   5.005927   0.381496   0.384603   0.381518
    16  H    0.000001   0.000000   0.381496   0.591017  -0.027376  -0.034414
    17  H    0.000022   0.000000   0.384603  -0.027376   0.573604  -0.027165
    18  H   -0.000023  -0.000002   0.381518  -0.034414  -0.027165   0.589834
    19  C    0.000269   0.000022   0.364993  -0.037384  -0.032876  -0.036458
    20  C    0.000011   0.000000  -0.079481  -0.000825   0.004669  -0.001852
    21  H   -0.000000   0.000000   0.004865  -0.000020  -0.000170  -0.000038
    22  H    0.000000   0.000000  -0.002458   0.004003  -0.000047  -0.000760
    23  H   -0.000005  -0.000000  -0.003022  -0.000834   0.000014   0.004339
    24  C    0.001778   0.000086  -0.035140  -0.001310  -0.004881  -0.001257
    25  H    0.000866   0.000005  -0.013871   0.000238   0.006246   0.000268
    26  C   -0.000751  -0.000038   0.005863  -0.000206   0.000108  -0.000131
    27  H    0.000010   0.000000   0.000077   0.000002   0.000010  -0.000002
    28  H    0.000042   0.000001  -0.000183   0.000017  -0.000011  -0.000003
              19         20         21         22         23         24
     1  C   -0.001612   0.000186  -0.000447  -0.000033   0.000080  -0.055818
     2  H   -0.000100  -0.000007   0.000021   0.000001  -0.000001   0.005264
     3  H    0.000272  -0.000006   0.000002   0.000000   0.000002  -0.006963
     4  C    0.001275   0.000782   0.000336   0.000032   0.000038  -0.000805
     5  C    0.000124  -0.000401   0.000045   0.000004   0.000030  -0.000381
     6  H   -0.000001   0.000007  -0.000004  -0.000000   0.000000  -0.000002
     7  H   -0.000005   0.000012  -0.000004  -0.000000   0.000001   0.000020
     8  H    0.000050  -0.000211   0.001485  -0.000017  -0.000038   0.000051
     9  C    0.000047   0.000357   0.000061   0.000009   0.000081   0.002017
    10  H    0.000023  -0.000002  -0.000005   0.000000  -0.000002  -0.000020
    11  C    0.000176  -0.000034   0.000002   0.000000  -0.000019   0.000271
    12  H   -0.000009  -0.000019  -0.000001  -0.000000   0.000005   0.000034
    13  H    0.000269   0.000011  -0.000000   0.000000  -0.000005   0.001778
    14  H    0.000022   0.000000   0.000000   0.000000  -0.000000   0.000086
    15  C    0.364993  -0.079481   0.004865  -0.002458  -0.003022  -0.035140
    16  H   -0.037384  -0.000825  -0.000020   0.004003  -0.000834  -0.001310
    17  H   -0.032876   0.004669  -0.000170  -0.000047   0.000014  -0.004881
    18  H   -0.036458  -0.001852  -0.000038  -0.000760   0.004339  -0.001257
    19  C    4.727958   0.379661  -0.026645  -0.036978  -0.035456   0.714797
    20  C    0.379661   4.998399   0.381460   0.381364   0.385068  -0.050351
    21  H   -0.026645   0.381460   0.579568  -0.028036  -0.028355  -0.007537
    22  H   -0.036978   0.381364  -0.028036   0.586993  -0.033126   0.000393
    23  H   -0.035456   0.385068  -0.028355  -0.033126   0.580006   0.000263
    24  C    0.714797  -0.050351  -0.007537   0.000393   0.000263   4.898136
    25  H   -0.031671   0.006205   0.000004  -0.000162  -0.000158   0.374506
    26  C   -0.037383  -0.014496   0.001525   0.000249   0.000482   0.369324
    27  H   -0.005676   0.000716   0.002898  -0.000014  -0.000159  -0.039675
    28  H    0.001399   0.000355  -0.000080   0.000041  -0.000018  -0.037003
              25         26         27         28
     1  C   -0.001181   0.338508  -0.037767  -0.038955
     2  H   -0.000093  -0.038364  -0.002600  -0.004895
     3  H    0.002818  -0.039228   0.005150  -0.002888
     4  C   -0.000263  -0.050363  -0.007565   0.005437
     5  C   -0.000007  -0.001947   0.001607  -0.000040
     6  H    0.000000   0.000004  -0.000123   0.000003
     7  H    0.000000  -0.000569   0.000160   0.000000
     8  H   -0.000001   0.001714   0.001730  -0.000103
     9  C    0.000137  -0.002308   0.000060  -0.000062
    10  H    0.000000  -0.000127  -0.000005   0.000004
    11  C   -0.000335   0.000164  -0.000027  -0.000015
    12  H    0.000003   0.000079   0.000003  -0.000002
    13  H    0.000866  -0.000751   0.000010   0.000042
    14  H    0.000005  -0.000038   0.000000   0.000001
    15  C   -0.013871   0.005863   0.000077  -0.000183
    16  H    0.000238  -0.000206   0.000002   0.000017
    17  H    0.006246   0.000108   0.000010  -0.000011
    18  H    0.000268  -0.000131  -0.000002  -0.000003
    19  C   -0.031671  -0.037383  -0.005676   0.001399
    20  C    0.006205  -0.014496   0.000716   0.000355
    21  H    0.000004   0.001525   0.002898  -0.000080
    22  H   -0.000162   0.000249  -0.000014   0.000041
    23  H   -0.000158   0.000482  -0.000159  -0.000018
    24  C    0.374506   0.369324  -0.039675  -0.037003
    25  H    0.621458  -0.055977   0.004880  -0.004339
    26  C   -0.055977   4.994804   0.390878   0.384600
    27  H    0.004880   0.390878   0.609872  -0.033619
    28  H   -0.004339   0.384600  -0.033619   0.608908
 Mulliken charges:
               1
     1  C   -0.260933
     2  H    0.112745
     3  H    0.115167
     4  C    0.103542
     5  C   -0.393803
     6  H    0.123622
     7  H    0.125331
     8  H    0.119705
     9  C   -0.139320
    10  H    0.094935
    11  C   -0.384572
    12  H    0.129935
    13  H    0.118095
    14  H    0.128937
    15  C   -0.395073
    16  H    0.125597
    17  H    0.123253
    18  H    0.126017
    19  C    0.091189
    20  C   -0.391566
    21  H    0.119072
    22  H    0.128542
    23  H    0.130785
    24  C   -0.125798
    25  H    0.090423
    26  C   -0.246414
    27  H    0.109179
    28  H    0.121408
 Sum of Mulliken charges =  -0.00000
 Mulliken charges with hydrogens summed into heavy atoms:
               1
     1  C   -0.033021
     4  C    0.103542
     5  C   -0.025145
     9  C   -0.044385
    11  C   -0.007604
    15  C   -0.020206
    19  C    0.091189
    20  C   -0.013168
    24  C   -0.035375
    26  C   -0.015827
 Electronic spatial extent (au):  <R**2>=           1886.8678
 Charge=              0.0000 electrons
 Dipole moment (field-independent basis, Debye):
    X=             -0.1999    Y=             -0.0637    Z=             -0.1293  Tot=              0.2464
 Quadrupole moment (field-independent basis, Debye-Ang):
   XX=            -65.1972   YY=            -63.4982   ZZ=            -63.1313
   XY=             -0.9531   XZ=              0.7163   YZ=              0.1044
 Traceless Quadrupole moment (field-independent basis, Debye-Ang):
   XX=             -1.2550   YY=              0.4440   ZZ=              0.8110
   XY=             -0.9531   XZ=              0.7163   YZ=              0.1044
 Octapole moment (field-independent basis, Debye-Ang**2):
  XXX=             -7.0075  YYY=              1.4887  ZZZ=              0.5838  XYY=              1.7891
  XXY=             -0.8116  XXZ=             -4.3535  XZZ=              1.5904  YZZ=              2.3190
  YYZ=             -0.8665  XYZ=             -2.6981
 Hexadecapole moment (field-independent basis, Debye-Ang**3):
 XXXX=          -1493.3091 YYYY=           -680.0833 ZZZZ=           -441.0698 XXXY=             -2.9248
 XXXZ=              5.7321 YYYX=              5.0132 YYYZ=             -2.4990 ZZZX=             -4.9554
 ZZZY=             -3.6084 XXYY=           -356.3593 XXZZ=           -321.4304 YYZZ=           -185.9718
 XXYZ=              2.0839 YYXZ=              2.3814 ZZXY=             -2.3879
 N-N= 5.369649792663D+02 E-N=-1.979031510890D+03  KE= 3.880590946242D+02
 No NMR shielding tensors so no spin-rotation constants.
 Leave Link  601 at Wed Jul 14 20:22:20 2021, MaxMem=   524288000 cpu:               5.9 elap:               1.3
 (Enter /opt/gaussian/g16_legacy/l701.exe)
 ... and contract with generalized density number  0.
 Compute integral first derivatives.
 Leave Link  701 at Wed Jul 14 20:22:21 2021, MaxMem=   524288000 cpu:               3.5 elap:               0.9
 (Enter /opt/gaussian/g16_legacy/l702.exe)
 L702 exits ... SP integral derivatives will be done elsewhere.
 Leave Link  702 at Wed Jul 14 20:22:21 2021, MaxMem=   524288000 cpu:               0.3 elap:               0.1
 (Enter /opt/gaussian/g16_legacy/l703.exe)
 Integral derivatives from FoFJK, PRISM(SPDF).
 Compute integral first derivatives, UseDBF=F ICtDFT=           0.
 Calling FoFJK, ICntrl=      2127 FMM=F ISym2X=0 I1Cent= 0 IOpClX= 0 NMat=1 NMatS=1 NMatT=0.
 FoFJK:  IHMeth= 1 ICntrl=    2127 DoSepK=F KAlg= 0 I1Cent=           0 FoldK=F
 IRaf=         0 NMat=       1 IRICut=       1 DoRegI=T DoRafI=F ISym2E= 0 IDoP0=0 IntGTp=1.
 FoFCou: FMM=F IPFlag=           0 FMFlag=      100000 FMFlg1=         800
         NFxFlg=           0 DoJE=F BraDBF=F KetDBF=F FulRan=T
         wScrn=  0.000000 ICntrl=      2127 IOpCl=  0 I1Cent=           0 NGrid=           0
         NMat0=    1 NMatS0=      1 NMatT0=    0 NMatD0=    1 NMtDS0=    0 NMtDT0=    0
 Symmetry not used in FoFCou.
 Leave Link  703 at Wed Jul 14 20:22:39 2021, MaxMem=   524288000 cpu:              88.0 elap:              18.3
 (Enter /opt/gaussian/g16_legacy/l716.exe)
 Dipole        =-7.86284100D-02-2.50434451D-02-5.08898314D-02
 ***** Axes restored to original set *****
 -------------------------------------------------------------------
 Center     Atomic                   Forces (Hartrees/Bohr)
 Number     Number              X              Y              Z
 -------------------------------------------------------------------
      1        6          -0.006428034    0.000214725   -0.002795997
      2        1           0.000873718    0.001437042   -0.000832864
      3        1           0.002793358   -0.001144854   -0.001721748
      4        6          -0.002380541   -0.009643684   -0.008743701
      5        6          -0.000546921   -0.002302530   -0.002537242
      6        1           0.000796644   -0.001811922    0.001611860
      7        1           0.001370677    0.002192252    0.001463445
      8        1          -0.000210791    0.002953718    0.001751148
      9        6           0.004091186    0.009384128    0.010710865
     10        1          -0.000309439    0.003147703    0.000334053
     11        6           0.000061804   -0.000511258    0.001721823
     12        1          -0.000961639   -0.001773508   -0.000049681
     13        1           0.000274797    0.001478366    0.000271807
     14        1           0.000444837   -0.002746613   -0.000959656
     15        6          -0.002354164   -0.001428722    0.002882438
     16        1           0.001514130   -0.000621798   -0.002555353
     17        1          -0.000611720    0.002206125   -0.000304417
     18        1           0.002721548    0.000254950   -0.000915316
     19        6          -0.012624443   -0.004075633    0.008075096
     20        6          -0.003095622    0.002406715    0.001610069
     21        1          -0.000926513   -0.000819942    0.001226483
     22        1           0.001504277   -0.000370225   -0.002148747
     23        1           0.002094870   -0.000380420    0.000112633
     24        6           0.007194059    0.005737090   -0.008700385
     25        1           0.001232424   -0.001661357   -0.000941791
     26        6           0.004730730   -0.002441154    0.004318245
     27        1           0.000204727   -0.000332692   -0.002810483
     28        1          -0.001453959    0.000653498   -0.000072586
 -------------------------------------------------------------------
 Cartesian Forces:  Max     0.012624443 RMS     0.003556812
 Leave Link  716 at Wed Jul 14 20:22:40 2021, MaxMem=   524288000 cpu:               0.3 elap:               0.1
 (Enter /opt/gaussian/g16_legacy/l103.exe)

 GradGradGradGradGradGradGradGradGradGradGradGradGradGradGradGradGradGrad
 Berny optimization.
 FormGI is forming the generalized inverse of G from B-inverse, IUseBI=4.
 Internal  Forces:  Max     0.014841554 RMS     0.002613350
 Search for a local minimum.
 Step number   1 out of a maximum of  138
 All quantities printed in internal units (Hartrees-Bohrs-Radians)
 RMS Force = .26133D-02 SwitMx=.10000D-02 MixMth= 1
 Mixed Optimization -- RFO/linear search
 Second derivative matrix not updated -- first step.
 ITU=  0
     Eigenvalues ---    0.00285   0.00544   0.00658   0.00679   0.00683
     Eigenvalues ---    0.00721   0.00824   0.01204   0.01291   0.01563
     Eigenvalues ---    0.01644   0.02776   0.02785   0.03766   0.03891
     Eigenvalues ---    0.05331   0.05422   0.06962   0.07009   0.07075
     Eigenvalues ---    0.07090   0.07245   0.07299   0.07354   0.07512
     Eigenvalues ---    0.09492   0.09628   0.12964   0.13052   0.15998
     Eigenvalues ---    0.16000   0.16000   0.16000   0.16000   0.16000
     Eigenvalues ---    0.16000   0.16000   0.16000   0.16000   0.16000
     Eigenvalues ---    0.16000   0.16000   0.16000   0.21897   0.21900
     Eigenvalues ---    0.22000   0.22001   0.24991   0.24995   0.24996
     Eigenvalues ---    0.24998   0.28844   0.30676   0.31535   0.31701
     Eigenvalues ---    0.31727   0.32025   0.32840   0.33867   0.33919
     Eigenvalues ---    0.34161   0.34201   0.34218   0.34229   0.34247
     Eigenvalues ---    0.34248   0.34251   0.34254   0.34254   0.34317
     Eigenvalues ---    0.34353   0.34414   0.34641   0.34648   0.34807
     Eigenvalues ---    0.34856   0.55434   0.55590
 RFO step:  Lambda=-4.68021101D-03 EMin= 2.85032635D-03
 Linear search not attempted -- first point.
 Iteration  1 RMS(Cart)=  0.19051688 RMS(Int)=  0.00453830
 Iteration  2 RMS(Cart)=  0.01081612 RMS(Int)=  0.00030337
 Iteration  3 RMS(Cart)=  0.00004697 RMS(Int)=  0.00030287
 Iteration  4 RMS(Cart)=  0.00000002 RMS(Int)=  0.00030287
 ITry= 1 IFail=0 DXMaxC= 7.10D-01 DCOld= 1.00D+10 DXMaxT= 3.00D-01 DXLimC= 3.00D+00 Rises=F
 Variable       Old X    -DE/DX   Delta X   Delta X   Delta X     New X
                                 (Linear)    (Quad)   (Total)
    R1        2.07556   0.00007   0.00000   0.00020   0.00020   2.07576
    R2        2.07059  -0.00047   0.00000  -0.00135  -0.00135   2.06924
    R3        2.86636  -0.00572   0.00000  -0.01838  -0.01838   2.84798
    R4        2.90329  -0.00009   0.00000  -0.00030  -0.00030   2.90299
    R5        2.85002   0.00016   0.00000   0.00051   0.00051   2.85053
    R6        2.54748  -0.01484   0.00000  -0.02655  -0.02655   2.52093
    R7        2.06964  -0.00177   0.00000  -0.00511  -0.00511   2.06452
    R8        2.06908   0.00063   0.00000   0.00180   0.00180   2.07088
    R9        2.06739   0.00165   0.00000   0.00473   0.00473   2.07212
   R10        2.05909   0.00035   0.00000   0.00099   0.00099   2.06008
   R11        2.82633   0.00367   0.00000   0.01103   0.01103   2.83737
   R12        2.06903   0.00009   0.00000   0.00026   0.00026   2.06930
   R13        2.06250   0.00000   0.00000   0.00001   0.00001   2.06251
   R14        2.06798   0.00102   0.00000   0.00293   0.00293   2.07091
   R15        2.06916   0.00072   0.00000   0.00209   0.00209   2.07124
   R16        2.06945  -0.00167   0.00000  -0.00482  -0.00482   2.06464
   R17        2.06903   0.00069   0.00000   0.00198   0.00198   2.07101
   R18        2.84695   0.00049   0.00000   0.00153   0.00153   2.84848
   R19        2.84099   0.00009   0.00000   0.00027   0.00027   2.84125
   R20        2.54611  -0.01419   0.00000  -0.02532  -0.02532   2.52079
   R21        2.06261   0.00002   0.00000   0.00005   0.00005   2.06266
   R22        2.06914   0.00074   0.00000   0.00212   0.00212   2.07126
   R23        2.06991   0.00000   0.00000   0.00000   0.00000   2.06992
   R24        2.05989   0.00070   0.00000   0.00198   0.00198   2.06187
   R25        2.84646  -0.00267   0.00000  -0.00828  -0.00828   2.83817
   R26        2.06636   0.00062   0.00000   0.00178   0.00178   2.06814
   R27        2.07467   0.00003   0.00000   0.00010   0.00010   2.07477
    A1        1.82527   0.00075   0.00000   0.03193   0.03201   1.85728
    A2        1.88589   0.00204   0.00000   0.01795   0.01828   1.90416
    A3        1.89201   0.00245   0.00000   0.02174   0.02205   1.91406
    A4        1.94311   0.00178   0.00000  -0.00929  -0.01053   1.93258
    A5        1.91573   0.00037   0.00000  -0.01621  -0.01719   1.89854
    A6        1.99322  -0.00666   0.00000  -0.03800  -0.03857   1.95466
    A7        2.00698   0.00050   0.00000   0.00234   0.00176   2.00874
    A8        2.17890  -0.00479   0.00000  -0.01835  -0.01891   2.16000
    A9        2.09703   0.00431   0.00000   0.01738   0.01677   2.11380
   A10        1.95945  -0.00264   0.00000  -0.01265  -0.01262   1.94683
   A11        1.92445   0.00183   0.00000   0.01006   0.01008   1.93453
   A12        1.93152   0.00220   0.00000   0.01105   0.01107   1.94259
   A13        1.87602   0.00120   0.00000   0.01167   0.01170   1.88772
   A14        1.87545   0.00059   0.00000   0.00563   0.00566   1.88111
   A15        1.89462  -0.00330   0.00000  -0.02664  -0.02663   1.86799
   A16        2.06698  -0.00216   0.00000  -0.01487  -0.01487   2.05211
   A17        2.23325  -0.00215   0.00000  -0.00960  -0.00960   2.22365
   A18        1.98277   0.00431   0.00000   0.02441   0.02441   2.00718
   A19        1.91037   0.00227   0.00000   0.01268   0.01264   1.92301
   A20        1.98644  -0.00308   0.00000  -0.01854  -0.01847   1.96796
   A21        1.91479   0.00340   0.00000   0.02165   0.02163   1.93642
   A22        1.87579   0.00001   0.00000  -0.00167  -0.00163   1.87416
   A23        1.88661  -0.00284   0.00000  -0.01755  -0.01768   1.86893
   A24        1.88706   0.00007   0.00000   0.00243   0.00251   1.88957
   A25        1.87879   0.00082   0.00000   0.00857   0.00860   1.88739
   A26        1.89508  -0.00314   0.00000  -0.02613  -0.02612   1.86897
   A27        1.92392   0.00200   0.00000   0.01047   0.01049   1.93440
   A28        1.87865   0.00099   0.00000   0.00925   0.00927   1.88792
   A29        1.96093  -0.00235   0.00000  -0.01069  -0.01066   1.95027
   A30        1.92444   0.00157   0.00000   0.00766   0.00768   1.93212
   A31        1.99242   0.00138   0.00000   0.00542   0.00542   1.99784
   A32        2.10375   0.00257   0.00000   0.01007   0.01007   2.11382
   A33        2.18690  -0.00395   0.00000  -0.01550  -0.01550   2.17140
   A34        1.98328  -0.00229   0.00000  -0.01062  -0.01061   1.97267
   A35        1.92079   0.00181   0.00000   0.01003   0.01004   1.93083
   A36        1.92011   0.00019   0.00000  -0.00104  -0.00103   1.91908
   A37        1.87835   0.00098   0.00000   0.01012   0.01014   1.88848
   A38        1.86775   0.00148   0.00000   0.01097   0.01097   1.87872
   A39        1.89056  -0.00223   0.00000  -0.02012  -0.02011   1.87045
   A40        2.06268  -0.00116   0.00000  -0.00862  -0.00896   2.05372
   A41        2.23642  -0.00202   0.00000  -0.00895  -0.00931   2.22711
   A42        1.98407   0.00319   0.00000   0.01782   0.01745   2.00153
   A43        1.97378  -0.00564   0.00000  -0.03091  -0.03162   1.94216
   A44        1.93007   0.00050   0.00000  -0.01912  -0.02025   1.90982
   A45        1.88758   0.00135   0.00000   0.01902   0.01939   1.90697
   A46        1.95971   0.00084   0.00000  -0.01797  -0.01928   1.94044
   A47        1.86830   0.00343   0.00000   0.03809   0.03839   1.90669
   A48        1.83658   0.00010   0.00000   0.01869   0.01896   1.85553
    D1        0.74168  -0.00094   0.00000  -0.03518  -0.03557   0.70611
    D2       -2.37492  -0.00207   0.00000  -0.09910  -0.09881  -2.47374
    D3        2.73661   0.00209   0.00000   0.00848   0.00795   2.74456
    D4       -0.37999   0.00096   0.00000  -0.05544  -0.05529  -0.43528
    D5       -1.36498  -0.00122   0.00000  -0.05116  -0.05125  -1.41623
    D6        1.80161  -0.00235   0.00000  -0.11507  -0.11449   1.68712
    D7        2.91771   0.00243   0.00000   0.05540   0.05515   2.97285
    D8       -1.15064  -0.00048   0.00000  -0.00875  -0.00840  -1.15904
    D9        0.85183   0.00067   0.00000   0.01410   0.01413   0.86596
   D10        0.93380   0.00003   0.00000   0.01436   0.01435   0.94814
   D11       -3.13455  -0.00288   0.00000  -0.04978  -0.04920   3.09944
   D12       -1.13208  -0.00173   0.00000  -0.02693  -0.02667  -1.15875
   D13       -1.26224   0.00246   0.00000   0.06915   0.06854  -1.19370
   D14        0.95260  -0.00045   0.00000   0.00501   0.00499   0.95760
   D15        2.95507   0.00070   0.00000   0.02786   0.02753   2.98260
   D16       -3.11053  -0.00082   0.00000  -0.04767  -0.04805   3.12461
   D17       -1.01923   0.00021   0.00000  -0.03437  -0.03475  -1.05398
   D18        1.07722  -0.00131   0.00000  -0.05396  -0.05432   1.02290
   D19        0.00734   0.00012   0.00000   0.01245   0.01282   0.02017
   D20        2.09864   0.00114   0.00000   0.02575   0.02612   2.12476
   D21       -2.08810  -0.00037   0.00000   0.00616   0.00655  -2.08155
   D22        3.12323   0.00036   0.00000   0.02822   0.02815  -3.13181
   D23       -0.04052   0.00033   0.00000   0.02523   0.02520  -0.01532
   D24        0.00783  -0.00076   0.00000  -0.03855  -0.03851  -0.03068
   D25        3.12727  -0.00079   0.00000  -0.04154  -0.04147   3.08581
   D26       -2.16325   0.00027   0.00000   0.01218   0.01226  -2.15099
   D27       -0.06420  -0.00013   0.00000   0.00678   0.00681  -0.05740
   D28        2.05253   0.00034   0.00000   0.01306   0.01299   2.06552
   D29        0.95708   0.00018   0.00000   0.00891   0.00897   0.96605
   D30        3.05613  -0.00022   0.00000   0.00351   0.00351   3.05964
   D31       -1.11032   0.00025   0.00000   0.00979   0.00969  -1.10063
   D32        1.04724  -0.00083   0.00000  -0.01320  -0.01319   1.03405
   D33       -2.10996  -0.00088   0.00000  -0.01390  -0.01390  -2.12386
   D34       -3.14051   0.00002   0.00000  -0.00221  -0.00221   3.14047
   D35       -0.01453  -0.00003   0.00000  -0.00291  -0.00291  -0.01744
   D36       -1.04490   0.00079   0.00000   0.00770   0.00770  -1.03720
   D37        2.08108   0.00074   0.00000   0.00700   0.00699   2.08808
   D38        3.07419  -0.00007   0.00000   0.00489   0.00490   3.07909
   D39       -1.10128   0.00093   0.00000   0.01794   0.01794  -1.08334
   D40        0.98057  -0.00057   0.00000  -0.00128  -0.00128   0.97929
   D41       -0.05093  -0.00009   0.00000   0.00535   0.00536  -0.04557
   D42        2.05679   0.00091   0.00000   0.01840   0.01840   2.07519
   D43       -2.14454  -0.00059   0.00000  -0.00082  -0.00082  -2.14537
   D44       -0.00262  -0.00056   0.00000  -0.02662  -0.02642  -0.02904
   D45        3.13287   0.00052   0.00000   0.02620   0.02600  -3.12432
   D46        3.12152  -0.00055   0.00000  -0.02717  -0.02697   3.09455
   D47       -0.02618   0.00053   0.00000   0.02565   0.02545  -0.00073
   D48        1.93123  -0.00242   0.00000  -0.11177  -0.11155   1.81968
   D49       -0.26785   0.00081   0.00000  -0.04573  -0.04616  -0.31401
   D50       -2.27491  -0.00180   0.00000  -0.08138  -0.08155  -2.35646
   D51       -1.21624  -0.00139   0.00000  -0.06101  -0.06053  -1.27677
   D52        2.86786   0.00184   0.00000   0.00503   0.00486   2.87272
   D53        0.86081  -0.00077   0.00000  -0.03061  -0.03053   0.83028
         Item               Value     Threshold  Converged?
 Maximum Force            0.014842     0.002500     NO 
 RMS     Force            0.002613     0.001667     NO 
 Maximum Displacement     0.710489     0.010000     NO 
 RMS     Displacement     0.195972     0.006667     NO 
 Predicted change in Energy=-2.546565D-03
 Lowest energy point so far.  Saving SCF results.
 GradGradGradGradGradGradGradGradGradGradGradGradGradGradGradGradGradGrad

 Leave Link  103 at Wed Jul 14 20:22:45 2021, MaxMem=   524288000 cpu:              22.5 elap:               5.5
 (Enter /opt/gaussian/g16_legacy/l202.exe)
                          Input orientation:                          
 ---------------------------------------------------------------------
 Center     Atomic      Atomic             Coordinates (Angstroms)
[...]
                 (A) (A) (A) (A) (A) (A) (A) (A) (A) (A) (A) (A)
                 (A) (A) (A) (A) (A) (A) (A) (A) (A) (A) (A) (A)
                 (A) (A) (A) (A) (A) (A) (A) (A) (A) (A) (A) (A)
                 (A) (A) (A) (A) (A) (A) (A) (A) (A) (A) (A) (A)
                 (A) (A) (A) (A) (A) (A) (A) (A) (A) (A) (A) (A)
                 (A) (A) (A) (A) (A) (A) (A) (A) (A) (A) (A) (A)
                 (A) (A) (A) (A) (A) (A) (A) (A) (A) (A) (A) (A)
                 (A) (A) (A) (A) (A) (A) (A) (A) (A) (A) (A) (A)
                 (A) (A) (A) (A) (A) (A) (A) (A) (A) (A) (A) (A)
                 (A) (A) (A) (A) (A) (A) (A) (A) (A) (A) (A) (A)
                 (A) (A) (A) (A) (A) (A) (A) (A) (A) (A) (A) (A)
                 (A) (A) (A) (A) (A) (A) (A) (A) (A) (A) (A) (A)
                 (A) (A) (A) (A) (A) (A) (A) (A) (A) (A) (A) (A)
                 (A) (A) (A) (A) (A) (A) (A) (A) (A)
 The electronic state is 1-A.
 Alpha  occ. eigenvalues --  -10.54370 -10.54030 -10.53960 -10.53904 -10.53335
 Alpha  occ. eigenvalues --  -10.53301 -10.53163 -10.53147 -10.53021 -10.52896
 Alpha  occ. eigenvalues --   -0.92306  -0.89578  -0.84578  -0.81391  -0.77571
 Alpha  occ. eigenvalues --   -0.76074  -0.71972  -0.68594  -0.58414  -0.58062
 Alpha  occ. eigenvalues --   -0.53370  -0.52273  -0.50204  -0.49724  -0.49183
 Alpha  occ. eigenvalues --   -0.47962  -0.45974  -0.45297  -0.44132  -0.44007
 Alpha  occ. eigenvalues --   -0.42781  -0.42044  -0.41501  -0.40979  -0.39780
 Alpha  occ. eigenvalues --   -0.37228  -0.36490  -0.28324  -0.27414
 Alpha virt. eigenvalues --    0.06751   0.08007   0.12241   0.13511   0.15852
 Alpha virt. eigenvalues --    0.16403   0.18251   0.19021   0.19843   0.20037
 Alpha virt. eigenvalues --    0.21106   0.21637   0.22758   0.23540   0.24764
 Alpha virt. eigenvalues --    0.25227   0.25282   0.26525   0.27737   0.28161
 Alpha virt. eigenvalues --    0.28898   0.29198   0.30137   0.31143   0.33348
 Alpha virt. eigenvalues --    0.38285   0.39660   0.47966   0.48374   0.51326
 Alpha virt. eigenvalues --    0.53257   0.54577   0.57078   0.57477   0.58902
 Alpha virt. eigenvalues --    0.60928   0.61347   0.63467   0.66357   0.66732
 Alpha virt. eigenvalues --    0.67229   0.70506   0.71216   0.72474   0.74493
 Alpha virt. eigenvalues --    0.75645   0.76272   0.77752   0.78668   0.81153
 Alpha virt. eigenvalues --    0.81548   0.81749   0.84590   0.86616   0.87403
 Alpha virt. eigenvalues --    0.89367   0.89984   0.92034   0.92144   0.93023
 Alpha virt. eigenvalues --    0.94255   0.95157   0.95320   0.96454   0.97416
 Alpha virt. eigenvalues --    0.97997   0.98872   1.00291   1.01153   1.01270
 Alpha virt. eigenvalues --    1.03257   1.04064   1.06842   1.07700   1.08413
 Alpha virt. eigenvalues --    1.09730   1.11856   1.20497   1.22203   1.25188
 Alpha virt. eigenvalues --    1.27508   1.32804   1.36801   1.38191   1.39432
 Alpha virt. eigenvalues --    1.41459   1.43111   1.45951   1.50667   1.52238
 Alpha virt. eigenvalues --    1.55571   1.55996   1.67336   1.69756   1.73288
 Alpha virt. eigenvalues --    1.75135   1.77940   1.79338   1.81358   1.82602
 Alpha virt. eigenvalues --    1.84698   1.85808   1.88026   1.89501   1.91493
 Alpha virt. eigenvalues --    1.92079   1.92658   1.93964   2.01408   2.03000
 Alpha virt. eigenvalues --    2.04094   2.05803   2.07215   2.08396   2.10021
 Alpha virt. eigenvalues --    2.10477   2.11362   2.11651   2.13871   2.15701
 Alpha virt. eigenvalues --    2.15993   2.16465   2.18315   2.18739   2.19568
 Alpha virt. eigenvalues --    2.21517   2.22237   2.23217   2.24436   2.25253
 Alpha virt. eigenvalues --    2.30042   2.31201   2.32069   2.35526   2.35769
 Alpha virt. eigenvalues --    2.39067   2.41418   2.42972   2.43855   2.46125
 Alpha virt. eigenvalues --    2.47783   2.47968   2.50875   2.52387   2.53944
 Alpha virt. eigenvalues --    2.56471   2.58297   2.61669   2.62402   2.64486
 Alpha virt. eigenvalues --    2.66559   2.66870   2.68442   2.69736   2.71305
 Alpha virt. eigenvalues --    2.74184   2.75331   2.76834   2.80199   2.84206
 Alpha virt. eigenvalues --    2.85236   2.86437   2.86875   2.87487   2.88296
 Alpha virt. eigenvalues --    2.90488   2.92184   2.92999   2.94817   3.02888
 Alpha virt. eigenvalues --    3.04691   3.08708   3.10958   3.17775   3.19330
 Alpha virt. eigenvalues --    3.22039   3.24566   3.30557   3.32734   3.40427
 Alpha virt. eigenvalues --    3.42210   3.42819   3.43782   3.44539   3.44938
 Alpha virt. eigenvalues --    3.45945   3.47043   3.49587   3.50895   3.52825
 Alpha virt. eigenvalues --    3.55356   4.17541   4.27534   4.35262   4.42953
 Alpha virt. eigenvalues --    4.51556   4.54322   4.56750   4.70546   4.72627
 Alpha virt. eigenvalues --    4.74953
          Condensed to atoms (all electrons):
               1          2          3          4          5          6
     1  C    5.036978   0.383482   0.386131   0.376215  -0.072671   0.004770
     2  H    0.383482   0.615171  -0.032009  -0.040611  -0.006008   0.000128
     3  H    0.386131  -0.032009   0.601062  -0.032634   0.004824  -0.000174
     4  C    0.376215  -0.040611  -0.032634   4.749530   0.371788  -0.034235
     5  C   -0.072671  -0.006008   0.004824   0.371788   5.003421   0.385954
     6  H    0.004770   0.000128  -0.000174  -0.034235   0.385954   0.572618
     7  H   -0.003052   0.004098   0.000010  -0.032466   0.379654  -0.026415
     8  H   -0.001073  -0.000628   0.000004  -0.039249   0.379435  -0.027629
     9  C   -0.048433   0.003593  -0.007214   0.717622  -0.042177  -0.005513
    10  H    0.006267  -0.000185  -0.000006  -0.032675  -0.014433   0.006671
    11  C   -0.014655   0.000291  -0.000248  -0.042540   0.006122   0.000088
    12  H    0.000546  -0.000019  -0.000235  -0.001188  -0.000145  -0.000005
    13  H    0.002420  -0.000076   0.003922  -0.007989   0.000078   0.000009
    14  H    0.000206   0.000020   0.000141   0.000798  -0.000146  -0.000007
    15  C   -0.000081   0.000003  -0.000015  -0.000129  -0.000001   0.000000
    16  H   -0.000007   0.000000   0.000000  -0.000001  -0.000000   0.000000
    17  H   -0.000003  -0.000000   0.000003  -0.000001  -0.000000  -0.000000
    18  H    0.000031  -0.000000   0.000000   0.000010   0.000000  -0.000000
    19  C   -0.004552  -0.000048   0.000165   0.000713   0.000160   0.000009
    20  C   -0.000296  -0.000006   0.000011   0.001206  -0.000898   0.000015
    21  H   -0.001129   0.000031   0.000003  -0.000439   0.000735   0.000024
    22  H   -0.000043   0.000002   0.000000   0.000228  -0.000004   0.000000
    23  H    0.000245  -0.000005   0.000005   0.000234   0.000157   0.000023
    24  C   -0.057079   0.005411  -0.006950  -0.003640  -0.000240   0.000002
    25  H   -0.000168  -0.000111   0.002252  -0.000088  -0.000011   0.000000
    26  C    0.342007  -0.037709  -0.039291  -0.049532  -0.003124  -0.000015
    27  H   -0.040780  -0.002523   0.005336  -0.007591   0.001079  -0.000191
    28  H   -0.037673  -0.004498  -0.002618   0.005346  -0.000003   0.000004
               7          8          9         10         11         12
     1  C   -0.003052  -0.001073  -0.048433   0.006267  -0.014655   0.000546
     2  H    0.004098  -0.000628   0.003593  -0.000185   0.000291  -0.000019
     3  H    0.000010   0.000004  -0.007214  -0.000006  -0.000248  -0.000235
     4  C   -0.032466  -0.039249   0.717622  -0.032675  -0.042540  -0.001188
     5  C    0.379654   0.379435  -0.042177  -0.014433   0.006122  -0.000145
     6  H   -0.026415  -0.027629  -0.005513   0.006671   0.000088  -0.000005
     7  H    0.587659  -0.036885  -0.001143   0.000329  -0.000159  -0.000006
     8  H   -0.036885   0.604851  -0.000476   0.000205  -0.000168   0.000022
     9  C   -0.001143  -0.000476   4.881783   0.375465   0.366007  -0.033055
    10  H    0.000329   0.000205   0.375465   0.619288  -0.054658  -0.000993
    11  C   -0.000159  -0.000168   0.366007  -0.054658   4.963525   0.383173
    12  H   -0.000006   0.000022  -0.033055  -0.000993   0.383173   0.587868
    13  H    0.000004  -0.000004  -0.034878   0.004560   0.389715  -0.028998
    14  H    0.000018  -0.000004  -0.033832  -0.002076   0.381358  -0.034367
    15  C    0.000000   0.000001  -0.000091  -0.000001  -0.000477   0.000456
    16  H   -0.000000   0.000000  -0.000004   0.000000   0.000028  -0.000001
    17  H   -0.000000   0.000000   0.000005   0.000000  -0.000007   0.000007
    18  H    0.000000  -0.000000  -0.000038  -0.000004  -0.000264   0.001805
    19  C   -0.000009   0.000105  -0.000738   0.000029  -0.000047  -0.000605
    20  C    0.000046  -0.000725   0.000796  -0.000120  -0.000432  -0.000208
    21  H   -0.000009   0.001827  -0.000307  -0.000039   0.000037  -0.000000
    22  H    0.000000  -0.000038   0.000190   0.000000   0.000007  -0.000028
    23  H    0.000005  -0.000113   0.001151   0.000288  -0.000238   0.000307
    24  C    0.000003   0.000061   0.000785  -0.000049   0.000742  -0.000210
    25  H    0.000000  -0.000000   0.000151  -0.000001  -0.000403   0.000001
    26  C   -0.000276   0.001484  -0.004086  -0.000125   0.000110   0.000181
    27  H    0.000064   0.002770   0.000054  -0.000015  -0.000018   0.000006
    28  H    0.000003  -0.000153  -0.000040   0.000004  -0.000019  -0.000006
              13         14         15         16         17         18
     1  C    0.002420   0.000206  -0.000081  -0.000007  -0.000003   0.000031
     2  H   -0.000076   0.000020   0.000003   0.000000  -0.000000  -0.000000
     3  H    0.003922   0.000141  -0.000015   0.000000   0.000003   0.000000
     4  C   -0.007989   0.000798  -0.000129  -0.000001  -0.000001   0.000010
     5  C    0.000078  -0.000146  -0.000001  -0.000000  -0.000000   0.000000
     6  H    0.000009  -0.000007   0.000000   0.000000  -0.000000  -0.000000
     7  H    0.000004   0.000018   0.000000  -0.000000  -0.000000   0.000000
     8  H   -0.000004  -0.000004   0.000001   0.000000   0.000000  -0.000000
     9  C   -0.034878  -0.033832  -0.000091  -0.000004   0.000005  -0.000038
    10  H    0.004560  -0.002076  -0.000001   0.000000   0.000000  -0.000004
    11  C    0.389715   0.381358  -0.000477   0.000028  -0.000007  -0.000264
    12  H   -0.028998  -0.034367   0.000456  -0.000001   0.000007   0.001805
    13  H    0.580335  -0.027976   0.000044   0.000004   0.000039  -0.000066
    14  H   -0.027976   0.589851  -0.000002   0.000000   0.000000  -0.000041
    15  C    0.000044  -0.000002   5.007996   0.380295   0.384710   0.380037
    16  H    0.000004   0.000000   0.380295   0.589651  -0.026190  -0.036659
    17  H    0.000039   0.000000   0.384710  -0.026190   0.571878  -0.027035
    18  H   -0.000066  -0.000041   0.380037  -0.036659  -0.027035   0.597140
    19  C    0.000120   0.000212   0.367659  -0.034540  -0.033585  -0.037531
    20  C    0.000052   0.000008  -0.078695  -0.001328   0.004774  -0.001468
    21  H   -0.000001  -0.000000   0.004998  -0.000028  -0.000178  -0.000033
    22  H    0.000001   0.000000  -0.003057   0.004137  -0.000012  -0.000924
    23  H   -0.000020  -0.000025  -0.002556  -0.000717  -0.000032   0.004107
    24  C    0.001685   0.000237  -0.037548  -0.001209  -0.005038  -0.001106
    25  H    0.000694   0.000006  -0.014612   0.000278   0.006728   0.000224
    26  C   -0.001197  -0.000040   0.005980  -0.000201   0.000098  -0.000126
    27  H    0.000015   0.000000   0.000035   0.000011   0.000012  -0.000008
    28  H    0.000049   0.000002  -0.000173   0.000010  -0.000010  -0.000002
              19         20         21         22         23         24
     1  C   -0.004552  -0.000296  -0.001129  -0.000043   0.000245  -0.057079
     2  H   -0.000048  -0.000006   0.000031   0.000002  -0.000005   0.005411
     3  H    0.000165   0.000011   0.000003   0.000000   0.000005  -0.006950
     4  C    0.000713   0.001206  -0.000439   0.000228   0.000234  -0.003640
     5  C    0.000160  -0.000898   0.000735  -0.000004   0.000157  -0.000240
     6  H    0.000009   0.000015   0.000024   0.000000   0.000023   0.000002
     7  H   -0.000009   0.000046  -0.000009   0.000000   0.000005   0.000003
     8  H    0.000105  -0.000725   0.001827  -0.000038  -0.000113   0.000061
     9  C   -0.000738   0.000796  -0.000307   0.000190   0.001151   0.000785
    10  H    0.000029  -0.000120  -0.000039   0.000000   0.000288  -0.000049
    11  C   -0.000047  -0.000432   0.000037   0.000007  -0.000238   0.000742
    12  H   -0.000605  -0.000208  -0.000000  -0.000028   0.000307  -0.000210
    13  H    0.000120   0.000052  -0.000001   0.000001  -0.000020   0.001685
    14  H    0.000212   0.000008  -0.000000   0.000000  -0.000025   0.000237
    15  C    0.367659  -0.078695   0.004998  -0.003057  -0.002556  -0.037548
    16  H   -0.034540  -0.001328  -0.000028   0.004137  -0.000717  -0.001209
    17  H   -0.033585   0.004774  -0.000178  -0.000012  -0.000032  -0.005038
    18  H   -0.037531  -0.001468  -0.000033  -0.000924   0.004107  -0.001106
    19  C    4.713119   0.382801  -0.026926  -0.037332  -0.033867   0.717223
    20  C    0.382801   4.990108   0.382441   0.379938   0.381911  -0.052985
    21  H   -0.026926   0.382441   0.584864  -0.027881  -0.028138  -0.009021
    22  H   -0.037332   0.379938  -0.027881   0.595460  -0.034605   0.001454
    23  H   -0.033867   0.381911  -0.028138  -0.034605   0.585251  -0.000631
    24  C    0.717223  -0.052985  -0.009021   0.001454  -0.000631   4.912838
    25  H   -0.033480   0.006508  -0.000006  -0.000156  -0.000177   0.376252
    26  C   -0.038848  -0.014357   0.002311   0.000128   0.000608   0.368817
    27  H   -0.006288   0.000214   0.002587   0.000137  -0.000263  -0.040338
    28  H    0.002778   0.000376  -0.000043   0.000019  -0.000015  -0.032377
              25         26         27         28
     1  C   -0.000168   0.342007  -0.040780  -0.037673
     2  H   -0.000111  -0.037709  -0.002523  -0.004498
     3  H    0.002252  -0.039291   0.005336  -0.002618
     4  C   -0.000088  -0.049532  -0.007591   0.005346
     5  C   -0.000011  -0.003124   0.001079  -0.000003
     6  H    0.000000  -0.000015  -0.000191   0.000004
     7  H    0.000000  -0.000276   0.000064   0.000003
     8  H   -0.000000   0.001484   0.002770  -0.000153
     9  C    0.000151  -0.004086   0.000054  -0.000040
    10  H   -0.000001  -0.000125  -0.000015   0.000004
    11  C   -0.000403   0.000110  -0.000018  -0.000019
    12  H    0.000001   0.000181   0.000006  -0.000006
    13  H    0.000694  -0.001197   0.000015   0.000049
    14  H    0.000006  -0.000040   0.000000   0.000002
    15  C   -0.014612   0.005980   0.000035  -0.000173
    16  H    0.000278  -0.000201   0.000011   0.000010
    17  H    0.006728   0.000098   0.000012  -0.000010
    18  H    0.000224  -0.000126  -0.000008  -0.000002
    19  C   -0.033480  -0.038848  -0.006288   0.002778
    20  C    0.006508  -0.014357   0.000214   0.000376
    21  H   -0.000006   0.002311   0.002587  -0.000043
    22  H   -0.000156   0.000128   0.000137   0.000019
    23  H   -0.000177   0.000608  -0.000263  -0.000015
    24  C    0.376252   0.368817  -0.040338  -0.032377
    25  H    0.619159  -0.053752   0.004717  -0.005097
    26  C   -0.053752   4.992726   0.391848   0.384001
    27  H    0.004717   0.391848   0.610063  -0.032562
    28  H   -0.005097   0.384001  -0.032562   0.602933
 Mulliken charges:
               1
     1  C   -0.257605
     2  H    0.112207
     3  H    0.117523
     4  C    0.101319
     5  C   -0.393544
     6  H    0.123866
     7  H    0.128527
     8  H    0.116380
     9  C   -0.135575
    10  H    0.092272
    11  C   -0.376871
    12  H    0.125698
    13  H    0.117460
    14  H    0.125655
    15  C   -0.394776
    16  H    0.126473
    17  H    0.123839
    18  H    0.121949
    19  C    0.103302
    20  C   -0.379686
    21  H    0.114321
    22  H    0.122377
    23  H    0.127110
    24  C   -0.137088
    25  H    0.091093
    26  C   -0.247619
    27  H    0.111628
    28  H    0.119764
 Sum of Mulliken charges =  -0.00000
 Mulliken charges with hydrogens summed into heavy atoms:
               1
     1  C   -0.027874
     4  C    0.101319
     5  C   -0.024771
     9  C   -0.043303
    11  C   -0.008058
    15  C   -0.022515
    19  C    0.103302
    20  C   -0.015878
    24  C   -0.045995
    26  C   -0.016227
 Electronic spatial extent (au):  <R**2>=           1707.1672
 Charge=              0.0000 electrons
 Dipole moment (field-independent basis, Debye):
    X=             -0.0829    Y=             -0.0136    Z=             -0.1308  Tot=              0.1555
 Quadrupole moment (field-independent basis, Debye-Ang):
   XX=            -64.9295   YY=            -64.5803   ZZ=            -63.0956
   XY=             -2.0773   XZ=              0.1833   YZ=             -0.3879
 Traceless Quadrupole moment (field-independent basis, Debye-Ang):
   XX=             -0.7277   YY=             -0.3785   ZZ=              1.1062
   XY=             -2.0773   XZ=              0.1833   YZ=             -0.3879
 Octapole moment (field-independent basis, Debye-Ang**2):
  XXX=             -3.8690  YYY=              3.4014  ZZZ=              2.6227  XYY=              2.5406
  XXY=             -1.7338  XXZ=             -2.9628  XZZ=             -1.0463  YZZ=              0.4125
  YYZ=             -1.6032  XYZ=             -2.1959
 Hexadecapole moment (field-independent basis, Debye-Ang**3):
 XXXX=          -1267.4715 YYYY=           -620.2410 ZZZZ=           -466.0926 XXXY=            -12.2152
 XXXZ=              5.4523 YYYX=             -1.4966 YYYZ=             -1.7630 ZZZX=             -5.3612
 ZZZY=             -5.0381 XXYY=           -323.6333 XXZZ=           -285.8139 YYZZ=           -179.8017
 XXYZ=              0.9667 YYXZ=              3.1562 ZZXY=              2.3797
 N-N= 5.517881883686D+02 E-N=-2.008722929583D+03  KE= 3.881267869261D+02
 No NMR shielding tensors so no spin-rotation constants.
 Leave Link  601 at Wed Jul 14 20:40:27 2021, MaxMem=   524288000 cpu:               3.1 elap:               0.8
 (Enter /opt/gaussian/g16_legacy/l9999.exe)
 1\1\GINC-TRUENO90\FOpt\RM062X\6-31G(d,p)\C10H18\JRAMOS\14-Jul-2021\0\\
 #p opt=loose m062x/6-31g(d,p)\\Conformer number 419. Energy MM = 23.69
 2 kcal/mol\\0,1\C,-1.5463650591,0.5433327012,1.2627858063\H,-2.2329758
 643,1.2844368739,1.6903369658\H,-1.9252750308,-0.4411579594,1.55361863
 43\C,-1.5259503738,0.7022759293,-0.2390389327\C,-1.6154623367,2.127025
 2633,-0.722428927\H,-1.4904530491,2.1962444194,-1.8054026347\H,-2.5832
 797635,2.568727173,-0.457581399\H,-0.8477394004,2.7537046401,-0.251376
 4104\C,-1.3960364392,-0.3088323481,-1.104325417\H,-1.3671291237,-0.056
 2841133,-2.1650184196\C,-1.2700575608,-1.7712774659,-0.7960093243\H,-0
 .2933803055,-2.1474698795,-1.1226453541\H,-1.3577490942,-1.9860206366,
 0.2699400455\H,-2.0318214134,-2.349359775,-1.3302832539\C,2.4891835545
 ,-1.6903260316,0.3194886733\H,3.5606344588,-1.466114206,0.3802935845\H
 ,2.2591963995,-2.4726620287,1.0462322087\H,2.3099708227,-2.0907336624,
 -0.6859477616\C,1.665614598,-0.4512927731,0.5524749189\C,1.9129066003,
 0.6550365995,-0.4375319551\H,1.331578906,1.5539647033,-0.2290828259\H,
 2.9757299121,0.9230848545,-0.4581144279\H,1.6465198127,0.3179463581,-1
 .4462410678\C,0.7848837069,-0.3886724939,1.5563192221\H,0.6796514757,-
 1.2731939976,2.1863328957\C,-0.1449655197,0.7451045639,1.8862015735\H,
 0.2649726756,1.7032733461,1.5504289015\H,-0.2523025884,0.8193399456,2.
 9739746812\\Version=EM64L-G16RevA.03\State=1-A\HF=-391.6932361\RMSD=5.
 624e-09\RMSF=9.552e-06\Dipole=0.0501418,0.0143,-0.0319671\Quadrupole=-
 1.046577,0.7051114,0.3414657,-0.5840728,-1.3473876,-0.0104633\PG=C01 [
 X(C10H18)]\\@


 THE WORLD IS NOT A HAMBURGER - YOU CAN'T HAVE IT YOUR WAY.
 Job cpu time:       0 days  1 hours 54 minutes 59.5 seconds.
 Elapsed time:       0 days  0 hours 19 minutes 38.1 seconds.
 File lengths (MBytes):  RWF=     42 Int=      0 D2E=      0 Chk=      6 Scr=      1
 Normal termination of Gaussian 16 at Wed Jul 14 20:40:28 2021.
