 Entering Gaussian System, Link 0=/opt/gaussian/g16_legacy/g16
 Input=IsoP_rdkit_03_189_gaussian.com
 Output=IsoP_rdkit_03_189_gaussian.log
 Initial command:
 /opt/gaussian/g16_legacy/l1.exe "/scratch-local/jramos/2643483/Gau-19866.inp" -scrdir="/scratch-local/jramos/2643483/"
 Entering Link 1 = /opt/gaussian/g16_legacy/l1.exe PID=     19867.
  
 Copyright (c) 1988,1990,1992,1993,1995,1998,2003,2009,2016,
            Gaussian, Inc.  All Rights Reserved.
  
 This is part of the Gaussian(R) 16 program.  It is based on
 the Gaussian(R) 09 system (copyright 2009, Gaussian, Inc.),
 the Gaussian(R) 03 system (copyright 2003, Gaussian, Inc.),
 the Gaussian(R) 98 system (copyright 1998, Gaussian, Inc.),
 the Gaussian(R) 94 system (copyright 1995, Gaussian, Inc.),
 the Gaussian 92(TM) system (copyright 1992, Gaussian, Inc.),
 the Gaussian 90(TM) system (copyright 1990, Gaussian, Inc.),
 the Gaussian 88(TM) system (copyright 1988, Gaussian, Inc.),
 the Gaussian 86(TM) system (copyright 1986, Carnegie Mellon
 University), and the Gaussian 82(TM) system (copyright 1983,
 Carnegie Mellon University). Gaussian is a federally registered
 trademark of Gaussian, Inc.
  
 This software contains proprietary and confidential information,
 including trade secrets, belonging to Gaussian, Inc.
  
 This software is provided under written license and may be
 used, copied, transmitted, or stored only in accord with that
 written license.
  
 The following legend is applicable only to US Government
 contracts under FAR:
  
                    RESTRICTED RIGHTS LEGEND
  
 Use, reproduction and disclosure by the US Government is
 subject to restrictions as set forth in subparagraphs (a)
 and (c) of the Commercial Computer Software - Restricted
 Rights clause in FAR 52.227-19.
  
 Gaussian, Inc.
 340 Quinnipiac St., Bldg. 40, Wallingford CT 06492
  
  
 ---------------------------------------------------------------
 Warning -- This program may not be used in any manner that
 competes with the business of Gaussian, Inc. or will provide
 assistance to any competitor of Gaussian, Inc.  The licensee
 of this program is prohibited from giving any competitor of
 Gaussian, Inc. access to this program.  By using this program,
 the user acknowledges that Gaussian, Inc. is engaged in the
 business of creating and licensing software in the field of
 computational chemistry and represents and warrants to the
 licensee that it is not a competitor of Gaussian, Inc. and that
 it will not use this program in any manner prohibited above.
 ---------------------------------------------------------------
  

 Cite this work as:
 Gaussian 16, Revision A.03,
 M. J. Frisch, G. W. Trucks, H. B. Schlegel, G. E. Scuseria, 
 M. A. Robb, J. R. Cheeseman, G. Scalmani, V. Barone, 
 G. A. Petersson, H. Nakatsuji, X. Li, M. Caricato, A. V. Marenich, 
 J. Bloino, B. G. Janesko, R. Gomperts, B. Mennucci, H. P. Hratchian, 
 J. V. Ortiz, A. F. Izmaylov, J. L. Sonnenberg, D. Williams-Young, 
 F. Ding, F. Lipparini, F. Egidi, J. Goings, B. Peng, A. Petrone, 
 T. Henderson, D. Ranasinghe, V. G. Zakrzewski, J. Gao, N. Rega, 
 G. Zheng, W. Liang, M. Hada, M. Ehara, K. Toyota, R. Fukuda, 
 J. Hasegawa, M. Ishida, T. Nakajima, Y. Honda, O. Kitao, H. Nakai, 
 T. Vreven, K. Throssell, J. A. Montgomery, Jr., J. E. Peralta, 
 F. Ogliaro, M. J. Bearpark, J. J. Heyd, E. N. Brothers, K. N. Kudin, 
 V. N. Staroverov, T. A. Keith, R. Kobayashi, J. Normand, 
 K. Raghavachari, A. P. Rendell, J. C. Burant, S. S. Iyengar, 
 J. Tomasi, M. Cossi, J. M. Millam, M. Klene, C. Adamo, R. Cammi, 
 J. W. Ochterski, R. L. Martin, K. Morokuma, O. Farkas, 
 J. B. Foresman, and D. J. Fox, Gaussian, Inc., Wallingford CT, 2016.
 
 ******************************************
 Gaussian 16:  EM64L-G16RevA.03 25-Dec-2016
                14-Jul-2021 
 ******************************************
 %chk=IsoP_rdkit_03_189_gaussian.chk
 %nproc=6
 Will use up to    6 processors via shared memory.
 %mem=4000Mb
 -----------------------------
 #p opt=loose m062x/6-31g(d,p)
 -----------------------------
 1/7=-1,18=20,19=15,26=3,38=1/1,3;
 2/9=110,12=2,17=6,18=5,40=1/2;
 3/5=1,6=6,7=101,11=2,25=1,30=1,71=1,74=-55/1,2,3;
 4//1;
 5/5=2,38=5/2;
 6/7=2,8=2,9=2,10=2,28=1/1;
 7//1,2,3,16;
 1/7=-1,18=20,19=15,26=3/3(2);
 2/9=110/2;
 99//99;
 2/9=110/2;
 3/5=1,6=6,7=101,11=2,25=1,30=1,71=1,74=-55/1,2,3;
 4/5=5,16=3,69=1/1;
 5/5=2,38=5/2;
 7//1,2,3,16;
 1/7=-1,18=20,19=15,26=3/3(-5);
 2/9=110/2;
 6/7=2,8=2,9=2,10=2,19=2,28=1/1;
 99/9=1/99;
 Leave Link    1 at Wed Jul 14 19:42:03 2021, MaxMem=   524288000 cpu:               1.7 elap:               0.4
 (Enter /opt/gaussian/g16_legacy/l101.exe)
 -------------------------------------------------
 Conformer number 189. Energy MM = 23.692 kcal/mol
 -------------------------------------------------
 Symbolic Z-matrix:
 Charge =  0 Multiplicity = 1
 C                    -0.9462   -1.661    -0.1907 
 H                    -1.2298   -2.5195   -0.8142 
 H                    -1.4425   -1.8415    0.7695 
 C                    -1.4721   -0.4031   -0.8555 
 C                    -1.2905   -0.3497   -2.3518 
 H                    -1.7128    0.5614   -2.7889 
 H                    -0.2284   -0.3772   -2.613 
 H                    -1.7877   -1.2028   -2.8248 
 C                    -2.0894    0.6077   -0.2119 
 H                    -2.4418    1.4568   -0.7969 
 C                    -2.3464    0.7435    1.2552 
 H                    -3.4247    0.7719    1.4399 
 H                    -1.9148    1.6828    1.6158 
 H                    -1.9207   -0.0639    1.8537 
 C                     2.2065    0.9848   -0.3687 
 H                     3.3001    1.0195   -0.4115 
 H                     1.8254    2.0069   -0.4678 
 H                     1.8592    0.4285   -1.2412 
 C                     1.7603    0.3938    0.9396 
 C                     2.1553    1.2022    2.148 
 H                     1.815     0.7462    3.0837 
 H                     1.7213    2.2059    2.091 
 H                     3.2449    1.2958    2.2013 
 C                     1.0515   -0.7435    1.0788 
 H                     0.7728   -1.0566    2.085 
 C                     0.578    -1.6824    0.0003 
 H                     1.0872   -1.5104   -0.952 
 H                     0.8703   -2.6959    0.3047 
 
 ITRead=  0  0  0  0  0  0  0  0  0  0  0  0  0  0  0  0  0  0  0  0
 ITRead=  0  0  0  0  0  0  0  0
 MicOpt= -1 -1 -1 -1 -1 -1 -1 -1 -1 -1 -1 -1 -1 -1 -1 -1 -1 -1 -1 -1
 MicOpt= -1 -1 -1 -1 -1 -1 -1 -1
 NAtoms=     28 NQM=       28 NQMF=       0 NMMI=      0 NMMIF=      0
                NMic=       0 NMicF=      0.
                    Isotopes and Nuclear Properties:
 (Nuclear quadrupole moments (NQMom) in fm**2, nuclear magnetic moments (NMagM)
  in nuclear magnetons)

  Atom         1           2           3           4           5           6           7           8           9          10
 IAtWgt=          12           1           1          12          12           1           1           1          12           1
 AtmWgt=  12.0000000   1.0078250   1.0078250  12.0000000  12.0000000   1.0078250   1.0078250   1.0078250  12.0000000   1.0078250
 NucSpn=           0           1           1           0           0           1           1           1           0           1
 AtZEff=  -0.0000000  -0.0000000  -0.0000000  -0.0000000  -0.0000000  -0.0000000  -0.0000000  -0.0000000  -0.0000000  -0.0000000
 NQMom=    0.0000000   0.0000000   0.0000000   0.0000000   0.0000000   0.0000000   0.0000000   0.0000000   0.0000000   0.0000000
 NMagM=    0.0000000   2.7928460   2.7928460   0.0000000   0.0000000   2.7928460   2.7928460   2.7928460   0.0000000   2.7928460
 AtZNuc=   6.0000000   1.0000000   1.0000000   6.0000000   6.0000000   1.0000000   1.0000000   1.0000000   6.0000000   1.0000000

  Atom        11          12          13          14          15          16          17          18          19          20
 IAtWgt=          12           1           1           1          12           1           1           1          12          12
 AtmWgt=  12.0000000   1.0078250   1.0078250   1.0078250  12.0000000   1.0078250   1.0078250   1.0078250  12.0000000  12.0000000
 NucSpn=           0           1           1           1           0           1           1           1           0           0
 AtZEff=  -0.0000000  -0.0000000  -0.0000000  -0.0000000  -0.0000000  -0.0000000  -0.0000000  -0.0000000  -0.0000000  -0.0000000
 NQMom=    0.0000000   0.0000000   0.0000000   0.0000000   0.0000000   0.0000000   0.0000000   0.0000000   0.0000000   0.0000000
 NMagM=    0.0000000   2.7928460   2.7928460   2.7928460   0.0000000   2.7928460   2.7928460   2.7928460   0.0000000   0.0000000
 AtZNuc=   6.0000000   1.0000000   1.0000000   1.0000000   6.0000000   1.0000000   1.0000000   1.0000000   6.0000000   6.0000000

  Atom        21          22          23          24          25          26          27          28
 IAtWgt=           1           1           1          12           1          12           1           1
 AtmWgt=   1.0078250   1.0078250   1.0078250  12.0000000   1.0078250  12.0000000   1.0078250   1.0078250
 NucSpn=           1           1           1           0           1           0           1           1
 AtZEff=  -0.0000000  -0.0000000  -0.0000000  -0.0000000  -0.0000000  -0.0000000  -0.0000000  -0.0000000
 NQMom=    0.0000000   0.0000000   0.0000000   0.0000000   0.0000000   0.0000000   0.0000000   0.0000000
 NMagM=    2.7928460   2.7928460   2.7928460   0.0000000   2.7928460   0.0000000   2.7928460   2.7928460
 AtZNuc=   1.0000000   1.0000000   1.0000000   6.0000000   1.0000000   6.0000000   1.0000000   1.0000000
 Leave Link  101 at Wed Jul 14 19:42:05 2021, MaxMem=   524288000 cpu:               1.4 elap:               1.0
 (Enter /opt/gaussian/g16_legacy/l103.exe)

 GradGradGradGradGradGradGradGradGradGradGradGradGradGradGradGradGradGrad
 Berny optimization.
 Initialization pass.
                           ----------------------------
                           !    Initial Parameters    !
                           ! (Angstroms and Degrees)  !
 --------------------------                            --------------------------
 ! Name  Definition              Value          Derivative Info.                !
 --------------------------------------------------------------------------------
 ! R1    R(1,2)                  1.0983         estimate D2E/DX2                !
 ! R2    R(1,3)                  1.0958         estimate D2E/DX2                !
 ! R3    R(1,4)                  1.5169         estimate D2E/DX2                !
 ! R4    R(1,26)                 1.5363         estimate D2E/DX2                !
 ! R5    R(4,5)                  1.5082         estimate D2E/DX2                !
 ! R6    R(4,9)                  1.348          estimate D2E/DX2                !
 ! R7    R(5,6)                  1.0952         estimate D2E/DX2                !
 ! R8    R(5,7)                  1.0941         estimate D2E/DX2                !
 ! R9    R(5,8)                  1.0949         estimate D2E/DX2                !
 ! R10   R(9,10)                 1.0897         estimate D2E/DX2                !
 ! R11   R(9,11)                 1.4956         estimate D2E/DX2                !
 ! R12   R(11,12)                1.0944         estimate D2E/DX2                !
 ! R13   R(11,13)                1.0948         estimate D2E/DX2                !
 ! R14   R(11,14)                1.0915         estimate D2E/DX2                !
 ! R15   R(15,16)                1.095          estimate D2E/DX2                !
 ! R16   R(15,17)                1.0953         estimate D2E/DX2                !
 ! R17   R(15,18)                1.0915         estimate D2E/DX2                !
 ! R18   R(15,19)                1.5033         estimate D2E/DX2                !
 ! R19   R(19,20)                1.5066         estimate D2E/DX2                !
 ! R20   R(19,24)                1.3473         estimate D2E/DX2                !
 ! R21   R(20,21)                1.0951         estimate D2E/DX2                !
 ! R22   R(20,22)                1.095          estimate D2E/DX2                !
 ! R23   R(20,23)                1.0949         estimate D2E/DX2                !
 ! R24   R(24,25)                1.09           estimate D2E/DX2                !
 ! R25   R(24,26)                1.5063         estimate D2E/DX2                !
 ! R26   R(26,27)                1.0935         estimate D2E/DX2                !
 ! R27   R(26,28)                1.0979         estimate D2E/DX2                !
 ! A1    A(2,1,3)              104.5803         estimate D2E/DX2                !
 ! A2    A(2,1,4)              108.0529         estimate D2E/DX2                !
 ! A3    A(2,1,26)             108.4144         estimate D2E/DX2                !
 ! A4    A(3,1,4)              111.3214         estimate D2E/DX2                !
 ! A5    A(3,1,26)             109.7613         estimate D2E/DX2                !
 ! A6    A(4,1,26)             114.2062         estimate D2E/DX2                !
 ! A7    A(1,4,5)              114.9879         estimate D2E/DX2                !
 ! A8    A(1,4,9)              124.8459         estimate D2E/DX2                !
 ! A9    A(5,4,9)              120.1508         estimate D2E/DX2                !
 ! A10   A(4,5,6)              112.2699         estimate D2E/DX2                !
 ! A11   A(4,5,7)              110.6614         estimate D2E/DX2                !
 ! A12   A(4,5,8)              110.2634         estimate D2E/DX2                !
 ! A13   A(6,5,7)              107.4541         estimate D2E/DX2                !
 ! A14   A(6,5,8)              107.4983         estimate D2E/DX2                !
 ! A15   A(7,5,8)              108.5493         estimate D2E/DX2                !
 ! A16   A(4,9,10)             118.4305         estimate D2E/DX2                !
 ! A17   A(4,9,11)             127.9619         estimate D2E/DX2                !
 ! A18   A(10,9,11)            113.5968         estimate D2E/DX2                !
 ! A19   A(9,11,12)            109.7077         estimate D2E/DX2                !
 ! A20   A(9,11,13)            109.4664         estimate D2E/DX2                !
 ! A21   A(9,11,14)            113.8096         estimate D2E/DX2                !
 ! A22   A(12,11,13)           108.0943         estimate D2E/DX2                !
 ! A23   A(12,11,14)           108.1163         estimate D2E/DX2                !
 ! A24   A(13,11,14)           107.4754         estimate D2E/DX2                !
 ! A25   A(16,15,17)           108.3236         estimate D2E/DX2                !
 ! A26   A(16,15,18)           107.6194         estimate D2E/DX2                !
 ! A27   A(16,15,19)           110.0539         estimate D2E/DX2                !
 ! A28   A(17,15,18)           107.0116         estimate D2E/DX2                !
 ! A29   A(17,15,19)           110.0178         estimate D2E/DX2                !
 ! A30   A(18,15,19)           113.6317         estimate D2E/DX2                !
 ! A31   A(15,19,20)           114.1586         estimate D2E/DX2                !
 ! A32   A(15,19,24)           125.3036         estimate D2E/DX2                !
 ! A33   A(20,19,24)           120.5312         estimate D2E/DX2                !
 ! A34   A(19,20,21)           112.36           estimate D2E/DX2                !
 ! A35   A(19,20,22)           110.2535         estimate D2E/DX2                !
 ! A36   A(19,20,23)           110.2324         estimate D2E/DX2                !
 ! A37   A(21,20,22)           107.6374         estimate D2E/DX2                !
 ! A38   A(21,20,23)           107.6523         estimate D2E/DX2                !
 ! A39   A(22,20,23)           108.5783         estimate D2E/DX2                !
 ! A40   A(19,24,25)           118.1873         estimate D2E/DX2                !
 ! A41   A(19,24,26)           128.1385         estimate D2E/DX2                !
 ! A42   A(25,24,26)           113.6734         estimate D2E/DX2                !
 ! A43   A(1,26,24)            113.0924         estimate D2E/DX2                !
 ! A44   A(1,26,27)            110.5814         estimate D2E/DX2                !
 ! A45   A(1,26,28)            108.1489         estimate D2E/DX2                !
 ! A46   A(24,26,27)           112.2792         estimate D2E/DX2                !
 ! A47   A(24,26,28)           107.0502         estimate D2E/DX2                !
 ! A48   A(27,26,28)           105.2299         estimate D2E/DX2                !
 ! D1    D(2,1,4,5)            -42.5007         estimate D2E/DX2                !
 ! D2    D(2,1,4,9)            136.0645         estimate D2E/DX2                !
 ! D3    D(3,1,4,5)           -156.7963         estimate D2E/DX2                !
 ! D4    D(3,1,4,9)             21.769          estimate D2E/DX2                !
 ! D5    D(26,1,4,5)            78.2163         estimate D2E/DX2                !
 ! D6    D(26,1,4,9)          -103.2184         estimate D2E/DX2                !
 ! D7    D(2,1,26,24)         -167.1737         estimate D2E/DX2                !
 ! D8    D(2,1,26,27)           65.9313         estimate D2E/DX2                !
 ! D9    D(2,1,26,28)          -48.8011         estimate D2E/DX2                !
 ! D10   D(3,1,26,24)          -53.4995         estimate D2E/DX2                !
 ! D11   D(3,1,26,27)          179.6055         estimate D2E/DX2                !
 ! D12   D(3,1,26,28)           64.873          estimate D2E/DX2                !
 ! D13   D(4,1,26,24)           72.3106         estimate D2E/DX2                !
 ! D14   D(4,1,26,27)          -54.5845         estimate D2E/DX2                !
 ! D15   D(4,1,26,28)         -169.3169         estimate D2E/DX2                !
 ! D16   D(1,4,5,6)            178.2266         estimate D2E/DX2                !
 ! D17   D(1,4,5,7)            -61.7188         estimate D2E/DX2                !
 ! D18   D(1,4,5,8)             58.3895         estimate D2E/DX2                !
 ! D19   D(9,4,5,6)             -0.4117         estimate D2E/DX2                !
 ! D20   D(9,4,5,7)            119.6429         estimate D2E/DX2                !
 ! D21   D(9,4,5,8)           -120.2488         estimate D2E/DX2                !
 ! D22   D(1,4,9,10)          -178.9476         estimate D2E/DX2                !
 ! D23   D(1,4,9,11)             2.3246         estimate D2E/DX2                !
 ! D24   D(5,4,9,10)            -0.4515         estimate D2E/DX2                !
 ! D25   D(5,4,9,11)          -179.1793         estimate D2E/DX2                !
 ! D26   D(4,9,11,12)         -117.596          estimate D2E/DX2                !
 ! D27   D(4,9,11,13)          123.9458         estimate D2E/DX2                !
 ! D28   D(4,9,11,14)            3.6744         estimate D2E/DX2                !
 ! D29   D(10,9,11,12)          63.6248         estimate D2E/DX2                !
 ! D30   D(10,9,11,13)         -54.8334         estimate D2E/DX2                !
 ! D31   D(10,9,11,14)        -175.1048         estimate D2E/DX2                !
 ! D32   D(16,15,19,20)         63.0953         estimate D2E/DX2                !
 ! D33   D(16,15,19,24)       -117.8423         estimate D2E/DX2                !
 ! D34   D(17,15,19,20)        -56.1917         estimate D2E/DX2                !
 ! D35   D(17,15,19,24)        122.8707         estimate D2E/DX2                !
 ! D36   D(18,15,19,20)       -176.1445         estimate D2E/DX2                !
 ! D37   D(18,15,19,24)          2.9179         estimate D2E/DX2                !
 ! D38   D(15,19,20,21)        179.9359         estimate D2E/DX2                !
 ! D39   D(15,19,20,22)         59.8696         estimate D2E/DX2                !
 ! D40   D(15,19,20,23)        -59.9934         estimate D2E/DX2                !
 ! D41   D(24,19,20,21)          0.8243         estimate D2E/DX2                !
 ! D42   D(24,19,20,22)       -119.2421         estimate D2E/DX2                !
 ! D43   D(24,19,20,23)        120.8949         estimate D2E/DX2                !
 ! D44   D(15,19,24,25)       -178.8545         estimate D2E/DX2                !
 ! D45   D(15,19,24,26)          1.4997         estimate D2E/DX2                !
 ! D46   D(20,19,24,25)          0.1523         estimate D2E/DX2                !
 ! D47   D(20,19,24,26)       -179.4935         estimate D2E/DX2                !
 ! D48   D(19,24,26,1)        -110.6487         estimate D2E/DX2                !
 ! D49   D(19,24,26,27)         15.3438         estimate D2E/DX2                !
 ! D50   D(19,24,26,28)        130.3419         estimate D2E/DX2                !
 ! D51   D(25,24,26,1)          69.6921         estimate D2E/DX2                !
 ! D52   D(25,24,26,27)       -164.3154         estimate D2E/DX2                !
 ! D53   D(25,24,26,28)        -49.3172         estimate D2E/DX2                !
 --------------------------------------------------------------------------------
 Trust Radius=3.00D-01 FncErr=1.00D-07 GrdErr=1.00D-06 EigMax=2.50D+02 EigMin=1.00D-04
 Number of steps in this run=    138 maximum allowed number of steps=    168.
 GradGradGradGradGradGradGradGradGradGradGradGradGradGradGradGradGradGrad

 Leave Link  103 at Wed Jul 14 19:42:05 2021, MaxMem=   524288000 cpu:               0.5 elap:               0.2
 (Enter /opt/gaussian/g16_legacy/l202.exe)
                          Input orientation:                          
 ---------------------------------------------------------------------
 Center     Atomic      Atomic             Coordinates (Angstroms)
 Number     Number       Type             X           Y           Z
 ---------------------------------------------------------------------
      1          6           0       -0.946200   -1.661000   -0.190700
      2          1           0       -1.229800   -2.519500   -0.814200
      3          1           0       -1.442500   -1.841500    0.769500
      4          6           0       -1.472100   -0.403100   -0.855500
      5          6           0       -1.290500   -0.349700   -2.351800
      6          1           0       -1.712800    0.561400   -2.788900
      7          1           0       -0.228400   -0.377200   -2.613000
      8          1           0       -1.787700   -1.202800   -2.824800
      9          6           0       -2.089400    0.607700   -0.211900
     10          1           0       -2.441800    1.456800   -0.796900
     11          6           0       -2.346400    0.743500    1.255200
     12          1           0       -3.424700    0.771900    1.439900
     13          1           0       -1.914800    1.682800    1.615800
     14          1           0       -1.920700   -0.063900    1.853700
     15          6           0        2.206500    0.984800   -0.368700
     16          1           0        3.300100    1.019500   -0.411500
     17          1           0        1.825400    2.006900   -0.467800
     18          1           0        1.859200    0.428500   -1.241200
     19          6           0        1.760300    0.393800    0.939600
     20          6           0        2.155300    1.202200    2.148000
     21          1           0        1.815000    0.746200    3.083700
     22          1           0        1.721300    2.205900    2.091000
     23          1           0        3.244900    1.295800    2.201300
     24          6           0        1.051500   -0.743500    1.078800
     25          1           0        0.772800   -1.056600    2.085000
     26          6           0        0.578000   -1.682400    0.000300
     27          1           0        1.087200   -1.510400   -0.952000
     28          1           0        0.870300   -2.695900    0.304700
 ---------------------------------------------------------------------
                    Distance matrix (angstroms):
                    1          2          3          4          5
     1  C    0.000000
     2  H    1.098273   0.000000
     3  H    1.095846   1.735808   0.000000
     4  C    1.516853   2.130625   2.170368   0.000000
     5  C    2.551157   2.660062   3.462815   1.508225   0.000000
     6  H    3.503909   3.691162   4.302232   2.173990   1.095215
     7  H    2.833887   2.971184   3.880660   2.153199   1.094092
     8  H    2.802954   2.467279   3.666891   2.148782   1.094859
     9  C    2.540542   3.298645   2.716653   1.347960   2.476697
    10  H    3.510694   4.156947   3.785630   2.098328   2.647007
    11  C    3.135731   4.021987   2.781216   2.556198   3.914136
    12  H    3.836772   4.553226   3.347897   3.234522   4.493304
    13  H    3.922069   4.902392   3.655131   3.264090   4.501406
    14  H    2.771272   3.691206   2.136358   2.766959   4.262049
    15  C    4.119643   4.928159   4.753806   3.961734   4.235869
    16  H    5.026420   5.762524   5.663244   4.999482   5.168470
    17  H    4.605653   5.471977   5.198102   4.102672   4.337263
    18  H    3.652373   4.291265   4.482972   3.455124   3.429233
    19  C    3.581190   4.528115   3.909403   3.782307   4.549009
    20  C    4.825633   5.838200   4.910044   4.975543   5.876234
    21  H    4.913302   5.926991   4.760569   5.257681   6.355296
    22  H    5.222512   6.283199   5.304474   5.068190   5.944788
    23  H    5.659474   6.608532   5.819315   5.871999   6.633871
    24  C    2.538551   3.455713   2.742500   3.197803   4.172416
    25  H    2.915317   3.815212   2.693355   3.756751   4.943896
    26  C    1.536270   2.152275   2.167810   2.563574   3.286298
    27  H    2.176459   2.530960   3.077754   2.790240   2.993346
    28  H    2.148514   2.386100   2.509000   3.477044   4.150988
                    6          7          8          9         10
     6  H    0.000000
     7  H    1.765037   0.000000
     8  H    1.766154   1.777046   0.000000
     9  C    2.604784   3.193529   3.193146   0.000000
    10  H    2.302444   3.400135   3.407888   1.089670   0.000000
    11  C    4.097481   4.550260   4.554847   1.495618   2.174629
    12  H    4.567019   5.287983   4.976633   2.130359   2.537411
    13  H    4.549695   4.997029   5.297336   2.127631   2.479904
    14  H    4.689132   4.786799   4.816964   2.178580   3.099960
    15  C    4.625748   3.580596   5.174133   4.315269   4.691783
    16  H    5.566961   4.387218   6.053787   5.408894   5.771411
    17  H    4.471670   3.808400   5.376999   4.165202   4.315080
    18  H    3.895154   2.624702   4.297535   4.084484   4.444480
    19  C    5.098257   4.143710   5.413700   4.023915   4.669373
    20  C    6.304427   5.553706   6.786753   4.892856   5.465399
    21  H    6.853244   6.155477   7.189466   5.111213   5.803822
    22  H    6.189576   5.709759   6.935229   4.730648   5.121769
    23  H    7.072498   6.167676   7.538683   5.895063   6.430683
    24  C    4.929830   3.924501   4.848722   3.654709   4.534613
    25  H    5.705351   4.851308   5.539284   4.029619   4.995616
    26  C    4.249946   3.030374   3.715877   3.522018   4.428239
    27  H    3.937837   2.402887   3.444858   3.889072   4.613261
    28  H    5.181966   3.885419   4.368991   4.465476   5.424799
                   11         12         13         14         15
    11  C    0.000000
    12  H    1.094373   0.000000
    13  H    1.094804   1.772139   0.000000
    14  H    1.091475   1.769692   1.762836   0.000000
    15  C    4.839853   5.918342   4.627154   4.803396   0.000000
    16  H    5.893813   6.979393   5.634278   5.793241   1.094987
    17  H    4.687091   5.720847   4.293661   4.869378   1.095329
    18  H    4.900848   5.935134   4.896815   4.910042   1.091487
    19  C    4.133628   5.222785   3.952863   3.820318   1.503338
    20  C    4.612245   5.641185   4.132787   4.278247   2.526591
    21  H    4.545401   5.491557   4.116231   4.015547   3.482710
    22  H    4.402654   5.381599   3.704143   4.297961   2.788661
    23  H    5.697611   6.733332   5.207215   5.352853   2.789246
    24  C    3.713221   4.739536   3.869656   3.145838   2.533042
    25  H    3.695719   4.623697   3.866220   2.879912   3.499065
    26  C    4.001485   4.910972   4.488704   3.506870   3.146765
    27  H    4.662768   5.593507   5.079579   4.360250   2.796264
    28  H    4.804173   5.635720   5.352455   4.137210   3.973217
                   16         17         18         19         20
    16  H    0.000000
    17  H    1.775632   0.000000
    18  H    1.764618   1.758021   0.000000
    19  C    2.141951   2.141753   2.183317   0.000000
    20  C    2.809802   2.756590   3.488977   1.506574   0.000000
    21  H    3.807445   3.768637   4.336778   2.173555   1.095114
    22  H    3.187893   2.568637   3.779117   2.147312   1.094997
    23  H    2.627948   3.105598   3.810929   2.146981   1.094911
    24  C    3.222633   3.248937   2.721831   1.347303   2.479377
    25  H    4.114602   4.124292   3.801236   2.095413   2.649048
    26  C    3.857418   3.922507   2.763819   2.567241   3.927010
    27  H    3.404330   3.626402   2.106882   2.767163   4.255471
    28  H    4.496784   4.860586   3.623480   3.277414   4.499351
                   21         22         23         24         25
    21  H    0.000000
    22  H    1.767755   0.000000
    23  H    1.767853   1.778147   0.000000
    24  C    2.611850   3.189379   3.198399   0.000000
    25  H    2.309474   3.397587   3.414468   1.090020   0.000000
    26  C    4.115291   4.560377   4.563599   1.506286   2.185302
    27  H    4.680685   4.844875   4.740646   2.171073   3.086770
    28  H    4.523644   5.286087   5.016920   2.108063   2.422040
                   26         27         28
    26  C    0.000000
    27  H    1.093501   0.000000
    28  H    1.097853   1.741192   0.000000
 Stoichiometry    C10H18
 Framework group  C1[X(C10H18)]
 Deg. of freedom    78
 Full point group                 C1      NOp   1
 Largest Abelian subgroup         C1      NOp   1
 Largest concise Abelian subgroup C1      NOp   1
                         Standard orientation:                         
 ---------------------------------------------------------------------
 Center     Atomic      Atomic             Coordinates (Angstroms)
 Number     Number       Type             X           Y           Z
 ---------------------------------------------------------------------
      1          6           0       -1.310982   -0.534343    1.234819
      2          1           0       -2.036265   -1.246103    1.651432
      3          1           0       -1.339573    0.321045    1.919196
      4          6           0       -1.779227   -0.145046   -0.154439
      5          6           0       -2.295354   -1.285508   -0.995689
      6          1           0       -2.649757   -0.950622   -1.976377
      7          1           0       -1.508414   -2.026172   -1.166510
      8          1           0       -3.134118   -1.778085   -0.493137
      9          6           0       -1.784087    1.111824   -0.641523
     10          1           0       -2.160254    1.275535   -1.651018
     11          6           0       -1.302829    2.359748    0.027767
     12          1           0       -2.138475    3.054196    0.158498
     13          1           0       -0.552130    2.846082   -0.603522
     14          1           0       -0.847959    2.188293    1.005015
     15          6           0        1.922084   -1.006025   -1.274415
     16          1           0        2.850217   -1.576411   -1.384993
     17          1           0        1.783078   -0.396756   -2.173979
     18          1           0        1.097302   -1.720179   -1.241830
     19          6           0        2.001860   -0.121781   -0.061249
     20          6           0        3.078941    0.929110   -0.133978
     21          1           0        3.110178    1.556436    0.763106
     22          1           0        2.909523    1.586729   -0.992962
     23          1           0        4.061066    0.457744   -0.243865
     24          6           0        1.196263   -0.202803    1.015633
     25          1           0        1.345371    0.511798    1.825112
     26          6           0        0.081286   -1.182693    1.271637
     27          1           0        0.122631   -2.043021    0.597937
     28          1           0        0.239853   -1.595413    2.276525
 ---------------------------------------------------------------------
 Rotational constants (GHZ):           1.5853679           0.8275278           0.7368016
 Leave Link  202 at Wed Jul 14 19:42:06 2021, MaxMem=   524288000 cpu:               4.2 elap:               1.3
 (Enter /opt/gaussian/g16_legacy/l301.exe)
 Standard basis: 6-31G(d,p) (6D, 7F)
 Ernie: Thresh=  0.10000D-02 Tol=  0.10000D-05 Strict=F.
 There are   240 symmetry adapted cartesian basis functions of A   symmetry.
 There are   240 symmetry adapted basis functions of A   symmetry.
   240 basis functions,   406 primitive gaussians,   240 cartesian basis functions
    39 alpha electrons       39 beta electrons
       nuclear repulsion energy       536.9672613157 Hartrees.
 IExCor= 4336 DFT=T Ex+Corr=M062X ExCW=0 ScaHFX=  0.540000
 ScaDFX=  1.000000  1.000000  1.000000  1.000000 ScalE2=  1.000000  1.000000
 IRadAn=      5 IRanWt=     -1 IRanGd=            0 ICorTp=0 IEmpDi=  4
 NAtoms=   28 NActive=   28 NUniq=   28 SFac= 1.00D+00 NAtFMM=   60 NAOKFM=F Big=F
 Integral buffers will be    131072 words long.
 Raffenetti 2 integral format.
 Two-electron integral symmetry is turned on.
 Leave Link  301 at Wed Jul 14 19:42:07 2021, MaxMem=   524288000 cpu:               0.8 elap:               0.4
 (Enter /opt/gaussian/g16_legacy/l302.exe)
 NPDir=0 NMtPBC=     1 NCelOv=     1 NCel=       1 NClECP=     1 NCelD=      1
         NCelK=      1 NCelE2=     1 NClLst=     1 CellRange=     0.0.
 One-electron integrals computed using PRISM.
 One-electron integral symmetry used in STVInt
 NBasis=   240 RedAO= T EigKep=  2.15D-03  NBF=   240
 NBsUse=   240 1.00D-06 EigRej= -1.00D+00 NBFU=   240
 Precomputing XC quadrature grid using
 IXCGrd= 4 IRadAn=           5 IRanWt=          -1 IRanGd=           0 AccXCQ= 0.00D+00.
 Generated NRdTot=       0 NPtTot=           0 NUsed=           0 NTot=          32
 NSgBfM=   240   240   240   240   240 MxSgAt=    28 MxSgA2=    28.
 Leave Link  302 at Wed Jul 14 19:42:10 2021, MaxMem=   524288000 cpu:               8.9 elap:               2.6
 (Enter /opt/gaussian/g16_legacy/l303.exe)
 DipDrv:  MaxL=1.
 Leave Link  303 at Wed Jul 14 19:42:11 2021, MaxMem=   524288000 cpu:               0.4 elap:               0.1
 (Enter /opt/gaussian/g16_legacy/l401.exe)
 ExpMin= 1.61D-01 ExpMax= 3.05D+03 ExpMxC= 4.57D+02 IAcc=3 IRadAn=         5 AccDes= 0.00D+00
 Harris functional with IExCor= 1009 and IRadAn=       5 diagonalized for initial guess.
 HarFok:  IExCor= 1009 AccDes= 0.00D+00 IRadAn=         5 IDoV= 1 UseB2=F ITyADJ=14
 ICtDFT=  3500011 ScaDFX=  1.000000  1.000000  1.000000  1.000000
 FoFCou: FMM=F IPFlag=           0 FMFlag=      100000 FMFlg1=           0
         NFxFlg=           0 DoJE=T BraDBF=F KetDBF=T FulRan=T
         wScrn=  0.000000 ICntrl=       500 IOpCl=  0 I1Cent=   200000004 NGrid=           0
         NMat0=    1 NMatS0=      1 NMatT0=    0 NMatD0=    1 NMtDS0=    0 NMtDT0=    0
 Petite list used in FoFCou.
 Harris En= -391.654885350497    
 JPrj=0 DoOrth=F DoCkMO=F.
 Leave Link  401 at Wed Jul 14 19:42:16 2021, MaxMem=   524288000 cpu:              24.7 elap:               5.2
 (Enter /opt/gaussian/g16_legacy/l502.exe)
 Integral symmetry usage will be decided dynamically.
 Closed shell SCF:
 Using DIIS extrapolation, IDIIS=  1040.
 NGot=   524288000 LenX=   524168546 LenY=   524110505
 Requested convergence on RMS density matrix=1.00D-08 within 128 cycles.
 Requested convergence on MAX density matrix=1.00D-06.
 Requested convergence on             energy=1.00D-06.
 No special actions if energy rises.
 Fock matrices will be formed incrementally for  20 cycles.
 Integral accuracy reduced to 1.0D-05 until final iterations.

 Cycle   1  Pass 0  IDiag  1:
 FoFJK:  IHMeth= 1 ICntrl=       0 DoSepK=F KAlg= 0 I1Cent=           0 FoldK=F
 IRaf= 900000000 NMat=       1 IRICut=       1 DoRegI=T DoRafI=F ISym2E= 0 IDoP0=0 IntGTp=1.
 FoFCou: FMM=F IPFlag=           0 FMFlag=      100000 FMFlg1=           0
         NFxFlg=           0 DoJE=F BraDBF=F KetDBF=F FulRan=T
         wScrn=  0.000000 ICntrl=         0 IOpCl=  0 I1Cent=           0 NGrid=           0
         NMat0=    1 NMatS0=      1 NMatT0=    0 NMatD0=    1 NMtDS0=    0 NMtDT0=    0
 Symmetry not used in FoFCou.
 E= -391.296747049673    
 DIIS: error= 2.93D-02 at cycle   1 NSaved=   1.
 NSaved= 1 IEnMin= 1 EnMin= -391.296747049673     IErMin= 1 ErrMin= 2.93D-02
 ErrMax= 2.93D-02  0.00D+00 EMaxC= 1.00D-01 BMatC= 3.73D-01 BMatP= 3.73D-01
 IDIUse=3 WtCom= 7.07D-01 WtEn= 2.93D-01
 Coeff-Com:  0.100D+01
 Coeff-En:   0.100D+01
 Coeff:      0.100D+01
 Gap=     0.348 Goal=   None    Shift=    0.000
 GapD=    0.348 DampG=1.000 DampE=0.500 DampFc=0.5000 IDamp=-1.
 Damping current iteration by 5.00D-01
 RMSDP=4.53D-03 MaxDP=1.14D-01              OVMax= 1.49D-01

 Cycle   2  Pass 0  IDiag  1:
 RMSU=  2.22D-03    CP:  9.75D-01
 E= -391.505846940762     Delta-E=       -0.209099891089 Rises=F Damp=T
 DIIS: error= 9.01D-03 at cycle   2 NSaved=   2.
 NSaved= 2 IEnMin= 2 EnMin= -391.505846940762     IErMin= 2 ErrMin= 9.01D-03
 ErrMax= 9.01D-03  0.00D+00 EMaxC= 1.00D-01 BMatC= 2.11D-02 BMatP= 3.73D-01
 IDIUse=3 WtCom= 9.10D-01 WtEn= 9.01D-02
 Coeff-Com: -0.139D+00 0.114D+01
 Coeff-En:   0.000D+00 0.100D+01
 Coeff:     -0.126D+00 0.113D+01
 Gap=     0.375 Goal=   None    Shift=    0.000
 RMSDP=9.27D-04 MaxDP=2.87D-02 DE=-2.09D-01 OVMax= 6.56D-02

 Cycle   3  Pass 0  IDiag  1:
 RMSU=  9.12D-04    CP:  9.69D-01  1.05D+00
 E= -391.688487396056     Delta-E=       -0.182640455294 Rises=F Damp=F
 DIIS: error= 1.76D-03 at cycle   3 NSaved=   3.
 NSaved= 3 IEnMin= 3 EnMin= -391.688487396056     IErMin= 3 ErrMin= 1.76D-03
 ErrMax= 1.76D-03  0.00D+00 EMaxC= 1.00D-01 BMatC= 1.13D-03 BMatP= 2.11D-02
 IDIUse=3 WtCom= 9.82D-01 WtEn= 1.76D-02
 Coeff-Com: -0.358D-01 0.172D+00 0.864D+00
 Coeff-En:   0.000D+00 0.000D+00 0.100D+01
 Coeff:     -0.351D-01 0.168D+00 0.867D+00
 Gap=     0.344 Goal=   None    Shift=    0.000
 RMSDP=2.53D-04 MaxDP=5.12D-03 DE=-1.83D-01 OVMax= 9.86D-03

 Cycle   4  Pass 0  IDiag  1:
 RMSU=  1.94D-04    CP:  9.69D-01  1.11D+00  8.73D-01
 E= -391.689238652099     Delta-E=       -0.000751256043 Rises=F Damp=F
 DIIS: error= 9.84D-04 at cycle   4 NSaved=   4.
 NSaved= 4 IEnMin= 4 EnMin= -391.689238652099     IErMin= 4 ErrMin= 9.84D-04
 ErrMax= 9.84D-04  0.00D+00 EMaxC= 1.00D-01 BMatC= 3.71D-04 BMatP= 1.13D-03
 IDIUse=3 WtCom= 9.90D-01 WtEn= 9.84D-03
 Coeff-Com: -0.849D-02 0.320D-01 0.376D+00 0.601D+00
 Coeff-En:   0.000D+00 0.000D+00 0.175D+00 0.825D+00
 Coeff:     -0.841D-02 0.317D-01 0.374D+00 0.603D+00
 Gap=     0.344 Goal=   None    Shift=    0.000
 RMSDP=1.05D-04 MaxDP=3.65D-03 DE=-7.51D-04 OVMax= 7.26D-03

 Cycle   5  Pass 0  IDiag  1:
 RMSU=  5.28D-05    CP:  9.69D-01  1.09D+00  9.32D-01  6.49D-01
 E= -391.689571364043     Delta-E=       -0.000332711944 Rises=F Damp=F
 DIIS: error= 2.73D-04 at cycle   5 NSaved=   5.
 NSaved= 5 IEnMin= 5 EnMin= -391.689571364043     IErMin= 5 ErrMin= 2.73D-04
 ErrMax= 2.73D-04  0.00D+00 EMaxC= 1.00D-01 BMatC= 3.94D-05 BMatP= 3.71D-04
 IDIUse=3 WtCom= 9.97D-01 WtEn= 2.73D-03
 Coeff-Com: -0.725D-03 0.174D-02 0.116D+00 0.299D+00 0.584D+00
 Coeff-En:   0.000D+00 0.000D+00 0.000D+00 0.000D+00 0.100D+01
 Coeff:     -0.723D-03 0.173D-02 0.116D+00 0.298D+00 0.585D+00
 Gap=     0.344 Goal=   None    Shift=    0.000
 RMSDP=2.83D-05 MaxDP=1.22D-03 DE=-3.33D-04 OVMax= 2.49D-03

 Cycle   6  Pass 0  IDiag  1:
 RMSU=  1.66D-05    CP:  9.68D-01  1.09D+00  9.40D-01  6.98D-01  6.29D-01
 E= -391.689609348991     Delta-E=       -0.000037984948 Rises=F Damp=F
 DIIS: error= 5.32D-05 at cycle   6 NSaved=   6.
 NSaved= 6 IEnMin= 6 EnMin= -391.689609348991     IErMin= 6 ErrMin= 5.32D-05
 ErrMax= 5.32D-05  0.00D+00 EMaxC= 1.00D-01 BMatC= 2.16D-06 BMatP= 3.94D-05
 IDIUse=1 WtCom= 1.00D+00 WtEn= 0.00D+00
 Coeff-Com:  0.786D-03-0.290D-02 0.111D-01 0.657D-01 0.235D+00 0.690D+00
 Coeff:      0.786D-03-0.290D-02 0.111D-01 0.657D-01 0.235D+00 0.690D+00
 Gap=     0.344 Goal=   None    Shift=    0.000
 RMSDP=6.63D-06 MaxDP=2.71D-04 DE=-3.80D-05 OVMax= 5.42D-04

 Initial convergence to 1.0D-05 achieved.  Increase integral accuracy.
 Cycle   7  Pass 1  IDiag  1:
 E= -391.689618896130     Delta-E=       -0.000009547139 Rises=F Damp=F
 DIIS: error= 2.28D-05 at cycle   1 NSaved=   1.
 NSaved= 1 IEnMin= 1 EnMin= -391.689618896130     IErMin= 1 ErrMin= 2.28D-05
 ErrMax= 2.28D-05  0.00D+00 EMaxC= 1.00D-01 BMatC= 2.42D-07 BMatP= 2.42D-07
 IDIUse=1 WtCom= 1.00D+00 WtEn= 0.00D+00
 Coeff-Com:  0.100D+01
 Coeff:      0.100D+01
 Gap=     0.344 Goal=   None    Shift=    0.000
 RMSDP=6.63D-06 MaxDP=2.71D-04 DE=-9.55D-06 OVMax= 1.88D-04

 Cycle   8  Pass 1  IDiag  1:
 RMSU=  5.64D-06    CP:  1.00D+00
 E= -391.689619026032     Delta-E=       -0.000000129902 Rises=F Damp=F
 DIIS: error= 1.21D-05 at cycle   2 NSaved=   2.
 NSaved= 2 IEnMin= 2 EnMin= -391.689619026032     IErMin= 2 ErrMin= 1.21D-05
 ErrMax= 1.21D-05  0.00D+00 EMaxC= 1.00D-01 BMatC= 1.23D-07 BMatP= 2.42D-07
 IDIUse=1 WtCom= 1.00D+00 WtEn= 0.00D+00
 Coeff-Com:  0.397D+00 0.603D+00
 Coeff:      0.397D+00 0.603D+00
 Gap=     0.344 Goal=   None    Shift=    0.000
 RMSDP=1.58D-06 MaxDP=7.13D-05 DE=-1.30D-07 OVMax= 1.26D-04

 Cycle   9  Pass 1  IDiag  1:
 RMSU=  1.51D-06    CP:  1.00D+00  9.14D-01
 E= -391.689619132454     Delta-E=       -0.000000106421 Rises=F Damp=F
 DIIS: error= 5.24D-06 at cycle   3 NSaved=   3.
 NSaved= 3 IEnMin= 3 EnMin= -391.689619132454     IErMin= 3 ErrMin= 5.24D-06
 ErrMax= 5.24D-06  0.00D+00 EMaxC= 1.00D-01 BMatC= 1.50D-08 BMatP= 1.23D-07
 IDIUse=1 WtCom= 1.00D+00 WtEn= 0.00D+00
 Coeff-Com:  0.209D-01 0.251D+00 0.728D+00
 Coeff:      0.209D-01 0.251D+00 0.728D+00
 Gap=     0.344 Goal=   None    Shift=    0.000
 RMSDP=6.25D-07 MaxDP=2.08D-05 DE=-1.06D-07 OVMax= 5.85D-05

 Cycle  10  Pass 1  IDiag  1:
 RMSU=  4.15D-07    CP:  1.00D+00  9.70D-01  7.73D-01
 E= -391.689619145356     Delta-E=       -0.000000012903 Rises=F Damp=F
 DIIS: error= 2.04D-06 at cycle   4 NSaved=   4.
 NSaved= 4 IEnMin= 4 EnMin= -391.689619145356     IErMin= 4 ErrMin= 2.04D-06
 ErrMax= 2.04D-06  0.00D+00 EMaxC= 1.00D-01 BMatC= 2.39D-09 BMatP= 1.50D-08
 IDIUse=1 WtCom= 1.00D+00 WtEn= 0.00D+00
 Coeff-Com: -0.212D-01 0.839D-01 0.384D+00 0.553D+00
 Coeff:     -0.212D-01 0.839D-01 0.384D+00 0.553D+00
 Gap=     0.344 Goal=   None    Shift=    0.000
 RMSDP=2.14D-07 MaxDP=7.60D-06 DE=-1.29D-08 OVMax= 1.64D-05

 Cycle  11  Pass 1  IDiag  1:
 RMSU=  1.40D-07    CP:  1.00D+00  9.77D-01  8.24D-01  6.69D-01
 E= -391.689619147810     Delta-E=       -0.000000002454 Rises=F Damp=F
 DIIS: error= 2.64D-07 at cycle   5 NSaved=   5.
 NSaved= 5 IEnMin= 5 EnMin= -391.689619147810     IErMin= 5 ErrMin= 2.64D-07
 ErrMax= 2.64D-07  0.00D+00 EMaxC= 1.00D-01 BMatC= 2.60D-11 BMatP= 2.39D-09
 IDIUse=1 WtCom= 1.00D+00 WtEn= 0.00D+00
 Coeff-Com: -0.476D-02 0.226D-02 0.287D-01 0.105D+00 0.869D+00
 Coeff:     -0.476D-02 0.226D-02 0.287D-01 0.105D+00 0.869D+00
 Gap=     0.344 Goal=   None    Shift=    0.000
 RMSDP=3.38D-08 MaxDP=7.71D-07 DE=-2.45D-09 OVMax= 1.62D-06

 Cycle  12  Pass 1  IDiag  1:
 RMSU=  2.95D-08    CP:  1.00D+00  9.79D-01  8.25D-01  7.04D-01  9.94D-01
 E= -391.689619147858     Delta-E=       -0.000000000048 Rises=F Damp=F
 DIIS: error= 5.86D-08 at cycle   6 NSaved=   6.
 NSaved= 6 IEnMin= 6 EnMin= -391.689619147858     IErMin= 6 ErrMin= 5.86D-08
 ErrMax= 5.86D-08  0.00D+00 EMaxC= 1.00D-01 BMatC= 2.32D-12 BMatP= 2.60D-11
 IDIUse=1 WtCom= 1.00D+00 WtEn= 0.00D+00
 Coeff-Com:  0.799D-03-0.708D-02-0.289D-01-0.210D-01 0.220D+00 0.836D+00
 Coeff:      0.799D-03-0.708D-02-0.289D-01-0.210D-01 0.220D+00 0.836D+00
 Gap=     0.344 Goal=   None    Shift=    0.000
 RMSDP=1.40D-08 MaxDP=2.80D-07 DE=-4.82D-11 OVMax= 6.00D-07

 Cycle  13  Pass 1  IDiag  1:
 RMSU=  5.57D-09    CP:  1.00D+00  9.79D-01  8.25D-01  7.17D-01  1.07D+00
                    CP:  9.12D-01
 E= -391.689619147859     Delta-E=       -0.000000000000 Rises=F Damp=F
 DIIS: error= 1.83D-08 at cycle   7 NSaved=   7.
 NSaved= 7 IEnMin= 7 EnMin= -391.689619147859     IErMin= 7 ErrMin= 1.83D-08
 ErrMax= 1.83D-08  0.00D+00 EMaxC= 1.00D-01 BMatC= 1.63D-13 BMatP= 2.32D-12
 IDIUse=1 WtCom= 1.00D+00 WtEn= 0.00D+00
 Coeff-Com:  0.441D-03-0.254D-02-0.111D-01-0.109D-01 0.429D-01 0.290D+00
 Coeff-Com:  0.691D+00
 Coeff:      0.441D-03-0.254D-02-0.111D-01-0.109D-01 0.429D-01 0.290D+00
 Coeff:      0.691D+00
 Gap=     0.344 Goal=   None    Shift=    0.000
 RMSDP=2.22D-09 MaxDP=6.34D-08 DE=-3.41D-13 OVMax= 8.29D-08

 SCF Done:  E(RM062X) =  -391.689619148     A.U. after   13 cycles
            NFock= 13  Conv=0.22D-08     -V/T= 2.0094
 KE= 3.880592148576D+02 PE=-1.979036178479D+03 EE= 6.623200831579D+02
 Leave Link  502 at Wed Jul 14 19:43:42 2021, MaxMem=   524288000 cpu:             506.5 elap:              85.3
 (Enter /opt/gaussian/g16_legacy/l601.exe)
 Copying SCF densities to generalized density rwf, IOpCl= 0 IROHF=0.

 **********************************************************************

            Population analysis using the SCF density.

 **********************************************************************

 Orbital symmetries:
       Occupied  (A) (A) (A) (A) (A) (A) (A) (A) (A) (A) (A) (A)
                 (A) (A) (A) (A) (A) (A) (A) (A) (A) (A) (A) (A)
                 (A) (A) (A) (A) (A) (A) (A) (A) (A) (A) (A) (A)
                 (A) (A) (A)
       Virtual   (A) (A) (A) (A) (A) (A) (A) (A) (A) (A) (A) (A)
                 (A) (A) (A) (A) (A) (A) (A) (A) (A) (A) (A) (A)
                 (A) (A) (A) (A) (A) (A) (A) (A) (A) (A) (A) (A)
                 (A) (A) (A) (A) (A) (A) (A) (A) (A) (A) (A) (A)
                 (A) (A) (A) (A) (A) (A) (A) (A) (A) (A) (A) (A)
                 (A) (A) (A) (A) (A) (A) (A) (A) (A) (A) (A) (A)
                 (A) (A) (A) (A) (A) (A) (A) (A) (A) (A) (A) (A)
                 (A) (A) (A) (A) (A) (A) (A) (A) (A) (A) (A) (A)
                 (A) (A) (A) (A) (A) (A) (A) (A) (A) (A) (A) (A)
                 (A) (A) (A) (A) (A) (A) (A) (A) (A) (A) (A) (A)
                 (A) (A) (A) (A) (A) (A) (A) (A) (A) (A) (A) (A)
                 (A) (A) (A) (A) (A) (A) (A) (A) (A) (A) (A) (A)
                 (A) (A) (A) (A) (A) (A) (A) (A) (A) (A) (A) (A)
                 (A) (A) (A) (A) (A) (A) (A) (A) (A) (A) (A) (A)
                 (A) (A) (A) (A) (A) (A) (A) (A) (A) (A) (A) (A)
                 (A) (A) (A) (A) (A) (A) (A) (A) (A) (A) (A) (A)
                 (A) (A) (A) (A) (A) (A) (A) (A) (A)
 The electronic state is 1-A.
 Alpha  occ. eigenvalues --  -10.54549 -10.54069 -10.53992 -10.53926 -10.53359
 Alpha  occ. eigenvalues --  -10.53237 -10.53194 -10.53164 -10.53123 -10.52947
 Alpha  occ. eigenvalues --   -0.91873  -0.89602  -0.84652  -0.81394  -0.77662
 Alpha  occ. eigenvalues --   -0.76079  -0.71745  -0.68328  -0.58672  -0.58065
 Alpha  occ. eigenvalues --   -0.53287  -0.51699  -0.50321  -0.49507  -0.48864
 Alpha  occ. eigenvalues --   -0.48512  -0.46377  -0.45268  -0.44477  -0.43885
 Alpha  occ. eigenvalues --   -0.42867  -0.42049  -0.41323  -0.40592  -0.39581
 Alpha  occ. eigenvalues --   -0.37099  -0.36641  -0.28082  -0.27373
 Alpha virt. eigenvalues --    0.07031   0.07750   0.12414   0.14446   0.15850
 Alpha virt. eigenvalues --    0.16376   0.18832   0.19079   0.19594   0.20080
 Alpha virt. eigenvalues --    0.21243   0.21456   0.22212   0.22989   0.24089
 Alpha virt. eigenvalues --    0.24635   0.25528   0.26435   0.27337   0.27910
 Alpha virt. eigenvalues --    0.28530   0.29337   0.29679   0.31054   0.33033
 Alpha virt. eigenvalues --    0.38095   0.39549   0.47694   0.48917   0.52192
 Alpha virt. eigenvalues --    0.53668   0.54462   0.57631   0.58632   0.59550
 Alpha virt. eigenvalues --    0.61507   0.61696   0.62911   0.65301   0.66223
 Alpha virt. eigenvalues --    0.66892   0.69079   0.70701   0.72283   0.73347
 Alpha virt. eigenvalues --    0.74378   0.75628   0.77856   0.78632   0.80267
 Alpha virt. eigenvalues --    0.81673   0.82290   0.83620   0.84265   0.87268
 Alpha virt. eigenvalues --    0.87858   0.89038   0.90633   0.92014   0.92680
 Alpha virt. eigenvalues --    0.93759   0.94710   0.94941   0.96107   0.96737
 Alpha virt. eigenvalues --    0.96882   0.97378   0.99477   0.99943   1.00610
 Alpha virt. eigenvalues --    1.01956   1.03086   1.04294   1.04856   1.05841
 Alpha virt. eigenvalues --    1.11229   1.12160   1.20285   1.21606   1.24796
 Alpha virt. eigenvalues --    1.25818   1.27206   1.36127   1.37754   1.39314
 Alpha virt. eigenvalues --    1.39950   1.42157   1.45928   1.51583   1.53030
 Alpha virt. eigenvalues --    1.54534   1.55438   1.65710   1.70032   1.73082
 Alpha virt. eigenvalues --    1.75913   1.77467   1.79313   1.80723   1.82781
 Alpha virt. eigenvalues --    1.83909   1.84930   1.87110   1.88974   1.91324
 Alpha virt. eigenvalues --    1.91559   1.92210   1.93359   1.99884   2.01958
 Alpha virt. eigenvalues --    2.03200   2.04493   2.05670   2.07607   2.09558
 Alpha virt. eigenvalues --    2.10266   2.10369   2.10787   2.13704   2.14718
 Alpha virt. eigenvalues --    2.15246   2.16099   2.16671   2.17475   2.18989
 Alpha virt. eigenvalues --    2.20170   2.21868   2.22017   2.24247   2.25341
 Alpha virt. eigenvalues --    2.29831   2.30087   2.30629   2.34116   2.35544
 Alpha virt. eigenvalues --    2.38333   2.41775   2.43165   2.44067   2.45406
 Alpha virt. eigenvalues --    2.48034   2.48796   2.50670   2.52201   2.54496
 Alpha virt. eigenvalues --    2.55699   2.57910   2.61380   2.62188   2.64199
 Alpha virt. eigenvalues --    2.66419   2.67966   2.68454   2.69710   2.71185
 Alpha virt. eigenvalues --    2.74032   2.74776   2.76424   2.80612   2.84080
 Alpha virt. eigenvalues --    2.85268   2.85531   2.87088   2.87690   2.88341
 Alpha virt. eigenvalues --    2.90163   2.91402   2.93677   2.94970   3.01510
 Alpha virt. eigenvalues --    3.03533   3.07610   3.09605   3.17967   3.19525
 Alpha virt. eigenvalues --    3.21477   3.23501   3.30991   3.32573   3.40205
 Alpha virt. eigenvalues --    3.42185   3.42473   3.43234   3.44185   3.44863
 Alpha virt. eigenvalues --    3.45398   3.47608   3.49048   3.51204   3.52012
 Alpha virt. eigenvalues --    3.55305   4.16495   4.22675   4.33974   4.42485
 Alpha virt. eigenvalues --    4.51290   4.52749   4.54451   4.68405   4.71606
 Alpha virt. eigenvalues --    4.73534
          Condensed to atoms (all electrons):
               1          2          3          4          5          6
     1  C    5.038739   0.382688   0.386289   0.374556  -0.073613   0.004515
     2  H    0.382688   0.619276  -0.034341  -0.040439  -0.006632   0.000092
     3  H    0.386289  -0.034341   0.604855  -0.031937   0.004877  -0.000165
     4  C    0.374556  -0.040439  -0.031937   4.748112   0.370016  -0.033119
     5  C   -0.073613  -0.006632   0.004877   0.370016   5.003212   0.386245
     6  H    0.004515   0.000092  -0.000165  -0.033119   0.386245   0.573423
     7  H   -0.001094  -0.000552  -0.000040  -0.038489   0.380015  -0.027817
     8  H   -0.002995   0.005050   0.000039  -0.035239   0.379814  -0.027629
     9  C   -0.045411   0.002833  -0.007639   0.714878  -0.041377  -0.005331
    10  H    0.005809  -0.000175   0.000027  -0.030964  -0.013723   0.006168
    11  C   -0.014142   0.000280   0.000391  -0.042208   0.006156   0.000117
    12  H    0.000255   0.000037   0.000117  -0.000350  -0.000153  -0.000005
    13  H    0.000412  -0.000016  -0.000156   0.000227  -0.000155  -0.000010
    14  H    0.002067  -0.000095   0.003395  -0.007437   0.000076   0.000009
    15  C    0.000186  -0.000007  -0.000006   0.000782  -0.000401   0.000007
    16  H   -0.000033   0.000001   0.000000   0.000032   0.000004  -0.000000
    17  H    0.000080  -0.000001   0.000002   0.000038   0.000030   0.000000
    18  H   -0.000448   0.000021   0.000002   0.000336   0.000045  -0.000004
    19  C   -0.001612  -0.000100   0.000272   0.001275   0.000124  -0.000001
    20  C   -0.000112   0.000003  -0.000005  -0.000064  -0.000000  -0.000000
    21  H   -0.000003   0.000000   0.000001  -0.000001   0.000000   0.000000
    22  H    0.000023  -0.000000   0.000000   0.000002   0.000000  -0.000000
    23  H   -0.000005   0.000000   0.000000   0.000000  -0.000000   0.000000
    24  C   -0.055816   0.005264  -0.006964  -0.000806  -0.000381  -0.000002
    25  H   -0.001180  -0.000093   0.002820  -0.000263  -0.000007   0.000000
    26  C    0.338513  -0.038356  -0.039235  -0.050359  -0.001947   0.000004
    27  H   -0.037778  -0.002600   0.005151  -0.007566   0.001607  -0.000123
    28  H   -0.038962  -0.004896  -0.002889   0.005437  -0.000040   0.000003
               7          8          9         10         11         12
     1  C   -0.001094  -0.002995  -0.045411   0.005809  -0.014142   0.000255
     2  H   -0.000552   0.005050   0.002833  -0.000175   0.000280   0.000037
     3  H   -0.000040   0.000039  -0.007639   0.000027   0.000391   0.000117
     4  C   -0.038489  -0.035239   0.714878  -0.030964  -0.042208  -0.000350
     5  C    0.380015   0.379814  -0.041377  -0.013723   0.006156  -0.000153
     6  H   -0.027817  -0.027629  -0.005331   0.006168   0.000117  -0.000005
     7  H    0.599665  -0.035013  -0.001097   0.000235  -0.000174  -0.000006
     8  H   -0.035013   0.591613  -0.000749   0.000302  -0.000169   0.000023
     9  C   -0.001097  -0.000749   4.887143   0.376456   0.362961  -0.036927
    10  H    0.000235   0.000302   0.376456   0.616533  -0.056660  -0.000985
    11  C   -0.000174  -0.000169   0.362961  -0.056660   4.971391   0.382529
    12  H   -0.000006   0.000023  -0.036927  -0.000985   0.382529   0.587468
    13  H    0.000021  -0.000005  -0.033134  -0.002432   0.385672  -0.032642
    14  H    0.000000  -0.000001  -0.033665   0.004619   0.388238  -0.028365
    15  C   -0.000212   0.000012   0.000357  -0.000002  -0.000034   0.000000
    16  H   -0.000017  -0.000000   0.000009   0.000000   0.000000   0.000000
    17  H   -0.000038   0.000001   0.000081  -0.000002  -0.000019  -0.000000
    18  H    0.001485  -0.000004   0.000061  -0.000005   0.000002   0.000000
    19  C    0.000050  -0.000005   0.000047   0.000023   0.000176   0.000022
    20  C    0.000001   0.000000  -0.000015  -0.000000   0.000018  -0.000000
    21  H   -0.000000  -0.000000   0.000001   0.000000  -0.000004   0.000000
    22  H   -0.000000   0.000000  -0.000006  -0.000001  -0.000006  -0.000002
    23  H    0.000000  -0.000000  -0.000000   0.000000   0.000001   0.000000
    24  C    0.000051   0.000020   0.002017  -0.000020   0.000271   0.000086
    25  H   -0.000001   0.000000   0.000137   0.000000  -0.000336   0.000005
    26  C    0.001713  -0.000569  -0.002308  -0.000127   0.000165  -0.000038
    27  H    0.001730   0.000160   0.000060  -0.000005  -0.000027   0.000000
    28  H   -0.000103   0.000000  -0.000062   0.000004  -0.000015   0.000001
              13         14         15         16         17         18
     1  C    0.000412   0.002067   0.000186  -0.000033   0.000080  -0.000448
     2  H   -0.000016  -0.000095  -0.000007   0.000001  -0.000001   0.000021
     3  H   -0.000156   0.003395  -0.000006   0.000000   0.000002   0.000002
     4  C    0.000227  -0.007437   0.000782   0.000032   0.000038   0.000336
     5  C   -0.000155   0.000076  -0.000401   0.000004   0.000030   0.000045
     6  H   -0.000010   0.000009   0.000007  -0.000000   0.000000  -0.000004
     7  H    0.000021   0.000000  -0.000212  -0.000017  -0.000038   0.001485
     8  H   -0.000005  -0.000001   0.000012  -0.000000   0.000001  -0.000004
     9  C   -0.033134  -0.033665   0.000357   0.000009   0.000081   0.000061
    10  H   -0.002432   0.004619  -0.000002   0.000000  -0.000002  -0.000005
    11  C    0.385672   0.388238  -0.000034   0.000000  -0.000019   0.000002
    12  H   -0.032642  -0.028365   0.000000   0.000000  -0.000000   0.000000
    13  H    0.580331  -0.028350  -0.000019  -0.000000   0.000005  -0.000001
    14  H   -0.028350   0.579218   0.000011   0.000000  -0.000005  -0.000000
    15  C   -0.000019   0.000011   4.998404   0.381360   0.385068   0.381460
    16  H   -0.000000   0.000000   0.381360   0.586996  -0.033122  -0.028035
    17  H    0.000005  -0.000005   0.385068  -0.033122   0.579990  -0.028359
    18  H   -0.000001  -0.000000   0.381460  -0.028035  -0.028359   0.579568
    19  C   -0.000009   0.000269   0.379666  -0.036977  -0.035452  -0.026649
    20  C    0.000071  -0.000010  -0.079479  -0.002459  -0.003022   0.004866
    21  H    0.000003   0.000022   0.004668  -0.000047   0.000014  -0.000170
    22  H    0.000118  -0.000023  -0.001851  -0.000760   0.004340  -0.000038
    23  H    0.000000   0.000001  -0.000823   0.004003  -0.000834  -0.000020
    24  C    0.000034   0.001778  -0.050356   0.000392   0.000264  -0.007537
    25  H    0.000003   0.000866   0.006206  -0.000162  -0.000158   0.000004
    26  C    0.000079  -0.000751  -0.014496   0.000249   0.000482   0.001525
    27  H    0.000003   0.000010   0.000715  -0.000014  -0.000159   0.002899
    28  H   -0.000002   0.000042   0.000355   0.000041  -0.000018  -0.000080
              19         20         21         22         23         24
     1  C   -0.001612  -0.000112  -0.000003   0.000023  -0.000005  -0.055816
     2  H   -0.000100   0.000003   0.000000  -0.000000   0.000000   0.005264
     3  H    0.000272  -0.000005   0.000001   0.000000   0.000000  -0.006964
     4  C    0.001275  -0.000064  -0.000001   0.000002   0.000000  -0.000806
     5  C    0.000124  -0.000000   0.000000   0.000000  -0.000000  -0.000381
     6  H   -0.000001  -0.000000   0.000000  -0.000000   0.000000  -0.000002
     7  H    0.000050   0.000001  -0.000000  -0.000000   0.000000   0.000051
     8  H   -0.000005   0.000000  -0.000000   0.000000  -0.000000   0.000020
     9  C    0.000047  -0.000015   0.000001  -0.000006  -0.000000   0.002017
    10  H    0.000023  -0.000000   0.000000  -0.000001   0.000000  -0.000020
    11  C    0.000176   0.000018  -0.000004  -0.000006   0.000001   0.000271
    12  H    0.000022  -0.000000   0.000000  -0.000002   0.000000   0.000086
    13  H   -0.000009   0.000071   0.000003   0.000118   0.000000   0.000034
    14  H    0.000269  -0.000010   0.000022  -0.000023   0.000001   0.001778
    15  C    0.379666  -0.079479   0.004668  -0.001851  -0.000823  -0.050356
    16  H   -0.036977  -0.002459  -0.000047  -0.000760   0.004003   0.000392
    17  H   -0.035452  -0.003022   0.000014   0.004340  -0.000834   0.000264
    18  H   -0.026649   0.004866  -0.000170  -0.000038  -0.000020  -0.007537
    19  C    4.727928   0.364982  -0.032868  -0.036468  -0.037385   0.714815
    20  C    0.364982   5.005938   0.384605   0.381499   0.381501  -0.035135
    21  H   -0.032868   0.384605   0.573586  -0.027164  -0.027374  -0.004879
    22  H   -0.036468   0.381499  -0.027164   0.589888  -0.034412  -0.001258
    23  H   -0.037385   0.381501  -0.027374  -0.034412   0.590999  -0.001310
    24  C    0.714815  -0.035135  -0.004879  -0.001258  -0.001310   4.898106
    25  H   -0.031667  -0.013874   0.006244   0.000268   0.000238   0.374510
    26  C   -0.037383   0.005863   0.000108  -0.000131  -0.000206   0.369335
    27  H   -0.005676   0.000077   0.000010  -0.000002   0.000002  -0.039682
    28  H    0.001399  -0.000183  -0.000011  -0.000003   0.000017  -0.036997
              25         26         27         28
     1  C   -0.001180   0.338513  -0.037778  -0.038962
     2  H   -0.000093  -0.038356  -0.002600  -0.004896
     3  H    0.002820  -0.039235   0.005151  -0.002889
     4  C   -0.000263  -0.050359  -0.007566   0.005437
     5  C   -0.000007  -0.001947   0.001607  -0.000040
     6  H    0.000000   0.000004  -0.000123   0.000003
     7  H   -0.000001   0.001713   0.001730  -0.000103
     8  H    0.000000  -0.000569   0.000160   0.000000
     9  C    0.000137  -0.002308   0.000060  -0.000062
    10  H    0.000000  -0.000127  -0.000005   0.000004
    11  C   -0.000336   0.000165  -0.000027  -0.000015
    12  H    0.000005  -0.000038   0.000000   0.000001
    13  H    0.000003   0.000079   0.000003  -0.000002
    14  H    0.000866  -0.000751   0.000010   0.000042
    15  C    0.006206  -0.014496   0.000715   0.000355
    16  H   -0.000162   0.000249  -0.000014   0.000041
    17  H   -0.000158   0.000482  -0.000159  -0.000018
    18  H    0.000004   0.001525   0.002899  -0.000080
    19  C   -0.031667  -0.037383  -0.005676   0.001399
    20  C   -0.013874   0.005863   0.000077  -0.000183
    21  H    0.006244   0.000108   0.000010  -0.000011
    22  H    0.000268  -0.000131  -0.000002  -0.000003
    23  H    0.000238  -0.000206   0.000002   0.000017
    24  C    0.374510   0.369335  -0.039682  -0.036997
    25  H    0.621456  -0.055985   0.004881  -0.004339
    26  C   -0.055985   4.994778   0.390873   0.384607
    27  H    0.004881   0.390873   0.609901  -0.033615
    28  H   -0.004339   0.384607  -0.033615   0.608896
 Mulliken charges:
               1
     1  C   -0.260928
     2  H    0.112761
     3  H    0.115138
     4  C    0.103551
     5  C   -0.393795
     6  H    0.123623
     7  H    0.119683
     8  H    0.125341
     9  C   -0.139321
    10  H    0.094923
    11  C   -0.384575
    12  H    0.128927
    13  H    0.129953
    14  H    0.118081
    15  C   -0.391571
    16  H    0.128538
    17  H    0.130796
    18  H    0.119077
    19  C    0.091204
    20  C   -0.395065
    21  H    0.123260
    22  H    0.125987
    23  H    0.125605
    24  C   -0.125796
    25  H    0.090428
    26  C   -0.246402
    27  H    0.109166
    28  H    0.121412
 Sum of Mulliken charges =  -0.00000
 Mulliken charges with hydrogens summed into heavy atoms:
               1
     1  C   -0.033029
     4  C    0.103551
     5  C   -0.025148
     9  C   -0.044398
    11  C   -0.007614
    15  C   -0.013160
    19  C    0.091204
    20  C   -0.020213
    24  C   -0.035369
    26  C   -0.015824
 Electronic spatial extent (au):  <R**2>=           1886.8601
 Charge=             -0.0000 electrons
 Dipole moment (field-independent basis, Debye):
    X=              0.2000    Y=             -0.0638    Z=             -0.1293  Tot=              0.2466
 Quadrupole moment (field-independent basis, Debye-Ang):
   XX=            -65.1971   YY=            -63.4986   ZZ=            -63.1315
   XY=              0.9530   XZ=             -0.7164   YZ=              0.1041
 Traceless Quadrupole moment (field-independent basis, Debye-Ang):
   XX=             -1.2547   YY=              0.4438   ZZ=              0.8109
   XY=              0.9530   XZ=             -0.7164   YZ=              0.1041
 Octapole moment (field-independent basis, Debye-Ang**2):
  XXX=              7.0076  YYY=              1.4902  ZZZ=              0.5833  XYY=             -1.7892
  XXY=             -0.8144  XXZ=             -4.3507  XZZ=             -1.5891  YZZ=              2.3176
  YYZ=             -0.8660  XYZ=              2.7002
 Hexadecapole moment (field-independent basis, Debye-Ang**3):
 XXXX=          -1493.3120 YYYY=           -680.0751 ZZZZ=           -441.0679 XXXY=              2.9211
 XXXZ=             -5.7332 YYYX=             -5.0115 YYYZ=             -2.5022 ZZZX=              4.9577
 ZZZY=             -3.6109 XXYY=           -356.3596 XXZZ=           -321.4320 YYZZ=           -185.9717
 XXYZ=              2.0851 YYXZ=             -2.3813 ZZXY=              2.3882
 N-N= 5.369672613157D+02 E-N=-1.979036170126D+03  KE= 3.880592148576D+02
 No NMR shielding tensors so no spin-rotation constants.
 Leave Link  601 at Wed Jul 14 19:43:43 2021, MaxMem=   524288000 cpu:               7.8 elap:               1.6
 (Enter /opt/gaussian/g16_legacy/l701.exe)
 ... and contract with generalized density number  0.
 Compute integral first derivatives.
 Leave Link  701 at Wed Jul 14 19:43:44 2021, MaxMem=   524288000 cpu:               6.0 elap:               1.2
 (Enter /opt/gaussian/g16_legacy/l702.exe)
 L702 exits ... SP integral derivatives will be done elsewhere.
 Leave Link  702 at Wed Jul 14 19:43:45 2021, MaxMem=   524288000 cpu:               0.3 elap:               0.1
 (Enter /opt/gaussian/g16_legacy/l703.exe)
 Integral derivatives from FoFJK, PRISM(SPDF).
 Compute integral first derivatives, UseDBF=F ICtDFT=           0.
 Calling FoFJK, ICntrl=      2127 FMM=F ISym2X=0 I1Cent= 0 IOpClX= 0 NMat=1 NMatS=1 NMatT=0.
 FoFJK:  IHMeth= 1 ICntrl=    2127 DoSepK=F KAlg= 0 I1Cent=           0 FoldK=F
 IRaf=         0 NMat=       1 IRICut=       1 DoRegI=T DoRafI=F ISym2E= 0 IDoP0=0 IntGTp=1.
 FoFCou: FMM=F IPFlag=           0 FMFlag=      100000 FMFlg1=         800
         NFxFlg=           0 DoJE=F BraDBF=F KetDBF=F FulRan=T
         wScrn=  0.000000 ICntrl=      2127 IOpCl=  0 I1Cent=           0 NGrid=           0
         NMat0=    1 NMatS0=      1 NMatT0=    0 NMatD0=    1 NMtDS0=    0 NMtDT0=    0
 Symmetry not used in FoFCou.
 Leave Link  703 at Wed Jul 14 19:44:01 2021, MaxMem=   524288000 cpu:              88.7 elap:              16.1
 (Enter /opt/gaussian/g16_legacy/l716.exe)
 Dipole        = 7.86837117D-02-2.51058719D-02-5.08779344D-02
 ***** Axes restored to original set *****
 -------------------------------------------------------------------
 Center     Atomic                   Forces (Hartrees/Bohr)
 Number     Number              X              Y              Z
 -------------------------------------------------------------------
      1        6          -0.006760609    0.000155172   -0.002045542
      2        1           0.000935281    0.000645896   -0.001500611
      3        1           0.001794424    0.002858950    0.000838421
      4        6          -0.007245300    0.009415170    0.005501545
      5        6          -0.001778825    0.002702677    0.001218552
      6        1           0.000725934   -0.000679394    0.002353967
      7        1           0.001053937   -0.002422553   -0.002165634
      8        1           0.002243268   -0.001409622   -0.001335123
      9        6           0.009327201   -0.010444680   -0.004376219
     10        1           0.000652778   -0.001276125   -0.002844988
     11        6           0.000388839   -0.001468847    0.001092380
     12        1          -0.000570821    0.001751914    0.002282554
     13        1          -0.001340370    0.000212501    0.001481476
     14        1           0.000711624   -0.000513905   -0.001244196
     15        6          -0.001701066   -0.003212143   -0.002192217
     16        1           0.000620799    0.002565673   -0.000151000
     17        1           0.001856038    0.000776524    0.000722639
     18        1          -0.000704825   -0.001214808    0.001030450
     19        6          -0.010260145   -0.010683431    0.004608623
     20        6          -0.001750391   -0.002967540    0.001907410
     21        1          -0.000067484   -0.000543292   -0.002255213
     22        1           0.002327820    0.001675367   -0.000110177
     23        1           0.000496796    0.002995498   -0.000051905
     24        6           0.005523541    0.008793347   -0.007173691
     25        1           0.000416069    0.001735696    0.001431056
     26        6           0.005011444   -0.001469001    0.004433216
     27        1          -0.000730999    0.002662298   -0.000603752
     28        1          -0.001174961   -0.000641342   -0.000852021
 -------------------------------------------------------------------
 Cartesian Forces:  Max     0.010683431 RMS     0.003541147
 Leave Link  716 at Wed Jul 14 19:44:01 2021, MaxMem=   524288000 cpu:               0.4 elap:               0.1
 (Enter /opt/gaussian/g16_legacy/l103.exe)

 GradGradGradGradGradGradGradGradGradGradGradGradGradGradGradGradGradGrad
 Berny optimization.
 FormGI is forming the generalized inverse of G from B-inverse, IUseBI=4.
 Internal  Forces:  Max     0.014727014 RMS     0.002607218
 Search for a local minimum.
 Step number   1 out of a maximum of  138
 All quantities printed in internal units (Hartrees-Bohrs-Radians)
 RMS Force = .26072D-02 SwitMx=.10000D-02 MixMth= 1
 Mixed Optimization -- RFO/linear search
 Second derivative matrix not updated -- first step.
 ITU=  0
     Eigenvalues ---    0.00286   0.00543   0.00657   0.00679   0.00683
     Eigenvalues ---    0.00722   0.00824   0.01204   0.01291   0.01563
     Eigenvalues ---    0.01645   0.02777   0.02786   0.03767   0.03892
     Eigenvalues ---    0.05331   0.05422   0.06963   0.07009   0.07075
     Eigenvalues ---    0.07090   0.07245   0.07300   0.07354   0.07511
     Eigenvalues ---    0.09492   0.09629   0.12964   0.13053   0.15998
     Eigenvalues ---    0.16000   0.16000   0.16000   0.16000   0.16000
     Eigenvalues ---    0.16000   0.16000   0.16000   0.16000   0.16000
     Eigenvalues ---    0.16000   0.16000   0.16000   0.21897   0.21900
     Eigenvalues ---    0.22000   0.22001   0.24991   0.24995   0.24996
     Eigenvalues ---    0.24998   0.28852   0.30672   0.31529   0.31697
     Eigenvalues ---    0.31727   0.32030   0.32841   0.33874   0.33921
     Eigenvalues ---    0.34146   0.34204   0.34217   0.34228   0.34241
     Eigenvalues ---    0.34243   0.34251   0.34257   0.34263   0.34312
     Eigenvalues ---    0.34344   0.34411   0.34641   0.34643   0.34810
     Eigenvalues ---    0.34851   0.55458   0.55599
 RFO step:  Lambda=-4.67101979D-03 EMin= 2.86168890D-03
 Linear search not attempted -- first point.
 Iteration  1 RMS(Cart)=  0.19055183 RMS(Int)=  0.00454084
 Iteration  2 RMS(Cart)=  0.01081826 RMS(Int)=  0.00030287
 Iteration  3 RMS(Cart)=  0.00004698 RMS(Int)=  0.00030237
 Iteration  4 RMS(Cart)=  0.00000002 RMS(Int)=  0.00030237
 ITry= 1 IFail=0 DXMaxC= 8.05D-01 DCOld= 1.00D+10 DXMaxT= 3.00D-01 DXLimC= 3.00D+00 Rises=F
 Variable       Old X    -DE/DX   Delta X   Delta X   Delta X     New X
                                 (Linear)    (Quad)   (Total)
    R1        2.07544   0.00011   0.00000   0.00031   0.00031   2.07574
    R2        2.07085  -0.00055   0.00000  -0.00159  -0.00159   2.06926
    R3        2.86644  -0.00574   0.00000  -0.01842  -0.01842   2.84801
    R4        2.90313  -0.00005   0.00000  -0.00017  -0.00017   2.90296
    R5        2.85013   0.00013   0.00000   0.00042   0.00042   2.85055
    R6        2.54728  -0.01473   0.00000  -0.02633  -0.02633   2.52094
    R7        2.06966  -0.00178   0.00000  -0.00514  -0.00514   2.06451
    R8        2.06753   0.00160   0.00000   0.00460   0.00460   2.07213
    R9        2.06898   0.00066   0.00000   0.00189   0.00189   2.07087
   R10        2.05918   0.00032   0.00000   0.00091   0.00091   2.06009
   R11        2.82631   0.00368   0.00000   0.01106   0.01106   2.83737
   R12        2.06806   0.00099   0.00000   0.00286   0.00286   2.07092
   R13        2.06888   0.00014   0.00000   0.00041   0.00041   2.06929
   R14        2.06259  -0.00002   0.00000  -0.00007  -0.00007   2.06252
   R15        2.06923   0.00071   0.00000   0.00204   0.00204   2.07126
   R16        2.06987   0.00001   0.00000   0.00004   0.00004   2.06991
   R17        2.06261   0.00002   0.00000   0.00005   0.00005   2.06267
   R18        2.84090   0.00011   0.00000   0.00033   0.00033   2.84123
   R19        2.84701   0.00048   0.00000   0.00148   0.00148   2.84850
   R20        2.54603  -0.01415   0.00000  -0.02523  -0.02523   2.52080
   R21        2.06947  -0.00168   0.00000  -0.00484  -0.00484   2.06463
   R22        2.06924   0.00062   0.00000   0.00178   0.00178   2.07103
   R23        2.06908   0.00075   0.00000   0.00215   0.00215   2.07124
   R24        2.05984   0.00072   0.00000   0.00203   0.00203   2.06187
   R25        2.84647  -0.00267   0.00000  -0.00828  -0.00828   2.83818
   R26        2.06642   0.00061   0.00000   0.00174   0.00174   2.06815
   R27        2.07464   0.00004   0.00000   0.00012   0.00012   2.07477
    A1        1.82527   0.00075   0.00000   0.03191   0.03199   1.85726
    A2        1.88588   0.00205   0.00000   0.01794   0.01826   1.90414
    A3        1.89219   0.00244   0.00000   0.02161   0.02192   1.91411
    A4        1.94292   0.00179   0.00000  -0.00916  -0.01040   1.93253
    A5        1.91570   0.00037   0.00000  -0.01617  -0.01714   1.89856
    A6        1.99327  -0.00666   0.00000  -0.03803  -0.03859   1.95469
    A7        2.00692   0.00051   0.00000   0.00236   0.00178   2.00869
    A8        2.17897  -0.00480   0.00000  -0.01838  -0.01894   2.16003
    A9        2.09703   0.00431   0.00000   0.01739   0.01679   2.11381
   A10        1.95948  -0.00264   0.00000  -0.01268  -0.01265   1.94683
   A11        1.93141   0.00220   0.00000   0.01113   0.01115   1.94256
   A12        1.92446   0.00183   0.00000   0.01005   0.01007   1.93453
   A13        1.87543   0.00059   0.00000   0.00564   0.00567   1.88110
   A14        1.87620   0.00119   0.00000   0.01155   0.01158   1.88778
   A15        1.89454  -0.00330   0.00000  -0.02658  -0.02657   1.86797
   A16        2.06700  -0.00216   0.00000  -0.01488  -0.01488   2.05212
   A17        2.23336  -0.00217   0.00000  -0.00967  -0.00967   2.22368
   A18        1.98264   0.00433   0.00000   0.02450   0.02450   2.00714
   A19        1.91476   0.00340   0.00000   0.02166   0.02164   1.93641
   A20        1.91055   0.00225   0.00000   0.01252   0.01248   1.92303
   A21        1.98635  -0.00307   0.00000  -0.01845  -0.01838   1.96797
   A22        1.88660  -0.00283   0.00000  -0.01753  -0.01766   1.86895
   A23        1.88699   0.00007   0.00000   0.00246   0.00254   1.88953
   A24        1.87580   0.00002   0.00000  -0.00167  -0.00163   1.87417
   A25        1.89060  -0.00223   0.00000  -0.02016  -0.02015   1.87046
   A26        1.87831   0.00098   0.00000   0.01013   0.01015   1.88847
   A27        1.92080   0.00181   0.00000   0.01001   0.01003   1.93083
   A28        1.86771   0.00148   0.00000   0.01101   0.01101   1.87872
   A29        1.92017   0.00019   0.00000  -0.00108  -0.00107   1.91910
   A30        1.98325  -0.00228   0.00000  -0.01059  -0.01058   1.97267
   A31        1.99244   0.00137   0.00000   0.00539   0.00539   1.99783
   A32        2.18696  -0.00396   0.00000  -0.01554  -0.01554   2.17142
   A33        2.10367   0.00258   0.00000   0.01014   0.01014   2.11380
   A34        1.96105  -0.00237   0.00000  -0.01080  -0.01078   1.95027
   A35        1.92429   0.00159   0.00000   0.00779   0.00781   1.93210
   A36        1.92392   0.00200   0.00000   0.01047   0.01049   1.93441
   A37        1.87863   0.00099   0.00000   0.00925   0.00927   1.88790
   A38        1.87889   0.00082   0.00000   0.00852   0.00855   1.88743
   A39        1.89505  -0.00314   0.00000  -0.02612  -0.02611   1.86894
   A40        2.06276  -0.00117   0.00000  -0.00867  -0.00901   2.05374
   A41        2.23644  -0.00203   0.00000  -0.00898  -0.00933   2.22711
   A42        1.98398   0.00321   0.00000   0.01789   0.01753   2.00150
   A43        1.97383  -0.00565   0.00000  -0.03095  -0.03166   1.94218
   A44        1.93001   0.00051   0.00000  -0.01906  -0.02018   1.90983
   A45        1.88755   0.00136   0.00000   0.01905   0.01942   1.90698
   A46        1.95964   0.00085   0.00000  -0.01791  -0.01921   1.94043
   A47        1.86838   0.00343   0.00000   0.03800   0.03830   1.90668
   A48        1.83661   0.00010   0.00000   0.01865   0.01891   1.85552
    D1       -0.74178   0.00094   0.00000   0.03530   0.03569  -0.70609
    D2        2.37477   0.00207   0.00000   0.09928   0.09900   2.47377
    D3       -2.73661  -0.00209   0.00000  -0.00838  -0.00786  -2.74447
    D4        0.37994  -0.00096   0.00000   0.05560   0.05545   0.43539
    D5        1.36513   0.00121   0.00000   0.05108   0.05118   1.41631
    D6       -1.80150   0.00234   0.00000   0.11506   0.11449  -1.68702
    D7       -2.91773  -0.00243   0.00000  -0.05532  -0.05507  -2.97280
    D8        1.15072   0.00048   0.00000   0.00872   0.00837   1.15909
    D9       -0.85174  -0.00067   0.00000  -0.01414  -0.01417  -0.86591
   D10       -0.93374  -0.00003   0.00000  -0.01435  -0.01433  -0.94808
   D11        3.13471   0.00288   0.00000   0.04969   0.04910  -3.09938
   D12        1.13225   0.00172   0.00000   0.02683   0.02657   1.15881
   D13        1.26206  -0.00246   0.00000  -0.06894  -0.06833   1.19373
   D14       -0.95268   0.00045   0.00000  -0.00491  -0.00489  -0.95757
   D15       -2.95514  -0.00070   0.00000  -0.02776  -0.02743  -2.98257
   D16        3.11064   0.00081   0.00000   0.04764   0.04802  -3.12453
   D17       -1.07720   0.00130   0.00000   0.05398   0.05434  -1.02285
   D18        1.01909  -0.00020   0.00000   0.03451   0.03489   1.05398
   D19       -0.00719  -0.00012   0.00000  -0.01253  -0.01291  -0.02009
   D20        2.08816   0.00037   0.00000  -0.00620  -0.00658   2.08158
   D21       -2.09874  -0.00113   0.00000  -0.02567  -0.02603  -2.12477
   D22       -3.12322  -0.00036   0.00000  -0.02822  -0.02815   3.13181
   D23        0.04057  -0.00033   0.00000  -0.02530  -0.02527   0.01530
   D24       -0.00788   0.00077   0.00000   0.03861   0.03858   0.03070
   D25       -3.12727   0.00079   0.00000   0.04153   0.04146  -3.08581
   D26       -2.05244  -0.00035   0.00000  -0.01309  -0.01302  -2.06546
   D27        2.16326  -0.00027   0.00000  -0.01215  -0.01223   2.15103
   D28        0.06413   0.00013   0.00000  -0.00670  -0.00673   0.05740
   D29        1.11046  -0.00025   0.00000  -0.00989  -0.00979   1.10067
   D30       -0.95702  -0.00018   0.00000  -0.00895  -0.00900  -0.96603
   D31       -3.05615   0.00022   0.00000  -0.00349  -0.00350  -3.05965
   D32        1.10122  -0.00093   0.00000  -0.01790  -0.01790   1.08332
   D33       -2.05674  -0.00092   0.00000  -0.01849  -0.01848  -2.07522
   D34       -0.98073   0.00057   0.00000   0.00140   0.00140  -0.97933
   D35        2.14450   0.00059   0.00000   0.00081   0.00082   2.14531
   D36       -3.07430   0.00007   0.00000  -0.00482  -0.00483  -3.07913
   D37        0.05093   0.00009   0.00000  -0.00541  -0.00541   0.04551
   D38        3.14047  -0.00002   0.00000   0.00220   0.00220  -3.14051
   D39        1.04492  -0.00079   0.00000  -0.00773  -0.00774   1.03719
   D40       -1.04708   0.00083   0.00000   0.01306   0.01305  -1.03403
   D41        0.01439   0.00004   0.00000   0.00302   0.00303   0.01741
   D42       -2.08117  -0.00074   0.00000  -0.00691  -0.00691  -2.08807
   D43        2.11001   0.00088   0.00000   0.01388   0.01388   2.12390
   D44       -3.12160   0.00055   0.00000   0.02725   0.02705  -3.09454
   D45        0.02617  -0.00053   0.00000  -0.02566  -0.02547   0.00071
   D46        0.00266   0.00056   0.00000   0.02657   0.02637   0.02903
   D47       -3.13275  -0.00052   0.00000  -0.02635  -0.02615   3.12428
   D48       -1.93118   0.00242   0.00000   0.11179   0.11157  -1.81961
   D49        0.26780  -0.00080   0.00000   0.04586   0.04629   0.31409
   D50        2.27490   0.00180   0.00000   0.08143   0.08161   2.35650
   D51        1.21636   0.00139   0.00000   0.06093   0.06046   1.27681
   D52       -2.86784  -0.00183   0.00000  -0.00499  -0.00483  -2.87267
   D53       -0.86075   0.00077   0.00000   0.03058   0.03049  -0.83026
         Item               Value     Threshold  Converged?
 Maximum Force            0.014727     0.002500     NO 
 RMS     Force            0.002607     0.001667     NO 
 Maximum Displacement     0.805039     0.010000     NO 
 RMS     Displacement     0.196012     0.006667     NO 
 Predicted change in Energy=-2.541685D-03
 Lowest energy point so far.  Saving SCF results.
 GradGradGradGradGradGradGradGradGradGradGradGradGradGradGradGradGradGrad

 Leave Link  103 at Wed Jul 14 19:44:06 2021, MaxMem=   524288000 cpu:              21.5 elap:               5.3
 (Enter /opt/gaussian/g16_legacy/l202.exe)
                          Input orientation:                          
 ---------------------------------------------------------------------
 Center     Atomic      Atomic             Coordinates (Angstroms)
[...]
                 (A) (A) (A) (A) (A) (A) (A) (A) (A) (A) (A) (A)
                 (A) (A) (A) (A) (A) (A) (A) (A) (A) (A) (A) (A)
                 (A) (A) (A) (A) (A) (A) (A) (A) (A) (A) (A) (A)
                 (A) (A) (A) (A) (A) (A) (A) (A) (A) (A) (A) (A)
                 (A) (A) (A) (A) (A) (A) (A) (A) (A) (A) (A) (A)
                 (A) (A) (A) (A) (A) (A) (A) (A) (A) (A) (A) (A)
                 (A) (A) (A) (A) (A) (A) (A) (A) (A) (A) (A) (A)
                 (A) (A) (A) (A) (A) (A) (A) (A) (A) (A) (A) (A)
                 (A) (A) (A) (A) (A) (A) (A) (A) (A) (A) (A) (A)
                 (A) (A) (A) (A) (A) (A) (A) (A) (A) (A) (A) (A)
                 (A) (A) (A) (A) (A) (A) (A) (A) (A) (A) (A) (A)
                 (A) (A) (A) (A) (A) (A) (A) (A) (A) (A) (A) (A)
                 (A) (A) (A) (A) (A) (A) (A) (A) (A)
 The electronic state is 1-A.
 Alpha  occ. eigenvalues --  -10.54370 -10.54030 -10.53960 -10.53904 -10.53335
 Alpha  occ. eigenvalues --  -10.53301 -10.53163 -10.53148 -10.53021 -10.52896
 Alpha  occ. eigenvalues --   -0.92306  -0.89578  -0.84578  -0.81391  -0.77572
 Alpha  occ. eigenvalues --   -0.76074  -0.71972  -0.68594  -0.58414  -0.58062
 Alpha  occ. eigenvalues --   -0.53370  -0.52273  -0.50204  -0.49724  -0.49183
 Alpha  occ. eigenvalues --   -0.47962  -0.45974  -0.45297  -0.44132  -0.44007
 Alpha  occ. eigenvalues --   -0.42780  -0.42044  -0.41501  -0.40979  -0.39779
 Alpha  occ. eigenvalues --   -0.37228  -0.36489  -0.28324  -0.27414
 Alpha virt. eigenvalues --    0.06751   0.08008   0.12241   0.13511   0.15852
 Alpha virt. eigenvalues --    0.16403   0.18250   0.19021   0.19843   0.20037
 Alpha virt. eigenvalues --    0.21107   0.21637   0.22759   0.23541   0.24764
 Alpha virt. eigenvalues --    0.25226   0.25282   0.26524   0.27737   0.28162
 Alpha virt. eigenvalues --    0.28899   0.29198   0.30137   0.31141   0.33348
 Alpha virt. eigenvalues --    0.38284   0.39659   0.47968   0.48375   0.51325
 Alpha virt. eigenvalues --    0.53256   0.54578   0.57079   0.57477   0.58902
 Alpha virt. eigenvalues --    0.60928   0.61348   0.63466   0.66357   0.66733
 Alpha virt. eigenvalues --    0.67229   0.70506   0.71215   0.72472   0.74491
 Alpha virt. eigenvalues --    0.75644   0.76274   0.77750   0.78667   0.81154
 Alpha virt. eigenvalues --    0.81547   0.81748   0.84590   0.86617   0.87403
 Alpha virt. eigenvalues --    0.89366   0.89982   0.92033   0.92145   0.93024
 Alpha virt. eigenvalues --    0.94255   0.95157   0.95319   0.96454   0.97416
 Alpha virt. eigenvalues --    0.97997   0.98871   1.00291   1.01152   1.01269
 Alpha virt. eigenvalues --    1.03255   1.04064   1.06840   1.07698   1.08413
 Alpha virt. eigenvalues --    1.09729   1.11851   1.20496   1.22200   1.25189
 Alpha virt. eigenvalues --    1.27507   1.32800   1.36802   1.38189   1.39432
 Alpha virt. eigenvalues --    1.41459   1.43112   1.45952   1.50667   1.52238
 Alpha virt. eigenvalues --    1.55571   1.55997   1.67336   1.69756   1.73288
 Alpha virt. eigenvalues --    1.75135   1.77939   1.79337   1.81357   1.82603
 Alpha virt. eigenvalues --    1.84699   1.85807   1.88026   1.89501   1.91495
 Alpha virt. eigenvalues --    1.92080   1.92658   1.93964   2.01407   2.02999
 Alpha virt. eigenvalues --    2.04093   2.05803   2.07215   2.08394   2.10021
 Alpha virt. eigenvalues --    2.10476   2.11361   2.11650   2.13871   2.15701
 Alpha virt. eigenvalues --    2.15992   2.16465   2.18315   2.18736   2.19569
 Alpha virt. eigenvalues --    2.21517   2.22236   2.23218   2.24435   2.25254
 Alpha virt. eigenvalues --    2.30043   2.31201   2.32069   2.35525   2.35768
 Alpha virt. eigenvalues --    2.39066   2.41417   2.42971   2.43854   2.46124
 Alpha virt. eigenvalues --    2.47782   2.47970   2.50874   2.52388   2.53945
 Alpha virt. eigenvalues --    2.56473   2.58296   2.61668   2.62401   2.64486
 Alpha virt. eigenvalues --    2.66559   2.66871   2.68442   2.69735   2.71306
 Alpha virt. eigenvalues --    2.74184   2.75330   2.76834   2.80199   2.84205
 Alpha virt. eigenvalues --    2.85238   2.86437   2.86873   2.87487   2.88296
 Alpha virt. eigenvalues --    2.90487   2.92184   2.93000   2.94817   3.02888
 Alpha virt. eigenvalues --    3.04690   3.08708   3.10957   3.17775   3.19330
 Alpha virt. eigenvalues --    3.22039   3.24566   3.30557   3.32734   3.40427
 Alpha virt. eigenvalues --    3.42210   3.42818   3.43782   3.44538   3.44937
 Alpha virt. eigenvalues --    3.45945   3.47043   3.49586   3.50895   3.52824
 Alpha virt. eigenvalues --    3.55356   4.17540   4.27531   4.35262   4.42951
 Alpha virt. eigenvalues --    4.51557   4.54321   4.56746   4.70545   4.72625
 Alpha virt. eigenvalues --    4.74952
          Condensed to atoms (all electrons):
               1          2          3          4          5          6
     1  C    5.036985   0.383481   0.386128   0.376213  -0.072669   0.004770
     2  H    0.383481   0.615175  -0.032008  -0.040614  -0.006007   0.000128
     3  H    0.386128  -0.032008   0.601067  -0.032634   0.004824  -0.000174
     4  C    0.376213  -0.040614  -0.032634   4.749515   0.371785  -0.034234
     5  C   -0.072669  -0.006007   0.004824   0.371785   5.003420   0.385954
     6  H    0.004770   0.000128  -0.000174  -0.034234   0.385954   0.572620
     7  H   -0.001074  -0.000628   0.000005  -0.039246   0.379436  -0.027629
     8  H   -0.003050   0.004097   0.000010  -0.032466   0.379655  -0.026415
     9  C   -0.048432   0.003592  -0.007214   0.717624  -0.042179  -0.005513
    10  H    0.006267  -0.000185  -0.000006  -0.032675  -0.014432   0.006671
    11  C   -0.014657   0.000291  -0.000249  -0.042539   0.006122   0.000088
    12  H    0.000206   0.000020   0.000141   0.000801  -0.000146  -0.000007
    13  H    0.000547  -0.000019  -0.000236  -0.001192  -0.000145  -0.000005
    14  H    0.002419  -0.000076   0.003924  -0.007988   0.000078   0.000009
    15  C   -0.000295  -0.000006   0.000011   0.001207  -0.000896   0.000015
    16  H   -0.000043   0.000002   0.000000   0.000228  -0.000004   0.000000
    17  H    0.000245  -0.000005   0.000005   0.000234   0.000157   0.000023
    18  H   -0.001128   0.000031   0.000003  -0.000439   0.000735   0.000024
    19  C   -0.004550  -0.000048   0.000166   0.000713   0.000159   0.000009
    20  C   -0.000081   0.000003  -0.000015  -0.000129  -0.000001   0.000000
    21  H   -0.000003  -0.000000   0.000003  -0.000001  -0.000000  -0.000000
    22  H    0.000031  -0.000000   0.000000   0.000010   0.000000  -0.000000
    23  H   -0.000007   0.000000   0.000000  -0.000001  -0.000000   0.000000
    24  C   -0.057078   0.005411  -0.006950  -0.003636  -0.000240   0.000002
    25  H   -0.000169  -0.000111   0.002252  -0.000087  -0.000011   0.000000
    26  C    0.342010  -0.037709  -0.039292  -0.049531  -0.003126  -0.000015
    27  H   -0.040780  -0.002523   0.005336  -0.007590   0.001078  -0.000191
    28  H   -0.037676  -0.004499  -0.002617   0.005346  -0.000003   0.000004
               7          8          9         10         11         12
     1  C   -0.001074  -0.003050  -0.048432   0.006267  -0.014657   0.000206
     2  H   -0.000628   0.004097   0.003592  -0.000185   0.000291   0.000020
     3  H    0.000005   0.000010  -0.007214  -0.000006  -0.000249   0.000141
     4  C   -0.039246  -0.032466   0.717624  -0.032675  -0.042539   0.000801
     5  C    0.379436   0.379655  -0.042179  -0.014432   0.006122  -0.000146
     6  H   -0.027629  -0.026415  -0.005513   0.006671   0.000088  -0.000007
     7  H    0.604848  -0.036885  -0.000473   0.000205  -0.000168  -0.000004
     8  H   -0.036885   0.587654  -0.001146   0.000329  -0.000159   0.000018
     9  C   -0.000473  -0.001146   4.881785   0.375466   0.366006  -0.033829
    10  H    0.000205   0.000329   0.375466   0.619287  -0.054658  -0.002079
    11  C   -0.000168  -0.000159   0.366006  -0.054658   4.963525   0.381357
    12  H   -0.000004   0.000018  -0.033829  -0.002079   0.381357   0.589854
    13  H    0.000022  -0.000006  -0.033058  -0.000990   0.383173  -0.034366
    14  H   -0.000004   0.000004  -0.034880   0.004560   0.389716  -0.027978
    15  C   -0.000723   0.000046   0.000796  -0.000120  -0.000431   0.000008
    16  H   -0.000038   0.000000   0.000189   0.000000   0.000007   0.000000
    17  H   -0.000113   0.000005   0.001152   0.000288  -0.000238  -0.000025
    18  H    0.001824  -0.000009  -0.000306  -0.000039   0.000037  -0.000000
    19  C    0.000105  -0.000009  -0.000738   0.000029  -0.000046   0.000212
    20  C    0.000001   0.000000  -0.000091  -0.000001  -0.000477  -0.000002
    21  H    0.000000  -0.000000   0.000005   0.000000  -0.000007   0.000000
    22  H   -0.000000   0.000000  -0.000038  -0.000004  -0.000263  -0.000041
    23  H    0.000000  -0.000000  -0.000004   0.000000   0.000028   0.000000
    24  C    0.000061   0.000003   0.000784  -0.000049   0.000744   0.000237
    25  H   -0.000000   0.000000   0.000151  -0.000001  -0.000403   0.000006
    26  C    0.001484  -0.000276  -0.004085  -0.000125   0.000110  -0.000040
    27  H    0.002771   0.000064   0.000054  -0.000015  -0.000018   0.000000
    28  H   -0.000153   0.000003  -0.000040   0.000004  -0.000019   0.000002
              13         14         15         16         17         18
     1  C    0.000547   0.002419  -0.000295  -0.000043   0.000245  -0.001128
     2  H   -0.000019  -0.000076  -0.000006   0.000002  -0.000005   0.000031
     3  H   -0.000236   0.003924   0.000011   0.000000   0.000005   0.000003
     4  C   -0.001192  -0.007988   0.001207   0.000228   0.000234  -0.000439
     5  C   -0.000145   0.000078  -0.000896  -0.000004   0.000157   0.000735
     6  H   -0.000005   0.000009   0.000015   0.000000   0.000023   0.000024
     7  H    0.000022  -0.000004  -0.000723  -0.000038  -0.000113   0.001824
     8  H   -0.000006   0.000004   0.000046   0.000000   0.000005  -0.000009
     9  C   -0.033058  -0.034880   0.000796   0.000189   0.001152  -0.000306
    10  H   -0.000990   0.004560  -0.000120   0.000000   0.000288  -0.000039
    11  C    0.383173   0.389716  -0.000431   0.000007  -0.000238   0.000037
    12  H   -0.034366  -0.027978   0.000008   0.000000  -0.000025  -0.000000
    13  H    0.587861  -0.028997  -0.000208  -0.000028   0.000307  -0.000000
    14  H   -0.028997   0.580338   0.000052   0.000001  -0.000020  -0.000001
    15  C   -0.000208   0.000052   4.990120   0.379941   0.381907   0.382441
    16  H   -0.000028   0.000001   0.379941   0.595459  -0.034604  -0.027882
    17  H    0.000307  -0.000020   0.381907  -0.034604   0.585240  -0.028136
    18  H   -0.000000  -0.000001   0.382441  -0.027882  -0.028136   0.584854
    19  C   -0.000604   0.000119   0.382798  -0.037333  -0.033865  -0.026927
    20  C    0.000457   0.000044  -0.078695  -0.003058  -0.002554   0.004998
    21  H    0.000007   0.000039   0.004774  -0.000012  -0.000033  -0.000178
    22  H    0.001803  -0.000065  -0.001466  -0.000924   0.004106  -0.000033
    23  H   -0.000001   0.000004  -0.001330   0.004138  -0.000717  -0.000028
    24  C   -0.000210   0.001682  -0.052982   0.001456  -0.000634  -0.009019
    25  H    0.000001   0.000693   0.006508  -0.000156  -0.000177  -0.000006
    26  C    0.000181  -0.001196  -0.014359   0.000128   0.000608   0.002309
    27  H    0.000006   0.000015   0.000214   0.000137  -0.000263   0.002589
    28  H   -0.000006   0.000049   0.000376   0.000019  -0.000015  -0.000043
              19         20         21         22         23         24
     1  C   -0.004550  -0.000081  -0.000003   0.000031  -0.000007  -0.057078
     2  H   -0.000048   0.000003  -0.000000  -0.000000   0.000000   0.005411
     3  H    0.000166  -0.000015   0.000003   0.000000   0.000000  -0.006950
     4  C    0.000713  -0.000129  -0.000001   0.000010  -0.000001  -0.003636
     5  C    0.000159  -0.000001  -0.000000   0.000000  -0.000000  -0.000240
     6  H    0.000009   0.000000  -0.000000  -0.000000   0.000000   0.000002
     7  H    0.000105   0.000001   0.000000  -0.000000   0.000000   0.000061
     8  H   -0.000009   0.000000  -0.000000   0.000000  -0.000000   0.000003
     9  C   -0.000738  -0.000091   0.000005  -0.000038  -0.000004   0.000784
    10  H    0.000029  -0.000001   0.000000  -0.000004   0.000000  -0.000049
    11  C   -0.000046  -0.000477  -0.000007  -0.000263   0.000028   0.000744
    12  H    0.000212  -0.000002   0.000000  -0.000041   0.000000   0.000237
    13  H   -0.000604   0.000457   0.000007   0.001803  -0.000001  -0.000210
    14  H    0.000119   0.000044   0.000039  -0.000065   0.000004   0.001682
    15  C    0.382798  -0.078695   0.004774  -0.001466  -0.001330  -0.052982
    16  H   -0.037333  -0.003058  -0.000012  -0.000924   0.004138   0.001456
    17  H   -0.033865  -0.002554  -0.000033   0.004106  -0.000717  -0.000634
    18  H   -0.026927   0.004998  -0.000178  -0.000033  -0.000028  -0.009019
    19  C    4.713122   0.367658  -0.033586  -0.037534  -0.034537   0.717225
    20  C    0.367658   5.007995   0.384710   0.380041   0.380293  -0.037547
    21  H   -0.033586   0.384710   0.571877  -0.027036  -0.026189  -0.005038
    22  H   -0.037534   0.380041  -0.027036   0.597140  -0.036659  -0.001106
    23  H   -0.034537   0.380293  -0.026189  -0.036659   0.589648  -0.001210
    24  C    0.717225  -0.037547  -0.005038  -0.001106  -0.001210   4.912826
    25  H   -0.033480  -0.014612   0.006728   0.000224   0.000278   0.376251
    26  C   -0.038847   0.005980   0.000098  -0.000126  -0.000201   0.368818
    27  H   -0.006287   0.000035   0.000012  -0.000008   0.000011  -0.040338
    28  H    0.002777  -0.000173  -0.000010  -0.000002   0.000010  -0.032378
              25         26         27         28
     1  C   -0.000169   0.342010  -0.040780  -0.037676
     2  H   -0.000111  -0.037709  -0.002523  -0.004499
     3  H    0.002252  -0.039292   0.005336  -0.002617
     4  C   -0.000087  -0.049531  -0.007590   0.005346
     5  C   -0.000011  -0.003126   0.001078  -0.000003
     6  H    0.000000  -0.000015  -0.000191   0.000004
     7  H   -0.000000   0.001484   0.002771  -0.000153
     8  H    0.000000  -0.000276   0.000064   0.000003
     9  C    0.000151  -0.004085   0.000054  -0.000040
    10  H   -0.000001  -0.000125  -0.000015   0.000004
    11  C   -0.000403   0.000110  -0.000018  -0.000019
    12  H    0.000006  -0.000040   0.000000   0.000002
    13  H    0.000001   0.000181   0.000006  -0.000006
    14  H    0.000693  -0.001196   0.000015   0.000049
    15  C    0.006508  -0.014359   0.000214   0.000376
    16  H   -0.000156   0.000128   0.000137   0.000019
    17  H   -0.000177   0.000608  -0.000263  -0.000015
    18  H   -0.000006   0.002309   0.002589  -0.000043
    19  C   -0.033480  -0.038847  -0.006287   0.002777
    20  C   -0.014612   0.005980   0.000035  -0.000173
    21  H    0.006728   0.000098   0.000012  -0.000010
    22  H    0.000224  -0.000126  -0.000008  -0.000002
    23  H    0.000278  -0.000201   0.000011   0.000010
    24  C    0.376251   0.368818  -0.040338  -0.032378
    25  H    0.619160  -0.053753   0.004717  -0.005097
    26  C   -0.053753   4.992721   0.391845   0.383999
    27  H    0.004717   0.391845   0.610064  -0.032561
    28  H   -0.005097   0.383999  -0.032561   0.602939
 Mulliken charges:
               1
     1  C   -0.257609
     2  H    0.112206
     3  H    0.117520
     4  C    0.101326
     5  C   -0.393545
     6  H    0.123865
     7  H    0.116377
     8  H    0.128533
     9  C   -0.135579
    10  H    0.092272
    11  C   -0.376875
    12  H    0.125651
    13  H    0.125706
    14  H    0.117459
    15  C   -0.379702
    16  H    0.122376
    17  H    0.127121
    18  H    0.114329
    19  C    0.103298
    20  C   -0.394777
    21  H    0.123840
    22  H    0.121949
    23  H    0.126475
    24  C   -0.137085
    25  H    0.091093
    26  C   -0.247611
    27  H    0.111624
    28  H    0.119764
 Sum of Mulliken charges =  -0.00000
 Mulliken charges with hydrogens summed into heavy atoms:
               1
     1  C   -0.027883
     4  C    0.101326
     5  C   -0.024771
     9  C   -0.043307
    11  C   -0.008058
    15  C   -0.015877
    19  C    0.103298
    20  C   -0.022514
    24  C   -0.045992
    26  C   -0.016222
 Electronic spatial extent (au):  <R**2>=           1707.2579
 Charge=             -0.0000 electrons
 Dipole moment (field-independent basis, Debye):
    X=              0.0830    Y=             -0.0137    Z=             -0.1308  Tot=              0.1555
 Quadrupole moment (field-independent basis, Debye-Ang):
   XX=            -64.9295   YY=            -64.5801   ZZ=            -63.0954
   XY=              2.0771   XZ=             -0.1838   YZ=             -0.3875
 Traceless Quadrupole moment (field-independent basis, Debye-Ang):
   XX=             -0.7278   YY=             -0.3784   ZZ=              1.1062
   XY=              2.0771   XZ=             -0.1838   YZ=             -0.3875
 Octapole moment (field-independent basis, Debye-Ang**2):
  XXX=              3.8710  YYY=              3.3997  ZZZ=              2.6222  XYY=             -2.5405
  XXY=             -1.7339  XXZ=             -2.9635  XZZ=              1.0454  YZZ=              0.4139
  YYZ=             -1.6036  XYZ=              2.1966
 Hexadecapole moment (field-independent basis, Debye-Ang**3):
 XXXX=          -1267.5940 YYYY=           -620.2502 ZZZZ=           -466.0766 XXXY=             12.2139
 XXXZ=             -5.4560 YYYX=              1.4929 YYYZ=             -1.7636 ZZZX=              5.3623
 ZZZY=             -5.0368 XXYY=           -323.6557 XXZZ=           -285.8347 YYZZ=           -179.8042
 XXYZ=              0.9689 YYXZ=             -3.1556 ZZXY=             -2.3768
 N-N= 5.517801209665D+02 E-N=-2.008706791702D+03  KE= 3.881267763519D+02
 No NMR shielding tensors so no spin-rotation constants.
 Leave Link  601 at Wed Jul 14 20:03:56 2021, MaxMem=   524288000 cpu:               5.9 elap:               1.4
 (Enter /opt/gaussian/g16_legacy/l9999.exe)
 1\1\GINC-TRUENO91\FOpt\RM062X\6-31G(d,p)\C10H18\JRAMOS\14-Jul-2021\0\\
 #p opt=loose m062x/6-31g(d,p)\\Conformer number 189. Energy MM = 23.69
 2 kcal/mol\\0,1\C,-0.9468493159,-1.7069633972,-0.2214935498\H,-1.25633
 95034,-2.5357636063,-0.8701707613\H,-1.4682588382,-1.8414412868,0.7310
 979228\C,-1.3292526214,-0.4013079949,-0.8773770773\C,-1.1790146239,-0.
 3825410213,-2.3769358212\H,-1.3651552754,0.6111975281,-2.7905623857\H,
 -0.1700149039,-0.6917621722,-2.677458636\H,-1.8737896079,-1.0881221457
 ,-2.8474249392\C,-1.7313365285,0.6881398132,-0.2145323454\H,-1.9511398
 697,1.5781213682,-0.8055542738\C,-1.9096936774,0.8489342384,1.26600755
 48\H,-2.9190627663,1.2038325224,1.5007993921\H,-1.2077342642,1.5953467
 249,1.6561811796\H,-1.732713327,-0.0772547236,1.8145560993\C,1.7588289
 73,1.0372269435,-0.3636374927\H,2.7995188393,1.3702018432,-0.452849736
 6\H,1.1277365793,1.9308068217,-0.4365932571\H,1.5232815334,0.400088541
 2,-1.2168867772\C,1.5322836499,0.3588810652,0.9606574368\C,1.893904327
 5,1.1965144114,2.158716734\H,1.6908555898,0.6730487139,3.0956564348\H,
 1.3275253745,2.1359609645,2.1592858458\H,2.9550852041,1.471259612,2.13
 91316977\C,1.0357212855,-0.8737373462,1.1069263382\H,0.8919656797,-1.2
 383350423,2.1251481169\C,0.5773701416,-1.8084078911,0.0228521502\H,1.1
 071117639,-1.6154661706,-0.9157815013\H,0.8191661816,-2.8382583137,0.3
 078416515\\Version=EM64L-G16RevA.03\State=1-A\HF=-391.6932361\RMSD=5.0
 05e-09\RMSF=9.930e-06\Dipole=0.0404399,0.0429286,-0.0163086\Quadrupole
 =-1.8183138,1.1659135,0.6524003,0.5627801,-0.296536,0.2457628\PG=C01 [
 X(C10H18)]\\@


 A SCIENTIST IS SOMEONE WHOSE CURIOSITY SURVIVES
 EDUCATION'S ASSAULTS ON IT.
                          - SIR HERMANN BONDI
 Job cpu time:       0 days  2 hours  0 minutes 40.4 seconds.
 Elapsed time:       0 days  0 hours 21 minutes 48.9 seconds.
 File lengths (MBytes):  RWF=     42 Int=      0 D2E=      0 Chk=      6 Scr=      1
 Normal termination of Gaussian 16 at Wed Jul 14 20:03:57 2021.
