 Entering Gaussian System, Link 0=/opt/gaussian/g16_legacy/g16
 Input=IsoP_rdkit_03_166_gaussian.com
 Output=IsoP_rdkit_03_166_gaussian.log
 Initial command:
 /opt/gaussian/g16_legacy/l1.exe "/scratch-local/jramos/2643482/Gau-19865.inp" -scrdir="/scratch-local/jramos/2643482/"
 Entering Link 1 = /opt/gaussian/g16_legacy/l1.exe PID=     19868.
  
 Copyright (c) 1988,1990,1992,1993,1995,1998,2003,2009,2016,
            Gaussian, Inc.  All Rights Reserved.
  
 This is part of the Gaussian(R) 16 program.  It is based on
 the Gaussian(R) 09 system (copyright 2009, Gaussian, Inc.),
 the Gaussian(R) 03 system (copyright 2003, Gaussian, Inc.),
 the Gaussian(R) 98 system (copyright 1998, Gaussian, Inc.),
 the Gaussian(R) 94 system (copyright 1995, Gaussian, Inc.),
 the Gaussian 92(TM) system (copyright 1992, Gaussian, Inc.),
 the Gaussian 90(TM) system (copyright 1990, Gaussian, Inc.),
 the Gaussian 88(TM) system (copyright 1988, Gaussian, Inc.),
 the Gaussian 86(TM) system (copyright 1986, Carnegie Mellon
 University), and the Gaussian 82(TM) system (copyright 1983,
 Carnegie Mellon University). Gaussian is a federally registered
 trademark of Gaussian, Inc.
  
 This software contains proprietary and confidential information,
 including trade secrets, belonging to Gaussian, Inc.
  
 This software is provided under written license and may be
 used, copied, transmitted, or stored only in accord with that
 written license.
  
 The following legend is applicable only to US Government
 contracts under FAR:
  
                    RESTRICTED RIGHTS LEGEND
  
 Use, reproduction and disclosure by the US Government is
 subject to restrictions as set forth in subparagraphs (a)
 and (c) of the Commercial Computer Software - Restricted
 Rights clause in FAR 52.227-19.
  
 Gaussian, Inc.
 340 Quinnipiac St., Bldg. 40, Wallingford CT 06492
  
  
 ---------------------------------------------------------------
 Warning -- This program may not be used in any manner that
 competes with the business of Gaussian, Inc. or will provide
 assistance to any competitor of Gaussian, Inc.  The licensee
 of this program is prohibited from giving any competitor of
 Gaussian, Inc. access to this program.  By using this program,
 the user acknowledges that Gaussian, Inc. is engaged in the
 business of creating and licensing software in the field of
 computational chemistry and represents and warrants to the
 licensee that it is not a competitor of Gaussian, Inc. and that
 it will not use this program in any manner prohibited above.
 ---------------------------------------------------------------
  

 Cite this work as:
 Gaussian 16, Revision A.03,
 M. J. Frisch, G. W. Trucks, H. B. Schlegel, G. E. Scuseria, 
 M. A. Robb, J. R. Cheeseman, G. Scalmani, V. Barone, 
 G. A. Petersson, H. Nakatsuji, X. Li, M. Caricato, A. V. Marenich, 
 J. Bloino, B. G. Janesko, R. Gomperts, B. Mennucci, H. P. Hratchian, 
 J. V. Ortiz, A. F. Izmaylov, J. L. Sonnenberg, D. Williams-Young, 
 F. Ding, F. Lipparini, F. Egidi, J. Goings, B. Peng, A. Petrone, 
 T. Henderson, D. Ranasinghe, V. G. Zakrzewski, J. Gao, N. Rega, 
 G. Zheng, W. Liang, M. Hada, M. Ehara, K. Toyota, R. Fukuda, 
 J. Hasegawa, M. Ishida, T. Nakajima, Y. Honda, O. Kitao, H. Nakai, 
 T. Vreven, K. Throssell, J. A. Montgomery, Jr., J. E. Peralta, 
 F. Ogliaro, M. J. Bearpark, J. J. Heyd, E. N. Brothers, K. N. Kudin, 
 V. N. Staroverov, T. A. Keith, R. Kobayashi, J. Normand, 
 K. Raghavachari, A. P. Rendell, J. C. Burant, S. S. Iyengar, 
 J. Tomasi, M. Cossi, J. M. Millam, M. Klene, C. Adamo, R. Cammi, 
 J. W. Ochterski, R. L. Martin, K. Morokuma, O. Farkas, 
 J. B. Foresman, and D. J. Fox, Gaussian, Inc., Wallingford CT, 2016.
 
 ******************************************
 Gaussian 16:  EM64L-G16RevA.03 25-Dec-2016
                14-Jul-2021 
 ******************************************
 %chk=IsoP_rdkit_03_166_gaussian.chk
 %nproc=6
 Will use up to    6 processors via shared memory.
 %mem=4000Mb
 -----------------------------
 #p opt=loose m062x/6-31g(d,p)
 -----------------------------
 1/7=-1,18=20,19=15,26=3,38=1/1,3;
 2/9=110,12=2,17=6,18=5,40=1/2;
 3/5=1,6=6,7=101,11=2,25=1,30=1,71=1,74=-55/1,2,3;
 4//1;
 5/5=2,38=5/2;
 6/7=2,8=2,9=2,10=2,28=1/1;
 7//1,2,3,16;
 1/7=-1,18=20,19=15,26=3/3(2);
 2/9=110/2;
 99//99;
 2/9=110/2;
 3/5=1,6=6,7=101,11=2,25=1,30=1,71=1,74=-55/1,2,3;
 4/5=5,16=3,69=1/1;
 5/5=2,38=5/2;
 7//1,2,3,16;
 1/7=-1,18=20,19=15,26=3/3(-5);
 2/9=110/2;
 6/7=2,8=2,9=2,10=2,19=2,28=1/1;
 99/9=1/99;
 Leave Link    1 at Wed Jul 14 19:42:03 2021, MaxMem=   524288000 cpu:               1.7 elap:               0.4
 (Enter /opt/gaussian/g16_legacy/l101.exe)
 -------------------------------------------------
 Conformer number 166. Energy MM = 23.242 kcal/mol
 -------------------------------------------------
 Symbolic Z-matrix:
 Charge =  0 Multiplicity = 1
 C                    -0.8549    0.8312   -0.0216 
 H                    -0.8725    0.5456    1.037 
 H                    -0.8468    1.9295   -0.0167 
 C                    -2.1079    0.3501   -0.7239 
 C                    -2.5413    1.1862   -1.9007 
 H                    -3.4553    0.8036   -2.3672 
 H                    -2.738     2.2154   -1.5832 
 H                    -1.7607    1.2012   -2.6678 
 C                    -2.8272   -0.725    -0.3455 
 H                    -3.7278   -0.9735   -0.9063 
 C                    -2.529    -1.6721    0.7737 
 H                    -2.5471   -2.6996    0.396 
 H                    -1.5503   -1.5115    1.2313 
 H                    -3.2938   -1.5815    1.5508 
 C                     2.2146   -1.3013    1.3198 
 H                     2.2189   -1.3533    2.4139 
 H                     3.0096   -1.9518    0.9411 
 H                     1.2577   -1.7106    0.9883 
 C                     2.4473    0.1148    0.8699 
 C                     3.6719    0.7604    1.4641 
 H                     3.5922    0.7929    2.5556 
 H                     3.8141    1.787     1.1105 
 H                     4.5675    0.1901    1.1967 
 C                     1.654     0.7975    0.0213 
 H                     1.9149    1.8287   -0.2172 
 C                     0.4203    0.3004   -0.6841 
 H                     0.4718    0.639    -1.7267 
 H                     0.3979   -0.7933   -0.7317 
 
 ITRead=  0  0  0  0  0  0  0  0  0  0  0  0  0  0  0  0  0  0  0  0
 ITRead=  0  0  0  0  0  0  0  0
 MicOpt= -1 -1 -1 -1 -1 -1 -1 -1 -1 -1 -1 -1 -1 -1 -1 -1 -1 -1 -1 -1
 MicOpt= -1 -1 -1 -1 -1 -1 -1 -1
 NAtoms=     28 NQM=       28 NQMF=       0 NMMI=      0 NMMIF=      0
                NMic=       0 NMicF=      0.
                    Isotopes and Nuclear Properties:
 (Nuclear quadrupole moments (NQMom) in fm**2, nuclear magnetic moments (NMagM)
  in nuclear magnetons)

  Atom         1           2           3           4           5           6           7           8           9          10
 IAtWgt=          12           1           1          12          12           1           1           1          12           1
 AtmWgt=  12.0000000   1.0078250   1.0078250  12.0000000  12.0000000   1.0078250   1.0078250   1.0078250  12.0000000   1.0078250
 NucSpn=           0           1           1           0           0           1           1           1           0           1
 AtZEff=  -0.0000000  -0.0000000  -0.0000000  -0.0000000  -0.0000000  -0.0000000  -0.0000000  -0.0000000  -0.0000000  -0.0000000
 NQMom=    0.0000000   0.0000000   0.0000000   0.0000000   0.0000000   0.0000000   0.0000000   0.0000000   0.0000000   0.0000000
 NMagM=    0.0000000   2.7928460   2.7928460   0.0000000   0.0000000   2.7928460   2.7928460   2.7928460   0.0000000   2.7928460
 AtZNuc=   6.0000000   1.0000000   1.0000000   6.0000000   6.0000000   1.0000000   1.0000000   1.0000000   6.0000000   1.0000000

  Atom        11          12          13          14          15          16          17          18          19          20
 IAtWgt=          12           1           1           1          12           1           1           1          12          12
 AtmWgt=  12.0000000   1.0078250   1.0078250   1.0078250  12.0000000   1.0078250   1.0078250   1.0078250  12.0000000  12.0000000
 NucSpn=           0           1           1           1           0           1           1           1           0           0
 AtZEff=  -0.0000000  -0.0000000  -0.0000000  -0.0000000  -0.0000000  -0.0000000  -0.0000000  -0.0000000  -0.0000000  -0.0000000
 NQMom=    0.0000000   0.0000000   0.0000000   0.0000000   0.0000000   0.0000000   0.0000000   0.0000000   0.0000000   0.0000000
 NMagM=    0.0000000   2.7928460   2.7928460   2.7928460   0.0000000   2.7928460   2.7928460   2.7928460   0.0000000   0.0000000
 AtZNuc=   6.0000000   1.0000000   1.0000000   1.0000000   6.0000000   1.0000000   1.0000000   1.0000000   6.0000000   6.0000000

  Atom        21          22          23          24          25          26          27          28
 IAtWgt=           1           1           1          12           1          12           1           1
 AtmWgt=   1.0078250   1.0078250   1.0078250  12.0000000   1.0078250  12.0000000   1.0078250   1.0078250
 NucSpn=           1           1           1           0           1           0           1           1
 AtZEff=  -0.0000000  -0.0000000  -0.0000000  -0.0000000  -0.0000000  -0.0000000  -0.0000000  -0.0000000
 NQMom=    0.0000000   0.0000000   0.0000000   0.0000000   0.0000000   0.0000000   0.0000000   0.0000000
 NMagM=    2.7928460   2.7928460   2.7928460   0.0000000   2.7928460   0.0000000   2.7928460   2.7928460
 AtZNuc=   1.0000000   1.0000000   1.0000000   6.0000000   1.0000000   6.0000000   1.0000000   1.0000000
 Leave Link  101 at Wed Jul 14 19:42:05 2021, MaxMem=   524288000 cpu:               1.9 elap:               1.0
 (Enter /opt/gaussian/g16_legacy/l103.exe)

 GradGradGradGradGradGradGradGradGradGradGradGradGradGradGradGradGradGrad
 Berny optimization.
 Initialization pass.
                           ----------------------------
                           !    Initial Parameters    !
                           ! (Angstroms and Degrees)  !
 --------------------------                            --------------------------
 ! Name  Definition              Value          Derivative Info.                !
 --------------------------------------------------------------------------------
 ! R1    R(1,2)                  1.0966         estimate D2E/DX2                !
 ! R2    R(1,3)                  1.0983         estimate D2E/DX2                !
 ! R3    R(1,4)                  1.5148         estimate D2E/DX2                !
 ! R4    R(1,26)                 1.5319         estimate D2E/DX2                !
 ! R5    R(4,5)                  1.5072         estimate D2E/DX2                !
 ! R6    R(4,9)                  1.3477         estimate D2E/DX2                !
 ! R7    R(5,6)                  1.0952         estimate D2E/DX2                !
 ! R8    R(5,7)                  1.0949         estimate D2E/DX2                !
 ! R9    R(5,8)                  1.0945         estimate D2E/DX2                !
 ! R10   R(9,10)                 1.0896         estimate D2E/DX2                !
 ! R11   R(9,11)                 1.4962         estimate D2E/DX2                !
 ! R12   R(11,12)                1.0949         estimate D2E/DX2                !
 ! R13   R(11,13)                1.0923         estimate D2E/DX2                !
 ! R14   R(11,14)                1.0941         estimate D2E/DX2                !
 ! R15   R(15,16)                1.0953         estimate D2E/DX2                !
 ! R16   R(15,17)                1.0948         estimate D2E/DX2                !
 ! R17   R(15,18)                1.0923         estimate D2E/DX2                !
 ! R18   R(15,19)                1.504          estimate D2E/DX2                !
 ! R19   R(19,20)                1.5065         estimate D2E/DX2                !
 ! R20   R(19,24)                1.3474         estimate D2E/DX2                !
 ! R21   R(20,21)                1.0949         estimate D2E/DX2                !
 ! R22   R(20,22)                1.0951         estimate D2E/DX2                !
 ! R23   R(20,23)                1.0949         estimate D2E/DX2                !
 ! R24   R(24,25)                1.0901         estimate D2E/DX2                !
 ! R25   R(24,26)                1.5056         estimate D2E/DX2                !
 ! R26   R(26,27)                1.0974         estimate D2E/DX2                !
 ! R27   R(26,28)                1.095          estimate D2E/DX2                !
 ! A1    A(2,1,3)              104.8474         estimate D2E/DX2                !
 ! A2    A(2,1,4)              110.5831         estimate D2E/DX2                !
 ! A3    A(2,1,26)             109.9134         estimate D2E/DX2                !
 ! A4    A(3,1,4)              109.0111         estimate D2E/DX2                !
 ! A5    A(3,1,26)             110.0152         estimate D2E/DX2                !
 ! A6    A(4,1,26)             112.2098         estimate D2E/DX2                !
 ! A7    A(1,4,5)              115.0651         estimate D2E/DX2                !
 ! A8    A(1,4,9)              124.3771         estimate D2E/DX2                !
 ! A9    A(5,4,9)              120.5475         estimate D2E/DX2                !
 ! A10   A(4,5,6)              112.2569         estimate D2E/DX2                !
 ! A11   A(4,5,7)              110.2854         estimate D2E/DX2                !
 ! A12   A(4,5,8)              110.4707         estimate D2E/DX2                !
 ! A13   A(6,5,7)              107.5768         estimate D2E/DX2                !
 ! A14   A(6,5,8)              107.545          estimate D2E/DX2                !
 ! A15   A(7,5,8)              108.5711         estimate D2E/DX2                !
 ! A16   A(4,9,10)             118.5896         estimate D2E/DX2                !
 ! A17   A(4,9,11)             127.4891         estimate D2E/DX2                !
 ! A18   A(10,9,11)            113.9135         estimate D2E/DX2                !
 ! A19   A(9,11,12)            109.4337         estimate D2E/DX2                !
 ! A20   A(9,11,13)            113.5095         estimate D2E/DX2                !
 ! A21   A(9,11,14)            109.8509         estimate D2E/DX2                !
 ! A22   A(12,11,13)           107.2969         estimate D2E/DX2                !
 ! A23   A(12,11,14)           108.1306         estimate D2E/DX2                !
 ! A24   A(13,11,14)           108.4581         estimate D2E/DX2                !
 ! A25   A(16,15,17)           108.328          estimate D2E/DX2                !
 ! A26   A(16,15,18)           106.7861         estimate D2E/DX2                !
 ! A27   A(16,15,19)           110.0535         estimate D2E/DX2                !
 ! A28   A(17,15,18)           107.9705         estimate D2E/DX2                !
 ! A29   A(17,15,19)           110.0982         estimate D2E/DX2                !
 ! A30   A(18,15,19)           113.4276         estimate D2E/DX2                !
 ! A31   A(15,19,20)           114.2861         estimate D2E/DX2                !
 ! A32   A(15,19,24)           125.0562         estimate D2E/DX2                !
 ! A33   A(20,19,24)           120.6549         estimate D2E/DX2                !
 ! A34   A(19,20,21)           110.2889         estimate D2E/DX2                !
 ! A35   A(19,20,22)           112.3305         estimate D2E/DX2                !
 ! A36   A(19,20,23)           110.2042         estimate D2E/DX2                !
 ! A37   A(21,20,22)           107.6697         estimate D2E/DX2                !
 ! A38   A(21,20,23)           108.5702         estimate D2E/DX2                !
 ! A39   A(22,20,23)           107.6512         estimate D2E/DX2                !
 ! A40   A(19,24,25)           118.436          estimate D2E/DX2                !
 ! A41   A(19,24,26)           127.6063         estimate D2E/DX2                !
 ! A42   A(25,24,26)           113.9504         estimate D2E/DX2                !
 ! A43   A(1,26,24)            111.4126         estimate D2E/DX2                !
 ! A44   A(1,26,27)            110.0609         estimate D2E/DX2                !
 ! A45   A(1,26,28)            110.3567         estimate D2E/DX2                !
 ! A46   A(24,26,27)           107.7461         estimate D2E/DX2                !
 ! A47   A(24,26,28)           111.5261         estimate D2E/DX2                !
 ! A48   A(27,26,28)           105.5362         estimate D2E/DX2                !
 ! D1    D(2,1,4,5)            151.415          estimate D2E/DX2                !
 ! D2    D(2,1,4,9)            -27.4169         estimate D2E/DX2                !
 ! D3    D(3,1,4,5)             36.6499         estimate D2E/DX2                !
 ! D4    D(3,1,4,9)           -142.182          estimate D2E/DX2                !
 ! D5    D(26,1,4,5)           -85.4707         estimate D2E/DX2                !
 ! D6    D(26,1,4,9)            95.6974         estimate D2E/DX2                !
 ! D7    D(2,1,26,24)          -56.9397         estimate D2E/DX2                !
 ! D8    D(2,1,26,27)         -176.3952         estimate D2E/DX2                !
 ! D9    D(2,1,26,28)           67.5242         estimate D2E/DX2                !
 ! D10   D(3,1,26,24)           58.0225         estimate D2E/DX2                !
 ! D11   D(3,1,26,27)          -61.433          estimate D2E/DX2                !
 ! D12   D(3,1,26,28)         -177.5136         estimate D2E/DX2                !
 ! D13   D(4,1,26,24)          179.5699         estimate D2E/DX2                !
 ! D14   D(4,1,26,27)           60.1144         estimate D2E/DX2                !
 ! D15   D(4,1,26,28)          -55.9662         estimate D2E/DX2                !
 ! D16   D(1,4,5,6)           -179.4404         estimate D2E/DX2                !
 ! D17   D(1,4,5,7)            -59.4974         estimate D2E/DX2                !
 ! D18   D(1,4,5,8)             60.5296         estimate D2E/DX2                !
 ! D19   D(9,4,5,6)             -0.5599         estimate D2E/DX2                !
 ! D20   D(9,4,5,7)            119.3832         estimate D2E/DX2                !
 ! D21   D(9,4,5,8)           -120.5899         estimate D2E/DX2                !
 ! D22   D(1,4,9,10)           178.6067         estimate D2E/DX2                !
 ! D23   D(1,4,9,11)            -2.4802         estimate D2E/DX2                !
 ! D24   D(5,4,9,10)            -0.1647         estimate D2E/DX2                !
 ! D25   D(5,4,9,11)           178.7484         estimate D2E/DX2                !
 ! D26   D(4,9,11,12)         -127.7491         estimate D2E/DX2                !
 ! D27   D(4,9,11,13)           -7.9273         estimate D2E/DX2                !
 ! D28   D(4,9,11,14)          113.6826         estimate D2E/DX2                !
 ! D29   D(10,9,11,12)          51.207          estimate D2E/DX2                !
 ! D30   D(10,9,11,13)         171.0288         estimate D2E/DX2                !
 ! D31   D(10,9,11,14)         -67.3614         estimate D2E/DX2                !
 ! D32   D(16,15,19,20)         52.7855         estimate D2E/DX2                !
 ! D33   D(16,15,19,24)       -126.6021         estimate D2E/DX2                !
 ! D34   D(17,15,19,20)        -66.5568         estimate D2E/DX2                !
 ! D35   D(17,15,19,24)        114.0556         estimate D2E/DX2                !
 ! D36   D(18,15,19,20)        172.3385         estimate D2E/DX2                !
 ! D37   D(18,15,19,24)         -7.0491         estimate D2E/DX2                !
 ! D38   D(15,19,20,21)        -60.2571         estimate D2E/DX2                !
 ! D39   D(15,19,20,22)        179.6308         estimate D2E/DX2                !
 ! D40   D(15,19,20,23)         59.6004         estimate D2E/DX2                !
 ! D41   D(24,19,20,21)        119.1601         estimate D2E/DX2                !
 ! D42   D(24,19,20,22)         -0.952          estimate D2E/DX2                !
 ! D43   D(24,19,20,23)       -120.9823         estimate D2E/DX2                !
 ! D44   D(15,19,24,25)        178.8302         estimate D2E/DX2                !
 ! D45   D(15,19,24,26)         -2.215          estimate D2E/DX2                !
 ! D46   D(20,19,24,25)         -0.5209         estimate D2E/DX2                !
 ! D47   D(20,19,24,26)        178.4339         estimate D2E/DX2                !
 ! D48   D(19,24,26,1)         103.3663         estimate D2E/DX2                !
 ! D49   D(19,24,26,27)       -135.8127         estimate D2E/DX2                !
 ! D50   D(19,24,26,28)        -20.4374         estimate D2E/DX2                !
 ! D51   D(25,24,26,1)         -77.6394         estimate D2E/DX2                !
 ! D52   D(25,24,26,27)         43.1816         estimate D2E/DX2                !
 ! D53   D(25,24,26,28)        158.5569         estimate D2E/DX2                !
 --------------------------------------------------------------------------------
 Trust Radius=3.00D-01 FncErr=1.00D-07 GrdErr=1.00D-06 EigMax=2.50D+02 EigMin=1.00D-04
 Number of steps in this run=    138 maximum allowed number of steps=    168.
 GradGradGradGradGradGradGradGradGradGradGradGradGradGradGradGradGradGrad

 Leave Link  103 at Wed Jul 14 19:42:05 2021, MaxMem=   524288000 cpu:               0.5 elap:               0.2
 (Enter /opt/gaussian/g16_legacy/l202.exe)
                          Input orientation:                          
 ---------------------------------------------------------------------
 Center     Atomic      Atomic             Coordinates (Angstroms)
 Number     Number       Type             X           Y           Z
 ---------------------------------------------------------------------
      1          6           0       -0.854900    0.831200   -0.021600
      2          1           0       -0.872500    0.545600    1.037000
      3          1           0       -0.846800    1.929500   -0.016700
      4          6           0       -2.107900    0.350100   -0.723900
      5          6           0       -2.541300    1.186200   -1.900700
      6          1           0       -3.455300    0.803600   -2.367200
      7          1           0       -2.738000    2.215400   -1.583200
      8          1           0       -1.760700    1.201200   -2.667800
      9          6           0       -2.827200   -0.725000   -0.345500
     10          1           0       -3.727800   -0.973500   -0.906300
     11          6           0       -2.529000   -1.672100    0.773700
     12          1           0       -2.547100   -2.699600    0.396000
     13          1           0       -1.550300   -1.511500    1.231300
     14          1           0       -3.293800   -1.581500    1.550800
     15          6           0        2.214600   -1.301300    1.319800
     16          1           0        2.218900   -1.353300    2.413900
     17          1           0        3.009600   -1.951800    0.941100
     18          1           0        1.257700   -1.710600    0.988300
     19          6           0        2.447300    0.114800    0.869900
     20          6           0        3.671900    0.760400    1.464100
     21          1           0        3.592200    0.792900    2.555600
     22          1           0        3.814100    1.787000    1.110500
     23          1           0        4.567500    0.190100    1.196700
     24          6           0        1.654000    0.797500    0.021300
     25          1           0        1.914900    1.828700   -0.217200
     26          6           0        0.420300    0.300400   -0.684100
     27          1           0        0.471800    0.639000   -1.726700
     28          1           0        0.397900   -0.793300   -0.731700
 ---------------------------------------------------------------------
                    Distance matrix (angstroms):
                    1          2          3          4          5
     1  C    0.000000
     2  H    1.096591   0.000000
     3  H    1.098341   1.739576   0.000000
     4  C    1.514824   2.159908   2.141264   0.000000
     5  C    2.549703   3.438800   2.640697   1.507235   0.000000
     6  H    3.502097   4.280887   3.687380   2.172921   1.095172
     7  H    2.810813   3.624054   2.472306   2.148201   1.094874
     8  H    2.821303   3.865780   2.897234   2.150271   1.094534
     9  C    2.533108   2.710458   3.328132   1.347746   2.480539
    10  H    3.506165   3.773171   4.185565   2.099824   2.657239
    11  C    3.114743   2.780560   4.052907   2.551357   3.914390
    12  H    3.937573   3.707626   4.948728   3.278375   4.513791
    13  H    2.746194   2.174586   3.727318   2.756679   4.250775
    14  H    3.773830   3.263624   4.557629   3.211183   4.487680
    15  C    3.970987   3.608490   4.647200   5.058442   6.259222
    16  H    4.489092   3.880519   5.107162   5.609684   6.908280
    17  H    4.858625   4.617023   5.554610   5.853185   6.981072
    18  H    3.455969   3.103315   4.323109   4.301788   5.583025
    19  C    3.494642   3.351803   3.863973   4.831709   5.806053
    20  C    4.764896   4.569478   4.896755   6.193689   7.078633
    21  H    5.140051   4.722378   5.254837   6.591080   7.591648
    22  H    4.898445   4.848783   4.797382   6.363944   7.058286
    23  H    5.594433   5.453942   5.814851   6.948041   7.818001
    24  C    2.509493   2.734648   2.745336   3.861008   4.630952
    25  H    2.950433   3.314960   2.770803   4.315776   4.806735
    26  C    1.531924   2.166481   2.169086   2.529002   3.322022
    27  H    2.168972   3.074720   2.515591   2.782791   3.067324
    28  H    2.170887   2.556339   3.078010   2.754353   3.731471
                    6          7          8          9         10
     6  H    0.000000
     7  H    1.767019   0.000000
     8  H    1.766385   1.777660   0.000000
     9  C    2.611206   3.191522   3.200117   0.000000
    10  H    2.316586   3.406902   3.420773   1.089646   0.000000
    11  C    4.105164   4.550969   4.548633   1.496172   2.178890
    12  H    4.553297   5.301971   5.022105   2.127751   2.463627
    13  H    4.683793   4.818903   4.754576   2.176087   3.098433
    14  H    4.589718   4.954525   5.281136   2.132431   2.568143
    15  C    7.083244   6.732224   6.161694   5.340889   6.354140
    16  H    7.727075   7.299540   6.941640   5.785514   6.821379
    17  H    7.767368   7.534756   6.761755   6.101525   7.054255
    18  H    6.308165   6.163741   5.563846   4.408723   5.384054
    19  C    6.767123   6.108810   5.603825   5.477482   6.516989
    20  C    8.091830   7.244990   6.839594   6.907921   7.961204
    21  H    8.596588   7.695752   7.490271   7.206185   8.287781
    22  H    8.118229   7.097152   6.759964   7.248237   8.280586
    23  H    8.800175   8.074653   7.483502   7.609033   8.636468
    24  C    5.640028   4.886156   4.365136   4.746968   5.741137
    25  H    5.874724   4.864666   4.461976   5.387519   6.337764
    26  C    4.255151   3.801377   3.082737   3.422331   4.344989
    27  H    3.982392   3.578889   2.487126   3.827742   4.572729
    28  H    4.480190   4.428453   3.519385   3.248859   4.133323
                   11         12         13         14         15
    11  C    0.000000
    12  H    1.094870   0.000000
    13  H    1.092265   1.761510   0.000000
    14  H    1.094080   1.772363   1.773914   0.000000
    15  C    4.789307   5.048013   3.771802   5.520357   0.000000
    16  H    5.033333   5.347822   3.953535   5.584521   1.095343
    17  H    5.548184   5.633228   4.590291   6.343635   1.094801
    18  H    3.792971   3.975606   2.825518   4.587943   1.092280
    19  C    5.288273   5.752344   4.330851   6.025055   1.503961
    20  C    6.696631   7.196416   5.699745   7.349353   2.528864
    21  H    6.835238   7.385962   5.788725   7.352849   2.794755
    22  H    7.232823   7.816966   6.298530   7.878001   3.484222
    23  H    7.348948   7.720688   6.350127   8.066225   2.788470
    24  C    4.915539   5.478992   4.130753   5.699100   2.530877
    25  H    5.743321   6.386780   5.026201   6.471927   3.499870
    26  C    3.835923   4.355695   3.291657   4.725554   3.130586
    27  H    4.538500   4.976531   4.178912   5.463732   4.010396
    28  H    3.406650   3.684930   2.857388   4.411317   2.786954
                   16         17         18         19         20
    16  H    0.000000
    17  H    1.775542   0.000000
    18  H    1.756105   1.769056   0.000000
    19  C    2.142760   2.142915   2.182029   0.000000
    20  C    2.735152   2.840458   3.487204   1.506492   0.000000
    21  H    2.551902   3.237192   3.764815   2.147603   1.094888
    22  H    3.755662   3.828125   4.333973   2.173082   1.095062
    23  H    3.062610   2.660849   3.822416   2.146559   1.094917
    24  C    3.266433   3.200365   2.717114   1.347415   2.480921
    25  H    4.140076   4.102707   3.796286   2.098259   2.656141
    26  C    3.945540   3.797124   2.746321   2.560877   3.924190
    27  H    4.915912   4.502203   3.675525   3.304500   4.520684
    28  H    3.677559   3.310794   2.130515   2.754961   4.237287
                   21         22         23         24         25
    21  H    0.000000
    22  H    1.767990   0.000000
    23  H    1.777973   1.767804   0.000000
    24  C    3.190504   2.613714   3.199841   0.000000
    25  H    3.402152   2.317647   3.423508   1.090103   0.000000
    26  C    4.560610   4.116849   4.555090   1.505561   2.188042
    27  H    5.300818   4.531951   5.051983   2.116181   2.403438
    28  H    4.850353   4.660694   4.698017   2.162277   3.072602
                   26         27         28
    26  C    0.000000
    27  H    1.097414   0.000000
    28  H    1.094964   1.745557   0.000000
 Stoichiometry    C10H18
 Framework group  C1[X(C10H18)]
 Deg. of freedom    78
 Full point group                 C1      NOp   1
 Largest Abelian subgroup         C1      NOp   1
 Largest concise Abelian subgroup C1      NOp   1
                         Standard orientation:                         
 ---------------------------------------------------------------------
 Center     Atomic      Atomic             Coordinates (Angstroms)
 Number     Number       Type             X           Y           Z
 ---------------------------------------------------------------------
      1          6           0        0.793774   -0.586546    0.589144
      2          1           0        0.484612    0.235258    1.246083
      3          1           0        0.746051   -1.484362    1.220017
      4          6           0        2.220903   -0.386929    0.122082
      5          6           0        2.975680   -1.655007   -0.184587
      6          1           0        4.003281   -1.458157   -0.508144
      7          1           0        3.025291   -2.291727    0.704725
      8          1           0        2.478757   -2.212203   -0.984964
      9          6           0        2.820206    0.813884   -0.001625
     10          1           0        3.860325    0.846728   -0.324740
     11          6           0        2.215721    2.161932    0.234796
     12          1           0        2.388714    2.797228   -0.639969
     13          1           0        1.137409    2.131917    0.406222
     14          1           0        2.690797    2.635747    1.098980
     15          6           0       -2.465997    1.425950   -0.456081
     16          1           0       -2.815363    2.072722    0.355959
     17          1           0       -3.076467    1.626149   -1.342554
     18          1           0       -1.439635    1.725936   -0.678940
     19          6           0       -2.593420   -0.018274   -0.056232
     20          6           0       -3.965104   -0.407946    0.429727
     21          1           0       -4.237001    0.181203    1.311631
     22          1           0       -4.023663   -1.466006    0.705845
     23          1           0       -4.709034   -0.227455   -0.353112
     24          6           0       -1.596317   -0.923598   -0.097453
     25          1           0       -1.804044   -1.940167    0.236855
     26          6           0       -0.185934   -0.715583   -0.581459
     27          1           0        0.084168   -1.577184   -1.205162
     28          1           0       -0.111273    0.157075   -1.238605
 ---------------------------------------------------------------------
 Rotational constants (GHZ):           2.2180800           0.5802311           0.4854217
 Leave Link  202 at Wed Jul 14 19:42:06 2021, MaxMem=   524288000 cpu:               4.2 elap:               1.3
 (Enter /opt/gaussian/g16_legacy/l301.exe)
 Standard basis: 6-31G(d,p) (6D, 7F)
 Ernie: Thresh=  0.10000D-02 Tol=  0.10000D-05 Strict=F.
 There are   240 symmetry adapted cartesian basis functions of A   symmetry.
 There are   240 symmetry adapted basis functions of A   symmetry.
   240 basis functions,   406 primitive gaussians,   240 cartesian basis functions
    39 alpha electrons       39 beta electrons
       nuclear repulsion energy       516.4351161358 Hartrees.
 IExCor= 4336 DFT=T Ex+Corr=M062X ExCW=0 ScaHFX=  0.540000
 ScaDFX=  1.000000  1.000000  1.000000  1.000000 ScalE2=  1.000000  1.000000
 IRadAn=      5 IRanWt=     -1 IRanGd=            0 ICorTp=0 IEmpDi=  4
 NAtoms=   28 NActive=   28 NUniq=   28 SFac= 1.00D+00 NAtFMM=   60 NAOKFM=F Big=F
 Integral buffers will be    131072 words long.
 Raffenetti 2 integral format.
 Two-electron integral symmetry is turned on.
 Leave Link  301 at Wed Jul 14 19:42:07 2021, MaxMem=   524288000 cpu:               1.0 elap:               0.4
 (Enter /opt/gaussian/g16_legacy/l302.exe)
 NPDir=0 NMtPBC=     1 NCelOv=     1 NCel=       1 NClECP=     1 NCelD=      1
         NCelK=      1 NCelE2=     1 NClLst=     1 CellRange=     0.0.
 One-electron integrals computed using PRISM.
 One-electron integral symmetry used in STVInt
 NBasis=   240 RedAO= T EigKep=  2.10D-03  NBF=   240
 NBsUse=   240 1.00D-06 EigRej= -1.00D+00 NBFU=   240
 Precomputing XC quadrature grid using
 IXCGrd= 4 IRadAn=           5 IRanWt=          -1 IRanGd=           0 AccXCQ= 0.00D+00.
 Generated NRdTot=       0 NPtTot=           0 NUsed=           0 NTot=          32
 NSgBfM=   240   240   240   240   240 MxSgAt=    28 MxSgA2=    28.
 Leave Link  302 at Wed Jul 14 19:42:10 2021, MaxMem=   524288000 cpu:               9.3 elap:               2.6
 (Enter /opt/gaussian/g16_legacy/l303.exe)
 DipDrv:  MaxL=1.
 Leave Link  303 at Wed Jul 14 19:42:11 2021, MaxMem=   524288000 cpu:               0.4 elap:               0.1
 (Enter /opt/gaussian/g16_legacy/l401.exe)
 ExpMin= 1.61D-01 ExpMax= 3.05D+03 ExpMxC= 4.57D+02 IAcc=3 IRadAn=         5 AccDes= 0.00D+00
 Harris functional with IExCor= 1009 and IRadAn=       5 diagonalized for initial guess.
 HarFok:  IExCor= 1009 AccDes= 0.00D+00 IRadAn=         5 IDoV= 1 UseB2=F ITyADJ=14
 ICtDFT=  3500011 ScaDFX=  1.000000  1.000000  1.000000  1.000000
 FoFCou: FMM=F IPFlag=           0 FMFlag=      100000 FMFlg1=           0
         NFxFlg=           0 DoJE=T BraDBF=F KetDBF=T FulRan=T
         wScrn=  0.000000 ICntrl=       500 IOpCl=  0 I1Cent=   200000004 NGrid=           0
         NMat0=    1 NMatS0=      1 NMatT0=    0 NMatD0=    1 NMtDS0=    0 NMtDT0=    0
 Petite list used in FoFCou.
 Harris En= -391.655467356886    
 JPrj=0 DoOrth=F DoCkMO=F.
 Leave Link  401 at Wed Jul 14 19:42:16 2021, MaxMem=   524288000 cpu:              23.9 elap:               5.2
 (Enter /opt/gaussian/g16_legacy/l502.exe)
 Integral symmetry usage will be decided dynamically.
 Closed shell SCF:
 Using DIIS extrapolation, IDIIS=  1040.
 NGot=   524288000 LenX=   524168546 LenY=   524110505
 Requested convergence on RMS density matrix=1.00D-08 within 128 cycles.
 Requested convergence on MAX density matrix=1.00D-06.
 Requested convergence on             energy=1.00D-06.
 No special actions if energy rises.
 Fock matrices will be formed incrementally for  20 cycles.
 Integral accuracy reduced to 1.0D-05 until final iterations.

 Cycle   1  Pass 0  IDiag  1:
 FoFJK:  IHMeth= 1 ICntrl=       0 DoSepK=F KAlg= 0 I1Cent=           0 FoldK=F
 IRaf= 860000000 NMat=       1 IRICut=       1 DoRegI=T DoRafI=F ISym2E= 0 IDoP0=0 IntGTp=1.
 FoFCou: FMM=F IPFlag=           0 FMFlag=      100000 FMFlg1=           0
         NFxFlg=           0 DoJE=F BraDBF=F KetDBF=F FulRan=T
         wScrn=  0.000000 ICntrl=         0 IOpCl=  0 I1Cent=           0 NGrid=           0
         NMat0=    1 NMatS0=      1 NMatT0=    0 NMatD0=    1 NMtDS0=    0 NMtDT0=    0
 Symmetry not used in FoFCou.
 E= -391.299474548666    
 DIIS: error= 3.62D-02 at cycle   1 NSaved=   1.
 NSaved= 1 IEnMin= 1 EnMin= -391.299474548666     IErMin= 1 ErrMin= 3.62D-02
 ErrMax= 3.62D-02  0.00D+00 EMaxC= 1.00D-01 BMatC= 3.69D-01 BMatP= 3.69D-01
 IDIUse=3 WtCom= 6.38D-01 WtEn= 3.62D-01
 Coeff-Com:  0.100D+01
 Coeff-En:   0.100D+01
 Coeff:      0.100D+01
 Gap=     0.340 Goal=   None    Shift=    0.000
 GapD=    0.340 DampG=1.000 DampE=0.500 DampFc=0.5000 IDamp=-1.
 Damping current iteration by 5.00D-01
 RMSDP=4.37D-03 MaxDP=1.14D-01              OVMax= 1.41D-01

 Cycle   2  Pass 0  IDiag  1:
 RMSU=  2.14D-03    CP:  9.75D-01
 E= -391.508207800749     Delta-E=       -0.208733252083 Rises=F Damp=T
 DIIS: error= 9.75D-03 at cycle   2 NSaved=   2.
 NSaved= 2 IEnMin= 2 EnMin= -391.508207800749     IErMin= 2 ErrMin= 9.75D-03
 ErrMax= 9.75D-03  0.00D+00 EMaxC= 1.00D-01 BMatC= 2.10D-02 BMatP= 3.69D-01
 IDIUse=3 WtCom= 9.02D-01 WtEn= 9.75D-02
 Coeff-Com: -0.153D+00 0.115D+01
 Coeff-En:   0.000D+00 0.100D+01
 Coeff:     -0.138D+00 0.114D+01
 Gap=     0.374 Goal=   None    Shift=    0.000
 RMSDP=8.31D-04 MaxDP=2.64D-02 DE=-2.09D-01 OVMax= 6.19D-02

 Cycle   3  Pass 0  IDiag  1:
 RMSU=  7.85D-04    CP:  9.69D-01  1.12D+00
 E= -391.687884426833     Delta-E=       -0.179676626084 Rises=F Damp=F
 DIIS: error= 1.35D-03 at cycle   3 NSaved=   3.
 NSaved= 3 IEnMin= 3 EnMin= -391.687884426833     IErMin= 3 ErrMin= 1.35D-03
 ErrMax= 1.35D-03  0.00D+00 EMaxC= 1.00D-01 BMatC= 6.06D-04 BMatP= 2.10D-02
 IDIUse=3 WtCom= 9.86D-01 WtEn= 1.35D-02
 Coeff-Com: -0.271D-01 0.123D+00 0.904D+00
 Coeff-En:   0.000D+00 0.000D+00 0.100D+01
 Coeff:     -0.267D-01 0.121D+00 0.906D+00
 Gap=     0.338 Goal=   None    Shift=    0.000
 RMSDP=1.86D-04 MaxDP=5.90D-03 DE=-1.80D-01 OVMax= 7.14D-03

 Cycle   4  Pass 0  IDiag  1:
 RMSU=  1.67D-04    CP:  9.68D-01  1.15D+00  9.36D-01
 E= -391.688278945189     Delta-E=       -0.000394518356 Rises=F Damp=F
 DIIS: error= 6.82D-04 at cycle   4 NSaved=   4.
 NSaved= 4 IEnMin= 4 EnMin= -391.688278945189     IErMin= 4 ErrMin= 6.82D-04
 ErrMax= 6.82D-04  0.00D+00 EMaxC= 1.00D-01 BMatC= 2.11D-04 BMatP= 6.06D-04
 IDIUse=3 WtCom= 9.93D-01 WtEn= 6.82D-03
 Coeff-Com: -0.598D-02 0.232D-01 0.378D+00 0.605D+00
 Coeff-En:   0.000D+00 0.000D+00 0.169D+00 0.831D+00
 Coeff:     -0.594D-02 0.231D-01 0.376D+00 0.606D+00
 Gap=     0.338 Goal=   None    Shift=    0.000
 RMSDP=8.16D-05 MaxDP=2.59D-03 DE=-3.95D-04 OVMax= 5.62D-03

 Cycle   5  Pass 0  IDiag  1:
 RMSU=  4.22D-05    CP:  9.68D-01  1.14D+00  9.77D-01  6.35D-01
 E= -391.688472633168     Delta-E=       -0.000193687979 Rises=F Damp=F
 DIIS: error= 2.84D-04 at cycle   5 NSaved=   5.
 NSaved= 5 IEnMin= 5 EnMin= -391.688472633168     IErMin= 5 ErrMin= 2.84D-04
 ErrMax= 2.84D-04  0.00D+00 EMaxC= 1.00D-01 BMatC= 2.40D-05 BMatP= 2.11D-04
 IDIUse=3 WtCom= 9.97D-01 WtEn= 2.84D-03
 Coeff-Com:  0.346D-03-0.121D-02 0.929D-01 0.287D+00 0.621D+00
 Coeff-En:   0.000D+00 0.000D+00 0.000D+00 0.000D+00 0.100D+01
 Coeff:      0.345D-03-0.120D-02 0.926D-01 0.287D+00 0.622D+00
 Gap=     0.338 Goal=   None    Shift=    0.000
 RMSDP=2.29D-05 MaxDP=9.77D-04 DE=-1.94D-04 OVMax= 1.92D-03

 Cycle   6  Pass 0  IDiag  1:
 RMSU=  1.45D-05    CP:  9.68D-01  1.14D+00  9.84D-01  6.97D-01  6.87D-01
 E= -391.688495383651     Delta-E=       -0.000022750484 Rises=F Damp=F
 DIIS: error= 6.72D-05 at cycle   6 NSaved=   6.
 NSaved= 6 IEnMin= 6 EnMin= -391.688495383651     IErMin= 6 ErrMin= 6.72D-05
 ErrMax= 6.72D-05  0.00D+00 EMaxC= 1.00D-01 BMatC= 1.86D-06 BMatP= 2.40D-05
 IDIUse=1 WtCom= 1.00D+00 WtEn= 0.00D+00
 Coeff-Com:  0.878D-03-0.301D-02 0.711D-02 0.764D-01 0.275D+00 0.643D+00
 Coeff:      0.878D-03-0.301D-02 0.711D-02 0.764D-01 0.275D+00 0.643D+00
 Gap=     0.338 Goal=   None    Shift=    0.000
 RMSDP=6.44D-06 MaxDP=2.36D-04 DE=-2.28D-05 OVMax= 5.16D-04

 Initial convergence to 1.0D-05 achieved.  Increase integral accuracy.
 Cycle   7  Pass 1  IDiag  1:
 E= -391.688481095480     Delta-E=        0.000014288171 Rises=F Damp=F
 DIIS: error= 1.93D-05 at cycle   1 NSaved=   1.
 NSaved= 1 IEnMin= 1 EnMin= -391.688481095480     IErMin= 1 ErrMin= 1.93D-05
 ErrMax= 1.93D-05  0.00D+00 EMaxC= 1.00D-01 BMatC= 2.24D-07 BMatP= 2.24D-07
 IDIUse=1 WtCom= 1.00D+00 WtEn= 0.00D+00
 Coeff-Com:  0.100D+01
 Coeff:      0.100D+01
 Gap=     0.338 Goal=   None    Shift=    0.000
 RMSDP=6.44D-06 MaxDP=2.36D-04 DE= 1.43D-05 OVMax= 2.07D-04

 Cycle   8  Pass 1  IDiag  1:
 RMSU=  7.78D-06    CP:  1.00D+00
 E= -391.688481206349     Delta-E=       -0.000000110869 Rises=F Damp=F
 DIIS: error= 1.47D-05 at cycle   2 NSaved=   2.
 NSaved= 2 IEnMin= 2 EnMin= -391.688481206349     IErMin= 2 ErrMin= 1.47D-05
 ErrMax= 1.47D-05  0.00D+00 EMaxC= 1.00D-01 BMatC= 1.25D-07 BMatP= 2.24D-07
 IDIUse=1 WtCom= 1.00D+00 WtEn= 0.00D+00
 Coeff-Com:  0.409D+00 0.591D+00
 Coeff:      0.409D+00 0.591D+00
 Gap=     0.338 Goal=   None    Shift=    0.000
 RMSDP=1.64D-06 MaxDP=6.87D-05 DE=-1.11D-07 OVMax= 1.46D-04

 Cycle   9  Pass 1  IDiag  1:
 RMSU=  1.63D-06    CP:  1.00D+00  9.70D-01
 E= -391.688481312471     Delta-E=       -0.000000106121 Rises=F Damp=F
 DIIS: error= 6.57D-06 at cycle   3 NSaved=   3.
 NSaved= 3 IEnMin= 3 EnMin= -391.688481312471     IErMin= 3 ErrMin= 6.57D-06
 ErrMax= 6.57D-06  0.00D+00 EMaxC= 1.00D-01 BMatC= 1.70D-08 BMatP= 1.25D-07
 IDIUse=1 WtCom= 1.00D+00 WtEn= 0.00D+00
 Coeff-Com:  0.101D-01 0.261D+00 0.729D+00
 Coeff:      0.101D-01 0.261D+00 0.729D+00
 Gap=     0.338 Goal=   None    Shift=    0.000
 RMSDP=6.22D-07 MaxDP=2.42D-05 DE=-1.06D-07 OVMax= 5.69D-05

 Cycle  10  Pass 1  IDiag  1:
 RMSU=  3.76D-07    CP:  1.00D+00  1.01D+00  7.51D-01
 E= -391.688481327922     Delta-E=       -0.000000015452 Rises=F Damp=F
 DIIS: error= 1.92D-06 at cycle   4 NSaved=   4.
 NSaved= 4 IEnMin= 4 EnMin= -391.688481327922     IErMin= 4 ErrMin= 1.92D-06
 ErrMax= 1.92D-06  0.00D+00 EMaxC= 1.00D-01 BMatC= 1.84D-09 BMatP= 1.70D-08
 IDIUse=1 WtCom= 1.00D+00 WtEn= 0.00D+00
 Coeff-Com: -0.205D-01 0.950D-01 0.369D+00 0.557D+00
 Coeff:     -0.205D-01 0.950D-01 0.369D+00 0.557D+00
 Gap=     0.338 Goal=   None    Shift=    0.000
 RMSDP=1.87D-07 MaxDP=5.96D-06 DE=-1.55D-08 OVMax= 1.36D-05

 Cycle  11  Pass 1  IDiag  1:
 RMSU=  1.32D-07    CP:  1.00D+00  1.01D+00  7.94D-01  7.02D-01
 E= -391.688481329830     Delta-E=       -0.000000001908 Rises=F Damp=F
 DIIS: error= 2.30D-07 at cycle   5 NSaved=   5.
 NSaved= 5 IEnMin= 5 EnMin= -391.688481329830     IErMin= 5 ErrMin= 2.30D-07
 ErrMax= 2.30D-07  0.00D+00 EMaxC= 1.00D-01 BMatC= 2.20D-11 BMatP= 1.84D-09
 IDIUse=1 WtCom= 1.00D+00 WtEn= 0.00D+00
 Coeff-Com: -0.332D-02-0.306D-02 0.259D-02 0.798D-01 0.924D+00
 Coeff:     -0.332D-02-0.306D-02 0.259D-02 0.798D-01 0.924D+00
 Gap=     0.338 Goal=   None    Shift=    0.000
 RMSDP=3.75D-08 MaxDP=8.49D-07 DE=-1.91D-09 OVMax= 1.64D-06

 Cycle  12  Pass 1  IDiag  1:
 RMSU=  2.78D-08    CP:  1.00D+00  1.01D+00  7.96D-01  7.66D-01  1.02D+00
 E= -391.688481329856     Delta-E=       -0.000000000026 Rises=F Damp=F
 DIIS: error= 7.13D-08 at cycle   6 NSaved=   6.
 NSaved= 6 IEnMin= 6 EnMin= -391.688481329856     IErMin= 6 ErrMin= 7.13D-08
 ErrMax= 7.13D-08  0.00D+00 EMaxC= 1.00D-01 BMatC= 2.55D-12 BMatP= 2.20D-11
 IDIUse=1 WtCom= 1.00D+00 WtEn= 0.00D+00
 Coeff-Com:  0.737D-03-0.862D-02-0.300D-01-0.201D-01 0.280D+00 0.778D+00
 Coeff:      0.737D-03-0.862D-02-0.300D-01-0.201D-01 0.280D+00 0.778D+00
 Gap=     0.338 Goal=   None    Shift=    0.000
 RMSDP=1.12D-08 MaxDP=1.95D-07 DE=-2.60D-11 OVMax= 5.07D-07

 Cycle  13  Pass 1  IDiag  1:
 RMSU=  5.30D-09    CP:  1.00D+00  1.01D+00  7.96D-01  7.76D-01  1.08D+00
                    CP:  8.87D-01
 E= -391.688481329850     Delta-E=        0.000000000006 Rises=F Damp=F
 DIIS: error= 1.98D-08 at cycle   7 NSaved=   7.
 NSaved= 7 IEnMin= 6 EnMin= -391.688481329856     IErMin= 7 ErrMin= 1.98D-08
 ErrMax= 1.98D-08  0.00D+00 EMaxC= 1.00D-01 BMatC= 1.53D-13 BMatP= 2.55D-12
 IDIUse=1 WtCom= 1.00D+00 WtEn= 0.00D+00
 Coeff-Com:  0.381D-03-0.257D-02-0.976D-02-0.961D-02 0.501D-01 0.259D+00
 Coeff-Com:  0.713D+00
 Coeff:      0.381D-03-0.257D-02-0.976D-02-0.961D-02 0.501D-01 0.259D+00
 Coeff:      0.713D+00
 Gap=     0.338 Goal=   None    Shift=    0.000
 RMSDP=1.95D-09 MaxDP=5.93D-08 DE= 5.57D-12 OVMax= 1.14D-07

 SCF Done:  E(RM062X) =  -391.688481330     A.U. after   13 cycles
            NFock= 13  Conv=0.19D-08     -V/T= 2.0093
 KE= 3.880863752504D+02 PE=-1.937903557856D+03 EE= 6.416935851402D+02
 Leave Link  502 at Wed Jul 14 19:43:37 2021, MaxMem=   524288000 cpu:             475.8 elap:              80.3
 (Enter /opt/gaussian/g16_legacy/l601.exe)
 Copying SCF densities to generalized density rwf, IOpCl= 0 IROHF=0.

 **********************************************************************

            Population analysis using the SCF density.

 **********************************************************************

 Orbital symmetries:
       Occupied  (A) (A) (A) (A) (A) (A) (A) (A) (A) (A) (A) (A)
                 (A) (A) (A) (A) (A) (A) (A) (A) (A) (A) (A) (A)
                 (A) (A) (A) (A) (A) (A) (A) (A) (A) (A) (A) (A)
                 (A) (A) (A)
       Virtual   (A) (A) (A) (A) (A) (A) (A) (A) (A) (A) (A) (A)
                 (A) (A) (A) (A) (A) (A) (A) (A) (A) (A) (A) (A)
                 (A) (A) (A) (A) (A) (A) (A) (A) (A) (A) (A) (A)
                 (A) (A) (A) (A) (A) (A) (A) (A) (A) (A) (A) (A)
                 (A) (A) (A) (A) (A) (A) (A) (A) (A) (A) (A) (A)
                 (A) (A) (A) (A) (A) (A) (A) (A) (A) (A) (A) (A)
                 (A) (A) (A) (A) (A) (A) (A) (A) (A) (A) (A) (A)
                 (A) (A) (A) (A) (A) (A) (A) (A) (A) (A) (A) (A)
                 (A) (A) (A) (A) (A) (A) (A) (A) (A) (A) (A) (A)
                 (A) (A) (A) (A) (A) (A) (A) (A) (A) (A) (A) (A)
                 (A) (A) (A) (A) (A) (A) (A) (A) (A) (A) (A) (A)
                 (A) (A) (A) (A) (A) (A) (A) (A) (A) (A) (A) (A)
                 (A) (A) (A) (A) (A) (A) (A) (A) (A) (A) (A) (A)
                 (A) (A) (A) (A) (A) (A) (A) (A) (A) (A) (A) (A)
                 (A) (A) (A) (A) (A) (A) (A) (A) (A) (A) (A) (A)
                 (A) (A) (A) (A) (A) (A) (A) (A) (A) (A) (A) (A)
                 (A) (A) (A) (A) (A) (A) (A) (A) (A)
 The electronic state is 1-A.
 Alpha  occ. eigenvalues --  -10.54671 -10.54137 -10.53916 -10.53826 -10.53599
 Alpha  occ. eigenvalues --  -10.53345 -10.53307 -10.53262 -10.53190 -10.53179
 Alpha  occ. eigenvalues --   -0.91983  -0.89942  -0.84729  -0.81565  -0.77855
 Alpha  occ. eigenvalues --   -0.76078  -0.71690  -0.68491  -0.58978  -0.57710
 Alpha  occ. eigenvalues --   -0.54371  -0.51495  -0.50504  -0.49869  -0.48811
 Alpha  occ. eigenvalues --   -0.47711  -0.46478  -0.45979  -0.44711  -0.43468
 Alpha  occ. eigenvalues --   -0.43025  -0.42543  -0.41666  -0.40335  -0.39819
 Alpha  occ. eigenvalues --   -0.37775  -0.36266  -0.28741  -0.27017
 Alpha virt. eigenvalues --    0.06795   0.07961   0.11969   0.14600   0.15413
 Alpha virt. eigenvalues --    0.17032   0.18290   0.18502   0.19841   0.20043
 Alpha virt. eigenvalues --    0.20849   0.21573   0.22490   0.22871   0.23346
 Alpha virt. eigenvalues --    0.24535   0.24823   0.25781   0.27101   0.28150
 Alpha virt. eigenvalues --    0.28988   0.29299   0.30605   0.30953   0.31570
 Alpha virt. eigenvalues --    0.38579   0.40158   0.47225   0.48088   0.54158
 Alpha virt. eigenvalues --    0.55036   0.55936   0.57743   0.59175   0.60103
 Alpha virt. eigenvalues --    0.60381   0.61457   0.62553   0.63184   0.64691
 Alpha virt. eigenvalues --    0.66792   0.68005   0.70961   0.72038   0.73580
 Alpha virt. eigenvalues --    0.74595   0.76521   0.77575   0.78254   0.79554
 Alpha virt. eigenvalues --    0.80228   0.81285   0.83197   0.84628   0.85679
 Alpha virt. eigenvalues --    0.88043   0.88892   0.89144   0.91645   0.92627
 Alpha virt. eigenvalues --    0.92950   0.94075   0.94882   0.95753   0.96203
 Alpha virt. eigenvalues --    0.96677   0.97254   0.98493   0.99388   1.00190
 Alpha virt. eigenvalues --    1.01151   1.02478   1.03316   1.05361   1.06071
 Alpha virt. eigenvalues --    1.13697   1.20903   1.21462   1.23433   1.25028
 Alpha virt. eigenvalues --    1.26776   1.32454   1.35463   1.36575   1.37416
 Alpha virt. eigenvalues --    1.39139   1.41558   1.44812   1.48204   1.49404
 Alpha virt. eigenvalues --    1.53505   1.60046   1.69034   1.69437   1.72412
 Alpha virt. eigenvalues --    1.75272   1.77836   1.79339   1.79618   1.83400
 Alpha virt. eigenvalues --    1.84894   1.86182   1.86982   1.88217   1.88884
 Alpha virt. eigenvalues --    1.90187   1.92637   1.93819   1.97990   2.01366
 Alpha virt. eigenvalues --    2.02143   2.03294   2.05496   2.09332   2.09997
 Alpha virt. eigenvalues --    2.10031   2.10156   2.12443   2.13502   2.13718
 Alpha virt. eigenvalues --    2.14732   2.15543   2.16444   2.18059   2.18389
 Alpha virt. eigenvalues --    2.19772   2.20939   2.22258   2.23011   2.26615
 Alpha virt. eigenvalues --    2.29116   2.29843   2.33191   2.33580   2.35525
 Alpha virt. eigenvalues --    2.37925   2.38397   2.43841   2.44472   2.45010
 Alpha virt. eigenvalues --    2.46594   2.48207   2.51221   2.52739   2.54812
 Alpha virt. eigenvalues --    2.57120   2.59332   2.61502   2.62799   2.64021
 Alpha virt. eigenvalues --    2.65999   2.68355   2.70374   2.71626   2.73365
 Alpha virt. eigenvalues --    2.74283   2.74591   2.76577   2.80575   2.83729
 Alpha virt. eigenvalues --    2.84914   2.85955   2.87183   2.88210   2.88610
 Alpha virt. eigenvalues --    2.90202   2.91591   2.93448   2.94405   3.01453
 Alpha virt. eigenvalues --    3.03767   3.08834   3.09666   3.17790   3.19466
 Alpha virt. eigenvalues --    3.20834   3.23278   3.28773   3.35676   3.39650
 Alpha virt. eigenvalues --    3.40331   3.41905   3.42752   3.43693   3.44213
 Alpha virt. eigenvalues --    3.45585   3.47032   3.48940   3.50682   3.52304
 Alpha virt. eigenvalues --    3.56635   4.18754   4.22310   4.34203   4.42625
 Alpha virt. eigenvalues --    4.48614   4.52625   4.53213   4.66944   4.69674
 Alpha virt. eigenvalues --    4.75918
          Condensed to atoms (all electrons):
               1          2          3          4          5          6
     1  C    5.038905   0.382996   0.387569   0.360396  -0.070593   0.004507
     2  H    0.382996   0.600069  -0.034848  -0.030491   0.004633  -0.000169
     3  H    0.387569  -0.034848   0.610516  -0.037105  -0.006284   0.000106
     4  C    0.360396  -0.030491  -0.037105   4.768593   0.368259  -0.033916
     5  C   -0.070593   0.004633  -0.006284   0.368259   5.000216   0.385905
     6  H    0.004507  -0.000169   0.000106  -0.033916   0.385905   0.574840
     7  H   -0.003944   0.000054   0.004558  -0.034067   0.380015  -0.027520
     8  H   -0.000026  -0.000002  -0.000382  -0.038767   0.382574  -0.027646
     9  C   -0.047673  -0.007978   0.003322   0.716387  -0.041389  -0.005168
    10  H    0.005614   0.000034  -0.000173  -0.030978  -0.013390   0.006168
    11  C   -0.012999   0.000863   0.000262  -0.044810   0.006115   0.000103
    12  H    0.000382  -0.000128  -0.000013   0.000949  -0.000148  -0.000011
    13  H    0.002652   0.002160  -0.000097  -0.008158   0.000091   0.000007
    14  H    0.000190   0.000203   0.000029  -0.000871  -0.000150  -0.000004
    15  C    0.000367   0.000513  -0.000001  -0.000021   0.000000  -0.000000
    16  H    0.000074  -0.000095  -0.000000  -0.000003   0.000000  -0.000000
    17  H   -0.000036   0.000015  -0.000000   0.000002  -0.000000   0.000000
    18  H   -0.000196  -0.000047  -0.000006  -0.000042  -0.000000   0.000000
    19  C   -0.003616   0.001758   0.000189   0.000049  -0.000004   0.000000
    20  C   -0.000087  -0.000084   0.000002   0.000002  -0.000000   0.000000
    21  H    0.000020  -0.000005  -0.000001  -0.000000   0.000000  -0.000000
    22  H   -0.000003  -0.000001   0.000002   0.000000  -0.000000   0.000000
    23  H   -0.000005   0.000002   0.000000   0.000000  -0.000000   0.000000
    24  C   -0.053988  -0.000452  -0.001361   0.005663  -0.000091   0.000003
    25  H   -0.000657  -0.000110   0.002504  -0.000103   0.000007  -0.000000
    26  C    0.346214  -0.039220  -0.042546  -0.047337  -0.001587  -0.000036
    27  H   -0.042221   0.005617  -0.005257  -0.003104   0.001248  -0.000099
    28  H   -0.039888  -0.004840   0.005556  -0.001523  -0.000056  -0.000007
               7          8          9         10         11         12
     1  C   -0.003944  -0.000026  -0.047673   0.005614  -0.012999   0.000382
     2  H    0.000054  -0.000002  -0.007978   0.000034   0.000863  -0.000128
     3  H    0.004558  -0.000382   0.003322  -0.000173   0.000262  -0.000013
     4  C   -0.034067  -0.038767   0.716387  -0.030978  -0.044810   0.000949
     5  C    0.380015   0.382574  -0.041389  -0.013390   0.006115  -0.000148
     6  H   -0.027520  -0.027646  -0.005168   0.006168   0.000103  -0.000011
     7  H    0.589268  -0.034432  -0.000618   0.000322  -0.000173  -0.000004
     8  H   -0.034432   0.591377  -0.001218   0.000178  -0.000167   0.000019
     9  C   -0.000618  -0.001218   4.894904   0.378227   0.360455  -0.033285
    10  H    0.000322   0.000178   0.378227   0.612228  -0.056028  -0.003160
    11  C   -0.000173  -0.000167   0.360455  -0.056028   4.977029   0.386553
    12  H   -0.000004   0.000019  -0.033285  -0.003160   0.386553   0.579781
    13  H   -0.000002   0.000001  -0.034068   0.004529   0.389219  -0.029948
    14  H    0.000025  -0.000006  -0.036347  -0.000411   0.385540  -0.031776
    15  C    0.000000  -0.000000   0.000009  -0.000000  -0.000147  -0.000004
    16  H   -0.000000   0.000000   0.000000  -0.000000  -0.000003   0.000000
    17  H    0.000000   0.000000   0.000000   0.000000   0.000003  -0.000000
    18  H   -0.000000   0.000000  -0.000026   0.000001   0.000039   0.000035
    19  C    0.000000  -0.000001   0.000000   0.000000   0.000009   0.000000
    20  C   -0.000000  -0.000000   0.000000   0.000000  -0.000000  -0.000000
    21  H   -0.000000   0.000000  -0.000000  -0.000000   0.000000   0.000000
    22  H   -0.000000  -0.000000  -0.000000   0.000000   0.000000  -0.000000
    23  H    0.000000   0.000000   0.000000   0.000000   0.000000  -0.000000
    24  C    0.000014  -0.000156   0.000100   0.000003  -0.000045  -0.000004
    25  H   -0.000003   0.000015  -0.000001  -0.000000   0.000000   0.000000
    26  C   -0.000223   0.001436  -0.004423  -0.000096   0.000378   0.000077
    27  H    0.000094   0.001855   0.000056   0.000001  -0.000007   0.000001
    28  H    0.000021   0.000016   0.002444  -0.000077   0.000546  -0.000095
              13         14         15         16         17         18
     1  C    0.002652   0.000190   0.000367   0.000074  -0.000036  -0.000196
     2  H    0.002160   0.000203   0.000513  -0.000095   0.000015  -0.000047
     3  H   -0.000097   0.000029  -0.000001  -0.000000  -0.000000  -0.000006
     4  C   -0.008158  -0.000871  -0.000021  -0.000003   0.000002  -0.000042
     5  C    0.000091  -0.000150   0.000000   0.000000  -0.000000  -0.000000
     6  H    0.000007  -0.000004  -0.000000  -0.000000   0.000000   0.000000
     7  H   -0.000002   0.000025   0.000000  -0.000000   0.000000  -0.000000
     8  H    0.000001  -0.000006  -0.000000   0.000000   0.000000   0.000000
     9  C   -0.034068  -0.036347   0.000009   0.000000   0.000000  -0.000026
    10  H    0.004529  -0.000411  -0.000000  -0.000000   0.000000   0.000001
    11  C    0.389219   0.385540  -0.000147  -0.000003   0.000003   0.000039
    12  H   -0.029948  -0.031776  -0.000004   0.000000  -0.000000   0.000035
    13  H    0.580137  -0.027463   0.000041   0.000028  -0.000009   0.001479
    14  H   -0.027463   0.576243   0.000003  -0.000000  -0.000000  -0.000011
    15  C    0.000041   0.000003   5.005578   0.385405   0.382687   0.382381
    16  H    0.000028  -0.000000   0.385405   0.583377  -0.032580  -0.029615
    17  H   -0.000009  -0.000000   0.382687  -0.032580   0.578072  -0.026671
    18  H    0.001479  -0.000011   0.382381  -0.029615  -0.026671   0.574790
    19  C   -0.000000  -0.000000   0.377681  -0.036190  -0.035976  -0.026772
    20  C    0.000001   0.000000  -0.078889  -0.003607  -0.001915   0.004781
    21  H   -0.000000  -0.000000  -0.002161   0.004480  -0.000680  -0.000049
    22  H   -0.000000  -0.000000   0.004665   0.000032  -0.000069  -0.000168
    23  H   -0.000000   0.000000  -0.000500  -0.000851   0.003708  -0.000005
    24  C   -0.000053   0.000003  -0.052155   0.000974  -0.000064  -0.008306
    25  H   -0.000001   0.000000   0.006081  -0.000153  -0.000160   0.000027
    26  C   -0.000056  -0.000043  -0.013676   0.000451   0.000173   0.002072
    27  H   -0.000009  -0.000000   0.000350  -0.000015   0.000031  -0.000073
    28  H    0.000037   0.000021   0.000824  -0.000146   0.000054   0.002744
              19         20         21         22         23         24
     1  C   -0.003616  -0.000087   0.000020  -0.000003  -0.000005  -0.053988
     2  H    0.001758  -0.000084  -0.000005  -0.000001   0.000002  -0.000452
     3  H    0.000189   0.000002  -0.000001   0.000002   0.000000  -0.001361
     4  C    0.000049   0.000002  -0.000000   0.000000   0.000000   0.005663
     5  C   -0.000004  -0.000000   0.000000  -0.000000  -0.000000  -0.000091
     6  H    0.000000   0.000000  -0.000000   0.000000   0.000000   0.000003
     7  H    0.000000  -0.000000  -0.000000  -0.000000   0.000000   0.000014
     8  H   -0.000001  -0.000000   0.000000  -0.000000   0.000000  -0.000156
     9  C    0.000000   0.000000  -0.000000  -0.000000   0.000000   0.000100
    10  H    0.000000   0.000000  -0.000000   0.000000   0.000000   0.000003
    11  C    0.000009  -0.000000   0.000000   0.000000   0.000000  -0.000045
    12  H    0.000000  -0.000000   0.000000  -0.000000  -0.000000  -0.000004
    13  H   -0.000000   0.000001  -0.000000  -0.000000  -0.000000  -0.000053
    14  H   -0.000000   0.000000  -0.000000  -0.000000   0.000000   0.000003
    15  C    0.377681  -0.078889  -0.002161   0.004665  -0.000500  -0.052155
    16  H   -0.036190  -0.003607   0.004480   0.000032  -0.000851   0.000974
    17  H   -0.035976  -0.001915  -0.000680  -0.000069   0.003708  -0.000064
    18  H   -0.026772   0.004781  -0.000049  -0.000168  -0.000005  -0.008306
    19  C    4.732133   0.366847  -0.035978  -0.033020  -0.038112   0.718043
    20  C    0.366847   5.004432   0.380451   0.385191   0.382982  -0.037390
    21  H   -0.035978   0.380451   0.590071  -0.027134  -0.034289  -0.000761
    22  H   -0.033020   0.385191  -0.027134   0.572055  -0.027287  -0.004841
    23  H   -0.038112   0.382982  -0.034289  -0.027287   0.589290  -0.001455
    24  C    0.718043  -0.037390  -0.000761  -0.004841  -0.001455   4.917736
    25  H   -0.031859  -0.013627   0.000294   0.006078   0.000217   0.374971
    26  C   -0.038343   0.005700  -0.000121   0.000120  -0.000206   0.352769
    27  H    0.001801  -0.000181  -0.000002  -0.000012   0.000014  -0.032076
    28  H   -0.006327   0.000089  -0.000005   0.000010   0.000006  -0.038040
              25         26         27         28
     1  C   -0.000657   0.346214  -0.042221  -0.039888
     2  H   -0.000110  -0.039220   0.005617  -0.004840
     3  H    0.002504  -0.042546  -0.005257   0.005556
     4  C   -0.000103  -0.047337  -0.003104  -0.001523
     5  C    0.000007  -0.001587   0.001248  -0.000056
     6  H   -0.000000  -0.000036  -0.000099  -0.000007
     7  H   -0.000003  -0.000223   0.000094   0.000021
     8  H    0.000015   0.001436   0.001855   0.000016
     9  C   -0.000001  -0.004423   0.000056   0.002444
    10  H   -0.000000  -0.000096   0.000001  -0.000077
    11  C    0.000000   0.000378  -0.000007   0.000546
    12  H    0.000000   0.000077   0.000001  -0.000095
    13  H   -0.000001  -0.000056  -0.000009   0.000037
    14  H    0.000000  -0.000043  -0.000000   0.000021
    15  C    0.006081  -0.013676   0.000350   0.000824
    16  H   -0.000153   0.000451  -0.000015  -0.000146
    17  H   -0.000160   0.000173   0.000031   0.000054
    18  H    0.000027   0.002072  -0.000073   0.002744
    19  C   -0.031859  -0.038343   0.001801  -0.006327
    20  C   -0.013627   0.005700  -0.000181   0.000089
    21  H    0.000294  -0.000121  -0.000002  -0.000005
    22  H    0.006078   0.000120  -0.000012   0.000010
    23  H    0.000217  -0.000206   0.000014   0.000006
    24  C    0.374971   0.352769  -0.032076  -0.038040
    25  H    0.613708  -0.052735  -0.004885   0.004707
    26  C   -0.052735   4.996701   0.387266   0.391489
    27  H   -0.004885   0.387266   0.604956  -0.034463
    28  H    0.004707   0.391489  -0.034463   0.599873
 Mulliken charges:
               1
     1  C   -0.253955
     2  H    0.119552
     3  H    0.113458
     4  C    0.090993
     5  C   -0.395371
     6  H    0.122936
     7  H    0.126613
     8  H    0.125333
     9  C   -0.143711
    10  H    0.097008
    11  C   -0.392732
    12  H    0.130779
    13  H    0.119481
    14  H    0.134826
    15  C   -0.399032
    16  H    0.128439
    17  H    0.133417
    18  H    0.123640
    19  C    0.087687
    20  C   -0.394697
    21  H    0.125871
    22  H    0.124383
    23  H    0.126491
    24  C   -0.139041
    25  H    0.095685
    26  C   -0.244199
    27  H    0.119114
    28  H    0.117029
 Sum of Mulliken charges =  -0.00000
 Mulliken charges with hydrogens summed into heavy atoms:
               1
     1  C   -0.020945
     4  C    0.090993
     5  C   -0.020488
     9  C   -0.046702
    11  C   -0.007646
    15  C   -0.013536
    19  C    0.087687
    20  C   -0.017951
    24  C   -0.043355
    26  C   -0.008056
 Electronic spatial extent (au):  <R**2>=           2421.0145
 Charge=             -0.0000 electrons
 Dipole moment (field-independent basis, Debye):
    X=             -0.2926    Y=              0.1864    Z=             -0.0069  Tot=              0.3470
 Quadrupole moment (field-independent basis, Debye-Ang):
   XX=            -63.1038   YY=            -62.4439   ZZ=            -66.0644
   XY=             -0.6027   XZ=             -0.7765   YZ=             -0.4166
 Traceless Quadrupole moment (field-independent basis, Debye-Ang):
   XX=              0.7669   YY=              1.4268   ZZ=             -2.1937
   XY=             -0.6027   XZ=             -0.7765   YZ=             -0.4166
 Octapole moment (field-independent basis, Debye-Ang**2):
  XXX=             -3.1063  YYY=             -1.4749  ZZZ=              0.1938  XYY=              1.4293
  XXY=              4.5882  XXZ=             -2.2737  XZZ=             -1.5827  YZZ=              1.2875
  YYZ=              1.2967  XYZ=              0.8619
 Hexadecapole moment (field-independent basis, Debye-Ang**3):
 XXXX=          -2453.2461 YYYY=           -686.3147 ZZZZ=           -172.1886 XXXY=              0.6307
 XXXZ=            -10.2509 YYYX=             10.3508 YYYZ=             -2.5461 ZZZX=              1.0958
 ZZZY=              0.1295 XXYY=           -520.3692 XXZZ=           -448.9854 YYZZ=           -136.9225
 XXYZ=             -3.7974 YYXZ=             -2.4037 ZZXY=             -4.5445
 N-N= 5.164351161358D+02 E-N=-1.937903552732D+03  KE= 3.880863752504D+02
 No NMR shielding tensors so no spin-rotation constants.
 Leave Link  601 at Wed Jul 14 19:43:37 2021, MaxMem=   524288000 cpu:               3.0 elap:               0.7
 (Enter /opt/gaussian/g16_legacy/l701.exe)
 ... and contract with generalized density number  0.
 Compute integral first derivatives.
 Leave Link  701 at Wed Jul 14 19:43:38 2021, MaxMem=   524288000 cpu:               1.5 elap:               0.6
 (Enter /opt/gaussian/g16_legacy/l702.exe)
 L702 exits ... SP integral derivatives will be done elsewhere.
 Leave Link  702 at Wed Jul 14 19:43:38 2021, MaxMem=   524288000 cpu:               0.2 elap:               0.1
 (Enter /opt/gaussian/g16_legacy/l703.exe)
 Integral derivatives from FoFJK, PRISM(SPDF).
 Compute integral first derivatives, UseDBF=F ICtDFT=           0.
 Calling FoFJK, ICntrl=      2127 FMM=F ISym2X=0 I1Cent= 0 IOpClX= 0 NMat=1 NMatS=1 NMatT=0.
 FoFJK:  IHMeth= 1 ICntrl=    2127 DoSepK=F KAlg= 0 I1Cent=           0 FoldK=F
 IRaf=         0 NMat=       1 IRICut=       1 DoRegI=T DoRafI=F ISym2E= 0 IDoP0=0 IntGTp=1.
 FoFCou: FMM=F IPFlag=           0 FMFlag=      100000 FMFlg1=         800
         NFxFlg=           0 DoJE=F BraDBF=F KetDBF=F FulRan=T
         wScrn=  0.000000 ICntrl=      2127 IOpCl=  0 I1Cent=           0 NGrid=           0
         NMat0=    1 NMatS0=      1 NMatT0=    0 NMatD0=    1 NMtDS0=    0 NMtDT0=    0
 Symmetry not used in FoFCou.
 Leave Link  703 at Wed Jul 14 19:43:52 2021, MaxMem=   524288000 cpu:              78.9 elap:              13.3
 (Enter /opt/gaussian/g16_legacy/l716.exe)
 Dipole        =-1.15122853D-01 7.33417381D-02-2.70599879D-03
 ***** Axes restored to original set *****
 -------------------------------------------------------------------
 Center     Atomic                   Forces (Hartrees/Bohr)
 Number     Number              X              Y              Z
 -------------------------------------------------------------------
      1        6          -0.008830886   -0.003298741    0.002042937
      2        1           0.002021143   -0.002310212   -0.001704330
      3        1           0.001427570   -0.000453529   -0.002209722
      4        6          -0.012063270   -0.006179204    0.004000414
      5        6          -0.002732210   -0.002915884   -0.000062183
      6        1           0.001614542   -0.000824204    0.001316032
      7        1           0.001913096    0.001352326   -0.001471308
      8        1           0.000805446    0.002980159   -0.000651663
      9        6           0.009885372    0.009881572   -0.004593971
     10        1           0.000500132    0.002195025   -0.002017951
     11        6           0.001751230   -0.000013267    0.000061006
     12        1          -0.001111791   -0.000652464    0.002021728
     13        1          -0.000156091    0.001559423    0.000065382
     14        1           0.000041503   -0.002664106    0.001790885
     15        6          -0.004098542    0.000006488   -0.002122345
     16        1           0.002552739   -0.000595332    0.000008474
     17        1           0.000896826   -0.001307625    0.002122426
     18        1           0.000354994    0.000944258   -0.001555966
     19        6          -0.007937048    0.011402654   -0.007280149
     20        6          -0.001531268    0.003147777   -0.001739877
     21        1           0.002441466   -0.001577615    0.000892320
     22        1          -0.001443574   -0.001774345   -0.000422354
     23        1           0.001089119   -0.000842589    0.002541660
     24        6           0.007070572   -0.009157306    0.003021075
     25        1           0.001878896    0.000317610    0.002267324
     26        6           0.007889786    0.000239494    0.001343213
     27        1          -0.002489337    0.000294120    0.000024402
     28        1          -0.001740414    0.000245516    0.002312542
 -------------------------------------------------------------------
 Cartesian Forces:  Max     0.012063270 RMS     0.003702506
 Leave Link  716 at Wed Jul 14 19:43:52 2021, MaxMem=   524288000 cpu:               0.6 elap:               0.2
 (Enter /opt/gaussian/g16_legacy/l103.exe)

 GradGradGradGradGradGradGradGradGradGradGradGradGradGradGradGradGradGrad
 Berny optimization.
 FormGI is forming the generalized inverse of G from B-inverse, IUseBI=4.
 Internal  Forces:  Max     0.014795490 RMS     0.002449648
 Search for a local minimum.
 Step number   1 out of a maximum of  138
 All quantities printed in internal units (Hartrees-Bohrs-Radians)
 RMS Force = .24496D-02 SwitMx=.10000D-02 MixMth= 1
 Mixed Optimization -- RFO/linear search
 Second derivative matrix not updated -- first step.
 ITU=  0
     Eigenvalues ---    0.00344   0.00570   0.00670   0.00680   0.00692
     Eigenvalues ---    0.00714   0.00817   0.01219   0.01286   0.01569
     Eigenvalues ---    0.01641   0.02780   0.02784   0.04018   0.04138
     Eigenvalues ---    0.05349   0.05399   0.06978   0.07035   0.07090
     Eigenvalues ---    0.07093   0.07268   0.07301   0.07347   0.07504
     Eigenvalues ---    0.09278   0.09362   0.12767   0.12843   0.15999
     Eigenvalues ---    0.15999   0.16000   0.16000   0.16000   0.16000
     Eigenvalues ---    0.16000   0.16000   0.16000   0.16000   0.16000
     Eigenvalues ---    0.16000   0.16000   0.16000   0.21859   0.21866
     Eigenvalues ---    0.22000   0.22000   0.24994   0.24997   0.24998
     Eigenvalues ---    0.24999   0.29246   0.30871   0.31630   0.31706
     Eigenvalues ---    0.31801   0.31965   0.32782   0.33866   0.33970
     Eigenvalues ---    0.34062   0.34202   0.34222   0.34234   0.34245
     Eigenvalues ---    0.34250   0.34254   0.34255   0.34256   0.34264
     Eigenvalues ---    0.34294   0.34345   0.34550   0.34552   0.34801
     Eigenvalues ---    0.34854   0.55504   0.55575
 RFO step:  Lambda=-3.40144695D-03 EMin= 3.43659440D-03
 Linear search not attempted -- first point.
 Iteration  1 RMS(Cart)=  0.04186119 RMS(Int)=  0.00076446
 Iteration  2 RMS(Cart)=  0.00101012 RMS(Int)=  0.00017831
 Iteration  3 RMS(Cart)=  0.00000059 RMS(Int)=  0.00017831
 ITry= 1 IFail=0 DXMaxC= 1.99D-01 DCOld= 1.00D+10 DXMaxT= 3.00D-01 DXLimC= 3.00D+00 Rises=F
 Variable       Old X    -DE/DX   Delta X   Delta X   Delta X     New X
                                 (Linear)    (Quad)   (Total)
    R1        2.07226  -0.00108   0.00000  -0.00313  -0.00313   2.06913
    R2        2.07556  -0.00045   0.00000  -0.00132  -0.00132   2.07424
    R3        2.86260  -0.00208   0.00000  -0.00667  -0.00667   2.85593
    R4        2.89492   0.00303   0.00000   0.01025   0.01025   2.90516
    R5        2.84826   0.00055   0.00000   0.00171   0.00171   2.84997
    R6        2.54687  -0.01480   0.00000  -0.02649  -0.02649   2.52038
    R7        2.06957  -0.00162   0.00000  -0.00469  -0.00469   2.06489
    R8        2.06901   0.00050   0.00000   0.00145   0.00145   2.07046
    R9        2.06837   0.00107   0.00000   0.00310   0.00310   2.07146
   R10        2.05913   0.00012   0.00000   0.00035   0.00035   2.05949
   R11        2.82736   0.00417   0.00000   0.01259   0.01259   2.83995
   R12        2.06901  -0.00007   0.00000  -0.00019  -0.00019   2.06881
   R13        2.06408   0.00012   0.00000   0.00033   0.00033   2.06442
   R14        2.06751   0.00102   0.00000   0.00295   0.00295   2.07046
   R15        2.06990   0.00005   0.00000   0.00014   0.00014   2.07003
   R16        2.06887   0.00069   0.00000   0.00201   0.00201   2.07088
   R17        2.06411  -0.00019   0.00000  -0.00055  -0.00055   2.06356
   R18        2.84207   0.00048   0.00000   0.00149   0.00149   2.84356
   R19        2.84686   0.00050   0.00000   0.00157   0.00157   2.84843
   R20        2.54624  -0.01404   0.00000  -0.02511  -0.02511   2.52113
   R21        2.06904   0.00067   0.00000   0.00192   0.00192   2.07096
   R22        2.06937  -0.00171   0.00000  -0.00496  -0.00496   2.06441
   R23        2.06909   0.00071   0.00000   0.00205   0.00205   2.07114
   R24        2.06000   0.00025   0.00000   0.00072   0.00072   2.06072
   R25        2.84510   0.00017   0.00000   0.00052   0.00052   2.84562
   R26        2.07381  -0.00005   0.00000  -0.00014  -0.00014   2.07367
   R27        2.06918  -0.00031   0.00000  -0.00090  -0.00090   2.06829
    A1        1.82993   0.00201   0.00000   0.02219   0.02200   1.85193
    A2        1.93004   0.00053   0.00000   0.00900   0.00901   1.93905
    A3        1.91835  -0.00279   0.00000  -0.02163  -0.02166   1.89669
    A4        1.90260  -0.00043   0.00000   0.00017   0.00016   1.90277
    A5        1.92013  -0.00191   0.00000  -0.01662  -0.01665   1.90348
    A6        1.95843   0.00252   0.00000   0.00770   0.00774   1.96617
    A7        2.00826   0.00209   0.00000   0.00855   0.00796   2.01623
    A8        2.17079  -0.00543   0.00000  -0.02107  -0.02161   2.14918
    A9        2.10395   0.00336   0.00000   0.01364   0.01304   2.11699
   A10        1.95925  -0.00217   0.00000  -0.00964  -0.00962   1.94963
   A11        1.92484   0.00154   0.00000   0.00806   0.00807   1.93291
   A12        1.92808   0.00208   0.00000   0.01053   0.01054   1.93862
   A13        1.87757   0.00107   0.00000   0.01077   0.01079   1.88836
   A14        1.87702   0.00050   0.00000   0.00571   0.00573   1.88275
   A15        1.89492  -0.00314   0.00000  -0.02634  -0.02633   1.86860
   A16        2.06978  -0.00193   0.00000  -0.01371  -0.01371   2.05606
   A17        2.22510  -0.00236   0.00000  -0.01053  -0.01053   2.21457
   A18        1.98817   0.00429   0.00000   0.02432   0.02431   2.01248
   A19        1.90998   0.00244   0.00000   0.01591   0.01586   1.92584
   A20        1.98111  -0.00262   0.00000  -0.01573  -0.01566   1.96546
   A21        1.91726   0.00377   0.00000   0.02178   0.02175   1.93901
   A22        1.87268   0.00042   0.00000   0.00486   0.00492   1.87761
   A23        1.88723  -0.00318   0.00000  -0.02013  -0.02028   1.86696
   A24        1.89295  -0.00102   0.00000  -0.00792  -0.00784   1.88511
   A25        1.89068  -0.00249   0.00000  -0.02268  -0.02267   1.86801
   A26        1.86377   0.00188   0.00000   0.01673   0.01674   1.88050
   A27        1.92080   0.00012   0.00000  -0.00019  -0.00018   1.92062
   A28        1.88444   0.00018   0.00000   0.00300   0.00301   1.88745
   A29        1.92158   0.00213   0.00000   0.01029   0.01031   1.93188
   A30        1.97968  -0.00192   0.00000  -0.00803  -0.00802   1.97167
   A31        1.99467   0.00120   0.00000   0.00477   0.00476   1.99943
   A32        2.18264  -0.00390   0.00000  -0.01538  -0.01539   2.16725
   A33        2.10583   0.00270   0.00000   0.01069   0.01068   2.11650
   A34        1.92490   0.00201   0.00000   0.01085   0.01087   1.93578
   A35        1.96054  -0.00234   0.00000  -0.01065  -0.01063   1.94991
   A36        1.92343   0.00165   0.00000   0.00796   0.00797   1.93140
   A37        1.87919   0.00089   0.00000   0.00957   0.00959   1.88878
   A38        1.89491  -0.00317   0.00000  -0.02661  -0.02660   1.86831
   A39        1.87887   0.00084   0.00000   0.00798   0.00800   1.88687
   A40        2.06710  -0.00172   0.00000  -0.01222  -0.01263   2.05447
   A41        2.22715  -0.00241   0.00000  -0.01063  -0.01105   2.21610
   A42        1.98881   0.00415   0.00000   0.02365   0.02322   2.01203
   A43        1.94452   0.00335   0.00000   0.01419   0.01422   1.95873
   A44        1.92092  -0.00239   0.00000  -0.01467  -0.01490   1.90603
   A45        1.92609  -0.00277   0.00000  -0.02614  -0.02622   1.89987
   A46        1.88052   0.00066   0.00000   0.01810   0.01814   1.89866
   A47        1.94650  -0.00042   0.00000  -0.00129  -0.00123   1.94527
   A48        1.84195   0.00147   0.00000   0.01029   0.00999   1.85194
    D1        2.64269   0.00179   0.00000   0.04469   0.04443   2.68712
    D2       -0.47851   0.00076   0.00000  -0.01859  -0.01828  -0.49679
    D3        0.63966  -0.00068   0.00000   0.01293   0.01261   0.65227
    D4       -2.48154  -0.00171   0.00000  -0.05035  -0.05010  -2.53164
    D5       -1.49175   0.00036   0.00000   0.02877   0.02848  -1.46326
    D6        1.67023  -0.00067   0.00000  -0.03451  -0.03422   1.63601
    D7       -0.99379   0.00051   0.00000  -0.02454  -0.02461  -1.01840
    D8       -3.07868  -0.00089   0.00000  -0.04663  -0.04656  -3.12524
    D9        1.17852   0.00036   0.00000  -0.03510  -0.03524   1.14328
   D10        1.01268   0.00026   0.00000  -0.01955  -0.01953   0.99315
   D11       -1.07221  -0.00114   0.00000  -0.04164  -0.04148  -1.11369
   D12       -3.09820   0.00011   0.00000  -0.03011  -0.03016  -3.12836
   D13        3.13409   0.00009   0.00000  -0.02579  -0.02581   3.10828
   D14        1.04919  -0.00132   0.00000  -0.04788  -0.04776   1.00143
   D15       -0.97679  -0.00007   0.00000  -0.03635  -0.03644  -1.01323
   D16       -3.13183  -0.00075   0.00000  -0.05061  -0.05101   3.10035
   D17       -1.03843   0.00022   0.00000  -0.03782  -0.03822  -1.07664
   D18        1.05644  -0.00136   0.00000  -0.05867  -0.05908   0.99736
   D19       -0.00977   0.00013   0.00000   0.00959   0.01000   0.00022
   D20        2.08363   0.00110   0.00000   0.02239   0.02279   2.10642
   D21       -2.10469  -0.00049   0.00000   0.00153   0.00193  -2.10276
   D22        3.11727   0.00110   0.00000   0.05099   0.05085  -3.11506
   D23       -0.04329   0.00124   0.00000   0.05668   0.05649   0.01320
   D24       -0.00287   0.00004   0.00000  -0.01548  -0.01529  -0.01816
   D25        3.11975   0.00018   0.00000  -0.00979  -0.00965   3.11010
   D26       -2.22964  -0.00008   0.00000   0.01042   0.01048  -2.21916
   D27       -0.13836   0.00044   0.00000   0.01748   0.01747  -0.12089
   D28        1.98414   0.00007   0.00000   0.01234   0.01223   1.99637
   D29        0.89373  -0.00000   0.00000   0.01555   0.01566   0.90939
   D30        2.98502   0.00053   0.00000   0.02262   0.02264   3.00766
   D31       -1.17568   0.00015   0.00000   0.01748   0.01741  -1.15827
   D32        0.92128  -0.00072   0.00000   0.00680   0.00677   0.92805
   D33       -2.20962  -0.00087   0.00000  -0.00138  -0.00135  -2.21098
   D34       -1.16164   0.00095   0.00000   0.02850   0.02847  -1.13317
   D35        1.99065   0.00079   0.00000   0.02031   0.02034   2.01099
   D36        3.00787   0.00049   0.00000   0.02268   0.02266   3.03053
   D37       -0.12303   0.00033   0.00000   0.01450   0.01453  -0.10850
   D38       -1.05168   0.00079   0.00000   0.00637   0.00633  -1.04536
   D39        3.13515  -0.00016   0.00000  -0.00617  -0.00621   3.12894
   D40        1.04022  -0.00082   0.00000  -0.01469  -0.01473   1.02549
   D41        2.07974   0.00089   0.00000   0.01398   0.01402   2.09376
   D42       -0.01662  -0.00006   0.00000   0.00145   0.00148  -0.01513
   D43       -2.11154  -0.00072   0.00000  -0.00708  -0.00704  -2.11858
   D44        3.12118   0.00020   0.00000  -0.00255  -0.00227   3.11891
   D45       -0.03866   0.00132   0.00000   0.05515   0.05484   0.01618
   D46       -0.00909   0.00005   0.00000  -0.01117  -0.01086  -0.01996
   D47        3.11426   0.00118   0.00000   0.04652   0.04624  -3.12268
   D48        1.80408  -0.00078   0.00000  -0.03087  -0.03114   1.77294
   D49       -2.37038  -0.00127   0.00000  -0.02865  -0.02878  -2.39916
   D50       -0.35670   0.00067   0.00000  -0.00632  -0.00650  -0.36320
   D51       -1.35506   0.00025   0.00000   0.02434   0.02446  -1.33060
   D52        0.75366  -0.00023   0.00000   0.02657   0.02683   0.78049
   D53        2.76734   0.00171   0.00000   0.04890   0.04911   2.81645
         Item               Value     Threshold  Converged?
 Maximum Force            0.014795     0.002500     NO 
 RMS     Force            0.002450     0.001667     NO 
 Maximum Displacement     0.198579     0.010000     NO 
 RMS     Displacement     0.041905     0.006667     NO 
 Predicted change in Energy=-1.802467D-03
 Lowest energy point so far.  Saving SCF results.
 GradGradGradGradGradGradGradGradGradGradGradGradGradGradGradGradGradGrad

 Leave Link  103 at Wed Jul 14 19:43:53 2021, MaxMem=   524288000 cpu:               1.8 elap:               0.4
 (Enter /opt/gaussian/g16_legacy/l202.exe)
                          Input orientation:                          
 ---------------------------------------------------------------------
 Center     Atomic      Atomic             Coordinates (Angstroms)
 Number     Number       Type             X           Y           Z
[...]
                 (A) (A) (A) (A) (A) (A) (A) (A) (A) (A) (A) (A)
                 (A) (A) (A) (A) (A) (A) (A) (A) (A) (A) (A) (A)
                 (A) (A) (A) (A) (A) (A) (A) (A) (A) (A) (A) (A)
                 (A) (A) (A) (A) (A) (A) (A) (A) (A) (A) (A) (A)
                 (A) (A) (A) (A) (A) (A) (A) (A) (A) (A) (A) (A)
                 (A) (A) (A) (A) (A) (A) (A) (A) (A) (A) (A) (A)
                 (A) (A) (A) (A) (A) (A) (A) (A) (A) (A) (A) (A)
                 (A) (A) (A) (A) (A) (A) (A) (A) (A) (A) (A) (A)
                 (A) (A) (A) (A) (A) (A) (A) (A) (A) (A) (A) (A)
                 (A) (A) (A) (A) (A) (A) (A) (A) (A) (A) (A) (A)
                 (A) (A) (A) (A) (A) (A) (A) (A) (A)
 The electronic state is 1-A.
 Alpha  occ. eigenvalues --  -10.54567 -10.54041 -10.53920 -10.53770 -10.53587
 Alpha  occ. eigenvalues --  -10.53429 -10.53397 -10.53303 -10.53198 -10.53071
 Alpha  occ. eigenvalues --   -0.92195  -0.90147  -0.84514  -0.81604  -0.77895
 Alpha  occ. eigenvalues --   -0.76185  -0.71952  -0.68642  -0.58711  -0.57843
 Alpha  occ. eigenvalues --   -0.54705  -0.51375  -0.50897  -0.49634  -0.48971
 Alpha  occ. eigenvalues --   -0.47706  -0.46311  -0.45719  -0.44370  -0.43358
 Alpha  occ. eigenvalues --   -0.43283  -0.42656  -0.41874  -0.40702  -0.39859
 Alpha  occ. eigenvalues --   -0.37789  -0.36448  -0.28907  -0.27213
 Alpha virt. eigenvalues --    0.06582   0.08335   0.11914   0.14545   0.15267
 Alpha virt. eigenvalues --    0.17191   0.17944   0.18668   0.19794   0.20455
 Alpha virt. eigenvalues --    0.20981   0.21763   0.22403   0.23075   0.23579
 Alpha virt. eigenvalues --    0.24220   0.24739   0.25627   0.27137   0.27914
 Alpha virt. eigenvalues --    0.28811   0.29407   0.30181   0.31516   0.32573
 Alpha virt. eigenvalues --    0.38713   0.40485   0.47181   0.48549   0.54518
 Alpha virt. eigenvalues --    0.55077   0.56657   0.57143   0.58783   0.59806
 Alpha virt. eigenvalues --    0.60142   0.61459   0.62498   0.63592   0.65349
 Alpha virt. eigenvalues --    0.66671   0.67772   0.71266   0.72732   0.72954
 Alpha virt. eigenvalues --    0.74753   0.75995   0.77714   0.78160   0.79632
 Alpha virt. eigenvalues --    0.79867   0.81255   0.82753   0.84525   0.86223
 Alpha virt. eigenvalues --    0.87490   0.88712   0.89926   0.92009   0.92759
 Alpha virt. eigenvalues --    0.93339   0.94242   0.95300   0.95837   0.96209
 Alpha virt. eigenvalues --    0.96434   0.97359   0.98587   0.99378   1.00832
 Alpha virt. eigenvalues --    1.01402   1.03370   1.04534   1.05759   1.07470
 Alpha virt. eigenvalues --    1.14111   1.21675   1.22770   1.24462   1.26243
 Alpha virt. eigenvalues --    1.28120   1.32813   1.34605   1.36807   1.37942
 Alpha virt. eigenvalues --    1.40642   1.42768   1.44938   1.47567   1.48638
 Alpha virt. eigenvalues --    1.52196   1.60226   1.68257   1.69812   1.73161
 Alpha virt. eigenvalues --    1.75585   1.78365   1.78856   1.79270   1.83568
 Alpha virt. eigenvalues --    1.84699   1.84976   1.86915   1.87904   1.89333
 Alpha virt. eigenvalues --    1.90275   1.91661   1.94295   1.98122   2.02511
 Alpha virt. eigenvalues --    2.03094   2.04261   2.06327   2.09562   2.09981
 Alpha virt. eigenvalues --    2.10175   2.10335   2.11713   2.13193   2.14621
 Alpha virt. eigenvalues --    2.15051   2.16250   2.17388   2.17496   2.18870
 Alpha virt. eigenvalues --    2.19924   2.21928   2.22622   2.23585   2.25896
 Alpha virt. eigenvalues --    2.29269   2.30553   2.33942   2.34510   2.34760
 Alpha virt. eigenvalues --    2.38495   2.39237   2.43571   2.44014   2.44607
 Alpha virt. eigenvalues --    2.46455   2.47385   2.50212   2.52460   2.54913
 Alpha virt. eigenvalues --    2.56958   2.59740   2.61171   2.62473   2.64197
 Alpha virt. eigenvalues --    2.66652   2.68543   2.69345   2.71226   2.73663
 Alpha virt. eigenvalues --    2.74336   2.75417   2.76809   2.80637   2.84441
 Alpha virt. eigenvalues --    2.84693   2.86549   2.86892   2.87815   2.89377
 Alpha virt. eigenvalues --    2.90913   2.91171   2.92835   2.93863   3.02435
 Alpha virt. eigenvalues --    3.04792   3.10014   3.10368   3.17318   3.19170
 Alpha virt. eigenvalues --    3.20667   3.23783   3.29043   3.36118   3.39348
 Alpha virt. eigenvalues --    3.40931   3.42107   3.43421   3.43869   3.44751
 Alpha virt. eigenvalues --    3.45534   3.47148   3.48069   3.50231   3.52209
 Alpha virt. eigenvalues --    3.57981   4.19395   4.23319   4.34330   4.41925
 Alpha virt. eigenvalues --    4.48539   4.52493   4.53327   4.67112   4.70271
 Alpha virt. eigenvalues --    4.76892
          Condensed to atoms (all electrons):
               1          2          3          4          5          6
     1  C    5.045945   0.380601   0.388230   0.356043  -0.067618   0.004678
     2  H    0.380601   0.600609  -0.033011  -0.028347   0.004327  -0.000174
     3  H    0.388230  -0.033011   0.610732  -0.038488  -0.005914   0.000149
     4  C    0.356043  -0.028347  -0.038488   4.756264   0.371730  -0.034683
     5  C   -0.067618   0.004327  -0.005914   0.371730   4.998094   0.386062
     6  H    0.004678  -0.000174   0.000149  -0.034683   0.386062   0.573462
     7  H   -0.004122   0.000044   0.003624  -0.031719   0.379115  -0.026774
     8  H    0.000447   0.000035  -0.000280  -0.038614   0.382203  -0.027239
     9  C   -0.051335  -0.006961   0.004171   0.720005  -0.043023  -0.005289
    10  H    0.006039  -0.000022  -0.000178  -0.031924  -0.013753   0.006512
    11  C   -0.014367  -0.000688   0.000323  -0.044879   0.006158   0.000073
    12  H    0.000550  -0.000207  -0.000015  -0.000820  -0.000143  -0.000005
    13  H    0.004052   0.003152  -0.000102  -0.009107   0.000107   0.000008
    14  H    0.000081   0.000180   0.000011   0.000590  -0.000139  -0.000007
    15  C    0.000252   0.001163   0.000008  -0.000015  -0.000000  -0.000000
    16  H    0.000149  -0.000167  -0.000003  -0.000009   0.000000  -0.000000
    17  H   -0.000025   0.000025  -0.000000   0.000002   0.000000   0.000000
    18  H   -0.000810  -0.000288   0.000006  -0.000031  -0.000001   0.000000
    19  C   -0.005206   0.002349   0.000162   0.000134  -0.000003   0.000000
    20  C   -0.000073  -0.000098  -0.000003   0.000002  -0.000000   0.000000
    21  H    0.000021  -0.000005  -0.000003  -0.000000   0.000000  -0.000000
    22  H   -0.000003  -0.000001   0.000003   0.000000   0.000000  -0.000000
    23  H   -0.000006   0.000002   0.000000   0.000000  -0.000000   0.000000
    24  C   -0.053172  -0.001451  -0.000905   0.006128  -0.000124   0.000003
    25  H    0.000017  -0.000148   0.002180  -0.000135   0.000007  -0.000000
    26  C    0.351416  -0.039707  -0.043405  -0.044400  -0.001916  -0.000066
    27  H   -0.044380   0.005826  -0.004575  -0.002371   0.001348  -0.000138
    28  H   -0.040955  -0.006319   0.005809  -0.003393  -0.000016   0.000004
               7          8          9         10         11         12
     1  C   -0.004122   0.000447  -0.051335   0.006039  -0.014367   0.000550
     2  H    0.000044   0.000035  -0.006961  -0.000022  -0.000688  -0.000207
     3  H    0.003624  -0.000280   0.004171  -0.000178   0.000323  -0.000015
     4  C   -0.031719  -0.038614   0.720005  -0.031924  -0.044879  -0.000820
     5  C    0.379115   0.382203  -0.043023  -0.013753   0.006158  -0.000143
     6  H   -0.026774  -0.027239  -0.005289   0.006512   0.000073  -0.000005
     7  H    0.587648  -0.036480  -0.000541   0.000312  -0.000164  -0.000006
     8  H   -0.036480   0.594535  -0.001032   0.000166  -0.000165   0.000022
     9  C   -0.000541  -0.001032   4.889554   0.377247   0.361915  -0.033312
    10  H    0.000312   0.000166   0.377247   0.611897  -0.053646  -0.000933
    11  C   -0.000164  -0.000165   0.361915  -0.053646   4.978168   0.386301
    12  H   -0.000006   0.000022  -0.033312  -0.000933   0.386301   0.579703
    13  H    0.000005  -0.000007  -0.035232   0.004457   0.387835  -0.030586
    14  H    0.000018  -0.000004  -0.032592  -0.002005   0.385280  -0.033569
    15  C    0.000000  -0.000000   0.000025  -0.000000  -0.000427  -0.000031
    16  H   -0.000000   0.000000   0.000001  -0.000000  -0.000018  -0.000000
    17  H    0.000000  -0.000000  -0.000000   0.000000   0.000010  -0.000001
    18  H   -0.000000   0.000000  -0.000053   0.000001   0.000105   0.000213
    19  C    0.000000  -0.000001  -0.000007   0.000000   0.000019   0.000002
    20  C   -0.000000  -0.000000   0.000000   0.000000  -0.000000  -0.000000
    21  H   -0.000000   0.000000   0.000000  -0.000000  -0.000000   0.000000
    22  H    0.000000  -0.000000  -0.000000   0.000000   0.000000  -0.000000
    23  H    0.000000   0.000000   0.000000   0.000000   0.000000  -0.000000
    24  C    0.000017  -0.000195   0.000230   0.000003  -0.000041  -0.000016
    25  H   -0.000002   0.000015  -0.000002  -0.000000   0.000000   0.000000
    26  C   -0.000020   0.000973  -0.005916  -0.000090   0.000225   0.000124
    27  H    0.000042   0.002028   0.000201  -0.000007  -0.000007   0.000002
    28  H    0.000003   0.000005   0.002458  -0.000094   0.001421  -0.000060
              13         14         15         16         17         18
     1  C    0.004052   0.000081   0.000252   0.000149  -0.000025  -0.000810
     2  H    0.003152   0.000180   0.001163  -0.000167   0.000025  -0.000288
     3  H   -0.000102   0.000011   0.000008  -0.000003  -0.000000   0.000006
     4  C   -0.009107   0.000590  -0.000015  -0.000009   0.000002  -0.000031
     5  C    0.000107  -0.000139  -0.000000   0.000000   0.000000  -0.000001
     6  H    0.000008  -0.000007  -0.000000  -0.000000   0.000000   0.000000
     7  H    0.000005   0.000018   0.000000  -0.000000   0.000000  -0.000000
     8  H   -0.000007  -0.000004  -0.000000   0.000000  -0.000000   0.000000
     9  C   -0.035232  -0.032592   0.000025   0.000001  -0.000000  -0.000053
    10  H    0.004457  -0.002005  -0.000000  -0.000000   0.000000   0.000001
    11  C    0.387835   0.385280  -0.000427  -0.000018   0.000010   0.000105
    12  H   -0.030586  -0.033569  -0.000031  -0.000000  -0.000001   0.000213
    13  H    0.584740  -0.027078  -0.000011   0.000133  -0.000022   0.002347
    14  H   -0.027078   0.576722   0.000010  -0.000001  -0.000000  -0.000028
    15  C   -0.000011   0.000010   5.008218   0.384249   0.382982   0.381544
    16  H    0.000133  -0.000001   0.384249   0.583325  -0.034683  -0.028875
    17  H   -0.000022  -0.000000   0.382982  -0.034683   0.582314  -0.026149
    18  H    0.002347  -0.000028   0.381544  -0.028875  -0.026149   0.577417
    19  C   -0.000017  -0.000000   0.378802  -0.034963  -0.035954  -0.027088
    20  C    0.000001   0.000000  -0.078321  -0.002491  -0.002875   0.004871
    21  H   -0.000000  -0.000000  -0.001509   0.003981  -0.000840  -0.000042
    22  H   -0.000000  -0.000000   0.004740  -0.000024  -0.000024  -0.000173
    23  H   -0.000000   0.000000  -0.001299  -0.000740   0.004244  -0.000012
    24  C   -0.000013   0.000002  -0.053967  -0.000099   0.001058  -0.009653
    25  H   -0.000002   0.000000   0.006446  -0.000169  -0.000155   0.000029
    26  C   -0.001231   0.000001  -0.014611   0.000612   0.000036   0.003022
    27  H    0.000016  -0.000001   0.000412  -0.000015   0.000013  -0.000068
    28  H   -0.000446   0.000033  -0.000262  -0.000226   0.000151   0.003092
              19         20         21         22         23         24
     1  C   -0.005206  -0.000073   0.000021  -0.000003  -0.000006  -0.053172
     2  H    0.002349  -0.000098  -0.000005  -0.000001   0.000002  -0.001451
     3  H    0.000162  -0.000003  -0.000003   0.000003   0.000000  -0.000905
     4  C    0.000134   0.000002  -0.000000   0.000000   0.000000   0.006128
     5  C   -0.000003  -0.000000   0.000000   0.000000  -0.000000  -0.000124
     6  H    0.000000   0.000000  -0.000000  -0.000000   0.000000   0.000003
     7  H    0.000000  -0.000000  -0.000000   0.000000   0.000000   0.000017
     8  H   -0.000001  -0.000000   0.000000  -0.000000   0.000000  -0.000195
     9  C   -0.000007   0.000000   0.000000  -0.000000   0.000000   0.000230
    10  H    0.000000   0.000000  -0.000000   0.000000   0.000000   0.000003
    11  C    0.000019  -0.000000  -0.000000   0.000000   0.000000  -0.000041
    12  H    0.000002  -0.000000   0.000000  -0.000000  -0.000000  -0.000016
    13  H   -0.000017   0.000001  -0.000000  -0.000000  -0.000000  -0.000013
    14  H   -0.000000   0.000000  -0.000000  -0.000000   0.000000   0.000002
    15  C    0.378802  -0.078321  -0.001509   0.004740  -0.001299  -0.053967
    16  H   -0.034963  -0.002491   0.003981  -0.000024  -0.000740  -0.000099
    17  H   -0.035954  -0.002875  -0.000840  -0.000024   0.004244   0.001058
    18  H   -0.027088   0.004871  -0.000042  -0.000173  -0.000012  -0.009653
    19  C    4.717586   0.368498  -0.036209  -0.033474  -0.035684   0.721778
    20  C    0.368498   5.005500   0.381472   0.385088   0.381252  -0.038399
    21  H   -0.036209   0.381472   0.591106  -0.026432  -0.036762  -0.000708
    22  H   -0.033474   0.385088  -0.026432   0.569943  -0.026266  -0.004952
    23  H   -0.035684   0.381252  -0.036762  -0.026266   0.590175  -0.001371
    24  C    0.721778  -0.038399  -0.000708  -0.004952  -0.001371   4.917725
    25  H   -0.033861  -0.014238   0.000237   0.006503   0.000255   0.376119
    26  C   -0.039104   0.005769  -0.000105   0.000104  -0.000207   0.349186
    27  H    0.002694  -0.000169  -0.000001  -0.000010   0.000009  -0.029863
    28  H   -0.006757   0.000040  -0.000008   0.000011   0.000012  -0.037088
              25         26         27         28
     1  C    0.000017   0.351416  -0.044380  -0.040955
     2  H   -0.000148  -0.039707   0.005826  -0.006319
     3  H    0.002180  -0.043405  -0.004575   0.005809
     4  C   -0.000135  -0.044400  -0.002371  -0.003393
     5  C    0.000007  -0.001916   0.001348  -0.000016
     6  H   -0.000000  -0.000066  -0.000138   0.000004
     7  H   -0.000002  -0.000020   0.000042   0.000003
     8  H    0.000015   0.000973   0.002028   0.000005
     9  C   -0.000002  -0.005916   0.000201   0.002458
    10  H   -0.000000  -0.000090  -0.000007  -0.000094
    11  C    0.000000   0.000225  -0.000007   0.001421
    12  H    0.000000   0.000124   0.000002  -0.000060
    13  H   -0.000002  -0.001231   0.000016  -0.000446
    14  H    0.000000   0.000001  -0.000001   0.000033
    15  C    0.006446  -0.014611   0.000412  -0.000262
    16  H   -0.000169   0.000612  -0.000015  -0.000226
    17  H   -0.000155   0.000036   0.000013   0.000151
    18  H    0.000029   0.003022  -0.000068   0.003092
    19  C   -0.033861  -0.039104   0.002694  -0.006757
    20  C   -0.014238   0.005769  -0.000169   0.000040
    21  H    0.000237  -0.000105  -0.000001  -0.000008
    22  H    0.006503   0.000104  -0.000010   0.000011
    23  H    0.000255  -0.000207   0.000009   0.000012
    24  C    0.376119   0.349186  -0.029863  -0.037088
    25  H    0.612681  -0.050366  -0.005109   0.004504
    26  C   -0.050366   4.996518   0.386760   0.390799
    27  H   -0.005109   0.386760   0.604017  -0.033180
    28  H    0.004504   0.390799  -0.033180   0.603564
 Mulliken charges:
               1
     1  C   -0.256448
     2  H    0.119280
     3  H    0.111472
     4  C    0.098037
     5  C   -0.396500
     6  H    0.123426
     7  H    0.128999
     8  H    0.123588
     9  C   -0.140511
    10  H    0.096017
    11  C   -0.393430
    12  H    0.132787
    13  H    0.117002
    14  H    0.132496
    15  C   -0.398398
    16  H    0.130034
    17  H    0.129894
    18  H    0.120624
    19  C    0.096304
    20  C   -0.395826
    21  H    0.125808
    22  H    0.124968
    23  H    0.126395
    24  C   -0.140236
    25  H    0.095194
    26  C   -0.244401
    27  H    0.116527
    28  H    0.116898
 Sum of Mulliken charges =  -0.00000
 Mulliken charges with hydrogens summed into heavy atoms:
               1
     1  C   -0.025696
     4  C    0.098037
     5  C   -0.020488
     9  C   -0.044494
    11  C   -0.011145
    15  C   -0.017845
    19  C    0.096304
    20  C   -0.018655
    24  C   -0.045041
    26  C   -0.010976
 Electronic spatial extent (au):  <R**2>=           2351.1145
 Charge=             -0.0000 electrons
 Dipole moment (field-independent basis, Debye):
    X=             -0.2944    Y=              0.1661    Z=              0.0685  Tot=              0.3449
 Quadrupole moment (field-independent basis, Debye-Ang):
   XX=            -62.9781   YY=            -62.2068   ZZ=            -66.5059
   XY=             -0.7397   XZ=             -1.2398   YZ=             -0.2329
 Traceless Quadrupole moment (field-independent basis, Debye-Ang):
   XX=              0.9188   YY=              1.6901   ZZ=             -2.6090
   XY=             -0.7397   XZ=             -1.2398   YZ=             -0.2329
 Octapole moment (field-independent basis, Debye-Ang**2):
  XXX=             -4.0757  YYY=             -1.9375  ZZZ=              1.3091  XYY=              1.2602
  XXY=              3.6246  XXZ=             -1.2956  XZZ=             -1.1216  YZZ=              1.4153
  YYZ=              0.0407  XYZ=             -0.1706
 Hexadecapole moment (field-independent basis, Debye-Ang**3):
 XXXX=          -2362.1472 YYYY=           -682.1835 ZZZZ=           -161.6429 XXXY=             -4.1334
 XXXZ=            -12.7913 YYYX=             12.7979 YYYZ=             -0.2034 ZZZX=             -4.3495
 ZZZY=             -0.9865 XXYY=           -503.6881 XXZZ=           -437.0163 YYZZ=           -135.9660
 XXYZ=             -4.1583 YYXZ=              1.4921 ZZXY=             -6.1812
 N-N= 5.205803928845D+02 E-N=-1.946210286920D+03  KE= 3.881384093758D+02
 No NMR shielding tensors so no spin-rotation constants.
 Leave Link  601 at Wed Jul 14 20:00:24 2021, MaxMem=   524288000 cpu:               1.2 elap:               0.2
 (Enter /opt/gaussian/g16_legacy/l9999.exe)
 1\1\GINC-TRUENO91\FOpt\RM062X\6-31G(d,p)\C10H18\JRAMOS\14-Jul-2021\0\\
 #p opt=loose m062x/6-31g(d,p)\\Conformer number 166. Energy MM = 23.24
 2 kcal/mol\\0,1\C,-0.8156777113,0.816713863,-0.0204544068\H,-0.7859603
 02,0.5265030988,1.0349211888\H,-0.7257859068,1.9097432018,-0.040721632
 1\C,-2.1132558451,0.4012355255,-0.6752279181\C,-2.6249376677,1.3365851
 427,-1.7384096328\H,-3.5106703257,0.9384188046,-2.2384677912\H,-2.8796
 658997,2.312125625,-1.3084094871\H,-1.8561082523,1.5198524415,-2.49880
 13049\C,-2.7472171515,-0.7395837098,-0.3874592037\H,-3.6590482433,-0.9
 668625544,-0.9396150493\C,-2.3285682266,-1.7705993963,0.6195396626\H,-
 2.0958152008,-2.7216694688,0.127409258\H,-1.4464702433,-1.466110629,1.
 1871455925\H,-3.1343474108,-1.9732533424,1.3329117717\C,2.001145954,-1
 .1689360537,1.5243537956\H,1.8461485496,-0.9929273308,2.5952528013\H,2
 .7988363053,-1.9161887249,1.4420249782\H,1.0856484079,-1.6021573498,1.
 1185883736\C,2.4022824066,0.1115701725,0.841362917\C,3.6739115004,0.72
 59523417,1.3634622247\H,3.5906089091,0.9435956427,2.4346992829\H,3.918
 6264892,1.6539638397,0.8422916963\H,4.5161621267,0.0337031723,1.247990
 4173\C,1.7054590932,0.6871414689,-0.1436909507\H,2.0805399794,1.630443
 1434,-0.541296865\C,0.4085330325,0.2016401074,-0.7297662959\H,0.367938
 8159,0.4582309853,-1.7949585382\H,0.327786817,-0.8890300167,-0.6772748
 844\\Version=EM64L-G16RevA.03\State=1-A\HF=-391.6905457\RMSD=3.013e-09
 \RMSF=1.570e-05\Dipole=0.0916766,-0.036486,0.0931387\Quadrupole=-0.184
 343,0.4424666,-0.2581235,0.4983381,1.4285115,-1.2841049\PG=C01 [X(C10H
 18)]\\@


 Human beings, who are almost unique in having the
 ability to learn from the experience of others, are
 also remarkable for their apparent disinclination to do so.
                               -- Douglas Adams,
                                Last Chance to See
 Job cpu time:       0 days  1 hours 48 minutes 43.7 seconds.
 Elapsed time:       0 days  0 hours 18 minutes 17.3 seconds.
 File lengths (MBytes):  RWF=     42 Int=      0 D2E=      0 Chk=      6 Scr=      1
 Normal termination of Gaussian 16 at Wed Jul 14 20:00:25 2021.
