 Entering Gaussian System, Link 0=/opt/gaussian/g16_legacy/g16
 Input=IsoP_rdkit_03_356_gaussian.com
 Output=IsoP_rdkit_03_356_gaussian.log
 Initial command:
 /opt/gaussian/g16_legacy/l1.exe "/scratch-local/jramos/2643487/Gau-23996.inp" -scrdir="/scratch-local/jramos/2643487/"
 Entering Link 1 = /opt/gaussian/g16_legacy/l1.exe PID=     23998.
  
 Copyright (c) 1988,1990,1992,1993,1995,1998,2003,2009,2016,
            Gaussian, Inc.  All Rights Reserved.
  
 This is part of the Gaussian(R) 16 program.  It is based on
 the Gaussian(R) 09 system (copyright 2009, Gaussian, Inc.),
 the Gaussian(R) 03 system (copyright 2003, Gaussian, Inc.),
 the Gaussian(R) 98 system (copyright 1998, Gaussian, Inc.),
 the Gaussian(R) 94 system (copyright 1995, Gaussian, Inc.),
 the Gaussian 92(TM) system (copyright 1992, Gaussian, Inc.),
 the Gaussian 90(TM) system (copyright 1990, Gaussian, Inc.),
 the Gaussian 88(TM) system (copyright 1988, Gaussian, Inc.),
 the Gaussian 86(TM) system (copyright 1986, Carnegie Mellon
 University), and the Gaussian 82(TM) system (copyright 1983,
 Carnegie Mellon University). Gaussian is a federally registered
 trademark of Gaussian, Inc.
  
 This software contains proprietary and confidential information,
 including trade secrets, belonging to Gaussian, Inc.
  
 This software is provided under written license and may be
 used, copied, transmitted, or stored only in accord with that
 written license.
  
 The following legend is applicable only to US Government
 contracts under FAR:
  
                    RESTRICTED RIGHTS LEGEND
  
 Use, reproduction and disclosure by the US Government is
 subject to restrictions as set forth in subparagraphs (a)
 and (c) of the Commercial Computer Software - Restricted
 Rights clause in FAR 52.227-19.
  
 Gaussian, Inc.
 340 Quinnipiac St., Bldg. 40, Wallingford CT 06492
  
  
 ---------------------------------------------------------------
 Warning -- This program may not be used in any manner that
 competes with the business of Gaussian, Inc. or will provide
 assistance to any competitor of Gaussian, Inc.  The licensee
 of this program is prohibited from giving any competitor of
 Gaussian, Inc. access to this program.  By using this program,
 the user acknowledges that Gaussian, Inc. is engaged in the
 business of creating and licensing software in the field of
 computational chemistry and represents and warrants to the
 licensee that it is not a competitor of Gaussian, Inc. and that
 it will not use this program in any manner prohibited above.
 ---------------------------------------------------------------
  

 Cite this work as:
 Gaussian 16, Revision A.03,
 M. J. Frisch, G. W. Trucks, H. B. Schlegel, G. E. Scuseria, 
 M. A. Robb, J. R. Cheeseman, G. Scalmani, V. Barone, 
 G. A. Petersson, H. Nakatsuji, X. Li, M. Caricato, A. V. Marenich, 
 J. Bloino, B. G. Janesko, R. Gomperts, B. Mennucci, H. P. Hratchian, 
 J. V. Ortiz, A. F. Izmaylov, J. L. Sonnenberg, D. Williams-Young, 
 F. Ding, F. Lipparini, F. Egidi, J. Goings, B. Peng, A. Petrone, 
 T. Henderson, D. Ranasinghe, V. G. Zakrzewski, J. Gao, N. Rega, 
 G. Zheng, W. Liang, M. Hada, M. Ehara, K. Toyota, R. Fukuda, 
 J. Hasegawa, M. Ishida, T. Nakajima, Y. Honda, O. Kitao, H. Nakai, 
 T. Vreven, K. Throssell, J. A. Montgomery, Jr., J. E. Peralta, 
 F. Ogliaro, M. J. Bearpark, J. J. Heyd, E. N. Brothers, K. N. Kudin, 
 V. N. Staroverov, T. A. Keith, R. Kobayashi, J. Normand, 
 K. Raghavachari, A. P. Rendell, J. C. Burant, S. S. Iyengar, 
 J. Tomasi, M. Cossi, J. M. Millam, M. Klene, C. Adamo, R. Cammi, 
 J. W. Ochterski, R. L. Martin, K. Morokuma, O. Farkas, 
 J. B. Foresman, and D. J. Fox, Gaussian, Inc., Wallingford CT, 2016.
 
 ******************************************
 Gaussian 16:  EM64L-G16RevA.03 25-Dec-2016
                14-Jul-2021 
 ******************************************
 %chk=IsoP_rdkit_03_356_gaussian.chk
 %nproc=6
 Will use up to    6 processors via shared memory.
 %mem=4000Mb
 -----------------------------
 #p opt=loose m062x/6-31g(d,p)
 -----------------------------
 1/7=-1,18=20,19=15,26=3,38=1/1,3;
 2/9=110,12=2,17=6,18=5,40=1/2;
 3/5=1,6=6,7=101,11=2,25=1,30=1,71=1,74=-55/1,2,3;
 4//1;
 5/5=2,38=5/2;
 6/7=2,8=2,9=2,10=2,28=1/1;
 7//1,2,3,16;
 1/7=-1,18=20,19=15,26=3/3(2);
 2/9=110/2;
 99//99;
 2/9=110/2;
 3/5=1,6=6,7=101,11=2,25=1,30=1,71=1,74=-55/1,2,3;
 4/5=5,16=3,69=1/1;
 5/5=2,38=5/2;
 7//1,2,3,16;
 1/7=-1,18=20,19=15,26=3/3(-5);
 2/9=110/2;
 6/7=2,8=2,9=2,10=2,19=2,28=1/1;
 99/9=1/99;
 Leave Link    1 at Wed Jul 14 20:04:02 2021, MaxMem=   524288000 cpu:               1.9 elap:               0.5
 (Enter /opt/gaussian/g16_legacy/l101.exe)
 -------------------------------------------------
 Conformer number 356. Energy MM = 23.287 kcal/mol
 -------------------------------------------------
 Symbolic Z-matrix:
 Charge =  0 Multiplicity = 1
 C                    -0.7766   -0.5955    0.1574 
 H                    -1.1351   -0.8646    1.1582 
 H                    -0.1644   -1.4498   -0.1615 
 C                    -1.9384   -0.4379   -0.8018 
 C                    -1.6169   -0.7305   -2.2453 
 H                    -2.4894   -0.6129   -2.8966 
 H                    -0.8392   -0.052    -2.6098 
 H                    -1.2599   -1.7599   -2.3534 
 C                    -3.1879   -0.09     -0.4356 
 H                    -3.9577   -0.0274   -1.2043 
 C                    -3.6725    0.2552    0.9369 
 H                    -2.8701    0.3433    1.6727 
 H                    -4.3788   -0.5052    1.2838 
 H                    -4.1947    1.217     0.9078 
 C                     3.0913    0.0988   -0.4497 
 H                     3.7605    0.9315   -0.6891 
 H                     3.6666   -0.8318   -0.503 
 H                     2.329     0.0434   -1.2301 
 C                     2.5211    0.2743    0.9308 
 C                     3.5361    0.1661    2.0388 
 H                     3.0883    0.3057    3.0284 
 H                     4.3132    0.9276    1.9157 
 H                     4.0098   -0.821     2.0247 
 C                     1.222     0.4986    1.209 
 H                     0.9229    0.591     2.2533 
 C                     0.0883    0.6668    0.2328 
 H                    -0.5214    1.5157    0.5684 
 H                     0.4541    0.9436   -0.761 
 
 ITRead=  0  0  0  0  0  0  0  0  0  0  0  0  0  0  0  0  0  0  0  0
 ITRead=  0  0  0  0  0  0  0  0
 MicOpt= -1 -1 -1 -1 -1 -1 -1 -1 -1 -1 -1 -1 -1 -1 -1 -1 -1 -1 -1 -1
 MicOpt= -1 -1 -1 -1 -1 -1 -1 -1
 NAtoms=     28 NQM=       28 NQMF=       0 NMMI=      0 NMMIF=      0
                NMic=       0 NMicF=      0.
                    Isotopes and Nuclear Properties:
 (Nuclear quadrupole moments (NQMom) in fm**2, nuclear magnetic moments (NMagM)
  in nuclear magnetons)

  Atom         1           2           3           4           5           6           7           8           9          10
 IAtWgt=          12           1           1          12          12           1           1           1          12           1
 AtmWgt=  12.0000000   1.0078250   1.0078250  12.0000000  12.0000000   1.0078250   1.0078250   1.0078250  12.0000000   1.0078250
 NucSpn=           0           1           1           0           0           1           1           1           0           1
 AtZEff=  -0.0000000  -0.0000000  -0.0000000  -0.0000000  -0.0000000  -0.0000000  -0.0000000  -0.0000000  -0.0000000  -0.0000000
 NQMom=    0.0000000   0.0000000   0.0000000   0.0000000   0.0000000   0.0000000   0.0000000   0.0000000   0.0000000   0.0000000
 NMagM=    0.0000000   2.7928460   2.7928460   0.0000000   0.0000000   2.7928460   2.7928460   2.7928460   0.0000000   2.7928460
 AtZNuc=   6.0000000   1.0000000   1.0000000   6.0000000   6.0000000   1.0000000   1.0000000   1.0000000   6.0000000   1.0000000

  Atom        11          12          13          14          15          16          17          18          19          20
 IAtWgt=          12           1           1           1          12           1           1           1          12          12
 AtmWgt=  12.0000000   1.0078250   1.0078250   1.0078250  12.0000000   1.0078250   1.0078250   1.0078250  12.0000000  12.0000000
 NucSpn=           0           1           1           1           0           1           1           1           0           0
 AtZEff=  -0.0000000  -0.0000000  -0.0000000  -0.0000000  -0.0000000  -0.0000000  -0.0000000  -0.0000000  -0.0000000  -0.0000000
 NQMom=    0.0000000   0.0000000   0.0000000   0.0000000   0.0000000   0.0000000   0.0000000   0.0000000   0.0000000   0.0000000
 NMagM=    0.0000000   2.7928460   2.7928460   2.7928460   0.0000000   2.7928460   2.7928460   2.7928460   0.0000000   0.0000000
 AtZNuc=   6.0000000   1.0000000   1.0000000   1.0000000   6.0000000   1.0000000   1.0000000   1.0000000   6.0000000   6.0000000

  Atom        21          22          23          24          25          26          27          28
 IAtWgt=           1           1           1          12           1          12           1           1
 AtmWgt=   1.0078250   1.0078250   1.0078250  12.0000000   1.0078250  12.0000000   1.0078250   1.0078250
 NucSpn=           1           1           1           0           1           0           1           1
 AtZEff=  -0.0000000  -0.0000000  -0.0000000  -0.0000000  -0.0000000  -0.0000000  -0.0000000  -0.0000000
 NQMom=    0.0000000   0.0000000   0.0000000   0.0000000   0.0000000   0.0000000   0.0000000   0.0000000
 NMagM=    2.7928460   2.7928460   2.7928460   0.0000000   2.7928460   0.0000000   2.7928460   2.7928460
 AtZNuc=   1.0000000   1.0000000   1.0000000   6.0000000   1.0000000   6.0000000   1.0000000   1.0000000
 Leave Link  101 at Wed Jul 14 20:04:02 2021, MaxMem=   524288000 cpu:               1.8 elap:               0.4
 (Enter /opt/gaussian/g16_legacy/l103.exe)

 GradGradGradGradGradGradGradGradGradGradGradGradGradGradGradGradGradGrad
 Berny optimization.
 Initialization pass.
                           ----------------------------
                           !    Initial Parameters    !
                           ! (Angstroms and Degrees)  !
 --------------------------                            --------------------------
 ! Name  Definition              Value          Derivative Info.                !
 --------------------------------------------------------------------------------
 ! R1    R(1,2)                  1.0966         estimate D2E/DX2                !
 ! R2    R(1,3)                  1.0983         estimate D2E/DX2                !
 ! R3    R(1,4)                  1.5148         estimate D2E/DX2                !
 ! R4    R(1,26)                 1.532          estimate D2E/DX2                !
 ! R5    R(4,5)                  1.5075         estimate D2E/DX2                !
 ! R6    R(4,9)                  1.3477         estimate D2E/DX2                !
 ! R7    R(5,6)                  1.0951         estimate D2E/DX2                !
 ! R8    R(5,7)                  1.0946         estimate D2E/DX2                !
 ! R9    R(5,8)                  1.0949         estimate D2E/DX2                !
 ! R10   R(9,10)                 1.0897         estimate D2E/DX2                !
 ! R11   R(9,11)                 1.4959         estimate D2E/DX2                !
 ! R12   R(11,12)                1.0922         estimate D2E/DX2                !
 ! R13   R(11,13)                1.0943         estimate D2E/DX2                !
 ! R14   R(11,14)                1.0948         estimate D2E/DX2                !
 ! R15   R(15,16)                1.0948         estimate D2E/DX2                !
 ! R16   R(15,17)                1.0954         estimate D2E/DX2                !
 ! R17   R(15,18)                1.0923         estimate D2E/DX2                !
 ! R18   R(15,19)                1.5039         estimate D2E/DX2                !
 ! R19   R(19,20)                1.5065         estimate D2E/DX2                !
 ! R20   R(19,24)                1.3474         estimate D2E/DX2                !
 ! R21   R(20,21)                1.0951         estimate D2E/DX2                !
 ! R22   R(20,22)                1.095          estimate D2E/DX2                !
 ! R23   R(20,23)                1.095          estimate D2E/DX2                !
 ! R24   R(24,25)                1.0902         estimate D2E/DX2                !
 ! R25   R(24,26)                1.5055         estimate D2E/DX2                !
 ! R26   R(26,27)                1.0977         estimate D2E/DX2                !
 ! R27   R(26,28)                1.0946         estimate D2E/DX2                !
 ! A1    A(2,1,3)              104.8527         estimate D2E/DX2                !
 ! A2    A(2,1,4)              110.6519         estimate D2E/DX2                !
 ! A3    A(2,1,26)             109.9886         estimate D2E/DX2                !
 ! A4    A(3,1,4)              108.9393         estimate D2E/DX2                !
 ! A5    A(3,1,26)             109.9068         estimate D2E/DX2                !
 ! A6    A(4,1,26)             112.2359         estimate D2E/DX2                !
 ! A7    A(1,4,5)              114.9962         estimate D2E/DX2                !
 ! A8    A(1,4,9)              124.4618         estimate D2E/DX2                !
 ! A9    A(5,4,9)              120.5302         estimate D2E/DX2                !
 ! A10   A(4,5,6)              112.2542         estimate D2E/DX2                !
 ! A11   A(4,5,7)              110.4922         estimate D2E/DX2                !
 ! A12   A(4,5,8)              110.2766         estimate D2E/DX2                !
 ! A13   A(6,5,7)              107.5456         estimate D2E/DX2                !
 ! A14   A(6,5,8)              107.579          estimate D2E/DX2                !
 ! A15   A(7,5,8)              108.5576         estimate D2E/DX2                !
 ! A16   A(4,9,10)             118.5617         estimate D2E/DX2                !
 ! A17   A(4,9,11)             127.532          estimate D2E/DX2                !
 ! A18   A(10,9,11)            113.8991         estimate D2E/DX2                !
 ! A19   A(9,11,12)            113.4975         estimate D2E/DX2                !
 ! A20   A(9,11,13)            109.8527         estimate D2E/DX2                !
 ! A21   A(9,11,14)            109.4423         estimate D2E/DX2                !
 ! A22   A(12,11,13)           108.4612         estimate D2E/DX2                !
 ! A23   A(12,11,14)           107.3045         estimate D2E/DX2                !
 ! A24   A(13,11,14)           108.1215         estimate D2E/DX2                !
 ! A25   A(16,15,17)           108.3315         estimate D2E/DX2                !
 ! A26   A(16,15,18)           107.9947         estimate D2E/DX2                !
 ! A27   A(16,15,19)           110.1044         estimate D2E/DX2                !
 ! A28   A(17,15,18)           106.7786         estimate D2E/DX2                !
 ! A29   A(17,15,19)           110.0563         estimate D2E/DX2                !
 ! A30   A(18,15,19)           113.3994         estimate D2E/DX2                !
 ! A31   A(15,19,20)           114.2863         estimate D2E/DX2                !
 ! A32   A(15,19,24)           125.0669         estimate D2E/DX2                !
 ! A33   A(20,19,24)           120.6443         estimate D2E/DX2                !
 ! A34   A(19,20,21)           112.3305         estimate D2E/DX2                !
 ! A35   A(19,20,22)           110.2139         estimate D2E/DX2                !
 ! A36   A(19,20,23)           110.2883         estimate D2E/DX2                !
 ! A37   A(21,20,22)           107.6462         estimate D2E/DX2                !
 ! A38   A(21,20,23)           107.6648         estimate D2E/DX2                !
 ! A39   A(22,20,23)           108.5706         estimate D2E/DX2                !
 ! A40   A(19,24,25)           118.4517         estimate D2E/DX2                !
 ! A41   A(19,24,26)           127.6461         estimate D2E/DX2                !
 ! A42   A(25,24,26)           113.8943         estimate D2E/DX2                !
 ! A43   A(1,26,24)            111.4064         estimate D2E/DX2                !
 ! A44   A(1,26,27)            109.7952         estimate D2E/DX2                !
 ! A45   A(1,26,28)            110.6309         estimate D2E/DX2                !
 ! A46   A(24,26,27)           107.8434         estimate D2E/DX2                !
 ! A47   A(24,26,28)           111.4273         estimate D2E/DX2                !
 ! A48   A(27,26,28)           105.5237         estimate D2E/DX2                !
 ! D1    D(2,1,4,5)           -151.7285         estimate D2E/DX2                !
 ! D2    D(2,1,4,9)             27.0224         estimate D2E/DX2                !
 ! D3    D(3,1,4,5)            -36.96           estimate D2E/DX2                !
 ! D4    D(3,1,4,9)            141.7908         estimate D2E/DX2                !
 ! D5    D(26,1,4,5)            84.9905         estimate D2E/DX2                !
 ! D6    D(26,1,4,9)           -96.2587         estimate D2E/DX2                !
 ! D7    D(2,1,26,24)           55.3247         estimate D2E/DX2                !
 ! D8    D(2,1,26,27)          -64.0744         estimate D2E/DX2                !
 ! D9    D(2,1,26,28)          179.857          estimate D2E/DX2                !
 ! D10   D(3,1,26,24)          -59.6251         estimate D2E/DX2                !
 ! D11   D(3,1,26,27)         -179.0242         estimate D2E/DX2                !
 ! D12   D(3,1,26,28)           64.9073         estimate D2E/DX2                !
 ! D13   D(4,1,26,24)          178.9773         estimate D2E/DX2                !
 ! D14   D(4,1,26,27)           59.5782         estimate D2E/DX2                !
 ! D15   D(4,1,26,28)          -56.4904         estimate D2E/DX2                !
 ! D16   D(1,4,5,6)            179.4134         estimate D2E/DX2                !
 ! D17   D(1,4,5,7)            -60.5429         estimate D2E/DX2                !
 ! D18   D(1,4,5,8)             59.4754         estimate D2E/DX2                !
 ! D19   D(9,4,5,6)              0.6092         estimate D2E/DX2                !
 ! D20   D(9,4,5,7)            120.6528         estimate D2E/DX2                !
 ! D21   D(9,4,5,8)           -119.3289         estimate D2E/DX2                !
 ! D22   D(1,4,9,10)          -178.5657         estimate D2E/DX2                !
 ! D23   D(1,4,9,11)             2.4809         estimate D2E/DX2                !
 ! D24   D(5,4,9,10)             0.1199         estimate D2E/DX2                !
 ! D25   D(5,4,9,11)          -178.8335         estimate D2E/DX2                !
 ! D26   D(4,9,11,12)            8.0346         estimate D2E/DX2                !
 ! D27   D(4,9,11,13)         -113.5724         estimate D2E/DX2                !
 ! D28   D(4,9,11,14)          127.8642         estimate D2E/DX2                !
 ! D29   D(10,9,11,12)        -170.96           estimate D2E/DX2                !
 ! D30   D(10,9,11,13)          67.4331         estimate D2E/DX2                !
 ! D31   D(10,9,11,14)         -51.1304         estimate D2E/DX2                !
 ! D32   D(16,15,19,20)        -66.7597         estimate D2E/DX2                !
 ! D33   D(16,15,19,24)        113.8204         estimate D2E/DX2                !
 ! D34   D(17,15,19,20)         52.5927         estimate D2E/DX2                !
 ! D35   D(17,15,19,24)       -126.8273         estimate D2E/DX2                !
 ! D36   D(18,15,19,20)        172.1194         estimate D2E/DX2                !
 ! D37   D(18,15,19,24)         -7.3005         estimate D2E/DX2                !
 ! D38   D(15,19,20,21)        179.5997         estimate D2E/DX2                !
 ! D39   D(15,19,20,22)         59.569          estimate D2E/DX2                !
 ! D40   D(15,19,20,23)        -60.2948         estimate D2E/DX2                !
 ! D41   D(24,19,20,21)         -0.9521         estimate D2E/DX2                !
 ! D42   D(24,19,20,22)       -120.9828         estimate D2E/DX2                !
 ! D43   D(24,19,20,23)        119.1534         estimate D2E/DX2                !
 ! D44   D(15,19,24,25)        178.865          estimate D2E/DX2                !
 ! D45   D(15,19,24,26)         -2.2318         estimate D2E/DX2                !
 ! D46   D(20,19,24,25)         -0.5205         estimate D2E/DX2                !
 ! D47   D(20,19,24,26)        178.3827         estimate D2E/DX2                !
 ! D48   D(19,24,26,1)         103.6585         estimate D2E/DX2                !
 ! D49   D(19,24,26,27)       -135.7889         estimate D2E/DX2                !
 ! D50   D(19,24,26,28)        -20.4251         estimate D2E/DX2                !
 ! D51   D(25,24,26,1)         -77.3962         estimate D2E/DX2                !
 ! D52   D(25,24,26,27)         43.1563         estimate D2E/DX2                !
 ! D53   D(25,24,26,28)        158.5202         estimate D2E/DX2                !
 --------------------------------------------------------------------------------
 Trust Radius=3.00D-01 FncErr=1.00D-07 GrdErr=1.00D-06 EigMax=2.50D+02 EigMin=1.00D-04
 Number of steps in this run=    138 maximum allowed number of steps=    168.
 GradGradGradGradGradGradGradGradGradGradGradGradGradGradGradGradGradGrad

 Leave Link  103 at Wed Jul 14 20:04:03 2021, MaxMem=   524288000 cpu:               0.6 elap:               0.3
 (Enter /opt/gaussian/g16_legacy/l202.exe)
                          Input orientation:                          
 ---------------------------------------------------------------------
 Center     Atomic      Atomic             Coordinates (Angstroms)
 Number     Number       Type             X           Y           Z
 ---------------------------------------------------------------------
      1          6           0       -0.776600   -0.595500    0.157400
      2          1           0       -1.135100   -0.864600    1.158200
      3          1           0       -0.164400   -1.449800   -0.161500
      4          6           0       -1.938400   -0.437900   -0.801800
      5          6           0       -1.616900   -0.730500   -2.245300
      6          1           0       -2.489400   -0.612900   -2.896600
      7          1           0       -0.839200   -0.052000   -2.609800
      8          1           0       -1.259900   -1.759900   -2.353400
      9          6           0       -3.187900   -0.090000   -0.435600
     10          1           0       -3.957700   -0.027400   -1.204300
     11          6           0       -3.672500    0.255200    0.936900
     12          1           0       -2.870100    0.343300    1.672700
     13          1           0       -4.378800   -0.505200    1.283800
     14          1           0       -4.194700    1.217000    0.907800
     15          6           0        3.091300    0.098800   -0.449700
     16          1           0        3.760500    0.931500   -0.689100
     17          1           0        3.666600   -0.831800   -0.503000
     18          1           0        2.329000    0.043400   -1.230100
     19          6           0        2.521100    0.274300    0.930800
     20          6           0        3.536100    0.166100    2.038800
     21          1           0        3.088300    0.305700    3.028400
     22          1           0        4.313200    0.927600    1.915700
     23          1           0        4.009800   -0.821000    2.024700
     24          6           0        1.222000    0.498600    1.209000
     25          1           0        0.922900    0.591000    2.253300
     26          6           0        0.088300    0.666800    0.232800
     27          1           0       -0.521400    1.515700    0.568400
     28          1           0        0.454100    0.943600   -0.761000
 ---------------------------------------------------------------------
                    Distance matrix (angstroms):
                    1          2          3          4          5
     1  C    0.000000
     2  H    1.096603   0.000000
     3  H    1.098324   1.739634   0.000000
     4  C    1.514821   2.160779   2.140327   0.000000
     5  C    2.548979   3.440047   2.639957   1.507537   0.000000
     6  H    3.501557   4.282392   3.686027   2.173111   1.095115
     7  H    2.820764   3.865967   2.898857   2.150819   1.094550
     8  H    2.809541   3.626082   2.469961   2.148374   1.094897
     9  C    2.534077   2.711861   3.326521   1.347734   2.480584
    10  H    3.506617   3.774835   4.183274   2.099545   2.656572
    11  C    3.117298   2.782324   4.052194   2.551581   3.914523
    12  H    2.749586   2.175766   3.728312   2.757080   4.251386
    13  H    3.775285   3.265966   4.554375   3.210889   4.487026
    14  H    3.941023   3.709031   4.949600   3.279072   4.514405
    15  C    3.976339   4.623412   3.616739   5.070493   5.106767
    16  H    4.861437   5.532214   4.621016   5.862203   5.839558
    17  H    4.498221   5.081042   3.895524   5.626763   5.564283
    18  H    3.460939   4.304466   3.096546   4.315761   4.147250
    19  C    3.497074   3.836222   3.373062   4.836969   5.312276
    20  C    4.766454   4.863940   4.598495   6.197094   6.760977
    21  H    4.898189   4.764909   4.882346   6.363261   7.143146
    22  H    5.596206   5.785306   5.478658   6.952115   7.431642
    23  H    5.142692   5.217540   4.753820   6.596738   7.064053
    24  C    2.509446   2.723383   2.756200   3.861150   4.637050
    25  H    2.947691   2.748341   3.343403   4.310372   5.332387
    26  C    1.532037   2.167547   2.167793   2.529481   3.316796
    27  H    2.165921   2.527908   3.074800   2.775228   3.763302
    28  H    2.174146   3.078713   2.543680   2.763017   3.048737
                    6          7          8          9         10
     6  H    0.000000
     7  H    1.766359   0.000000
     8  H    1.767016   1.777541   0.000000
     9  C    2.611101   3.200778   3.191192   0.000000
    10  H    2.315728   3.420684   3.405894   1.089684   0.000000
    11  C    4.104759   4.549840   4.550532   1.495913   2.178518
    12  H    4.683776   4.756114   4.819302   2.175701   3.097971
    13  H    4.588810   5.281504   4.952881   2.132363   2.568318
    14  H    4.553026   5.024266   5.301925   2.127585   2.462857
    15  C    6.134986   4.487494   5.100175   6.282054   7.090398
    16  H    6.805841   5.080709   5.934471   7.027659   7.794583
    17  H    6.608599   5.034772   5.343758   6.894852   7.698625
    18  H    5.140519   3.456901   4.170599   5.575411   6.287152
    19  C    6.367199   4.892232   5.405543   5.881534   6.828215
    20  C    7.827622   6.387511   6.782515   7.169409   8.167752
    21  H    8.189029   6.880589   7.220618   7.179593   8.226349
    22  H    8.473886   6.927264   7.517135   7.926577   8.891244
    23  H    8.154882   6.751500   6.915131   7.641618   8.633499
    24  C    5.644987   4.374350   4.894011   4.743245   5.738465
    25  H    6.294016   5.212311   5.613647   4.959095   6.013125
    26  C    4.251507   3.075273   3.794067   3.428264   4.349401
    27  H    4.517763   3.558038   4.451051   3.270552   4.163146
    28  H    3.955714   2.466152   3.575255   3.799787   4.539090
                   11         12         13         14         15
    11  C    0.000000
    12  H    1.092250   0.000000
    13  H    1.094261   1.774083   0.000000
    14  H    1.094805   1.761530   1.772355   0.000000
    15  C    6.906237   6.332665   7.692349   7.495263   0.000000
    16  H    7.638766   7.063210   8.497332   8.118917   1.094774
    17  H    7.557597   6.988775   8.247896   8.245482   1.095366
    18  H    6.384258   5.962116   7.184374   6.964669   1.092334
    19  C    6.193632   5.442446   6.952758   6.781680   1.503898
    20  C    7.292876   6.419099   7.979117   7.883452   2.528835
    21  H    7.077100   6.110799   7.710951   7.639994   3.484250
    22  H    8.073511   7.211120   8.831935   8.572280   2.788381
    23  H    7.833214   6.986596   8.427175   8.527293   2.795054
    24  C    4.908097   4.121216   5.690533   5.472427   2.530891
    25  H    4.792011   3.845166   5.499964   5.328422   3.500061
    26  C    3.848219   3.306069   4.736366   4.370633   3.131523
    27  H    3.413808   2.847875   4.413091   3.701020   4.011949
    28  H    4.515040   4.163359   5.444001   4.946815   2.786650
                   16         17         18         19         20
    16  H    0.000000
    17  H    1.775578   0.000000
    18  H    1.769349   1.756082   0.000000
    19  C    2.142919   2.142758   2.181675   0.000000
    20  C    2.842117   2.733785   3.486811   1.506518   0.000000
    21  H    3.829267   3.754880   4.333608   2.173161   1.095135
    22  H    2.662795   3.060015   3.822946   2.146730   1.094952
    23  H    3.240080   2.550916   3.763775   2.147679   1.094969
    24  C    3.199089   3.267564   2.716959   1.347355   2.480763
    25  H    4.101906   4.141188   3.796190   2.098463   2.656194
    26  C    3.795394   3.948599   2.747625   2.561206   3.924240
    27  H    4.500807   4.919146   3.677914   3.305936   4.521814
    28  H    3.307204   3.679506   2.132056   2.753659   4.235813
                   21         22         23         24         25
    21  H    0.000000
    22  H    1.767835   0.000000
    23  H    1.768058   1.778070   0.000000
    24  C    2.613523   3.199841   3.190382   0.000000
    25  H    2.317571   3.423654   3.402198   1.090211   0.000000
    26  C    4.116524   4.555211   4.560989   1.505501   2.187401
    27  H    4.532729   5.053161   5.302146   2.117618   2.404155
    28  H    4.658914   4.696555   4.849427   2.160693   3.070848
                   26         27         28
    26  C    0.000000
    27  H    1.097722   0.000000
    28  H    1.094562   1.745338   0.000000
 Stoichiometry    C10H18
 Framework group  C1[X(C10H18)]
 Deg. of freedom    78
 Full point group                 C1      NOp   1
 Largest Abelian subgroup         C1      NOp   1
 Largest concise Abelian subgroup C1      NOp   1
                         Standard orientation:                         
 ---------------------------------------------------------------------
 Center     Atomic      Atomic             Coordinates (Angstroms)
 Number     Number       Type             X           Y           Z
 ---------------------------------------------------------------------
      1          6           0        0.745796   -0.045479    0.580342
      2          1           0        0.871474   -1.012150    1.082626
      3          1           0        0.286583    0.606580    1.335496
      4          6           0        2.090183    0.530283    0.185623
      5          6           0        2.144081    2.035426    0.119984
      6          1           0        3.137220    2.403099   -0.158890
      7          1           0        1.432509    2.412365   -0.621381
      8          1           0        1.893339    2.466948    1.094518
      9          6           0        3.189369   -0.206014   -0.071367
     10          1           0        4.114840    0.310413   -0.324779
     11          6           0        3.306913   -1.697297   -0.075188
     12          1           0        2.347620   -2.210006    0.024282
     13          1           0        3.959046   -2.020757    0.741822
     14          1           0        3.755058   -2.025102   -1.018750
     15          6           0       -2.901863    1.323965   -0.213689
     16          1           0       -3.548658    1.520230   -1.074889
     17          1           0       -3.383805    1.735104    0.679913
     18          1           0       -1.972927    1.880899   -0.355457
     19          6           0       -2.691922   -0.156357   -0.051581
     20          6           0       -3.933070   -0.920035    0.330445
     21          1           0       -3.745673   -1.994133    0.432997
     22          1           0       -4.707440   -0.789570   -0.432608
     23          1           0       -4.322195   -0.557758    1.287678
     24          6           0       -1.515320   -0.793320   -0.210488
     25          1           0       -1.481877   -1.870803   -0.047785
     26          6           0       -0.194791   -0.197079   -0.619430
     27          1           0        0.258364   -0.862946   -1.365262
     28          1           0       -0.329734    0.763024   -1.127426
 ---------------------------------------------------------------------
 Rotational constants (GHZ):           2.4778583           0.5324379           0.4581644
 Leave Link  202 at Wed Jul 14 20:04:03 2021, MaxMem=   524288000 cpu:               1.1 elap:               0.4
 (Enter /opt/gaussian/g16_legacy/l301.exe)
 Standard basis: 6-31G(d,p) (6D, 7F)
 Ernie: Thresh=  0.10000D-02 Tol=  0.10000D-05 Strict=F.
 There are   240 symmetry adapted cartesian basis functions of A   symmetry.
 There are   240 symmetry adapted basis functions of A   symmetry.
   240 basis functions,   406 primitive gaussians,   240 cartesian basis functions
    39 alpha electrons       39 beta electrons
       nuclear repulsion energy       513.2780203852 Hartrees.
 IExCor= 4336 DFT=T Ex+Corr=M062X ExCW=0 ScaHFX=  0.540000
 ScaDFX=  1.000000  1.000000  1.000000  1.000000 ScalE2=  1.000000  1.000000
 IRadAn=      5 IRanWt=     -1 IRanGd=            0 ICorTp=0 IEmpDi=  4
 NAtoms=   28 NActive=   28 NUniq=   28 SFac= 1.00D+00 NAtFMM=   60 NAOKFM=F Big=F
 Integral buffers will be    131072 words long.
 Raffenetti 2 integral format.
 Two-electron integral symmetry is turned on.
 Leave Link  301 at Wed Jul 14 20:04:04 2021, MaxMem=   524288000 cpu:               1.2 elap:               0.4
 (Enter /opt/gaussian/g16_legacy/l302.exe)
 NPDir=0 NMtPBC=     1 NCelOv=     1 NCel=       1 NClECP=     1 NCelD=      1
         NCelK=      1 NCelE2=     1 NClLst=     1 CellRange=     0.0.
 One-electron integrals computed using PRISM.
 One-electron integral symmetry used in STVInt
 NBasis=   240 RedAO= T EigKep=  2.09D-03  NBF=   240
 NBsUse=   240 1.00D-06 EigRej= -1.00D+00 NBFU=   240
 Precomputing XC quadrature grid using
 IXCGrd= 4 IRadAn=           5 IRanWt=          -1 IRanGd=           0 AccXCQ= 0.00D+00.
 Generated NRdTot=       0 NPtTot=           0 NUsed=           0 NTot=          32
 NSgBfM=   240   240   240   240   240 MxSgAt=    28 MxSgA2=    28.
 Leave Link  302 at Wed Jul 14 20:04:06 2021, MaxMem=   524288000 cpu:               5.7 elap:               1.5
 (Enter /opt/gaussian/g16_legacy/l303.exe)
 DipDrv:  MaxL=1.
 Leave Link  303 at Wed Jul 14 20:04:06 2021, MaxMem=   524288000 cpu:               1.0 elap:               0.3
 (Enter /opt/gaussian/g16_legacy/l401.exe)
 ExpMin= 1.61D-01 ExpMax= 3.05D+03 ExpMxC= 4.57D+02 IAcc=3 IRadAn=         5 AccDes= 0.00D+00
 Harris functional with IExCor= 1009 and IRadAn=       5 diagonalized for initial guess.
 HarFok:  IExCor= 1009 AccDes= 0.00D+00 IRadAn=         5 IDoV= 1 UseB2=F ITyADJ=14
 ICtDFT=  3500011 ScaDFX=  1.000000  1.000000  1.000000  1.000000
 FoFCou: FMM=F IPFlag=           0 FMFlag=      100000 FMFlg1=           0
         NFxFlg=           0 DoJE=T BraDBF=F KetDBF=T FulRan=T
         wScrn=  0.000000 ICntrl=       500 IOpCl=  0 I1Cent=   200000004 NGrid=           0
         NMat0=    1 NMatS0=      1 NMatT0=    0 NMatD0=    1 NMtDS0=    0 NMtDT0=    0
 Petite list used in FoFCou.
 Harris En= -391.655787402489    
 JPrj=0 DoOrth=F DoCkMO=F.
 Leave Link  401 at Wed Jul 14 20:04:11 2021, MaxMem=   524288000 cpu:              21.3 elap:               4.0
 (Enter /opt/gaussian/g16_legacy/l502.exe)
 Integral symmetry usage will be decided dynamically.
 Closed shell SCF:
 Using DIIS extrapolation, IDIIS=  1040.
 NGot=   524288000 LenX=   524168546 LenY=   524110505
 Requested convergence on RMS density matrix=1.00D-08 within 128 cycles.
 Requested convergence on MAX density matrix=1.00D-06.
 Requested convergence on             energy=1.00D-06.
 No special actions if energy rises.
 Fock matrices will be formed incrementally for  20 cycles.
 Integral accuracy reduced to 1.0D-05 until final iterations.

 Cycle   1  Pass 0  IDiag  1:
 FoFJK:  IHMeth= 1 ICntrl=       0 DoSepK=F KAlg= 0 I1Cent=           0 FoldK=F
 IRaf= 850000000 NMat=       1 IRICut=       1 DoRegI=T DoRafI=F ISym2E= 0 IDoP0=0 IntGTp=1.
 FoFCou: FMM=F IPFlag=           0 FMFlag=      100000 FMFlg1=           0
         NFxFlg=           0 DoJE=F BraDBF=F KetDBF=F FulRan=T
         wScrn=  0.000000 ICntrl=         0 IOpCl=  0 I1Cent=           0 NGrid=           0
         NMat0=    1 NMatS0=      1 NMatT0=    0 NMatD0=    1 NMtDS0=    0 NMtDT0=    0
 Symmetry not used in FoFCou.
 E= -391.298993798066    
 DIIS: error= 3.07D-02 at cycle   1 NSaved=   1.
 NSaved= 1 IEnMin= 1 EnMin= -391.298993798066     IErMin= 1 ErrMin= 3.07D-02
 ErrMax= 3.07D-02  0.00D+00 EMaxC= 1.00D-01 BMatC= 3.70D-01 BMatP= 3.70D-01
 IDIUse=3 WtCom= 6.93D-01 WtEn= 3.07D-01
 Coeff-Com:  0.100D+01
 Coeff-En:   0.100D+01
 Coeff:      0.100D+01
 Gap=     0.341 Goal=   None    Shift=    0.000
 GapD=    0.341 DampG=1.000 DampE=0.500 DampFc=0.5000 IDamp=-1.
 Damping current iteration by 5.00D-01
 RMSDP=4.36D-03 MaxDP=1.15D-01              OVMax= 1.45D-01

 Cycle   2  Pass 0  IDiag  1:
 RMSU=  2.14D-03    CP:  9.75D-01
 E= -391.507928097246     Delta-E=       -0.208934299180 Rises=F Damp=T
 DIIS: error= 1.07D-02 at cycle   2 NSaved=   2.
 NSaved= 2 IEnMin= 2 EnMin= -391.507928097246     IErMin= 2 ErrMin= 1.07D-02
 ErrMax= 1.07D-02  0.00D+00 EMaxC= 1.00D-01 BMatC= 2.10D-02 BMatP= 3.70D-01
 IDIUse=3 WtCom= 8.93D-01 WtEn= 1.07D-01
 Coeff-Com: -0.154D+00 0.115D+01
 Coeff-En:   0.000D+00 0.100D+01
 Coeff:     -0.137D+00 0.114D+01
 Gap=     0.370 Goal=   None    Shift=    0.000
 RMSDP=8.26D-04 MaxDP=2.55D-02 DE=-2.09D-01 OVMax= 6.04D-02

 Cycle   3  Pass 0  IDiag  1:
 RMSU=  7.77D-04    CP:  9.69D-01  1.12D+00
 E= -391.687663367540     Delta-E=       -0.179735270294 Rises=F Damp=F
 DIIS: error= 1.24D-03 at cycle   3 NSaved=   3.
 NSaved= 3 IEnMin= 3 EnMin= -391.687663367540     IErMin= 3 ErrMin= 1.24D-03
 ErrMax= 1.24D-03  0.00D+00 EMaxC= 1.00D-01 BMatC= 5.82D-04 BMatP= 2.10D-02
 IDIUse=3 WtCom= 9.88D-01 WtEn= 1.24D-02
 Coeff-Com: -0.255D-01 0.119D+00 0.907D+00
 Coeff-En:   0.000D+00 0.000D+00 0.100D+01
 Coeff:     -0.252D-01 0.117D+00 0.908D+00
 Gap=     0.338 Goal=   None    Shift=    0.000
 RMSDP=1.85D-04 MaxDP=5.92D-03 DE=-1.80D-01 OVMax= 8.21D-03

 Cycle   4  Pass 0  IDiag  1:
 RMSU=  1.70D-04    CP:  9.68D-01  1.15D+00  9.43D-01
 E= -391.688000777855     Delta-E=       -0.000337410315 Rises=F Damp=F
 DIIS: error= 9.84D-04 at cycle   4 NSaved=   4.
 NSaved= 4 IEnMin= 4 EnMin= -391.688000777855     IErMin= 4 ErrMin= 9.84D-04
 ErrMax= 9.84D-04  0.00D+00 EMaxC= 1.00D-01 BMatC= 2.42D-04 BMatP= 5.82D-04
 IDIUse=3 WtCom= 9.90D-01 WtEn= 9.84D-03
 Coeff-Com: -0.595D-02 0.243D-01 0.398D+00 0.583D+00
 Coeff-En:   0.000D+00 0.000D+00 0.233D+00 0.767D+00
 Coeff:     -0.590D-02 0.241D-01 0.397D+00 0.585D+00
 Gap=     0.338 Goal=   None    Shift=    0.000
 RMSDP=8.53D-05 MaxDP=3.13D-03 DE=-3.37D-04 OVMax= 6.45D-03

 Cycle   5  Pass 0  IDiag  1:
 RMSU=  4.35D-05    CP:  9.68D-01  1.14D+00  9.82D-01  6.11D-01
 E= -391.688224709417     Delta-E=       -0.000223931562 Rises=F Damp=F
 DIIS: error= 2.96D-04 at cycle   5 NSaved=   5.
 NSaved= 5 IEnMin= 5 EnMin= -391.688224709417     IErMin= 5 ErrMin= 2.96D-04
 ErrMax= 2.96D-04  0.00D+00 EMaxC= 1.00D-01 BMatC= 2.62D-05 BMatP= 2.42D-04
 IDIUse=3 WtCom= 9.97D-01 WtEn= 2.96D-03
 Coeff-Com:  0.536D-03-0.168D-02 0.928D-01 0.279D+00 0.629D+00
 Coeff-En:   0.000D+00 0.000D+00 0.000D+00 0.000D+00 0.100D+01
 Coeff:      0.534D-03-0.168D-02 0.925D-01 0.279D+00 0.630D+00
 Gap=     0.339 Goal=   None    Shift=    0.000
 RMSDP=2.25D-05 MaxDP=1.05D-03 DE=-2.24D-04 OVMax= 1.95D-03

 Cycle   6  Pass 0  IDiag  1:
 RMSU=  1.35D-05    CP:  9.68D-01  1.14D+00  9.89D-01  6.79D-01  7.11D-01
 E= -391.688249949425     Delta-E=       -0.000025240008 Rises=F Damp=F
 DIIS: error= 5.88D-05 at cycle   6 NSaved=   6.
 NSaved= 6 IEnMin= 6 EnMin= -391.688249949425     IErMin= 6 ErrMin= 5.88D-05
 ErrMax= 5.88D-05  0.00D+00 EMaxC= 1.00D-01 BMatC= 1.55D-06 BMatP= 2.62D-05
 IDIUse=1 WtCom= 1.00D+00 WtEn= 0.00D+00
 Coeff-Com:  0.886D-03-0.301D-02 0.597D-02 0.710D-01 0.258D+00 0.668D+00
 Coeff:      0.886D-03-0.301D-02 0.597D-02 0.710D-01 0.258D+00 0.668D+00
 Gap=     0.339 Goal=   None    Shift=    0.000
 RMSDP=5.99D-06 MaxDP=2.01D-04 DE=-2.52D-05 OVMax= 4.28D-04

 Initial convergence to 1.0D-05 achieved.  Increase integral accuracy.
 Cycle   7  Pass 1  IDiag  1:
 E= -391.688233681262     Delta-E=        0.000016268163 Rises=F Damp=F
 DIIS: error= 2.00D-05 at cycle   1 NSaved=   1.
 NSaved= 1 IEnMin= 1 EnMin= -391.688233681262     IErMin= 1 ErrMin= 2.00D-05
 ErrMax= 2.00D-05  0.00D+00 EMaxC= 1.00D-01 BMatC= 2.17D-07 BMatP= 2.17D-07
 IDIUse=1 WtCom= 1.00D+00 WtEn= 0.00D+00
 Coeff-Com:  0.100D+01
 Coeff:      0.100D+01
 Gap=     0.339 Goal=   None    Shift=    0.000
 RMSDP=5.99D-06 MaxDP=2.01D-04 DE= 1.63D-05 OVMax= 1.80D-04

 Cycle   8  Pass 1  IDiag  1:
 RMSU=  8.37D-06    CP:  1.00D+00
 E= -391.688233818576     Delta-E=       -0.000000137314 Rises=F Damp=F
 DIIS: error= 1.27D-05 at cycle   2 NSaved=   2.
 NSaved= 2 IEnMin= 2 EnMin= -391.688233818576     IErMin= 2 ErrMin= 1.27D-05
 ErrMax= 1.27D-05  0.00D+00 EMaxC= 1.00D-01 BMatC= 9.81D-08 BMatP= 2.17D-07
 IDIUse=1 WtCom= 1.00D+00 WtEn= 0.00D+00
 Coeff-Com:  0.374D+00 0.626D+00
 Coeff:      0.374D+00 0.626D+00
 Gap=     0.339 Goal=   None    Shift=    0.000
 RMSDP=1.47D-06 MaxDP=6.38D-05 DE=-1.37D-07 OVMax= 1.22D-04

 Cycle   9  Pass 1  IDiag  1:
 RMSU=  1.47D-06    CP:  1.00D+00  9.91D-01
 E= -391.688233900432     Delta-E=       -0.000000081856 Rises=F Damp=F
 DIIS: error= 5.93D-06 at cycle   3 NSaved=   3.
 NSaved= 3 IEnMin= 3 EnMin= -391.688233900432     IErMin= 3 ErrMin= 5.93D-06
 ErrMax= 5.93D-06  0.00D+00 EMaxC= 1.00D-01 BMatC= 1.51D-08 BMatP= 9.81D-08
 IDIUse=1 WtCom= 1.00D+00 WtEn= 0.00D+00
 Coeff-Com: -0.638D-04 0.270D+00 0.730D+00
 Coeff:     -0.638D-04 0.270D+00 0.730D+00
 Gap=     0.339 Goal=   None    Shift=    0.000
 RMSDP=5.55D-07 MaxDP=2.61D-05 DE=-8.19D-08 OVMax= 5.30D-05

 Cycle  10  Pass 1  IDiag  1:
 RMSU=  3.54D-07    CP:  1.00D+00  1.02D+00  7.61D-01
 E= -391.688233913799     Delta-E=       -0.000000013367 Rises=F Damp=F
 DIIS: error= 2.42D-06 at cycle   4 NSaved=   4.
 NSaved= 4 IEnMin= 4 EnMin= -391.688233913799     IErMin= 4 ErrMin= 2.42D-06
 ErrMax= 2.42D-06  0.00D+00 EMaxC= 1.00D-01 BMatC= 1.80D-09 BMatP= 1.51D-08
 IDIUse=1 WtCom= 1.00D+00 WtEn= 0.00D+00
 Coeff-Com: -0.209D-01 0.106D+00 0.380D+00 0.536D+00
 Coeff:     -0.209D-01 0.106D+00 0.380D+00 0.536D+00
 Gap=     0.339 Goal=   None    Shift=    0.000
 RMSDP=1.88D-07 MaxDP=7.13D-06 DE=-1.34D-08 OVMax= 1.50D-05

 Cycle  11  Pass 1  IDiag  1:
 RMSU=  1.37D-07    CP:  1.00D+00  1.02D+00  8.00D-01  6.80D-01
 E= -391.688233915650     Delta-E=       -0.000000001850 Rises=F Damp=F
 DIIS: error= 2.20D-07 at cycle   5 NSaved=   5.
 NSaved= 5 IEnMin= 5 EnMin= -391.688233915650     IErMin= 5 ErrMin= 2.20D-07
 ErrMax= 2.20D-07  0.00D+00 EMaxC= 1.00D-01 BMatC= 2.53D-11 BMatP= 1.80D-09
 IDIUse=1 WtCom= 1.00D+00 WtEn= 0.00D+00
 Coeff-Com: -0.262D-02-0.677D-02-0.106D-01 0.767D-01 0.943D+00
 Coeff:     -0.262D-02-0.677D-02-0.106D-01 0.767D-01 0.943D+00
 Gap=     0.339 Goal=   None    Shift=    0.000
 RMSDP=3.81D-08 MaxDP=1.04D-06 DE=-1.85D-09 OVMax= 1.95D-06

 Cycle  12  Pass 1  IDiag  1:
 RMSU=  2.67D-08    CP:  1.00D+00  1.02D+00  8.02D-01  7.55D-01  1.02D+00
 E= -391.688233915694     Delta-E=       -0.000000000044 Rises=F Damp=F
 DIIS: error= 7.37D-08 at cycle   6 NSaved=   6.
 NSaved= 6 IEnMin= 6 EnMin= -391.688233915694     IErMin= 6 ErrMin= 7.37D-08
 ErrMax= 7.37D-08  0.00D+00 EMaxC= 1.00D-01 BMatC= 2.45D-12 BMatP= 2.53D-11
 IDIUse=1 WtCom= 1.00D+00 WtEn= 0.00D+00
 Coeff-Com:  0.771D-03-0.975D-02-0.315D-01-0.138D-01 0.292D+00 0.762D+00
 Coeff:      0.771D-03-0.975D-02-0.315D-01-0.138D-01 0.292D+00 0.762D+00
 Gap=     0.339 Goal=   None    Shift=    0.000
 RMSDP=1.05D-08 MaxDP=2.03D-07 DE=-4.40D-11 OVMax= 5.22D-07

 Cycle  13  Pass 1  IDiag  1:
 RMSU=  5.38D-09    CP:  1.00D+00  1.02D+00  8.02D-01  7.65D-01  1.08D+00
                    CP:  8.87D-01
 E= -391.688233915687     Delta-E=        0.000000000007 Rises=F Damp=F
 DIIS: error= 1.67D-08 at cycle   7 NSaved=   7.
 NSaved= 7 IEnMin= 6 EnMin= -391.688233915694     IErMin= 7 ErrMin= 1.67D-08
 ErrMax= 1.67D-08  0.00D+00 EMaxC= 1.00D-01 BMatC= 1.45D-13 BMatP= 2.45D-12
 IDIUse=1 WtCom= 1.00D+00 WtEn= 0.00D+00
 Coeff-Com:  0.343D-03-0.288D-02-0.992D-02-0.723D-02 0.577D-01 0.261D+00
 Coeff-Com:  0.701D+00
 Coeff:      0.343D-03-0.288D-02-0.992D-02-0.723D-02 0.577D-01 0.261D+00
 Coeff:      0.701D+00
 Gap=     0.339 Goal=   None    Shift=    0.000
 RMSDP=1.84D-09 MaxDP=5.03D-08 DE= 6.82D-12 OVMax= 1.30D-07

 SCF Done:  E(RM062X) =  -391.688233916     A.U. after   13 cycles
            NFock= 13  Conv=0.18D-08     -V/T= 2.0093
 KE= 3.880861844601D+02 PE=-1.931591315841D+03 EE= 6.385388770798D+02
 Leave Link  502 at Wed Jul 14 20:05:27 2021, MaxMem=   524288000 cpu:             455.5 elap:              76.3
 (Enter /opt/gaussian/g16_legacy/l601.exe)
 Copying SCF densities to generalized density rwf, IOpCl= 0 IROHF=0.

 **********************************************************************

            Population analysis using the SCF density.

 **********************************************************************

 Orbital symmetries:
       Occupied  (A) (A) (A) (A) (A) (A) (A) (A) (A) (A) (A) (A)
                 (A) (A) (A) (A) (A) (A) (A) (A) (A) (A) (A) (A)
                 (A) (A) (A) (A) (A) (A) (A) (A) (A) (A) (A) (A)
                 (A) (A) (A)
       Virtual   (A) (A) (A) (A) (A) (A) (A) (A) (A) (A) (A) (A)
                 (A) (A) (A) (A) (A) (A) (A) (A) (A) (A) (A) (A)
                 (A) (A) (A) (A) (A) (A) (A) (A) (A) (A) (A) (A)
                 (A) (A) (A) (A) (A) (A) (A) (A) (A) (A) (A) (A)
                 (A) (A) (A) (A) (A) (A) (A) (A) (A) (A) (A) (A)
                 (A) (A) (A) (A) (A) (A) (A) (A) (A) (A) (A) (A)
                 (A) (A) (A) (A) (A) (A) (A) (A) (A) (A) (A) (A)
                 (A) (A) (A) (A) (A) (A) (A) (A) (A) (A) (A) (A)
                 (A) (A) (A) (A) (A) (A) (A) (A) (A) (A) (A) (A)
                 (A) (A) (A) (A) (A) (A) (A) (A) (A) (A) (A) (A)
                 (A) (A) (A) (A) (A) (A) (A) (A) (A) (A) (A) (A)
                 (A) (A) (A) (A) (A) (A) (A) (A) (A) (A) (A) (A)
                 (A) (A) (A) (A) (A) (A) (A) (A) (A) (A) (A) (A)
                 (A) (A) (A) (A) (A) (A) (A) (A) (A) (A) (A) (A)
                 (A) (A) (A) (A) (A) (A) (A) (A) (A) (A) (A) (A)
                 (A) (A) (A) (A) (A) (A) (A) (A) (A) (A) (A) (A)
                 (A) (A) (A) (A) (A) (A) (A) (A) (A)
 The electronic state is 1-A.
 Alpha  occ. eigenvalues --  -10.54668 -10.54128 -10.53908 -10.53827 -10.53602
 Alpha  occ. eigenvalues --  -10.53345 -10.53283 -10.53241 -10.53213 -10.53189
 Alpha  occ. eigenvalues --   -0.91975  -0.89944  -0.84710  -0.81577  -0.77855
 Alpha  occ. eigenvalues --   -0.76075  -0.71672  -0.68496  -0.58977  -0.57817
 Alpha  occ. eigenvalues --   -0.54142  -0.51424  -0.50687  -0.49850  -0.48755
 Alpha  occ. eigenvalues --   -0.47780  -0.46549  -0.45926  -0.44711  -0.43432
 Alpha  occ. eigenvalues --   -0.43081  -0.42488  -0.41508  -0.40992  -0.38898
 Alpha  occ. eigenvalues --   -0.38209  -0.36248  -0.28647  -0.27096
 Alpha virt. eigenvalues --    0.06769   0.08030   0.12291   0.14616   0.15193
 Alpha virt. eigenvalues --    0.17131   0.18451   0.18632   0.19910   0.20224
 Alpha virt. eigenvalues --    0.21017   0.21730   0.22288   0.22963   0.23188
 Alpha virt. eigenvalues --    0.23877   0.25118   0.25822   0.27020   0.27678
 Alpha virt. eigenvalues --    0.28916   0.29076   0.29461   0.30839   0.31824
 Alpha virt. eigenvalues --    0.38708   0.40163   0.47065   0.48100   0.53699
 Alpha virt. eigenvalues --    0.55459   0.55572   0.57844   0.59256   0.59902
 Alpha virt. eigenvalues --    0.60715   0.61649   0.62560   0.63574   0.65041
 Alpha virt. eigenvalues --    0.66034   0.68082   0.71263   0.71803   0.73719
 Alpha virt. eigenvalues --    0.74889   0.76088   0.77015   0.78274   0.79021
 Alpha virt. eigenvalues --    0.80350   0.82354   0.83293   0.84889   0.86284
 Alpha virt. eigenvalues --    0.87491   0.88529   0.88950   0.91446   0.92573
 Alpha virt. eigenvalues --    0.93692   0.94249   0.94569   0.95823   0.96142
 Alpha virt. eigenvalues --    0.96351   0.96703   0.98016   0.99215   1.00258
 Alpha virt. eigenvalues --    1.01196   1.02471   1.03270   1.05127   1.07099
 Alpha virt. eigenvalues --    1.08615   1.19413   1.21044   1.23651   1.24773
 Alpha virt. eigenvalues --    1.25719   1.32953   1.34801   1.37081   1.37882
 Alpha virt. eigenvalues --    1.40582   1.41530   1.44465   1.47394   1.49372
 Alpha virt. eigenvalues --    1.53141   1.60775   1.68028   1.69930   1.72662
 Alpha virt. eigenvalues --    1.74735   1.77995   1.79041   1.80556   1.83438
 Alpha virt. eigenvalues --    1.84681   1.86255   1.87306   1.88099   1.89029
 Alpha virt. eigenvalues --    1.90329   1.92772   1.93269   1.97961   2.01640
 Alpha virt. eigenvalues --    2.01766   2.03506   2.05364   2.09288   2.09979
 Alpha virt. eigenvalues --    2.10038   2.10188   2.12655   2.13407   2.13532
 Alpha virt. eigenvalues --    2.14745   2.15577   2.16245   2.17857   2.18544
 Alpha virt. eigenvalues --    2.20070   2.21705   2.22304   2.22511   2.25499
 Alpha virt. eigenvalues --    2.28308   2.30968   2.32301   2.34157   2.35779
 Alpha virt. eigenvalues --    2.37368   2.39215   2.43296   2.44271   2.45029
 Alpha virt. eigenvalues --    2.46971   2.48390   2.51118   2.52481   2.53882
 Alpha virt. eigenvalues --    2.56636   2.59944   2.62150   2.63192   2.63302
 Alpha virt. eigenvalues --    2.66076   2.68506   2.70222   2.71241   2.72983
 Alpha virt. eigenvalues --    2.74594   2.75253   2.77596   2.79020   2.83998
 Alpha virt. eigenvalues --    2.84943   2.85437   2.87308   2.88020   2.88315
 Alpha virt. eigenvalues --    2.89482   2.92187   2.93484   2.94584   3.01775
 Alpha virt. eigenvalues --    3.03772   3.08484   3.09908   3.17719   3.19504
 Alpha virt. eigenvalues --    3.20610   3.22733   3.29854   3.35037   3.39822
 Alpha virt. eigenvalues --    3.40241   3.41685   3.42632   3.43612   3.44260
 Alpha virt. eigenvalues --    3.44899   3.47026   3.49242   3.50347   3.51930
 Alpha virt. eigenvalues --    3.56800   4.18841   4.21972   4.34260   4.42292
 Alpha virt. eigenvalues --    4.48975   4.52371   4.53104   4.66739   4.69696
 Alpha virt. eigenvalues --    4.75978
          Condensed to atoms (all electrons):
               1          2          3          4          5          6
     1  C    5.038504   0.384645   0.386611   0.359837  -0.070602   0.004466
     2  H    0.384645   0.603137  -0.034909  -0.030248   0.004674  -0.000171
     3  H    0.386611  -0.034909   0.607862  -0.037512  -0.006195   0.000116
     4  C    0.359837  -0.030248  -0.037512   4.771245   0.369766  -0.034099
     5  C   -0.070602   0.004674  -0.006195   0.369766   4.998184   0.386542
     6  H    0.004466  -0.000171   0.000116  -0.034099   0.386542   0.573893
     7  H    0.000240  -0.000008  -0.000419  -0.039047   0.381789  -0.027673
     8  H   -0.003914   0.000052   0.004543  -0.034205   0.380265  -0.027484
     9  C   -0.046993  -0.008122   0.003258   0.713217  -0.041210  -0.005140
    10  H    0.005624   0.000027  -0.000171  -0.030687  -0.013321   0.006123
    11  C   -0.012990   0.001099   0.000248  -0.044784   0.006083   0.000107
    12  H    0.002320   0.002086  -0.000082  -0.008097   0.000089   0.000007
    13  H    0.000180   0.000184   0.000031  -0.000753  -0.000148  -0.000004
    14  H    0.000385  -0.000128  -0.000013   0.000849  -0.000151  -0.000011
    15  C    0.000217   0.000011   0.000441  -0.000025  -0.000018   0.000000
    16  H   -0.000036  -0.000000   0.000012   0.000002  -0.000000   0.000000
    17  H    0.000069   0.000000  -0.000087  -0.000003   0.000000  -0.000000
    18  H    0.000029  -0.000010   0.000316  -0.000071   0.000095  -0.000001
    19  C   -0.002809   0.000106   0.001605   0.000015   0.000006  -0.000000
    20  C   -0.000093   0.000001  -0.000066   0.000002   0.000000   0.000000
    21  H   -0.000002   0.000002  -0.000002   0.000000  -0.000000  -0.000000
    22  H   -0.000005   0.000000   0.000002   0.000000  -0.000000   0.000000
    23  H    0.000020  -0.000001  -0.000005  -0.000000   0.000000  -0.000000
    24  C   -0.053545  -0.002114  -0.000337   0.005679  -0.000029   0.000002
    25  H   -0.001060   0.002814  -0.000093  -0.000083  -0.000002   0.000000
    26  C    0.345534  -0.040045  -0.041510  -0.046990  -0.002387  -0.000027
    27  H   -0.042351  -0.005410   0.005618  -0.002346  -0.000024  -0.000004
    28  H   -0.039867   0.005537  -0.005007  -0.002732   0.001312  -0.000103
               7          8          9         10         11         12
     1  C    0.000240  -0.003914  -0.046993   0.005624  -0.012990   0.002320
     2  H   -0.000008   0.000052  -0.008122   0.000027   0.001099   0.002086
     3  H   -0.000419   0.004543   0.003258  -0.000171   0.000248  -0.000082
     4  C   -0.039047  -0.034205   0.713217  -0.030687  -0.044784  -0.008097
     5  C    0.381789   0.380265  -0.041210  -0.013321   0.006083   0.000089
     6  H   -0.027673  -0.027484  -0.005140   0.006123   0.000107   0.000007
     7  H    0.594652  -0.034531  -0.001175   0.000186  -0.000170   0.000001
     8  H   -0.034531   0.588915  -0.000670   0.000317  -0.000172  -0.000002
     9  C   -0.001175  -0.000670   4.896233   0.377747   0.360964  -0.034159
    10  H    0.000186   0.000317   0.377747   0.612601  -0.056004   0.004537
    11  C   -0.000170  -0.000172   0.360964  -0.056004   4.975054   0.390018
    12  H    0.000001  -0.000002  -0.034159   0.004537   0.390018   0.580030
    13  H   -0.000006   0.000025  -0.036517  -0.000440   0.385642  -0.028025
    14  H    0.000019  -0.000004  -0.033125  -0.003126   0.386355  -0.029319
    15  C   -0.000041  -0.000003  -0.000000  -0.000000  -0.000000   0.000000
    16  H   -0.000000   0.000000   0.000000   0.000000   0.000000   0.000000
    17  H   -0.000001   0.000000   0.000000  -0.000000   0.000000  -0.000000
    18  H    0.000256   0.000008  -0.000001   0.000000  -0.000000  -0.000000
    19  C    0.000018  -0.000002  -0.000002   0.000000  -0.000000   0.000001
    20  C   -0.000000   0.000000  -0.000000   0.000000   0.000000  -0.000000
    21  H   -0.000000  -0.000000   0.000000  -0.000000  -0.000000  -0.000000
    22  H    0.000000   0.000000  -0.000000   0.000000  -0.000000   0.000000
    23  H    0.000000  -0.000000   0.000000  -0.000000  -0.000000  -0.000000
    24  C   -0.000138   0.000012   0.000047   0.000003  -0.000048   0.000024
    25  H    0.000000   0.000000   0.000006  -0.000000   0.000000   0.000041
    26  C    0.001352  -0.000213  -0.003234  -0.000104   0.000138  -0.000023
    27  H    0.000028   0.000014   0.002184  -0.000056   0.000524   0.000570
    28  H    0.001618   0.000062  -0.000023  -0.000002   0.000011  -0.000011
              13         14         15         16         17         18
     1  C    0.000180   0.000385   0.000217  -0.000036   0.000069   0.000029
     2  H    0.000184  -0.000128   0.000011  -0.000000   0.000000  -0.000010
     3  H    0.000031  -0.000013   0.000441   0.000012  -0.000087   0.000316
     4  C   -0.000753   0.000849  -0.000025   0.000002  -0.000003  -0.000071
     5  C   -0.000148  -0.000151  -0.000018  -0.000000   0.000000   0.000095
     6  H   -0.000004  -0.000011   0.000000   0.000000  -0.000000  -0.000001
     7  H   -0.000006   0.000019  -0.000041  -0.000000  -0.000001   0.000256
     8  H    0.000025  -0.000004  -0.000003   0.000000   0.000000   0.000008
     9  C   -0.036517  -0.033125  -0.000000   0.000000   0.000000  -0.000001
    10  H   -0.000440  -0.003126  -0.000000   0.000000  -0.000000   0.000000
    11  C    0.385642   0.386355  -0.000000   0.000000   0.000000  -0.000000
    12  H   -0.028025  -0.029319   0.000000   0.000000  -0.000000  -0.000000
    13  H    0.577459  -0.031808   0.000000   0.000000  -0.000000  -0.000000
    14  H   -0.031808   0.578879  -0.000000  -0.000000   0.000000   0.000000
    15  C    0.000000  -0.000000   5.002266   0.383101   0.385309   0.382573
    16  H    0.000000  -0.000000   0.383101   0.578738  -0.032566  -0.027429
    17  H   -0.000000   0.000000   0.385309  -0.032566   0.582841  -0.029199
    18  H   -0.000000   0.000000   0.382573  -0.027429  -0.029199   0.578014
    19  C   -0.000000   0.000000   0.378154  -0.036071  -0.036088  -0.026729
    20  C    0.000000  -0.000000  -0.078895  -0.001926  -0.003582   0.004799
    21  H   -0.000000   0.000000   0.004668  -0.000070   0.000034  -0.000168
    22  H    0.000000  -0.000000  -0.000493   0.003689  -0.000851  -0.000008
    23  H   -0.000000   0.000000  -0.002173  -0.000674   0.004474  -0.000049
    24  C    0.000002  -0.000003  -0.052345   0.000070   0.000910  -0.008373
    25  H   -0.000000  -0.000000   0.006077  -0.000157  -0.000155   0.000023
    26  C   -0.000038   0.000067  -0.013464   0.000174   0.000444   0.001620
    27  H    0.000014  -0.000081   0.000315   0.000033  -0.000015  -0.000059
    28  H   -0.000001   0.000002   0.001190   0.000038  -0.000142   0.002439
              19         20         21         22         23         24
     1  C   -0.002809  -0.000093  -0.000002  -0.000005   0.000020  -0.053545
     2  H    0.000106   0.000001   0.000002   0.000000  -0.000001  -0.002114
     3  H    0.001605  -0.000066  -0.000002   0.000002  -0.000005  -0.000337
     4  C    0.000015   0.000002   0.000000   0.000000  -0.000000   0.005679
     5  C    0.000006   0.000000  -0.000000  -0.000000   0.000000  -0.000029
     6  H   -0.000000   0.000000  -0.000000   0.000000  -0.000000   0.000002
     7  H    0.000018  -0.000000  -0.000000   0.000000   0.000000  -0.000138
     8  H   -0.000002   0.000000  -0.000000   0.000000  -0.000000   0.000012
     9  C   -0.000002  -0.000000   0.000000  -0.000000   0.000000   0.000047
    10  H    0.000000   0.000000  -0.000000   0.000000  -0.000000   0.000003
    11  C   -0.000000   0.000000  -0.000000  -0.000000  -0.000000  -0.000048
    12  H    0.000001  -0.000000  -0.000000   0.000000  -0.000000   0.000024
    13  H   -0.000000   0.000000  -0.000000   0.000000  -0.000000   0.000002
    14  H    0.000000  -0.000000   0.000000  -0.000000   0.000000  -0.000003
    15  C    0.378154  -0.078895   0.004668  -0.000493  -0.002173  -0.052345
    16  H   -0.036071  -0.001926  -0.000070   0.003689  -0.000674   0.000070
    17  H   -0.036088  -0.003582   0.000034  -0.000851   0.004474   0.000910
    18  H   -0.026729   0.004799  -0.000168  -0.000008  -0.000049  -0.008373
    19  C    4.735331   0.366162  -0.033019  -0.038140  -0.035851   0.714108
    20  C    0.366162   5.004671   0.385134   0.382986   0.380447  -0.036860
    21  H   -0.033019   0.385134   0.572122  -0.027298  -0.027116  -0.004819
    22  H   -0.038140   0.382986  -0.027298   0.589290  -0.034275  -0.001414
    23  H   -0.035851   0.380447  -0.027116  -0.034275   0.590049  -0.000857
    24  C    0.714108  -0.036860  -0.004819  -0.001414  -0.000857   4.918730
    25  H   -0.031613  -0.013573   0.006102   0.000223   0.000278   0.376111
    26  C   -0.038402   0.005675   0.000116  -0.000206  -0.000121   0.355025
    27  H    0.001885  -0.000176  -0.000012   0.000014  -0.000002  -0.033086
    28  H   -0.006620   0.000077   0.000010   0.000005  -0.000004  -0.037041
              25         26         27         28
     1  C   -0.001060   0.345534  -0.042351  -0.039867
     2  H    0.002814  -0.040045  -0.005410   0.005537
     3  H   -0.000093  -0.041510   0.005618  -0.005007
     4  C   -0.000083  -0.046990  -0.002346  -0.002732
     5  C   -0.000002  -0.002387  -0.000024   0.001312
     6  H    0.000000  -0.000027  -0.000004  -0.000103
     7  H    0.000000   0.001352   0.000028   0.001618
     8  H    0.000000  -0.000213   0.000014   0.000062
     9  C    0.000006  -0.003234   0.002184  -0.000023
    10  H   -0.000000  -0.000104  -0.000056  -0.000002
    11  C    0.000000   0.000138   0.000524   0.000011
    12  H    0.000041  -0.000023   0.000570  -0.000011
    13  H   -0.000000  -0.000038   0.000014  -0.000001
    14  H   -0.000000   0.000067  -0.000081   0.000002
    15  C    0.006077  -0.013464   0.000315   0.001190
    16  H   -0.000157   0.000174   0.000033   0.000038
    17  H   -0.000155   0.000444  -0.000015  -0.000142
    18  H    0.000023   0.001620  -0.000059   0.002439
    19  C   -0.031613  -0.038402   0.001885  -0.006620
    20  C   -0.013573   0.005675  -0.000176   0.000077
    21  H    0.006102   0.000116  -0.000012   0.000010
    22  H    0.000223  -0.000206   0.000014   0.000005
    23  H    0.000278  -0.000121  -0.000002  -0.000004
    24  C    0.376111   0.355025  -0.033086  -0.037041
    25  H    0.613413  -0.053628  -0.004982   0.004771
    26  C   -0.053628   4.993276   0.388835   0.390864
    27  H   -0.004982   0.388835   0.599997  -0.034539
    28  H    0.004771   0.390864  -0.034539   0.605654
 Mulliken charges:
               1
     1  C   -0.254418
     2  H    0.116791
     3  H    0.115745
     4  C    0.091071
     5  C   -0.394718
     6  H    0.123461
     7  H    0.123050
     8  H    0.126986
     9  C   -0.143285
    10  H    0.096746
    11  C   -0.392075
    12  H    0.119991
    13  H    0.134202
    14  H    0.131214
    15  C   -0.396866
    16  H    0.133071
    17  H    0.128608
    18  H    0.121928
    19  C    0.087953
    20  C   -0.394784
    21  H    0.124319
    22  H    0.126481
    23  H    0.125862
    24  C   -0.139714
    25  H    0.095488
    26  C   -0.242727
    27  H    0.123112
    28  H    0.112504
 Sum of Mulliken charges =  -0.00000
 Mulliken charges with hydrogens summed into heavy atoms:
               1
     1  C   -0.021882
     4  C    0.091071
     5  C   -0.021221
     9  C   -0.046539
    11  C   -0.006667
    15  C   -0.013259
    19  C    0.087953
    20  C   -0.018122
    24  C   -0.044227
    26  C   -0.007110
 Electronic spatial extent (au):  <R**2>=           2542.2901
 Charge=             -0.0000 electrons
 Dipole moment (field-independent basis, Debye):
    X=             -0.3334    Y=              0.1284    Z=              0.0224  Tot=              0.3579
 Quadrupole moment (field-independent basis, Debye-Ang):
   XX=            -62.3243   YY=            -62.8598   ZZ=            -66.2065
   XY=             -1.1572   XZ=             -0.8688   YZ=             -0.1661
 Traceless Quadrupole moment (field-independent basis, Debye-Ang):
   XX=              1.4726   YY=              0.9371   ZZ=             -2.4097
   XY=             -1.1572   XZ=             -0.8688   YZ=             -0.1661
 Octapole moment (field-independent basis, Debye-Ang**2):
  XXX=             -2.0834  YYY=             -2.4485  ZZZ=              0.8481  XYY=              0.9972
  XXY=              0.6816  XXZ=             -2.4209  XZZ=             -1.7562  YZZ=              1.2726
  YYZ=              0.5216  XYZ=              0.5137
 Hexadecapole moment (field-independent basis, Debye-Ang**3):
 XXXX=          -2661.5687 YYYY=           -634.6265 ZZZZ=           -158.8779 XXXY=            -12.8273
 XXXZ=            -10.5065 YYYX=              6.7478 YYYZ=             -0.8308 ZZZX=             -2.7613
 ZZZY=              2.1764 XXYY=           -553.2211 XXZZ=           -483.8184 YYZZ=           -128.8053
 XXYZ=             -2.7747 YYXZ=             -1.5572 ZZXY=             -8.3786
 N-N= 5.132780203852D+02 E-N=-1.931591311834D+03  KE= 3.880861844601D+02
 No NMR shielding tensors so no spin-rotation constants.
 Leave Link  601 at Wed Jul 14 20:05:30 2021, MaxMem=   524288000 cpu:              10.1 elap:               2.7
 (Enter /opt/gaussian/g16_legacy/l701.exe)
 ... and contract with generalized density number  0.
 Compute integral first derivatives.
 Leave Link  701 at Wed Jul 14 20:05:31 2021, MaxMem=   524288000 cpu:               3.5 elap:               0.9
 (Enter /opt/gaussian/g16_legacy/l702.exe)
 L702 exits ... SP integral derivatives will be done elsewhere.
 Leave Link  702 at Wed Jul 14 20:05:31 2021, MaxMem=   524288000 cpu:               0.3 elap:               0.1
 (Enter /opt/gaussian/g16_legacy/l703.exe)
 Integral derivatives from FoFJK, PRISM(SPDF).
 Compute integral first derivatives, UseDBF=F ICtDFT=           0.
 Calling FoFJK, ICntrl=      2127 FMM=F ISym2X=0 I1Cent= 0 IOpClX= 0 NMat=1 NMatS=1 NMatT=0.
 FoFJK:  IHMeth= 1 ICntrl=    2127 DoSepK=F KAlg= 0 I1Cent=           0 FoldK=F
 IRaf=         0 NMat=       1 IRICut=       1 DoRegI=T DoRafI=F ISym2E= 0 IDoP0=0 IntGTp=1.
 FoFCou: FMM=F IPFlag=           0 FMFlag=      100000 FMFlg1=         800
         NFxFlg=           0 DoJE=F BraDBF=F KetDBF=F FulRan=T
         wScrn=  0.000000 ICntrl=      2127 IOpCl=  0 I1Cent=           0 NGrid=           0
         NMat0=    1 NMatS0=      1 NMatT0=    0 NMatD0=    1 NMtDS0=    0 NMtDT0=    0
 Symmetry not used in FoFCou.
 Leave Link  703 at Wed Jul 14 20:05:45 2021, MaxMem=   524288000 cpu:              77.0 elap:              14.8
 (Enter /opt/gaussian/g16_legacy/l716.exe)
 Dipole        =-1.31157500D-01 5.05048314D-02 8.83228857D-03
 ***** Axes restored to original set *****
 -------------------------------------------------------------------
 Center     Atomic                   Forces (Hartrees/Bohr)
 Number     Number              X              Y              Z
 -------------------------------------------------------------------
      1        6          -0.009019661   -0.002047845   -0.001072632
      2        1           0.000242359    0.002674942   -0.000016830
      3        1           0.001800503    0.002642411   -0.001219320
      4        6          -0.014574204   -0.001873690    0.001395281
      5        6          -0.003711960    0.000961054    0.000003829
      6        1           0.000616539    0.000757513    0.002033716
      7        1           0.002520530   -0.001603338   -0.001182930
      8        1           0.002554180    0.000461868   -0.000923268
      9        6           0.014224503   -0.001312467   -0.003360521
     10        1           0.001951467   -0.000527225   -0.002224351
     11        6           0.001435333    0.000544621    0.001032801
     12        1           0.000509733   -0.001202441   -0.000588002
     13        1          -0.001719737    0.001319001    0.002258483
     14        1          -0.001568323   -0.000897807    0.001527494
     15        6          -0.004364120    0.000023385   -0.001854976
     16        1           0.002274236   -0.001110520   -0.000767069
     17        1           0.002155480    0.001319333    0.000535478
     18        1          -0.000799272    0.001153470    0.001051416
     19        6          -0.013932114    0.000202602    0.007164591
     20        6          -0.003203847    0.000069770    0.002228451
     21        1          -0.000662350    0.000109004   -0.002265130
     22        1           0.002429051   -0.001532163   -0.000312554
     23        1           0.002930879    0.000722388   -0.000360883
     24        6           0.011168504    0.002230864   -0.006086618
     25        1           0.002396518   -0.001171076    0.000947382
     26        6           0.006655226    0.002101123    0.003468642
     27        1          -0.002565898   -0.002170967   -0.000850598
     28        1           0.000256446   -0.001843812   -0.000561880
 -------------------------------------------------------------------
 Cartesian Forces:  Max     0.014574204 RMS     0.003749401
 Leave Link  716 at Wed Jul 14 20:05:46 2021, MaxMem=   524288000 cpu:               0.4 elap:               0.1
 (Enter /opt/gaussian/g16_legacy/l103.exe)

 GradGradGradGradGradGradGradGradGradGradGradGradGradGradGradGradGradGrad
 Berny optimization.
 FormGI is forming the generalized inverse of G from B-inverse, IUseBI=4.
 Internal  Forces:  Max     0.014655900 RMS     0.002417165
 Search for a local minimum.
 Step number   1 out of a maximum of  138
 All quantities printed in internal units (Hartrees-Bohrs-Radians)
 RMS Force = .24172D-02 SwitMx=.10000D-02 MixMth= 1
 Mixed Optimization -- RFO/linear search
 Second derivative matrix not updated -- first step.
 ITU=  0
     Eigenvalues ---    0.00342   0.00570   0.00666   0.00680   0.00693
     Eigenvalues ---    0.00714   0.00820   0.01218   0.01287   0.01570
     Eigenvalues ---    0.01643   0.02780   0.02785   0.04014   0.04133
     Eigenvalues ---    0.05350   0.05403   0.06982   0.07038   0.07087
     Eigenvalues ---    0.07093   0.07265   0.07300   0.07347   0.07505
     Eigenvalues ---    0.09278   0.09365   0.12769   0.12846   0.15999
     Eigenvalues ---    0.15999   0.16000   0.16000   0.16000   0.16000
     Eigenvalues ---    0.16000   0.16000   0.16000   0.16000   0.16000
     Eigenvalues ---    0.16000   0.16000   0.16000   0.21860   0.21867
     Eigenvalues ---    0.22000   0.22000   0.24993   0.24996   0.24999
     Eigenvalues ---    0.24999   0.29236   0.30871   0.31599   0.31703
     Eigenvalues ---    0.31807   0.31972   0.32810   0.33868   0.33935
     Eigenvalues ---    0.34061   0.34200   0.34226   0.34228   0.34245
     Eigenvalues ---    0.34247   0.34253   0.34263   0.34267   0.34291
     Eigenvalues ---    0.34292   0.34325   0.34544   0.34554   0.34788
     Eigenvalues ---    0.34849   0.55506   0.55588
 RFO step:  Lambda=-3.26402019D-03 EMin= 3.42154726D-03
 Linear search not attempted -- first point.
 Iteration  1 RMS(Cart)=  0.04540453 RMS(Int)=  0.00069876
 Iteration  2 RMS(Cart)=  0.00107699 RMS(Int)=  0.00016511
 Iteration  3 RMS(Cart)=  0.00000058 RMS(Int)=  0.00016511
 ITry= 1 IFail=0 DXMaxC= 1.60D-01 DCOld= 1.00D+10 DXMaxT= 3.00D-01 DXLimC= 3.00D+00 Rises=F
 Variable       Old X    -DE/DX   Delta X   Delta X   Delta X     New X
                                 (Linear)    (Quad)   (Total)
    R1        2.07228  -0.00075   0.00000  -0.00218  -0.00218   2.07010
    R2        2.07553  -0.00070   0.00000  -0.00204  -0.00204   2.07349
    R3        2.86260  -0.00205   0.00000  -0.00657  -0.00657   2.85602
    R4        2.89513   0.00288   0.00000   0.00973   0.00973   2.90487
    R5        2.84883   0.00038   0.00000   0.00118   0.00118   2.85001
    R6        2.54685  -0.01466   0.00000  -0.02625  -0.02625   2.52060
    R7        2.06947  -0.00162   0.00000  -0.00469  -0.00469   2.06478
    R8        2.06840   0.00119   0.00000   0.00344   0.00344   2.07184
    R9        2.06906   0.00049   0.00000   0.00142   0.00142   2.07047
   R10        2.05920   0.00016   0.00000   0.00046   0.00046   2.05966
   R11        2.82687   0.00426   0.00000   0.01286   0.01286   2.83973
   R12        2.06405  -0.00012   0.00000  -0.00034  -0.00034   2.06371
   R13        2.06785   0.00091   0.00000   0.00263   0.00263   2.07048
   R14        2.06888  -0.00008   0.00000  -0.00024  -0.00024   2.06865
   R15        2.06882   0.00071   0.00000   0.00206   0.00206   2.07089
   R16        2.06994  -0.00002   0.00000  -0.00004  -0.00004   2.06990
   R17        2.06421  -0.00025   0.00000  -0.00072  -0.00072   2.06349
   R18        2.84195   0.00051   0.00000   0.00158   0.00158   2.84354
   R19        2.84691   0.00053   0.00000   0.00165   0.00165   2.84856
   R20        2.54613  -0.01398   0.00000  -0.02500  -0.02500   2.52113
   R21        2.06951  -0.00176   0.00000  -0.00510  -0.00510   2.06441
   R22        2.06916   0.00069   0.00000   0.00201   0.00201   2.07117
   R23        2.06919   0.00062   0.00000   0.00180   0.00180   2.07099
   R24        2.06020   0.00015   0.00000   0.00043   0.00043   2.06063
   R25        2.84498   0.00025   0.00000   0.00078   0.00078   2.84577
   R26        2.07439  -0.00051   0.00000  -0.00150  -0.00150   2.07289
   R27        2.06842   0.00013   0.00000   0.00037   0.00037   2.06880
    A1        1.83003   0.00199   0.00000   0.02186   0.02167   1.85169
    A2        1.93124  -0.00010   0.00000   0.00586   0.00587   1.93711
    A3        1.91966  -0.00187   0.00000  -0.01327  -0.01331   1.90635
    A4        1.90135   0.00021   0.00000   0.00345   0.00343   1.90478
    A5        1.91824  -0.00284   0.00000  -0.02513  -0.02516   1.89307
    A6        1.95889   0.00253   0.00000   0.00784   0.00788   1.96676
    A7        2.00706   0.00126   0.00000   0.00528   0.00472   2.01178
    A8        2.17227  -0.00445   0.00000  -0.01720  -0.01773   2.15453
    A9        2.10365   0.00322   0.00000   0.01310   0.01252   2.11617
   A10        1.95921  -0.00219   0.00000  -0.00979  -0.00978   1.94943
   A11        1.92845   0.00210   0.00000   0.01064   0.01066   1.93911
   A12        1.92469   0.00153   0.00000   0.00804   0.00805   1.93274
   A13        1.87702   0.00050   0.00000   0.00569   0.00571   1.88273
   A14        1.87761   0.00108   0.00000   0.01091   0.01092   1.88853
   A15        1.89469  -0.00315   0.00000  -0.02638  -0.02637   1.86832
   A16        2.06929  -0.00202   0.00000  -0.01410  -0.01411   2.05518
   A17        2.22585  -0.00212   0.00000  -0.00949  -0.00949   2.21636
   A18        1.98791   0.00415   0.00000   0.02368   0.02368   2.01159
   A19        1.98090  -0.00247   0.00000  -0.01473  -0.01466   1.96624
   A20        1.91729   0.00367   0.00000   0.02132   0.02129   1.93858
   A21        1.91013   0.00241   0.00000   0.01554   0.01550   1.92563
   A22        1.89301  -0.00099   0.00000  -0.00734  -0.00727   1.88574
   A23        1.87282   0.00032   0.00000   0.00405   0.00410   1.87692
   A24        1.88708  -0.00315   0.00000  -0.02011  -0.02025   1.86683
   A25        1.89074  -0.00247   0.00000  -0.02265  -0.02263   1.86811
   A26        1.88486   0.00024   0.00000   0.00369   0.00370   1.88857
   A27        1.92168   0.00208   0.00000   0.01020   0.01021   1.93190
   A28        1.86364   0.00179   0.00000   0.01588   0.01589   1.87953
   A29        1.92084   0.00013   0.00000  -0.00032  -0.00031   1.92054
   A30        1.97919  -0.00187   0.00000  -0.00770  -0.00769   1.97150
   A31        1.99467   0.00125   0.00000   0.00494   0.00493   1.99960
   A32        2.18283  -0.00405   0.00000  -0.01596  -0.01597   2.16686
   A33        2.10564   0.00280   0.00000   0.01110   0.01109   2.11673
   A34        1.96054  -0.00234   0.00000  -0.01067  -0.01065   1.94989
   A35        1.92360   0.00164   0.00000   0.00787   0.00789   1.93149
   A36        1.92489   0.00203   0.00000   0.01100   0.01101   1.93591
   A37        1.87878   0.00085   0.00000   0.00800   0.00802   1.88680
   A38        1.87910   0.00088   0.00000   0.00959   0.00960   1.88871
   A39        1.89491  -0.00318   0.00000  -0.02670  -0.02668   1.86823
   A40        2.06737  -0.00175   0.00000  -0.01212  -0.01252   2.05485
   A41        2.22784  -0.00210   0.00000  -0.00923  -0.00963   2.21821
   A42        1.98783   0.00386   0.00000   0.02217   0.02176   2.00959
   A43        1.94441   0.00338   0.00000   0.01447   0.01452   1.95892
   A44        1.91629  -0.00349   0.00000  -0.02379  -0.02403   1.89226
   A45        1.93087  -0.00166   0.00000  -0.01718  -0.01726   1.91361
   A46        1.88222   0.00153   0.00000   0.02426   0.02439   1.90661
   A47        1.94477  -0.00134   0.00000  -0.00750  -0.00743   1.93734
   A48        1.84174   0.00146   0.00000   0.00997   0.00968   1.85142
    D1       -2.64816  -0.00155   0.00000  -0.04395  -0.04371  -2.69187
    D2        0.47163  -0.00054   0.00000   0.01831   0.01803   0.48966
    D3       -0.64507   0.00091   0.00000  -0.01245  -0.01215  -0.65723
    D4        2.47472   0.00192   0.00000   0.04981   0.04959   2.52430
    D5        1.48336  -0.00087   0.00000  -0.03669  -0.03644   1.44692
    D6       -1.68003   0.00014   0.00000   0.02557   0.02530  -1.65473
    D7        0.96560   0.00064   0.00000   0.02276   0.02276   0.98835
    D8       -1.11831  -0.00114   0.00000  -0.00114  -0.00094  -1.11925
    D9        3.13910   0.00014   0.00000   0.01093   0.01088  -3.13321
   D10       -1.04065   0.00091   0.00000   0.01825   0.01816  -1.02249
   D11       -3.12456  -0.00086   0.00000  -0.00565  -0.00553  -3.13010
   D12        1.13285   0.00041   0.00000   0.00642   0.00628   1.13913
   D13        3.12374   0.00093   0.00000   0.02617   0.02611  -3.13333
   D14        1.03984  -0.00084   0.00000   0.00227   0.00241   1.04224
   D15       -0.98594   0.00043   0.00000   0.01434   0.01423  -0.97172
   D16        3.13136   0.00076   0.00000   0.05197   0.05231  -3.09952
   D17       -1.05667   0.00137   0.00000   0.05998   0.06031  -0.99636
   D18        1.03804  -0.00022   0.00000   0.03913   0.03947   1.07751
   D19        0.01063  -0.00010   0.00000  -0.00721  -0.00754   0.00309
   D20        2.10579   0.00051   0.00000   0.00080   0.00047   2.10626
   D21       -2.08268  -0.00107   0.00000  -0.02005  -0.02038  -2.10306
   D22       -3.11656  -0.00111   0.00000  -0.05118  -0.05111   3.11552
   D23        0.04330  -0.00127   0.00000  -0.05797  -0.05783  -0.01453
   D24        0.00209  -0.00009   0.00000   0.01421   0.01408   0.01617
   D25       -3.12123  -0.00025   0.00000   0.00742   0.00735  -3.11388
   D26        0.14023  -0.00039   0.00000  -0.01629  -0.01627   0.12396
   D27       -1.98221  -0.00010   0.00000  -0.01225  -0.01215  -1.99436
   D28        2.23165   0.00009   0.00000  -0.00986  -0.00991   2.22174
   D29       -2.98382  -0.00049   0.00000  -0.02249  -0.02252  -3.00634
   D30        1.17693  -0.00020   0.00000  -0.01846  -0.01840   1.15853
   D31       -0.89239  -0.00001   0.00000  -0.01607  -0.01617  -0.90856
   D32       -1.16518   0.00094   0.00000   0.02650   0.02647  -1.13871
   D33        1.98654   0.00080   0.00000   0.01866   0.01869   2.00523
   D34        0.91792  -0.00073   0.00000   0.00471   0.00468   0.92260
   D35       -2.21355  -0.00087   0.00000  -0.00312  -0.00310  -2.21665
   D36        3.00405   0.00041   0.00000   0.01964   0.01961   3.02366
   D37       -0.12742   0.00026   0.00000   0.01180   0.01183  -0.11558
   D38        3.13461  -0.00016   0.00000  -0.00615  -0.00619   3.12841
   D39        1.03968  -0.00081   0.00000  -0.01464  -0.01467   1.02500
   D40       -1.05234   0.00080   0.00000   0.00649   0.00645  -1.04589
   D41       -0.01662  -0.00007   0.00000   0.00113   0.00117  -0.01545
   D42       -2.11155  -0.00072   0.00000  -0.00736  -0.00731  -2.11886
   D43        2.07962   0.00089   0.00000   0.01377   0.01381   2.09343
   D44        3.12178   0.00016   0.00000  -0.00382  -0.00356   3.11823
   D45       -0.03895   0.00126   0.00000   0.05296   0.05267   0.01372
   D46       -0.00908   0.00001   0.00000  -0.01207  -0.01179  -0.02087
   D47        3.11337   0.00112   0.00000   0.04470   0.04444  -3.12538
   D48        1.80918  -0.00026   0.00000  -0.02734  -0.02762   1.78156
   D49       -2.36996  -0.00153   0.00000  -0.03226  -0.03235  -2.40231
   D50       -0.35648   0.00040   0.00000  -0.01009  -0.01028  -0.36676
   D51       -1.35082   0.00075   0.00000   0.02696   0.02704  -1.32377
   D52        0.75322  -0.00052   0.00000   0.02203   0.02231   0.77553
   D53        2.76670   0.00141   0.00000   0.04420   0.04439   2.81109
         Item               Value     Threshold  Converged?
 Maximum Force            0.014656     0.002500     NO 
 RMS     Force            0.002417     0.001667     NO 
 Maximum Displacement     0.160072     0.010000     NO 
 RMS     Displacement     0.045493     0.006667     NO 
 Predicted change in Energy=-1.711640D-03
 Lowest energy point so far.  Saving SCF results.
 GradGradGradGradGradGradGradGradGradGradGradGradGradGradGradGradGradGrad

 Leave Link  103 at Wed Jul 14 20:05:56 2021, MaxMem=   524288000 cpu:              44.5 elap:              10.8
 (Enter /opt/gaussian/g16_legacy/l202.exe)
                          Input orientation:                          
 ---------------------------------------------------------------------
 Center     Atomic      Atomic             Coordinates (Angstroms)
 Number     Number       Type             X           Y           Z
[...]
                 (A) (A) (A) (A) (A) (A) (A) (A) (A) (A) (A) (A)
                 (A) (A) (A) (A) (A) (A) (A) (A) (A) (A) (A) (A)
                 (A) (A) (A) (A) (A) (A) (A) (A) (A) (A) (A) (A)
                 (A) (A) (A) (A) (A) (A) (A) (A) (A) (A) (A) (A)
                 (A) (A) (A) (A) (A) (A) (A) (A) (A) (A) (A) (A)
                 (A) (A) (A) (A) (A) (A) (A) (A) (A) (A) (A) (A)
                 (A) (A) (A) (A) (A) (A) (A) (A) (A) (A) (A) (A)
                 (A) (A) (A) (A) (A) (A) (A) (A) (A) (A) (A) (A)
                 (A) (A) (A) (A) (A) (A) (A) (A) (A) (A) (A) (A)
                 (A) (A) (A) (A) (A) (A) (A) (A) (A) (A) (A) (A)
                 (A) (A) (A) (A) (A) (A) (A) (A) (A) (A) (A) (A)
                 (A) (A) (A) (A) (A) (A) (A) (A) (A)
 The electronic state is 1-A.
 Alpha  occ. eigenvalues --  -10.54542 -10.54030 -10.53909 -10.53756 -10.53600
 Alpha  occ. eigenvalues --  -10.53403 -10.53353 -10.53348 -10.53194 -10.53045
 Alpha  occ. eigenvalues --   -0.92194  -0.90138  -0.84460  -0.81586  -0.77904
 Alpha  occ. eigenvalues --   -0.76182  -0.71939  -0.68655  -0.58598  -0.57921
 Alpha  occ. eigenvalues --   -0.54500  -0.51551  -0.50932  -0.49608  -0.48994
 Alpha  occ. eigenvalues --   -0.47692  -0.46289  -0.45527  -0.44399  -0.43480
 Alpha  occ. eigenvalues --   -0.43176  -0.42593  -0.41789  -0.41309  -0.39017
 Alpha  occ. eigenvalues --   -0.38359  -0.36242  -0.28918  -0.27197
 Alpha virt. eigenvalues --    0.06486   0.08350   0.11743   0.14530   0.15312
 Alpha virt. eigenvalues --    0.17087   0.18272   0.18534   0.19658   0.20456
 Alpha virt. eigenvalues --    0.21087   0.22225   0.22294   0.23156   0.23505
 Alpha virt. eigenvalues --    0.24583   0.25118   0.25785   0.27508   0.27597
 Alpha virt. eigenvalues --    0.28378   0.28886   0.29545   0.30776   0.32058
 Alpha virt. eigenvalues --    0.39119   0.40264   0.46528   0.48605   0.53720
 Alpha virt. eigenvalues --    0.55689   0.55797   0.58127   0.59017   0.59474
 Alpha virt. eigenvalues --    0.60184   0.61828   0.62380   0.63594   0.65583
 Alpha virt. eigenvalues --    0.66235   0.68601   0.71350   0.72470   0.73425
 Alpha virt. eigenvalues --    0.74430   0.75507   0.77481   0.78647   0.78985
 Alpha virt. eigenvalues --    0.80358   0.82389   0.82925   0.84784   0.86485
 Alpha virt. eigenvalues --    0.87308   0.88601   0.89257   0.91441   0.92537
 Alpha virt. eigenvalues --    0.93534   0.94488   0.94956   0.95814   0.96232
 Alpha virt. eigenvalues --    0.96336   0.96602   0.98407   0.99309   1.00314
 Alpha virt. eigenvalues --    1.01587   1.03239   1.04747   1.06518   1.07977
 Alpha virt. eigenvalues --    1.09719   1.20373   1.21494   1.24482   1.25800
 Alpha virt. eigenvalues --    1.27702   1.33759   1.35451   1.37120   1.37859
 Alpha virt. eigenvalues --    1.40177   1.41906   1.43969   1.46886   1.48962
 Alpha virt. eigenvalues --    1.51439   1.60823   1.68438   1.69155   1.74263
 Alpha virt. eigenvalues --    1.74636   1.78282   1.78758   1.80615   1.83455
 Alpha virt. eigenvalues --    1.84707   1.84951   1.86744   1.87988   1.89375
 Alpha virt. eigenvalues --    1.90476   1.92640   1.93953   1.97833   2.02607
 Alpha virt. eigenvalues --    2.03418   2.04147   2.06143   2.09524   2.09918
 Alpha virt. eigenvalues --    2.10161   2.10220   2.12443   2.13159   2.13741
 Alpha virt. eigenvalues --    2.15214   2.16364   2.16907   2.17475   2.18856
 Alpha virt. eigenvalues --    2.20060   2.21904   2.22724   2.23008   2.26125
 Alpha virt. eigenvalues --    2.28152   2.31648   2.32742   2.34630   2.35361
 Alpha virt. eigenvalues --    2.38698   2.39420   2.43026   2.43923   2.45365
 Alpha virt. eigenvalues --    2.46309   2.47906   2.50024   2.52988   2.53467
 Alpha virt. eigenvalues --    2.56451   2.60322   2.61668   2.62977   2.63917
 Alpha virt. eigenvalues --    2.66378   2.67906   2.69962   2.71339   2.72904
 Alpha virt. eigenvalues --    2.74531   2.75504   2.76941   2.79960   2.84049
 Alpha virt. eigenvalues --    2.84402   2.86252   2.86907   2.87222   2.89083
 Alpha virt. eigenvalues --    2.90605   2.92145   2.92517   2.94269   3.02935
 Alpha virt. eigenvalues --    3.04687   3.09871   3.10670   3.17217   3.19433
 Alpha virt. eigenvalues --    3.20395   3.23637   3.29556   3.35403   3.39856
 Alpha virt. eigenvalues --    3.40595   3.42033   3.43642   3.44043   3.44674
 Alpha virt. eigenvalues --    3.45022   3.46910   3.48696   3.49277   3.51797
 Alpha virt. eigenvalues --    3.58339   4.19697   4.23055   4.34484   4.41868
 Alpha virt. eigenvalues --    4.48848   4.52212   4.53169   4.66107   4.70284
 Alpha virt. eigenvalues --    4.77020
          Condensed to atoms (all electrons):
               1          2          3          4          5          6
     1  C    5.044168   0.382631   0.387943   0.355880  -0.067995   0.004666
     2  H    0.382631   0.598887  -0.032976  -0.028674   0.004463  -0.000174
     3  H    0.387943  -0.032976   0.612866  -0.038314  -0.006015   0.000169
     4  C    0.355880  -0.028674  -0.038314   4.757269   0.371874  -0.034633
     5  C   -0.067995   0.004463  -0.006015   0.371874   4.998352   0.386349
     6  H    0.004666  -0.000174   0.000169  -0.034633   0.386349   0.572235
     7  H    0.000369   0.000040  -0.000603  -0.038920   0.381317  -0.027092
     8  H   -0.004103   0.000033   0.003798  -0.031830   0.379445  -0.026716
     9  C   -0.050885  -0.007458   0.004032   0.718839  -0.042833  -0.005314
    10  H    0.006061  -0.000019  -0.000178  -0.031690  -0.013794   0.006475
    11  C   -0.013991   0.000107   0.000301  -0.044381   0.006120   0.000075
    12  H    0.003274   0.002453  -0.000076  -0.008813   0.000101   0.000008
    13  H    0.000107   0.000174   0.000014   0.000234  -0.000139  -0.000007
    14  H    0.000484  -0.000176  -0.000014  -0.000446  -0.000145  -0.000005
    15  C   -0.000465   0.000039   0.001077  -0.000055  -0.000079   0.000002
    16  H   -0.000022  -0.000001   0.000037   0.000004  -0.000001   0.000000
    17  H    0.000161  -0.000003  -0.000108  -0.000013   0.000004  -0.000000
    18  H   -0.000341  -0.000006   0.000731  -0.000248   0.000304  -0.000004
    19  C   -0.005874  -0.000022   0.002588   0.000152   0.000005  -0.000000
    20  C   -0.000078   0.000001  -0.000118   0.000002  -0.000000   0.000000
    21  H   -0.000001   0.000002  -0.000001   0.000000  -0.000000  -0.000000
    22  H   -0.000006   0.000000   0.000003   0.000000  -0.000000   0.000000
    23  H    0.000022  -0.000003  -0.000004  -0.000000   0.000000  -0.000000
    24  C   -0.051860  -0.001207  -0.001892   0.006215  -0.000064   0.000002
    25  H    0.000664   0.001655  -0.000097  -0.000093  -0.000001  -0.000000
    26  C    0.350818  -0.039110  -0.044558  -0.044969  -0.002685  -0.000058
    27  H   -0.041247  -0.006217   0.005807  -0.003497  -0.000011   0.000005
    28  H   -0.043772   0.005849  -0.005167  -0.002278   0.001413  -0.000145
               7          8          9         10         11         12
     1  C    0.000369  -0.004103  -0.050885   0.006061  -0.013991   0.003274
     2  H    0.000040   0.000033  -0.007458  -0.000019   0.000107   0.002453
     3  H   -0.000603   0.003798   0.004032  -0.000178   0.000301  -0.000076
     4  C   -0.038920  -0.031830   0.718839  -0.031690  -0.044381  -0.008813
     5  C    0.381317   0.379445  -0.042833  -0.013794   0.006120   0.000101
     6  H   -0.027092  -0.026716  -0.005314   0.006475   0.000075   0.000008
     7  H    0.598541  -0.036800  -0.000914   0.000176  -0.000165  -0.000003
     8  H   -0.036800   0.587404  -0.000669   0.000314  -0.000162   0.000001
     9  C   -0.000914  -0.000669   4.889992   0.376640   0.362374  -0.035226
    10  H    0.000176   0.000314   0.376640   0.612834  -0.053710   0.004463
    11  C   -0.000165  -0.000162   0.362374  -0.053710   4.974906   0.389769
    12  H   -0.000003   0.000001  -0.035226   0.004463   0.389769   0.581515
    13  H   -0.000004   0.000020  -0.033306  -0.001566   0.385634  -0.028066
    14  H    0.000020  -0.000005  -0.032764  -0.001385   0.385454  -0.028901
    15  C   -0.000169  -0.000007  -0.000001  -0.000000  -0.000000  -0.000000
    16  H   -0.000000   0.000000   0.000000   0.000000   0.000000   0.000000
    17  H   -0.000004   0.000000   0.000000  -0.000000   0.000000  -0.000000
    18  H    0.001051   0.000012  -0.000003   0.000000  -0.000000  -0.000000
    19  C    0.000033  -0.000003  -0.000003   0.000000  -0.000000   0.000001
    20  C   -0.000000   0.000000  -0.000000   0.000000   0.000000  -0.000000
    21  H   -0.000000  -0.000000   0.000000  -0.000000   0.000000  -0.000000
    22  H    0.000000   0.000000   0.000000   0.000000  -0.000000   0.000000
    23  H    0.000000  -0.000000   0.000000  -0.000000   0.000000  -0.000000
    24  C   -0.000216   0.000020   0.000161   0.000004  -0.000060   0.000060
    25  H    0.000001   0.000000   0.000000  -0.000000   0.000004   0.000015
    26  C    0.000981  -0.000031  -0.004571  -0.000104  -0.000167  -0.000648
    27  H    0.000006   0.000002   0.002504  -0.000067   0.001001   0.000651
    28  H    0.001924   0.000027  -0.000012  -0.000008   0.000028  -0.000006
              13         14         15         16         17         18
     1  C    0.000107   0.000484  -0.000465  -0.000022   0.000161  -0.000341
     2  H    0.000174  -0.000176   0.000039  -0.000001  -0.000003  -0.000006
     3  H    0.000014  -0.000014   0.001077   0.000037  -0.000108   0.000731
     4  C    0.000234  -0.000446  -0.000055   0.000004  -0.000013  -0.000248
     5  C   -0.000139  -0.000145  -0.000079  -0.000001   0.000004   0.000304
     6  H   -0.000007  -0.000005   0.000002   0.000000  -0.000000  -0.000004
     7  H   -0.000004   0.000020  -0.000169  -0.000000  -0.000004   0.001051
     8  H    0.000020  -0.000005  -0.000007   0.000000   0.000000   0.000012
     9  C   -0.033306  -0.032764  -0.000001   0.000000   0.000000  -0.000003
    10  H   -0.001566  -0.001385  -0.000000   0.000000  -0.000000   0.000000
    11  C    0.385634   0.385454  -0.000000   0.000000   0.000000  -0.000000
    12  H   -0.028066  -0.028901  -0.000000   0.000000  -0.000000  -0.000000
    13  H    0.578191  -0.033674   0.000000   0.000000  -0.000000  -0.000000
    14  H   -0.033674   0.578953  -0.000000  -0.000000   0.000000   0.000000
    15  C    0.000000  -0.000000   5.004459   0.383734   0.383785   0.382286
    16  H    0.000000  -0.000000   0.383734   0.581646  -0.034310  -0.027302
    17  H   -0.000000   0.000000   0.383785  -0.034310   0.582722  -0.028167
    18  H   -0.000000   0.000000   0.382286  -0.027302  -0.028167   0.581191
    19  C    0.000000   0.000000   0.379184  -0.035611  -0.034977  -0.026823
    20  C   -0.000000  -0.000000  -0.078030  -0.002686  -0.002702   0.004886
    21  H   -0.000000   0.000000   0.004739  -0.000038  -0.000016  -0.000172
    22  H    0.000000  -0.000000  -0.001100   0.004040  -0.000759  -0.000025
    23  H   -0.000000   0.000000  -0.001683  -0.000753   0.004028  -0.000038
    24  C    0.000002  -0.000009  -0.055279   0.000857   0.000390  -0.010588
    25  H   -0.000000   0.000000   0.006424  -0.000153  -0.000169   0.000035
    26  C   -0.000010   0.000107  -0.013591   0.000003   0.000520   0.003179
    27  H    0.000017  -0.000040   0.000363   0.000011  -0.000013  -0.000030
    28  H   -0.000001   0.000003   0.000389   0.000240  -0.000201   0.001622
              19         20         21         22         23         24
     1  C   -0.005874  -0.000078  -0.000001  -0.000006   0.000022  -0.051860
     2  H   -0.000022   0.000001   0.000002   0.000000  -0.000003  -0.001207
     3  H    0.002588  -0.000118  -0.000001   0.000003  -0.000004  -0.001892
     4  C    0.000152   0.000002   0.000000   0.000000  -0.000000   0.006215
     5  C    0.000005  -0.000000  -0.000000  -0.000000   0.000000  -0.000064
     6  H   -0.000000   0.000000  -0.000000   0.000000  -0.000000   0.000002
     7  H    0.000033  -0.000000  -0.000000   0.000000   0.000000  -0.000216
     8  H   -0.000003   0.000000  -0.000000   0.000000  -0.000000   0.000020
     9  C   -0.000003  -0.000000   0.000000   0.000000   0.000000   0.000161
    10  H    0.000000   0.000000  -0.000000   0.000000  -0.000000   0.000004
    11  C   -0.000000   0.000000   0.000000  -0.000000   0.000000  -0.000060
    12  H    0.000001  -0.000000  -0.000000   0.000000  -0.000000   0.000060
    13  H    0.000000  -0.000000  -0.000000   0.000000  -0.000000   0.000002
    14  H    0.000000  -0.000000   0.000000  -0.000000   0.000000  -0.000009
    15  C    0.379184  -0.078030   0.004739  -0.001100  -0.001683  -0.055279
    16  H   -0.035611  -0.002686  -0.000038   0.004040  -0.000753   0.000857
    17  H   -0.034977  -0.002702  -0.000016  -0.000759   0.004028   0.000390
    18  H   -0.026823   0.004886  -0.000172  -0.000025  -0.000038  -0.010588
    19  C    4.721081   0.369130  -0.033352  -0.035998  -0.035852   0.717771
    20  C    0.369130   5.004565   0.385045   0.381530   0.381124  -0.038524
    21  H   -0.033352   0.385045   0.569813  -0.026271  -0.026439  -0.004969
    22  H   -0.035998   0.381530  -0.026271   0.590434  -0.036786  -0.001396
    23  H   -0.035852   0.381124  -0.026439  -0.036786   0.591017  -0.000615
    24  C    0.717771  -0.038524  -0.004969  -0.001396  -0.000615   4.923774
    25  H   -0.034125  -0.013983   0.006454   0.000239   0.000232   0.377802
    26  C   -0.040442   0.005754   0.000100  -0.000205  -0.000104   0.347782
    27  H    0.003299  -0.000162  -0.000010   0.000007  -0.000000  -0.028156
    28  H   -0.007573   0.000015   0.000010   0.000017  -0.000009  -0.037001
              25         26         27         28
     1  C    0.000664   0.350818  -0.041247  -0.043772
     2  H    0.001655  -0.039110  -0.006217   0.005849
     3  H   -0.000097  -0.044558   0.005807  -0.005167
     4  C   -0.000093  -0.044969  -0.003497  -0.002278
     5  C   -0.000001  -0.002685  -0.000011   0.001413
     6  H   -0.000000  -0.000058   0.000005  -0.000145
     7  H    0.000001   0.000981   0.000006   0.001924
     8  H    0.000000  -0.000031   0.000002   0.000027
     9  C    0.000000  -0.004571   0.002504  -0.000012
    10  H   -0.000000  -0.000104  -0.000067  -0.000008
    11  C    0.000004  -0.000167   0.001001   0.000028
    12  H    0.000015  -0.000648   0.000651  -0.000006
    13  H   -0.000000  -0.000010   0.000017  -0.000001
    14  H    0.000000   0.000107  -0.000040   0.000003
    15  C    0.006424  -0.013591   0.000363   0.000389
    16  H   -0.000153   0.000003   0.000011   0.000240
    17  H   -0.000169   0.000520  -0.000013  -0.000201
    18  H    0.000035   0.003179  -0.000030   0.001622
    19  C   -0.034125  -0.040442   0.003299  -0.007573
    20  C   -0.013983   0.005754  -0.000162   0.000015
    21  H    0.006454   0.000100  -0.000010   0.000010
    22  H    0.000239  -0.000205   0.000007   0.000017
    23  H    0.000232  -0.000104  -0.000000  -0.000009
    24  C    0.377802   0.347782  -0.028156  -0.037001
    25  H    0.610163  -0.049728  -0.005714   0.004397
    26  C   -0.049728   4.998619   0.386429   0.391921
    27  H   -0.005714   0.386429   0.599711  -0.033542
    28  H    0.004397   0.391921  -0.033542   0.606245
 Mulliken charges:
               1
     1  C   -0.256608
     2  H    0.119711
     3  H    0.110757
     4  C    0.098386
     5  C   -0.395984
     6  H    0.124163
     7  H    0.120433
     8  H    0.129250
     9  C   -0.140581
    10  H    0.095555
    11  C   -0.393135
    12  H    0.119429
    13  H    0.132381
    14  H    0.132545
    15  C   -0.396020
    16  H    0.130303
    17  H    0.129830
    18  H    0.118450
    19  C    0.097410
    20  C   -0.395769
    21  H    0.125105
    22  H    0.126277
    23  H    0.125863
    24  C   -0.143004
    25  H    0.095979
    26  C   -0.245232
    27  H    0.118892
    28  H    0.115614
 Sum of Mulliken charges =  -0.00000
 Mulliken charges with hydrogens summed into heavy atoms:
               1
     1  C   -0.026139
     4  C    0.098386
     5  C   -0.022137
     9  C   -0.045026
    11  C   -0.008780
    15  C   -0.017438
    19  C    0.097410
    20  C   -0.018525
    24  C   -0.047025
    26  C   -0.010725
 Electronic spatial extent (au):  <R**2>=           2433.0617
 Charge=             -0.0000 electrons
 Dipole moment (field-independent basis, Debye):
    X=             -0.3314    Y=              0.1539    Z=              0.0704  Tot=              0.3721
 Quadrupole moment (field-independent basis, Debye-Ang):
   XX=            -62.3629   YY=            -62.6715   ZZ=            -66.4997
   XY=             -1.2694   XZ=             -1.2306   YZ=             -0.2298
 Traceless Quadrupole moment (field-independent basis, Debye-Ang):
   XX=              1.4818   YY=              1.1732   ZZ=             -2.6550
   XY=             -1.2694   XZ=             -1.2306   YZ=             -0.2298
 Octapole moment (field-independent basis, Debye-Ang**2):
  XXX=             -2.9195  YYY=             -2.9858  ZZZ=              1.2663  XYY=              1.0451
  XXY=              0.6151  XXZ=             -1.7577  XZZ=             -1.3286  YZZ=              1.4041
  YYZ=              0.3507  XYZ=              0.1893
 Hexadecapole moment (field-independent basis, Debye-Ang**3):
 XXXX=          -2506.3834 YYYY=           -636.8626 ZZZZ=           -161.4558 XXXY=            -15.5150
 XXXZ=            -11.2698 YYYX=              7.0452 YYYZ=              0.8986 ZZZX=             -4.7852
 ZZZY=              1.6543 XXYY=           -524.1112 XXZZ=           -461.3163 YYZZ=           -129.5316
 XXYZ=             -5.5859 YYXZ=             -1.6377 ZZXY=             -8.4548
 N-N= 5.184516592022D+02 E-N=-1.941959989334D+03  KE= 3.881379220776D+02
 No NMR shielding tensors so no spin-rotation constants.
 Leave Link  601 at Wed Jul 14 20:29:35 2021, MaxMem=   524288000 cpu:               7.9 elap:               1.6
 (Enter /opt/gaussian/g16_legacy/l9999.exe)
 1\1\GINC-TRUENO91\FOpt\RM062X\6-31G(d,p)\C10H18\JRAMOS\14-Jul-2021\0\\
 #p opt=loose m062x/6-31g(d,p)\\Conformer number 356. Energy MM = 23.28
 7 kcal/mol\\0,1\C,-0.7177997525,-0.5781639625,0.1738420203\H,-1.064582
 538,-0.9479384249,1.1439174899\H,0.0148615093,-1.309723494,-0.18911009
 37\C,-1.8540022237,-0.4650073743,-0.8162720794\C,-1.4737493395,-0.7206
 958243,-2.2510159857\H,-2.3056821743,-0.5310528486,-2.9329928482\H,-0.
 6338632314,-0.0820844021,-2.55194271\H,-1.1441486924,-1.7571733091,-2.
 3871045071\C,-3.0981349619,-0.1132267674,-0.478440657\H,-3.8359269801,
 -0.0314608518,-1.2766496278\C,-3.6027835155,0.1995454495,0.8997690318\
 H,-2.8259946114,0.1060218874,1.6612228441\H,-4.4292180885,-0.464178764
 8,1.1758913811\H,-3.9910467353,1.2228655201,0.9455415228\C,2.841291386
 8,-0.0256745171,-0.4627351716\H,3.6390285107,0.6486429054,-0.795247502
 9\H,3.2481630804,-1.0422119933,-0.5142523609\H,2.0170589502,0.04161960
 43,-1.1749295167\C,2.4281060194,0.2970453081,0.9489993723\C,3.53039549
 84,0.1833491768,1.9678819884\H,3.1791747852,0.4294832714,2.9722863794\
 H,4.3604846603,0.854997849,1.7192717283\H,3.9423590291,-0.8324174096,1
 .9857942343\C,1.1881517422,0.6534973121,1.2986352729\H,0.994279767,0.8
 395162405,2.354789413\C,0.0038133934,0.770503458,0.3768588031\H,-0.715
 828092,1.4894797748,0.783440057\H,0.3057926041,1.1645421864,-0.5999484
 778\\Version=EM64L-G16RevA.03\State=1-A\HF=-391.6902065\RMSD=3.067e-09
 \RMSF=1.097e-05\Dipole=0.1416518,-0.0336783,-0.0153086\Quadrupole=1.56
 0673,-2.000559,0.4398861,-1.0242066,-0.489274,0.2970328\PG=C01 [X(C10H
 18)]\\@


 REFRAIN FROM ILLUSIONS, INSIST ON WORK AND NOT WORDS,
 PATIENTLY SEEK DIVINE AND SCIENTIFIC TRUTH.
 LAST WORDS OF MARIA MENDELEEVA TO HER SON DMITRI, C. 1850
 Job cpu time:       0 days  2 hours 14 minutes 28.3 seconds.
 Elapsed time:       0 days  0 hours 25 minutes 29.7 seconds.
 File lengths (MBytes):  RWF=     42 Int=      0 D2E=      0 Chk=      6 Scr=      1
 Normal termination of Gaussian 16 at Wed Jul 14 20:29:36 2021.
