 Entering Gaussian System, Link 0=/opt/gaussian/g16_legacy/g16
 Input=IsoP_rdkit_03_295_gaussian.com
 Output=IsoP_rdkit_03_295_gaussian.log
 Initial command:
 /opt/gaussian/g16_legacy/l1.exe "/scratch-local/jramos/2643486/Gau-23381.inp" -scrdir="/scratch-local/jramos/2643486/"
 Entering Link 1 = /opt/gaussian/g16_legacy/l1.exe PID=     23382.
  
 Copyright (c) 1988,1990,1992,1993,1995,1998,2003,2009,2016,
            Gaussian, Inc.  All Rights Reserved.
  
 This is part of the Gaussian(R) 16 program.  It is based on
 the Gaussian(R) 09 system (copyright 2009, Gaussian, Inc.),
 the Gaussian(R) 03 system (copyright 2003, Gaussian, Inc.),
 the Gaussian(R) 98 system (copyright 1998, Gaussian, Inc.),
 the Gaussian(R) 94 system (copyright 1995, Gaussian, Inc.),
 the Gaussian 92(TM) system (copyright 1992, Gaussian, Inc.),
 the Gaussian 90(TM) system (copyright 1990, Gaussian, Inc.),
 the Gaussian 88(TM) system (copyright 1988, Gaussian, Inc.),
 the Gaussian 86(TM) system (copyright 1986, Carnegie Mellon
 University), and the Gaussian 82(TM) system (copyright 1983,
 Carnegie Mellon University). Gaussian is a federally registered
 trademark of Gaussian, Inc.
  
 This software contains proprietary and confidential information,
 including trade secrets, belonging to Gaussian, Inc.
  
 This software is provided under written license and may be
 used, copied, transmitted, or stored only in accord with that
 written license.
  
 The following legend is applicable only to US Government
 contracts under FAR:
  
                    RESTRICTED RIGHTS LEGEND
  
 Use, reproduction and disclosure by the US Government is
 subject to restrictions as set forth in subparagraphs (a)
 and (c) of the Commercial Computer Software - Restricted
 Rights clause in FAR 52.227-19.
  
 Gaussian, Inc.
 340 Quinnipiac St., Bldg. 40, Wallingford CT 06492
  
  
 ---------------------------------------------------------------
 Warning -- This program may not be used in any manner that
 competes with the business of Gaussian, Inc. or will provide
 assistance to any competitor of Gaussian, Inc.  The licensee
 of this program is prohibited from giving any competitor of
 Gaussian, Inc. access to this program.  By using this program,
 the user acknowledges that Gaussian, Inc. is engaged in the
 business of creating and licensing software in the field of
 computational chemistry and represents and warrants to the
 licensee that it is not a competitor of Gaussian, Inc. and that
 it will not use this program in any manner prohibited above.
 ---------------------------------------------------------------
  

 Cite this work as:
 Gaussian 16, Revision A.03,
 M. J. Frisch, G. W. Trucks, H. B. Schlegel, G. E. Scuseria, 
 M. A. Robb, J. R. Cheeseman, G. Scalmani, V. Barone, 
 G. A. Petersson, H. Nakatsuji, X. Li, M. Caricato, A. V. Marenich, 
 J. Bloino, B. G. Janesko, R. Gomperts, B. Mennucci, H. P. Hratchian, 
 J. V. Ortiz, A. F. Izmaylov, J. L. Sonnenberg, D. Williams-Young, 
 F. Ding, F. Lipparini, F. Egidi, J. Goings, B. Peng, A. Petrone, 
 T. Henderson, D. Ranasinghe, V. G. Zakrzewski, J. Gao, N. Rega, 
 G. Zheng, W. Liang, M. Hada, M. Ehara, K. Toyota, R. Fukuda, 
 J. Hasegawa, M. Ishida, T. Nakajima, Y. Honda, O. Kitao, H. Nakai, 
 T. Vreven, K. Throssell, J. A. Montgomery, Jr., J. E. Peralta, 
 F. Ogliaro, M. J. Bearpark, J. J. Heyd, E. N. Brothers, K. N. Kudin, 
 V. N. Staroverov, T. A. Keith, R. Kobayashi, J. Normand, 
 K. Raghavachari, A. P. Rendell, J. C. Burant, S. S. Iyengar, 
 J. Tomasi, M. Cossi, J. M. Millam, M. Klene, C. Adamo, R. Cammi, 
 J. W. Ochterski, R. L. Martin, K. Morokuma, O. Farkas, 
 J. B. Foresman, and D. J. Fox, Gaussian, Inc., Wallingford CT, 2016.
 
 ******************************************
 Gaussian 16:  EM64L-G16RevA.03 25-Dec-2016
                14-Jul-2021 
 ******************************************
 %chk=IsoP_rdkit_03_295_gaussian.chk
 %nproc=6
 Will use up to    6 processors via shared memory.
 %mem=4000Mb
 -----------------------------
 #p opt=loose m062x/6-31g(d,p)
 -----------------------------
 1/7=-1,18=20,19=15,26=3,38=1/1,3;
 2/9=110,12=2,17=6,18=5,40=1/2;
 3/5=1,6=6,7=101,11=2,25=1,30=1,71=1,74=-55/1,2,3;
 4//1;
 5/5=2,38=5/2;
 6/7=2,8=2,9=2,10=2,28=1/1;
 7//1,2,3,16;
 1/7=-1,18=20,19=15,26=3/3(2);
 2/9=110/2;
 99//99;
 2/9=110/2;
 3/5=1,6=6,7=101,11=2,25=1,30=1,71=1,74=-55/1,2,3;
 4/5=5,16=3,69=1/1;
 5/5=2,38=5/2;
 7//1,2,3,16;
 1/7=-1,18=20,19=15,26=3/3(-5);
 2/9=110/2;
 6/7=2,8=2,9=2,10=2,19=2,28=1/1;
 99/9=1/99;
 Leave Link    1 at Wed Jul 14 20:00:28 2021, MaxMem=   524288000 cpu:               0.6 elap:               0.2
 (Enter /opt/gaussian/g16_legacy/l101.exe)
 -------------------------------------------------
 Conformer number 295. Energy MM = 23.242 kcal/mol
 -------------------------------------------------
 Symbolic Z-matrix:
 Charge =  0 Multiplicity = 1
 C                    -0.6851   -0.5381   -0.6884 
 H                    -0.4663   -1.2414   -1.5031 
 H                    -0.7179   -1.1572    0.2161 
 C                    -2.0323    0.1067   -0.9415 
 C                    -2.3406    0.3945   -2.3885 
 H                    -1.6006    1.0834   -2.8079 
 H                    -2.3244   -0.532    -2.9716 
 H                    -3.3277    0.8505   -2.5195 
 C                    -2.9299    0.397     0.0211 
 H                    -3.8816    0.8406   -0.2702 
 C                    -2.7775    0.2028    1.4966 
 H                    -1.7699   -0.0949    1.7953 
 H                    -3.0063    1.1406    2.0131 
 H                    -3.4814   -0.5586    1.8458 
 C                     3.796    -0.9197    0.8857 
 H                     4.5551   -0.2167    1.2441 
 H                     4.1193   -1.2862   -0.0943 
 H                     3.7647   -1.7762    1.5671 
 C                     2.4492   -0.2472    0.8296 
 C                     1.9661    0.2815    2.1521 
 H                     2.6069    1.1042    2.4851 
 H                     0.9368    0.646     2.1243 
 H                     2.0009   -0.5102    2.9084 
 C                     1.7706   -0.1643   -0.3315 
 H                     2.2153   -0.6024   -1.2252 
 C                     0.4392    0.4961   -0.5724 
 H                     0.5159    1.0745   -1.5018 
 H                     0.2057    1.2265    0.2091 
 
 ITRead=  0  0  0  0  0  0  0  0  0  0  0  0  0  0  0  0  0  0  0  0
 ITRead=  0  0  0  0  0  0  0  0
 MicOpt= -1 -1 -1 -1 -1 -1 -1 -1 -1 -1 -1 -1 -1 -1 -1 -1 -1 -1 -1 -1
 MicOpt= -1 -1 -1 -1 -1 -1 -1 -1
 NAtoms=     28 NQM=       28 NQMF=       0 NMMI=      0 NMMIF=      0
                NMic=       0 NMicF=      0.
                    Isotopes and Nuclear Properties:
 (Nuclear quadrupole moments (NQMom) in fm**2, nuclear magnetic moments (NMagM)
  in nuclear magnetons)

  Atom         1           2           3           4           5           6           7           8           9          10
 IAtWgt=          12           1           1          12          12           1           1           1          12           1
 AtmWgt=  12.0000000   1.0078250   1.0078250  12.0000000  12.0000000   1.0078250   1.0078250   1.0078250  12.0000000   1.0078250
 NucSpn=           0           1           1           0           0           1           1           1           0           1
 AtZEff=  -0.0000000  -0.0000000  -0.0000000  -0.0000000  -0.0000000  -0.0000000  -0.0000000  -0.0000000  -0.0000000  -0.0000000
 NQMom=    0.0000000   0.0000000   0.0000000   0.0000000   0.0000000   0.0000000   0.0000000   0.0000000   0.0000000   0.0000000
 NMagM=    0.0000000   2.7928460   2.7928460   0.0000000   0.0000000   2.7928460   2.7928460   2.7928460   0.0000000   2.7928460
 AtZNuc=   6.0000000   1.0000000   1.0000000   6.0000000   6.0000000   1.0000000   1.0000000   1.0000000   6.0000000   1.0000000

  Atom        11          12          13          14          15          16          17          18          19          20
 IAtWgt=          12           1           1           1          12           1           1           1          12          12
 AtmWgt=  12.0000000   1.0078250   1.0078250   1.0078250  12.0000000   1.0078250   1.0078250   1.0078250  12.0000000  12.0000000
 NucSpn=           0           1           1           1           0           1           1           1           0           0
 AtZEff=  -0.0000000  -0.0000000  -0.0000000  -0.0000000  -0.0000000  -0.0000000  -0.0000000  -0.0000000  -0.0000000  -0.0000000
 NQMom=    0.0000000   0.0000000   0.0000000   0.0000000   0.0000000   0.0000000   0.0000000   0.0000000   0.0000000   0.0000000
 NMagM=    0.0000000   2.7928460   2.7928460   2.7928460   0.0000000   2.7928460   2.7928460   2.7928460   0.0000000   0.0000000
 AtZNuc=   6.0000000   1.0000000   1.0000000   1.0000000   6.0000000   1.0000000   1.0000000   1.0000000   6.0000000   6.0000000

  Atom        21          22          23          24          25          26          27          28
 IAtWgt=           1           1           1          12           1          12           1           1
 AtmWgt=   1.0078250   1.0078250   1.0078250  12.0000000   1.0078250  12.0000000   1.0078250   1.0078250
 NucSpn=           1           1           1           0           1           0           1           1
 AtZEff=  -0.0000000  -0.0000000  -0.0000000  -0.0000000  -0.0000000  -0.0000000  -0.0000000  -0.0000000
 NQMom=    0.0000000   0.0000000   0.0000000   0.0000000   0.0000000   0.0000000   0.0000000   0.0000000
 NMagM=    2.7928460   2.7928460   2.7928460   0.0000000   2.7928460   0.0000000   2.7928460   2.7928460
 AtZNuc=   1.0000000   1.0000000   1.0000000   6.0000000   1.0000000   6.0000000   1.0000000   1.0000000
 Leave Link  101 at Wed Jul 14 20:00:29 2021, MaxMem=   524288000 cpu:               1.7 elap:               0.3
 (Enter /opt/gaussian/g16_legacy/l103.exe)

 GradGradGradGradGradGradGradGradGradGradGradGradGradGradGradGradGradGrad
 Berny optimization.
 Initialization pass.
                           ----------------------------
                           !    Initial Parameters    !
                           ! (Angstroms and Degrees)  !
 --------------------------                            --------------------------
 ! Name  Definition              Value          Derivative Info.                !
 --------------------------------------------------------------------------------
 ! R1    R(1,2)                  1.0983         estimate D2E/DX2                !
 ! R2    R(1,3)                  1.0966         estimate D2E/DX2                !
 ! R3    R(1,4)                  1.5149         estimate D2E/DX2                !
 ! R4    R(1,26)                 1.532          estimate D2E/DX2                !
 ! R5    R(4,5)                  1.5072         estimate D2E/DX2                !
 ! R6    R(4,9)                  1.3478         estimate D2E/DX2                !
 ! R7    R(5,6)                  1.0946         estimate D2E/DX2                !
 ! R8    R(5,7)                  1.0948         estimate D2E/DX2                !
 ! R9    R(5,8)                  1.0952         estimate D2E/DX2                !
 ! R10   R(9,10)                 1.0897         estimate D2E/DX2                !
 ! R11   R(9,11)                 1.496          estimate D2E/DX2                !
 ! R12   R(11,12)                1.0923         estimate D2E/DX2                !
 ! R13   R(11,13)                1.0948         estimate D2E/DX2                !
 ! R14   R(11,14)                1.0941         estimate D2E/DX2                !
 ! R15   R(15,16)                1.0949         estimate D2E/DX2                !
 ! R16   R(15,17)                1.0951         estimate D2E/DX2                !
 ! R17   R(15,18)                1.0949         estimate D2E/DX2                !
 ! R18   R(15,19)                1.5064         estimate D2E/DX2                !
 ! R19   R(19,20)                1.504          estimate D2E/DX2                !
 ! R20   R(19,24)                1.3474         estimate D2E/DX2                !
 ! R21   R(20,21)                1.0947         estimate D2E/DX2                !
 ! R22   R(20,22)                1.0923         estimate D2E/DX2                !
 ! R23   R(20,23)                1.0954         estimate D2E/DX2                !
 ! R24   R(24,25)                1.0901         estimate D2E/DX2                !
 ! R25   R(24,26)                1.5056         estimate D2E/DX2                !
 ! R26   R(26,27)                1.0974         estimate D2E/DX2                !
 ! R27   R(26,28)                1.0949         estimate D2E/DX2                !
 ! A1    A(2,1,3)              104.8498         estimate D2E/DX2                !
 ! A2    A(2,1,4)              109.0143         estimate D2E/DX2                !
 ! A3    A(2,1,26)             110.0137         estimate D2E/DX2                !
 ! A4    A(3,1,4)              110.5806         estimate D2E/DX2                !
 ! A5    A(3,1,26)             109.9145         estimate D2E/DX2                !
 ! A6    A(4,1,26)             112.2075         estimate D2E/DX2                !
 ! A7    A(1,4,5)              115.0617         estimate D2E/DX2                !
 ! A8    A(1,4,9)              124.3761         estimate D2E/DX2                !
 ! A9    A(5,4,9)              120.5518         estimate D2E/DX2                !
 ! A10   A(4,5,6)              110.4719         estimate D2E/DX2                !
 ! A11   A(4,5,7)              110.2855         estimate D2E/DX2                !
 ! A12   A(4,5,8)              112.2531         estimate D2E/DX2                !
 ! A13   A(6,5,7)              108.5744         estimate D2E/DX2                !
 ! A14   A(6,5,8)              107.5449         estimate D2E/DX2                !
 ! A15   A(7,5,8)              107.5763         estimate D2E/DX2                !
 ! A16   A(4,9,10)             118.5817         estimate D2E/DX2                !
 ! A17   A(4,9,11)             127.4889         estimate D2E/DX2                !
 ! A18   A(10,9,11)            113.9215         estimate D2E/DX2                !
 ! A19   A(9,11,12)            113.5197         estimate D2E/DX2                !
 ! A20   A(9,11,13)            109.4401         estimate D2E/DX2                !
 ! A21   A(9,11,14)            109.8511         estimate D2E/DX2                !
 ! A22   A(12,11,13)           107.2914         estimate D2E/DX2                !
 ! A23   A(12,11,14)           108.4523         estimate D2E/DX2                !
 ! A24   A(13,11,14)           108.124          estimate D2E/DX2                !
 ! A25   A(16,15,17)           107.6452         estimate D2E/DX2                !
 ! A26   A(16,15,18)           108.5632         estimate D2E/DX2                !
 ! A27   A(16,15,19)           110.2055         estimate D2E/DX2                !
 ! A28   A(17,15,18)           107.6714         estimate D2E/DX2                !
 ! A29   A(17,15,19)           112.3351         estimate D2E/DX2                !
 ! A30   A(18,15,19)           110.2935         estimate D2E/DX2                !
 ! A31   A(15,19,20)           114.291          estimate D2E/DX2                !
 ! A32   A(15,19,24)           120.6523         estimate D2E/DX2                !
 ! A33   A(20,19,24)           125.0539         estimate D2E/DX2                !
 ! A34   A(19,20,21)           110.0996         estimate D2E/DX2                !
 ! A35   A(19,20,22)           113.4297         estimate D2E/DX2                !
 ! A36   A(19,20,23)           110.0497         estimate D2E/DX2                !
 ! A37   A(21,20,22)           107.9729         estimate D2E/DX2                !
 ! A38   A(21,20,23)           108.3329         estimate D2E/DX2                !
 ! A39   A(22,20,23)           106.7791         estimate D2E/DX2                !
 ! A40   A(19,24,25)           118.4425         estimate D2E/DX2                !
 ! A41   A(19,24,26)           127.6063         estimate D2E/DX2                !
 ! A42   A(25,24,26)           113.9439         estimate D2E/DX2                !
 ! A43   A(1,26,24)            111.4062         estimate D2E/DX2                !
 ! A44   A(1,26,27)            110.0582         estimate D2E/DX2                !
 ! A45   A(1,26,28)            110.3573         estimate D2E/DX2                !
 ! A46   A(24,26,27)           107.7521         estimate D2E/DX2                !
 ! A47   A(24,26,28)           111.5308         estimate D2E/DX2                !
 ! A48   A(27,26,28)           105.5342         estimate D2E/DX2                !
 ! D1    D(2,1,4,5)            -36.6466         estimate D2E/DX2                !
 ! D2    D(2,1,4,9)            142.1834         estimate D2E/DX2                !
 ! D3    D(3,1,4,5)           -151.415          estimate D2E/DX2                !
 ! D4    D(3,1,4,9)             27.415          estimate D2E/DX2                !
 ! D5    D(26,1,4,5)            85.4727         estimate D2E/DX2                !
 ! D6    D(26,1,4,9)           -95.6972         estimate D2E/DX2                !
 ! D7    D(2,1,26,24)          -58.0227         estimate D2E/DX2                !
 ! D8    D(2,1,26,27)           61.4346         estimate D2E/DX2                !
 ! D9    D(2,1,26,28)          177.5116         estimate D2E/DX2                !
 ! D10   D(3,1,26,24)           56.9422         estimate D2E/DX2                !
 ! D11   D(3,1,26,27)          176.3995         estimate D2E/DX2                !
 ! D12   D(3,1,26,28)          -67.5236         estimate D2E/DX2                !
 ! D13   D(4,1,26,24)         -179.5715         estimate D2E/DX2                !
 ! D14   D(4,1,26,27)          -60.1142         estimate D2E/DX2                !
 ! D15   D(4,1,26,28)           55.9628         estimate D2E/DX2                !
 ! D16   D(1,4,5,6)            -60.532          estimate D2E/DX2                !
 ! D17   D(1,4,5,7)             59.5            estimate D2E/DX2                !
 ! D18   D(1,4,5,8)            179.4399         estimate D2E/DX2                !
 ! D19   D(9,4,5,6)            120.5893         estimate D2E/DX2                !
 ! D20   D(9,4,5,7)           -119.3787         estimate D2E/DX2                !
 ! D21   D(9,4,5,8)              0.5612         estimate D2E/DX2                !
 ! D22   D(1,4,9,10)          -178.6049         estimate D2E/DX2                !
 ! D23   D(1,4,9,11)             2.4857         estimate D2E/DX2                !
 ! D24   D(5,4,9,10)             0.1644         estimate D2E/DX2                !
 ! D25   D(5,4,9,11)          -178.745          estimate D2E/DX2                !
 ! D26   D(4,9,11,12)            7.9223         estimate D2E/DX2                !
 ! D27   D(4,9,11,13)          127.7484         estimate D2E/DX2                !
 ! D28   D(4,9,11,14)         -113.6873         estimate D2E/DX2                !
 ! D29   D(10,9,11,12)        -171.0301         estimate D2E/DX2                !
 ! D30   D(10,9,11,13)         -51.204          estimate D2E/DX2                !
 ! D31   D(10,9,11,14)          67.3603         estimate D2E/DX2                !
 ! D32   D(16,15,19,20)        -59.5944         estimate D2E/DX2                !
 ! D33   D(16,15,19,24)        120.9853         estimate D2E/DX2                !
 ! D34   D(17,15,19,20)       -179.6212         estimate D2E/DX2                !
 ! D35   D(17,15,19,24)          0.9585         estimate D2E/DX2                !
 ! D36   D(18,15,19,20)         60.2582         estimate D2E/DX2                !
 ! D37   D(18,15,19,24)       -119.1621         estimate D2E/DX2                !
 ! D38   D(15,19,20,21)         66.5563         estimate D2E/DX2                !
 ! D39   D(15,19,20,22)       -172.3335         estimate D2E/DX2                !
 ! D40   D(15,19,20,23)        -52.7906         estimate D2E/DX2                !
 ! D41   D(24,19,20,21)       -114.0529         estimate D2E/DX2                !
 ! D42   D(24,19,20,22)          7.0573         estimate D2E/DX2                !
 ! D43   D(24,19,20,23)        126.6003         estimate D2E/DX2                !
 ! D44   D(15,19,24,25)          0.5194         estimate D2E/DX2                !
 ! D45   D(15,19,24,26)       -178.4264         estimate D2E/DX2                !
 ! D46   D(20,19,24,25)       -178.8352         estimate D2E/DX2                !
 ! D47   D(20,19,24,26)          2.219          estimate D2E/DX2                !
 ! D48   D(19,24,26,1)        -103.373          estimate D2E/DX2                !
 ! D49   D(19,24,26,27)        135.8092         estimate D2E/DX2                !
 ! D50   D(19,24,26,28)         20.4302         estimate D2E/DX2                !
 ! D51   D(25,24,26,1)          77.6413         estimate D2E/DX2                !
 ! D52   D(25,24,26,27)        -43.1765         estimate D2E/DX2                !
 ! D53   D(25,24,26,28)       -158.5555         estimate D2E/DX2                !
 --------------------------------------------------------------------------------
 Trust Radius=3.00D-01 FncErr=1.00D-07 GrdErr=1.00D-06 EigMax=2.50D+02 EigMin=1.00D-04
 Number of steps in this run=    138 maximum allowed number of steps=    168.
 GradGradGradGradGradGradGradGradGradGradGradGradGradGradGradGradGradGrad

 Leave Link  103 at Wed Jul 14 20:00:29 2021, MaxMem=   524288000 cpu:               0.2 elap:               0.2
 (Enter /opt/gaussian/g16_legacy/l202.exe)
                          Input orientation:                          
 ---------------------------------------------------------------------
 Center     Atomic      Atomic             Coordinates (Angstroms)
 Number     Number       Type             X           Y           Z
 ---------------------------------------------------------------------
      1          6           0       -0.685100   -0.538100   -0.688400
      2          1           0       -0.466300   -1.241400   -1.503100
      3          1           0       -0.717900   -1.157200    0.216100
      4          6           0       -2.032300    0.106700   -0.941500
      5          6           0       -2.340600    0.394500   -2.388500
      6          1           0       -1.600600    1.083400   -2.807900
      7          1           0       -2.324400   -0.532000   -2.971600
      8          1           0       -3.327700    0.850500   -2.519500
      9          6           0       -2.929900    0.397000    0.021100
     10          1           0       -3.881600    0.840600   -0.270200
     11          6           0       -2.777500    0.202800    1.496600
     12          1           0       -1.769900   -0.094900    1.795300
     13          1           0       -3.006300    1.140600    2.013100
     14          1           0       -3.481400   -0.558600    1.845800
     15          6           0        3.796000   -0.919700    0.885700
     16          1           0        4.555100   -0.216700    1.244100
     17          1           0        4.119300   -1.286200   -0.094300
     18          1           0        3.764700   -1.776200    1.567100
     19          6           0        2.449200   -0.247200    0.829600
     20          6           0        1.966100    0.281500    2.152100
     21          1           0        2.606900    1.104200    2.485100
     22          1           0        0.936800    0.646000    2.124300
     23          1           0        2.000900   -0.510200    2.908400
     24          6           0        1.770600   -0.164300   -0.331500
     25          1           0        2.215300   -0.602400   -1.225200
     26          6           0        0.439200    0.496100   -0.572400
     27          1           0        0.515900    1.074500   -1.501800
     28          1           0        0.205700    1.226500    0.209100
 ---------------------------------------------------------------------
                    Distance matrix (angstroms):
                    1          2          3          4          5
     1  C    0.000000
     2  H    1.098290   0.000000
     3  H    1.096577   1.739552   0.000000
     4  C    1.514851   2.141290   2.159891   0.000000
     5  C    2.549659   2.640663   3.438731   1.507212   0.000000
     6  H    2.821291   2.897212   3.865750   2.150292   1.094568
     7  H    2.810755   2.472302   3.623969   2.148154   1.094838
     8  H    3.502067   3.687374   4.280820   2.172875   1.095200
     9  C    2.533166   3.328192   2.710444   1.347798   2.480615
    10  H    3.506183   4.185575   3.773154   2.099801   2.657232
    11  C    3.114690   4.052846   2.780509   2.551253   3.914286
    12  H    2.746267   3.727369   2.174640   2.756732   4.250811
    13  H    3.937525   4.948655   3.707542   3.278305   4.513746
    14  H    3.773842   4.557650   3.263614   3.211161   4.487663
    15  C    4.764836   4.896637   4.569471   6.193645   7.078514
    16  H    5.594421   5.814772   5.453976   6.948041   7.817930
    17  H    4.898456   4.797338   4.848865   6.363969   7.058216
    18  H    5.140126   5.254855   4.722506   6.591176   7.591666
    19  C    3.494679   3.863944   3.351866   4.831758   5.806043
    20  C    3.971026   4.647180   3.608574   5.058470   6.259192
    21  H    4.858551   5.554470   4.616989   5.853099   6.980932
    22  H    3.456000   4.323078   3.103351   4.301805   5.583007
    23  H    4.489136   5.107158   3.880588   5.609724   6.908274
    24  C    2.509495   2.745271   2.734657   3.861035   4.630926
    25  H    2.950357   2.770655   3.314938   4.315717   4.806589
    26  C    1.532017   2.169110   2.166567   2.529067   3.322022
    27  H    2.168986   2.515574   3.074724   2.782786   3.067284
    28  H    2.170909   3.077945   2.556386   2.754356   3.731406
                    6          7          8          9         10
     6  H    0.000000
     7  H    1.777695   0.000000
     8  H    1.766435   1.767006   0.000000
     9  C    3.200223   3.191540   2.611236   0.000000
    10  H    3.420794   3.406826   2.316518   1.089665   0.000000
    11  C    4.548546   4.550829   4.105033   1.496008   2.178855
    12  H    4.754630   4.818907   4.683804   2.176086   3.098504
    13  H    5.022082   5.301869   4.553232   2.127638   2.463658
    14  H    5.281145   4.954463   4.589666   2.132335   2.568147
    15  C    6.839472   7.244886   8.091730   6.907891   7.961175
    16  H    7.483422   8.074594   8.800121   7.609046   8.636486
    17  H    6.759873   7.097108   8.118183   7.248289   8.280617
    18  H    7.490286   7.695776   8.596627   7.206288   8.287896
    19  C    5.603819   6.108804   6.767126   5.477534   6.517047
    20  C    6.161655   6.732197   7.083214   5.340910   6.354190
    21  H    6.761608   7.534616   7.767230   6.101441   7.054204
    22  H    5.563840   6.163709   6.308142   4.408721   5.384095
    23  H    6.941646   7.299527   7.727068   5.785525   6.821434
    24  C    4.365123   4.886139   5.640020   4.747008   5.741162
    25  H    4.461833   4.864540   5.874605   5.387499   6.337702
    26  C    3.082720   3.801399   4.255154   3.422411   4.345034
    27  H    2.487076   3.578891   3.982355   3.827763   4.572697
    28  H    3.519302   4.428384   4.480128   3.248908   4.133360
                   11         12         13         14         15
    11  C    0.000000
    12  H    1.092293   0.000000
    13  H    1.094802   1.761415   0.000000
    14  H    1.094142   1.773922   1.772284   0.000000
    15  C    6.696574   5.699729   7.196329   7.349336   0.000000
    16  H    7.348929   6.350140   7.720647   8.066243   1.094939
    17  H    7.232837   6.298608   7.816948   7.878073   1.095101
    18  H    6.835334   5.788838   7.386006   7.352971   1.094933
    19  C    5.288268   4.330886   5.752316   6.025085   1.506411
    20  C    4.789323   3.771827   5.047983   5.520403   2.528870
    21  H    5.548100   4.590212   5.633127   6.343580   2.840460
    22  H    3.792948   2.825491   3.975554   4.587931   3.487201
    23  H    5.033354   3.953530   5.347780   5.584539   2.735213
    24  C    4.915478   4.130767   5.478931   5.699089   2.480816
    25  H    5.743222   5.026211   6.386685   6.471889   2.656161
    26  C    3.835876   3.291718   4.355647   4.725589   3.924112
    27  H    4.538364   4.178905   4.976423   5.463685   4.520625
    28  H    3.406626   2.857468   3.684934   4.411358   4.237242
                   16         17         18         19         20
    16  H    0.000000
    17  H    1.767786   0.000000
    18  H    1.777949   1.768076   0.000000
    19  C    2.146522   2.173096   2.147624   0.000000
    20  C    2.788474   3.484289   2.794873   1.503967   0.000000
    21  H    2.660891   3.828142   3.237272   2.142856   1.094691
    22  H    3.822447   4.334038   3.764909   2.182065   1.092287
    23  H    3.062674   3.755796   2.552025   2.142791   1.095440
    24  C    3.199797   2.613678   3.190508   1.347414   2.530855
    25  H    3.423576   2.317700   3.402262   2.098352   3.499934
    26  C    4.555040   4.116832   4.560675   2.560898   3.130555
    27  H    5.051960   4.531937   5.300881   3.304537   4.010351
    28  H    4.698014   4.660684   4.850449   2.755014   2.786984
                   21         22         23         24         25
    21  H    0.000000
    22  H    1.768999   0.000000
    23  H    1.775586   1.756109   0.000000
    24  C    3.200270   2.717124   3.266441   0.000000
    25  H    4.102702   3.796342   4.140183   1.090133   0.000000
    26  C    3.796974   2.746319   3.945569   1.505585   2.188009
    27  H    4.502059   3.675510   4.915930   2.116247   2.403427
    28  H    3.310724   2.130605   3.677647   2.162287   3.072553
                   26         27         28
    26  C    0.000000
    27  H    1.097367   0.000000
    28  H    1.094874   1.745425   0.000000
 Stoichiometry    C10H18
 Framework group  C1[X(C10H18)]
 Deg. of freedom    78
 Full point group                 C1      NOp   1
 Largest Abelian subgroup         C1      NOp   1
 Largest concise Abelian subgroup C1      NOp   1
                         Standard orientation:                         
 ---------------------------------------------------------------------
 Center     Atomic      Atomic             Coordinates (Angstroms)
 Number     Number       Type             X           Y           Z
 ---------------------------------------------------------------------
      1          6           0       -0.793774   -0.586569    0.589166
      2          1           0       -0.746000   -1.484376    1.219960
      3          1           0       -0.484662    0.235235    1.246106
      4          6           0       -2.220920   -0.386932    0.122076
      5          6           0       -2.975621   -1.655028   -0.184593
      6          1           0       -2.478681   -2.212220   -0.985010
      7          1           0       -3.025257   -2.291702    0.704705
      8          1           0       -4.003242   -1.458151   -0.508163
      9          6           0       -2.820225    0.813943   -0.001592
     10          1           0       -3.860365    0.846667   -0.324712
     11          6           0       -2.215755    2.161825    0.234771
     12          1           0       -1.137417    2.131965    0.406236
     13          1           0       -2.388707    2.797180   -0.639873
     14          1           0       -2.690844    2.635712    1.098986
     15          6           0        3.965043   -0.407968    0.429725
     16          1           0        4.709019   -0.227460   -0.353097
     17          1           0        4.023665   -1.466088    0.705751
     18          1           0        4.237080    0.181159    1.311656
     19          6           0        2.593451   -0.018236   -0.056193
     20          6           0        2.465997    1.425970   -0.456119
     21          1           0        3.076368    1.626133   -1.342534
     22          1           0        1.439618    1.725994   -0.678880
     23          1           0        2.815351    2.072791    0.356016
     24          6           0        1.596338   -0.923549   -0.097400
     25          1           0        1.803957   -1.940188    0.236861
     26          6           0        0.185970   -0.715554   -0.581534
     27          1           0       -0.084172   -1.577095   -1.205219
     28          1           0        0.111264    0.157031   -1.238621
 ---------------------------------------------------------------------
 Rotational constants (GHZ):           2.2181043           0.5802329           0.4854253
 Leave Link  202 at Wed Jul 14 20:00:29 2021, MaxMem=   524288000 cpu:               0.4 elap:               0.2
 (Enter /opt/gaussian/g16_legacy/l301.exe)
 Standard basis: 6-31G(d,p) (6D, 7F)
 Ernie: Thresh=  0.10000D-02 Tol=  0.10000D-05 Strict=F.
 There are   240 symmetry adapted cartesian basis functions of A   symmetry.
 There are   240 symmetry adapted basis functions of A   symmetry.
   240 basis functions,   406 primitive gaussians,   240 cartesian basis functions
    39 alpha electrons       39 beta electrons
       nuclear repulsion energy       516.4362455339 Hartrees.
 IExCor= 4336 DFT=T Ex+Corr=M062X ExCW=0 ScaHFX=  0.540000
 ScaDFX=  1.000000  1.000000  1.000000  1.000000 ScalE2=  1.000000  1.000000
 IRadAn=      5 IRanWt=     -1 IRanGd=            0 ICorTp=0 IEmpDi=  4
 NAtoms=   28 NActive=   28 NUniq=   28 SFac= 1.00D+00 NAtFMM=   60 NAOKFM=F Big=F
 Integral buffers will be    131072 words long.
 Raffenetti 2 integral format.
 Two-electron integral symmetry is turned on.
 Leave Link  301 at Wed Jul 14 20:00:30 2021, MaxMem=   524288000 cpu:               1.0 elap:               0.3
 (Enter /opt/gaussian/g16_legacy/l302.exe)
 NPDir=0 NMtPBC=     1 NCelOv=     1 NCel=       1 NClECP=     1 NCelD=      1
         NCelK=      1 NCelE2=     1 NClLst=     1 CellRange=     0.0.
 One-electron integrals computed using PRISM.
 One-electron integral symmetry used in STVInt
 NBasis=   240 RedAO= T EigKep=  2.10D-03  NBF=   240
 NBsUse=   240 1.00D-06 EigRej= -1.00D+00 NBFU=   240
 Precomputing XC quadrature grid using
 IXCGrd= 4 IRadAn=           5 IRanWt=          -1 IRanGd=           0 AccXCQ= 0.00D+00.
 Generated NRdTot=       0 NPtTot=           0 NUsed=           0 NTot=          32
 NSgBfM=   240   240   240   240   240 MxSgAt=    28 MxSgA2=    28.
 Leave Link  302 at Wed Jul 14 20:00:32 2021, MaxMem=   524288000 cpu:               8.2 elap:               2.0
 (Enter /opt/gaussian/g16_legacy/l303.exe)
 DipDrv:  MaxL=1.
 Leave Link  303 at Wed Jul 14 20:00:32 2021, MaxMem=   524288000 cpu:               0.4 elap:               0.1
 (Enter /opt/gaussian/g16_legacy/l401.exe)
 ExpMin= 1.61D-01 ExpMax= 3.05D+03 ExpMxC= 4.57D+02 IAcc=3 IRadAn=         5 AccDes= 0.00D+00
 Harris functional with IExCor= 1009 and IRadAn=       5 diagonalized for initial guess.
 HarFok:  IExCor= 1009 AccDes= 0.00D+00 IRadAn=         5 IDoV= 1 UseB2=F ITyADJ=14
 ICtDFT=  3500011 ScaDFX=  1.000000  1.000000  1.000000  1.000000
 FoFCou: FMM=F IPFlag=           0 FMFlag=      100000 FMFlg1=           0
         NFxFlg=           0 DoJE=T BraDBF=F KetDBF=T FulRan=T
         wScrn=  0.000000 ICntrl=       500 IOpCl=  0 I1Cent=   200000004 NGrid=           0
         NMat0=    1 NMatS0=      1 NMatT0=    0 NMatD0=    1 NMtDS0=    0 NMtDT0=    0
 Petite list used in FoFCou.
 Harris En= -391.655469423248    
 JPrj=0 DoOrth=F DoCkMO=F.
 Leave Link  401 at Wed Jul 14 20:00:37 2021, MaxMem=   524288000 cpu:              21.3 elap:               3.8
 (Enter /opt/gaussian/g16_legacy/l502.exe)
 Integral symmetry usage will be decided dynamically.
 Closed shell SCF:
 Using DIIS extrapolation, IDIIS=  1040.
 NGot=   524288000 LenX=   524168546 LenY=   524110505
 Requested convergence on RMS density matrix=1.00D-08 within 128 cycles.
 Requested convergence on MAX density matrix=1.00D-06.
 Requested convergence on             energy=1.00D-06.
 No special actions if energy rises.
 Fock matrices will be formed incrementally for  20 cycles.
 Integral accuracy reduced to 1.0D-05 until final iterations.

 Cycle   1  Pass 0  IDiag  1:
 FoFJK:  IHMeth= 1 ICntrl=       0 DoSepK=F KAlg= 0 I1Cent=           0 FoldK=F
 IRaf= 860000000 NMat=       1 IRICut=       1 DoRegI=T DoRafI=F ISym2E= 0 IDoP0=0 IntGTp=1.
 FoFCou: FMM=F IPFlag=           0 FMFlag=      100000 FMFlg1=           0
         NFxFlg=           0 DoJE=F BraDBF=F KetDBF=F FulRan=T
         wScrn=  0.000000 ICntrl=         0 IOpCl=  0 I1Cent=           0 NGrid=           0
         NMat0=    1 NMatS0=      1 NMatT0=    0 NMatD0=    1 NMtDS0=    0 NMtDT0=    0
 Symmetry not used in FoFCou.
 E= -391.299462792448    
 DIIS: error= 3.62D-02 at cycle   1 NSaved=   1.
 NSaved= 1 IEnMin= 1 EnMin= -391.299462792448     IErMin= 1 ErrMin= 3.62D-02
 ErrMax= 3.62D-02  0.00D+00 EMaxC= 1.00D-01 BMatC= 3.69D-01 BMatP= 3.69D-01
 IDIUse=3 WtCom= 6.38D-01 WtEn= 3.62D-01
 Coeff-Com:  0.100D+01
 Coeff-En:   0.100D+01
 Coeff:      0.100D+01
 Gap=     0.340 Goal=   None    Shift=    0.000
 GapD=    0.340 DampG=1.000 DampE=0.500 DampFc=0.5000 IDamp=-1.
 Damping current iteration by 5.00D-01
 RMSDP=4.37D-03 MaxDP=1.14D-01              OVMax= 1.41D-01

 Cycle   2  Pass 0  IDiag  1:
 RMSU=  2.14D-03    CP:  9.75D-01
 E= -391.508200428923     Delta-E=       -0.208737636475 Rises=F Damp=T
 DIIS: error= 9.75D-03 at cycle   2 NSaved=   2.
 NSaved= 2 IEnMin= 2 EnMin= -391.508200428923     IErMin= 2 ErrMin= 9.75D-03
 ErrMax= 9.75D-03  0.00D+00 EMaxC= 1.00D-01 BMatC= 2.10D-02 BMatP= 3.69D-01
 IDIUse=3 WtCom= 9.02D-01 WtEn= 9.75D-02
 Coeff-Com: -0.153D+00 0.115D+01
 Coeff-En:   0.000D+00 0.100D+01
 Coeff:     -0.138D+00 0.114D+01
 Gap=     0.374 Goal=   None    Shift=    0.000
 RMSDP=8.31D-04 MaxDP=2.64D-02 DE=-2.09D-01 OVMax= 6.20D-02

 Cycle   3  Pass 0  IDiag  1:
 RMSU=  7.85D-04    CP:  9.69D-01  1.12D+00
 E= -391.687882383999     Delta-E=       -0.179681955076 Rises=F Damp=F
 DIIS: error= 1.35D-03 at cycle   3 NSaved=   3.
 NSaved= 3 IEnMin= 3 EnMin= -391.687882383999     IErMin= 3 ErrMin= 1.35D-03
 ErrMax= 1.35D-03  0.00D+00 EMaxC= 1.00D-01 BMatC= 6.05D-04 BMatP= 2.10D-02
 IDIUse=3 WtCom= 9.86D-01 WtEn= 1.35D-02
 Coeff-Com: -0.271D-01 0.123D+00 0.904D+00
 Coeff-En:   0.000D+00 0.000D+00 0.100D+01
 Coeff:     -0.267D-01 0.121D+00 0.906D+00
 Gap=     0.338 Goal=   None    Shift=    0.000
 RMSDP=1.86D-04 MaxDP=5.89D-03 DE=-1.80D-01 OVMax= 7.13D-03

 Cycle   4  Pass 0  IDiag  1:
 RMSU=  1.67D-04    CP:  9.68D-01  1.15D+00  9.36D-01
 E= -391.688277035179     Delta-E=       -0.000394651180 Rises=F Damp=F
 DIIS: error= 6.81D-04 at cycle   4 NSaved=   4.
 NSaved= 4 IEnMin= 4 EnMin= -391.688277035179     IErMin= 4 ErrMin= 6.81D-04
 ErrMax= 6.81D-04  0.00D+00 EMaxC= 1.00D-01 BMatC= 2.11D-04 BMatP= 6.05D-04
 IDIUse=3 WtCom= 9.93D-01 WtEn= 6.81D-03
 Coeff-Com: -0.597D-02 0.232D-01 0.378D+00 0.605D+00
 Coeff-En:   0.000D+00 0.000D+00 0.168D+00 0.832D+00
 Coeff:     -0.593D-02 0.230D-01 0.376D+00 0.607D+00
 Gap=     0.338 Goal=   None    Shift=    0.000
 RMSDP=8.15D-05 MaxDP=2.59D-03 DE=-3.95D-04 OVMax= 5.61D-03

 Cycle   5  Pass 0  IDiag  1:
 RMSU=  4.22D-05    CP:  9.68D-01  1.14D+00  9.77D-01  6.35D-01
 E= -391.688470074324     Delta-E=       -0.000193039145 Rises=F Damp=F
 DIIS: error= 2.84D-04 at cycle   5 NSaved=   5.
 NSaved= 5 IEnMin= 5 EnMin= -391.688470074324     IErMin= 5 ErrMin= 2.84D-04
 ErrMax= 2.84D-04  0.00D+00 EMaxC= 1.00D-01 BMatC= 2.40D-05 BMatP= 2.11D-04
 IDIUse=3 WtCom= 9.97D-01 WtEn= 2.84D-03
 Coeff-Com:  0.347D-03-0.121D-02 0.928D-01 0.287D+00 0.621D+00
 Coeff-En:   0.000D+00 0.000D+00 0.000D+00 0.000D+00 0.100D+01
 Coeff:      0.346D-03-0.121D-02 0.926D-01 0.287D+00 0.622D+00
 Gap=     0.338 Goal=   None    Shift=    0.000
 RMSDP=2.29D-05 MaxDP=9.77D-04 DE=-1.93D-04 OVMax= 1.92D-03

 Cycle   6  Pass 0  IDiag  1:
 RMSU=  1.45D-05    CP:  9.68D-01  1.14D+00  9.84D-01  6.97D-01  6.87D-01
 E= -391.688492788866     Delta-E=       -0.000022714542 Rises=F Damp=F
 DIIS: error= 6.72D-05 at cycle   6 NSaved=   6.
 NSaved= 6 IEnMin= 6 EnMin= -391.688492788866     IErMin= 6 ErrMin= 6.72D-05
 ErrMax= 6.72D-05  0.00D+00 EMaxC= 1.00D-01 BMatC= 1.86D-06 BMatP= 2.40D-05
 IDIUse=1 WtCom= 1.00D+00 WtEn= 0.00D+00
 Coeff-Com:  0.878D-03-0.301D-02 0.710D-02 0.765D-01 0.275D+00 0.643D+00
 Coeff:      0.878D-03-0.301D-02 0.710D-02 0.765D-01 0.275D+00 0.643D+00
 Gap=     0.338 Goal=   None    Shift=    0.000
 RMSDP=6.44D-06 MaxDP=2.36D-04 DE=-2.27D-05 OVMax= 5.17D-04

 Initial convergence to 1.0D-05 achieved.  Increase integral accuracy.
 Cycle   7  Pass 1  IDiag  1:
 E= -391.688478536416     Delta-E=        0.000014252450 Rises=F Damp=F
 DIIS: error= 1.93D-05 at cycle   1 NSaved=   1.
 NSaved= 1 IEnMin= 1 EnMin= -391.688478536416     IErMin= 1 ErrMin= 1.93D-05
 ErrMax= 1.93D-05  0.00D+00 EMaxC= 1.00D-01 BMatC= 2.24D-07 BMatP= 2.24D-07
 IDIUse=1 WtCom= 1.00D+00 WtEn= 0.00D+00
 Coeff-Com:  0.100D+01
 Coeff:      0.100D+01
 Gap=     0.338 Goal=   None    Shift=    0.000
 RMSDP=6.44D-06 MaxDP=2.36D-04 DE= 1.43D-05 OVMax= 2.07D-04

 Cycle   8  Pass 1  IDiag  1:
 RMSU=  7.78D-06    CP:  1.00D+00
 E= -391.688478647066     Delta-E=       -0.000000110649 Rises=F Damp=F
 DIIS: error= 1.48D-05 at cycle   2 NSaved=   2.
 NSaved= 2 IEnMin= 2 EnMin= -391.688478647066     IErMin= 2 ErrMin= 1.48D-05
 ErrMax= 1.48D-05  0.00D+00 EMaxC= 1.00D-01 BMatC= 1.25D-07 BMatP= 2.24D-07
 IDIUse=1 WtCom= 1.00D+00 WtEn= 0.00D+00
 Coeff-Com:  0.409D+00 0.591D+00
 Coeff:      0.409D+00 0.591D+00
 Gap=     0.338 Goal=   None    Shift=    0.000
 RMSDP=1.64D-06 MaxDP=6.87D-05 DE=-1.11D-07 OVMax= 1.46D-04

 Cycle   9  Pass 1  IDiag  1:
 RMSU=  1.63D-06    CP:  1.00D+00  9.70D-01
 E= -391.688478753542     Delta-E=       -0.000000106476 Rises=F Damp=F
 DIIS: error= 6.59D-06 at cycle   3 NSaved=   3.
 NSaved= 3 IEnMin= 3 EnMin= -391.688478753542     IErMin= 3 ErrMin= 6.59D-06
 ErrMax= 6.59D-06  0.00D+00 EMaxC= 1.00D-01 BMatC= 1.70D-08 BMatP= 1.25D-07
 IDIUse=1 WtCom= 1.00D+00 WtEn= 0.00D+00
 Coeff-Com:  0.102D-01 0.261D+00 0.729D+00
 Coeff:      0.102D-01 0.261D+00 0.729D+00
 Gap=     0.338 Goal=   None    Shift=    0.000
 RMSDP=6.23D-07 MaxDP=2.43D-05 DE=-1.06D-07 OVMax= 5.69D-05

 Cycle  10  Pass 1  IDiag  1:
 RMSU=  3.76D-07    CP:  1.00D+00  1.01D+00  7.51D-01
 E= -391.688478768994     Delta-E=       -0.000000015452 Rises=F Damp=F
 DIIS: error= 1.92D-06 at cycle   4 NSaved=   4.
 NSaved= 4 IEnMin= 4 EnMin= -391.688478768994     IErMin= 4 ErrMin= 1.92D-06
 ErrMax= 1.92D-06  0.00D+00 EMaxC= 1.00D-01 BMatC= 1.84D-09 BMatP= 1.70D-08
 IDIUse=1 WtCom= 1.00D+00 WtEn= 0.00D+00
 Coeff-Com: -0.205D-01 0.948D-01 0.369D+00 0.557D+00
 Coeff:     -0.205D-01 0.948D-01 0.369D+00 0.557D+00
 Gap=     0.338 Goal=   None    Shift=    0.000
 RMSDP=1.87D-07 MaxDP=5.95D-06 DE=-1.55D-08 OVMax= 1.36D-05

 Cycle  11  Pass 1  IDiag  1:
 RMSU=  1.32D-07    CP:  1.00D+00  1.01D+00  7.94D-01  7.02D-01
 E= -391.688478770901     Delta-E=       -0.000000001907 Rises=F Damp=F
 DIIS: error= 2.30D-07 at cycle   5 NSaved=   5.
 NSaved= 5 IEnMin= 5 EnMin= -391.688478770901     IErMin= 5 ErrMin= 2.30D-07
 ErrMax= 2.30D-07  0.00D+00 EMaxC= 1.00D-01 BMatC= 2.19D-11 BMatP= 1.84D-09
 IDIUse=1 WtCom= 1.00D+00 WtEn= 0.00D+00
 Coeff-Com: -0.332D-02-0.307D-02 0.254D-02 0.796D-01 0.924D+00
 Coeff:     -0.332D-02-0.307D-02 0.254D-02 0.796D-01 0.924D+00
 Gap=     0.338 Goal=   None    Shift=    0.000
 RMSDP=3.75D-08 MaxDP=8.48D-07 DE=-1.91D-09 OVMax= 1.64D-06

 Cycle  12  Pass 1  IDiag  1:
 RMSU=  2.78D-08    CP:  1.00D+00  1.01D+00  7.96D-01  7.66D-01  1.02D+00
 E= -391.688478770932     Delta-E=       -0.000000000032 Rises=F Damp=F
 DIIS: error= 7.12D-08 at cycle   6 NSaved=   6.
 NSaved= 6 IEnMin= 6 EnMin= -391.688478770932     IErMin= 6 ErrMin= 7.12D-08
 ErrMax= 7.12D-08  0.00D+00 EMaxC= 1.00D-01 BMatC= 2.55D-12 BMatP= 2.19D-11
 IDIUse=1 WtCom= 1.00D+00 WtEn= 0.00D+00
 Coeff-Com:  0.737D-03-0.861D-02-0.300D-01-0.201D-01 0.280D+00 0.778D+00
 Coeff:      0.737D-03-0.861D-02-0.300D-01-0.201D-01 0.280D+00 0.778D+00
 Gap=     0.338 Goal=   None    Shift=    0.000
 RMSDP=1.12D-08 MaxDP=1.95D-07 DE=-3.19D-11 OVMax= 5.07D-07

 Cycle  13  Pass 1  IDiag  1:
 RMSU=  5.30D-09    CP:  1.00D+00  1.01D+00  7.96D-01  7.76D-01  1.08D+00
                    CP:  8.87D-01
 E= -391.688478770933     Delta-E=       -0.000000000001 Rises=F Damp=F
 DIIS: error= 1.98D-08 at cycle   7 NSaved=   7.
 NSaved= 7 IEnMin= 7 EnMin= -391.688478770933     IErMin= 7 ErrMin= 1.98D-08
 ErrMax= 1.98D-08  0.00D+00 EMaxC= 1.00D-01 BMatC= 1.53D-13 BMatP= 2.55D-12
 IDIUse=1 WtCom= 1.00D+00 WtEn= 0.00D+00
 Coeff-Com:  0.381D-03-0.257D-02-0.977D-02-0.962D-02 0.502D-01 0.259D+00
 Coeff-Com:  0.713D+00
 Coeff:      0.381D-03-0.257D-02-0.977D-02-0.962D-02 0.502D-01 0.259D+00
 Coeff:      0.713D+00
 Gap=     0.338 Goal=   None    Shift=    0.000
 RMSDP=1.95D-09 MaxDP=5.92D-08 DE=-6.82D-13 OVMax= 1.15D-07

 SCF Done:  E(RM062X) =  -391.688478771     A.U. after   13 cycles
            NFock= 13  Conv=0.19D-08     -V/T= 2.0093
 KE= 3.880864419916D+02 PE=-1.937905899644D+03 EE= 6.416947333475D+02
 Leave Link  502 at Wed Jul 14 20:01:55 2021, MaxMem=   524288000 cpu:             469.3 elap:              78.5
 (Enter /opt/gaussian/g16_legacy/l601.exe)
 Copying SCF densities to generalized density rwf, IOpCl= 0 IROHF=0.

 **********************************************************************

            Population analysis using the SCF density.

 **********************************************************************

 Orbital symmetries:
       Occupied  (A) (A) (A) (A) (A) (A) (A) (A) (A) (A) (A) (A)
                 (A) (A) (A) (A) (A) (A) (A) (A) (A) (A) (A) (A)
                 (A) (A) (A) (A) (A) (A) (A) (A) (A) (A) (A) (A)
                 (A) (A) (A)
       Virtual   (A) (A) (A) (A) (A) (A) (A) (A) (A) (A) (A) (A)
                 (A) (A) (A) (A) (A) (A) (A) (A) (A) (A) (A) (A)
                 (A) (A) (A) (A) (A) (A) (A) (A) (A) (A) (A) (A)
                 (A) (A) (A) (A) (A) (A) (A) (A) (A) (A) (A) (A)
                 (A) (A) (A) (A) (A) (A) (A) (A) (A) (A) (A) (A)
                 (A) (A) (A) (A) (A) (A) (A) (A) (A) (A) (A) (A)
                 (A) (A) (A) (A) (A) (A) (A) (A) (A) (A) (A) (A)
                 (A) (A) (A) (A) (A) (A) (A) (A) (A) (A) (A) (A)
                 (A) (A) (A) (A) (A) (A) (A) (A) (A) (A) (A) (A)
                 (A) (A) (A) (A) (A) (A) (A) (A) (A) (A) (A) (A)
                 (A) (A) (A) (A) (A) (A) (A) (A) (A) (A) (A) (A)
                 (A) (A) (A) (A) (A) (A) (A) (A) (A) (A) (A) (A)
                 (A) (A) (A) (A) (A) (A) (A) (A) (A) (A) (A) (A)
                 (A) (A) (A) (A) (A) (A) (A) (A) (A) (A) (A) (A)
                 (A) (A) (A) (A) (A) (A) (A) (A) (A) (A) (A) (A)
                 (A) (A) (A) (A) (A) (A) (A) (A) (A) (A) (A) (A)
                 (A) (A) (A) (A) (A) (A) (A) (A) (A)
 The electronic state is 1-A.
 Alpha  occ. eigenvalues --  -10.54671 -10.54137 -10.53915 -10.53825 -10.53599
 Alpha  occ. eigenvalues --  -10.53345 -10.53307 -10.53262 -10.53190 -10.53179
 Alpha  occ. eigenvalues --   -0.91982  -0.89943  -0.84730  -0.81567  -0.77856
 Alpha  occ. eigenvalues --   -0.76077  -0.71689  -0.68491  -0.58978  -0.57710
 Alpha  occ. eigenvalues --   -0.54371  -0.51495  -0.50504  -0.49869  -0.48813
 Alpha  occ. eigenvalues --   -0.47711  -0.46478  -0.45979  -0.44711  -0.43467
 Alpha  occ. eigenvalues --   -0.43024  -0.42542  -0.41665  -0.40335  -0.39821
 Alpha  occ. eigenvalues --   -0.37776  -0.36267  -0.28740  -0.27016
 Alpha virt. eigenvalues --    0.06795   0.07960   0.11969   0.14600   0.15413
 Alpha virt. eigenvalues --    0.17031   0.18290   0.18502   0.19842   0.20043
 Alpha virt. eigenvalues --    0.20850   0.21573   0.22491   0.22871   0.23346
 Alpha virt. eigenvalues --    0.24536   0.24823   0.25782   0.27101   0.28151
 Alpha virt. eigenvalues --    0.28989   0.29300   0.30605   0.30953   0.31569
 Alpha virt. eigenvalues --    0.38580   0.40158   0.47226   0.48087   0.54157
 Alpha virt. eigenvalues --    0.55037   0.55937   0.57745   0.59175   0.60103
 Alpha virt. eigenvalues --    0.60382   0.61456   0.62553   0.63185   0.64691
 Alpha virt. eigenvalues --    0.66793   0.68006   0.70962   0.72039   0.73579
 Alpha virt. eigenvalues --    0.74597   0.76522   0.77574   0.78255   0.79555
 Alpha virt. eigenvalues --    0.80229   0.81286   0.83199   0.84628   0.85680
 Alpha virt. eigenvalues --    0.88043   0.88893   0.89144   0.91645   0.92625
 Alpha virt. eigenvalues --    0.92949   0.94073   0.94881   0.95754   0.96201
 Alpha virt. eigenvalues --    0.96677   0.97256   0.98492   0.99389   1.00190
 Alpha virt. eigenvalues --    1.01151   1.02481   1.03315   1.05362   1.06070
 Alpha virt. eigenvalues --    1.13696   1.20901   1.21462   1.23430   1.25029
 Alpha virt. eigenvalues --    1.26777   1.32452   1.35464   1.36574   1.37414
 Alpha virt. eigenvalues --    1.39139   1.41559   1.44811   1.48205   1.49406
 Alpha virt. eigenvalues --    1.53505   1.60048   1.69033   1.69432   1.72410
 Alpha virt. eigenvalues --    1.75272   1.77837   1.79339   1.79621   1.83398
 Alpha virt. eigenvalues --    1.84894   1.86184   1.86984   1.88217   1.88884
 Alpha virt. eigenvalues --    1.90188   1.92638   1.93816   1.97990   2.01366
 Alpha virt. eigenvalues --    2.02141   2.03295   2.05498   2.09332   2.09997
 Alpha virt. eigenvalues --    2.10031   2.10158   2.12445   2.13502   2.13720
 Alpha virt. eigenvalues --    2.14735   2.15544   2.16445   2.18062   2.18388
 Alpha virt. eigenvalues --    2.19773   2.20943   2.22259   2.23011   2.26618
 Alpha virt. eigenvalues --    2.29116   2.29844   2.33191   2.33581   2.35525
 Alpha virt. eigenvalues --    2.37920   2.38397   2.43842   2.44470   2.45009
 Alpha virt. eigenvalues --    2.46591   2.48206   2.51220   2.52735   2.54815
 Alpha virt. eigenvalues --    2.57121   2.59333   2.61501   2.62799   2.64021
 Alpha virt. eigenvalues --    2.65999   2.68355   2.70377   2.71625   2.73365
 Alpha virt. eigenvalues --    2.74285   2.74598   2.76580   2.80572   2.83730
 Alpha virt. eigenvalues --    2.84916   2.85951   2.87182   2.88210   2.88614
 Alpha virt. eigenvalues --    2.90202   2.91591   2.93451   2.94408   3.01450
 Alpha virt. eigenvalues --    3.03764   3.08832   3.09667   3.17784   3.19465
 Alpha virt. eigenvalues --    3.20831   3.23277   3.28780   3.35683   3.39652
 Alpha virt. eigenvalues --    3.40332   3.41905   3.42750   3.43694   3.44215
 Alpha virt. eigenvalues --    3.45590   3.47034   3.48941   3.50678   3.52300
 Alpha virt. eigenvalues --    3.56640   4.18754   4.22309   4.34203   4.42625
 Alpha virt. eigenvalues --    4.48614   4.52624   4.53214   4.66943   4.69676
 Alpha virt. eigenvalues --    4.75918
          Condensed to atoms (all electrons):
               1          2          3          4          5          6
     1  C    5.038910   0.387575   0.382997   0.360397  -0.070600  -0.000027
     2  H    0.387575   0.610497  -0.034849  -0.037101  -0.006284  -0.000382
     3  H    0.382997  -0.034849   0.600065  -0.030492   0.004634  -0.000002
     4  C    0.360397  -0.037101  -0.030492   4.768644   0.368255  -0.038767
     5  C   -0.070600  -0.006284   0.004634   0.368255   5.000220   0.382573
     6  H   -0.000027  -0.000382  -0.000002  -0.038767   0.382573   0.591379
     7  H   -0.003944   0.004558   0.000054  -0.034068   0.380021  -0.034430
     8  H    0.004508   0.000106  -0.000169  -0.033921   0.385897  -0.027644
     9  C   -0.047673   0.003322  -0.007980   0.716382  -0.041384  -0.001218
    10  H    0.005614  -0.000173   0.000034  -0.030979  -0.013390   0.000177
    11  C   -0.012999   0.000262   0.000865  -0.044819   0.006116  -0.000167
    12  H    0.002651  -0.000097   0.002161  -0.008158   0.000091   0.000001
    13  H    0.000382  -0.000013  -0.000128   0.000949  -0.000148   0.000019
    14  H    0.000190   0.000029   0.000203  -0.000872  -0.000150  -0.000006
    15  C   -0.000087   0.000002  -0.000084   0.000002  -0.000000  -0.000000
    16  H   -0.000005   0.000000   0.000002   0.000000  -0.000000   0.000000
    17  H   -0.000003   0.000002  -0.000001   0.000000  -0.000000  -0.000000
    18  H    0.000020  -0.000001  -0.000005  -0.000000   0.000000   0.000000
    19  C   -0.003615   0.000189   0.001758   0.000049  -0.000004  -0.000001
    20  C    0.000367  -0.000001   0.000513  -0.000021   0.000000  -0.000000
    21  H   -0.000036  -0.000000   0.000015   0.000002  -0.000000   0.000000
    22  H   -0.000196  -0.000006  -0.000047  -0.000042  -0.000000   0.000000
    23  H    0.000074  -0.000000  -0.000095  -0.000003   0.000000   0.000000
    24  C   -0.053991  -0.001360  -0.000452   0.005663  -0.000091  -0.000156
    25  H   -0.000657   0.002504  -0.000110  -0.000103   0.000007   0.000015
    26  C    0.346205  -0.042543  -0.039212  -0.047333  -0.001587   0.001436
    27  H   -0.042216  -0.005257   0.005616  -0.003104   0.001248   0.001855
    28  H   -0.039882   0.005556  -0.004839  -0.001521  -0.000056   0.000016
               7          8          9         10         11         12
     1  C   -0.003944   0.004508  -0.047673   0.005614  -0.012999   0.002651
     2  H    0.004558   0.000106   0.003322  -0.000173   0.000262  -0.000097
     3  H    0.000054  -0.000169  -0.007980   0.000034   0.000865   0.002161
     4  C   -0.034068  -0.033921   0.716382  -0.030979  -0.044819  -0.008158
     5  C    0.380021   0.385897  -0.041384  -0.013390   0.006116   0.000091
     6  H   -0.034430  -0.027644  -0.001218   0.000177  -0.000167   0.000001
     7  H    0.589252  -0.027521  -0.000619   0.000322  -0.000173  -0.000002
     8  H   -0.027521   0.574862  -0.005169   0.006170   0.000103   0.000007
     9  C   -0.000619  -0.005169   4.894862   0.378227   0.360469  -0.034065
    10  H    0.000322   0.006170   0.378227   0.612232  -0.056027   0.004529
    11  C   -0.000173   0.000103   0.360469  -0.056027   4.977037   0.389220
    12  H   -0.000002   0.000007  -0.034065   0.004529   0.389220   0.580139
    13  H   -0.000004  -0.000011  -0.033286  -0.003162   0.386561  -0.029955
    14  H    0.000025  -0.000004  -0.036355  -0.000412   0.385527  -0.027464
    15  C   -0.000000   0.000000   0.000000   0.000000  -0.000000   0.000001
    16  H    0.000000   0.000000   0.000000   0.000000   0.000000  -0.000000
    17  H   -0.000000   0.000000  -0.000000   0.000000   0.000000  -0.000000
    18  H   -0.000000  -0.000000  -0.000000  -0.000000   0.000000  -0.000000
    19  C    0.000000   0.000000   0.000000   0.000000   0.000009  -0.000000
    20  C    0.000000  -0.000000   0.000009  -0.000000  -0.000147   0.000041
    21  H    0.000000   0.000000   0.000000   0.000000   0.000003  -0.000009
    22  H   -0.000000   0.000000  -0.000026   0.000001   0.000039   0.001479
    23  H   -0.000000  -0.000000   0.000000  -0.000000  -0.000003   0.000028
    24  C    0.000014   0.000003   0.000100   0.000003  -0.000045  -0.000053
    25  H   -0.000003  -0.000000  -0.000001  -0.000000   0.000000  -0.000001
    26  C   -0.000223  -0.000036  -0.004423  -0.000096   0.000378  -0.000056
    27  H    0.000094  -0.000099   0.000056   0.000001  -0.000007  -0.000009
    28  H    0.000021  -0.000007   0.002444  -0.000077   0.000545   0.000037
              13         14         15         16         17         18
     1  C    0.000382   0.000190  -0.000087  -0.000005  -0.000003   0.000020
     2  H   -0.000013   0.000029   0.000002   0.000000   0.000002  -0.000001
     3  H   -0.000128   0.000203  -0.000084   0.000002  -0.000001  -0.000005
     4  C    0.000949  -0.000872   0.000002   0.000000   0.000000  -0.000000
     5  C   -0.000148  -0.000150  -0.000000  -0.000000  -0.000000   0.000000
     6  H    0.000019  -0.000006  -0.000000   0.000000  -0.000000   0.000000
     7  H   -0.000004   0.000025  -0.000000   0.000000  -0.000000  -0.000000
     8  H   -0.000011  -0.000004   0.000000   0.000000   0.000000  -0.000000
     9  C   -0.033286  -0.036355   0.000000   0.000000  -0.000000  -0.000000
    10  H   -0.003162  -0.000412   0.000000   0.000000   0.000000  -0.000000
    11  C    0.386561   0.385527  -0.000000   0.000000   0.000000   0.000000
    12  H   -0.029955  -0.027464   0.000001  -0.000000  -0.000000  -0.000000
    13  H    0.579775  -0.031784  -0.000000  -0.000000  -0.000000   0.000000
    14  H   -0.031784   0.576290   0.000000   0.000000  -0.000000  -0.000000
    15  C   -0.000000   0.000000   5.004450   0.382977   0.385189   0.380439
    16  H   -0.000000   0.000000   0.382977   0.589322  -0.027292  -0.034296
    17  H   -0.000000  -0.000000   0.385189  -0.027292   0.572056  -0.027129
    18  H    0.000000  -0.000000   0.380439  -0.034296  -0.027129   0.590093
    19  C    0.000000  -0.000000   0.366852  -0.038116  -0.033019  -0.035978
    20  C   -0.000004   0.000003  -0.078884  -0.000501   0.004664  -0.002160
    21  H   -0.000000  -0.000000  -0.001914   0.003708  -0.000069  -0.000680
    22  H    0.000035  -0.000011   0.004781  -0.000005  -0.000168  -0.000049
    23  H    0.000000  -0.000000  -0.003607  -0.000851   0.000032   0.004480
    24  C   -0.000004   0.000003  -0.037398  -0.001455  -0.004841  -0.000761
    25  H    0.000000   0.000000  -0.013625   0.000217   0.006077   0.000294
    26  C    0.000077  -0.000043   0.005701  -0.000206   0.000120  -0.000121
    27  H    0.000001  -0.000000  -0.000181   0.000014  -0.000012  -0.000002
    28  H   -0.000095   0.000021   0.000089   0.000006   0.000010  -0.000005
              19         20         21         22         23         24
     1  C   -0.003615   0.000367  -0.000036  -0.000196   0.000074  -0.053991
     2  H    0.000189  -0.000001  -0.000000  -0.000006  -0.000000  -0.001360
     3  H    0.001758   0.000513   0.000015  -0.000047  -0.000095  -0.000452
     4  C    0.000049  -0.000021   0.000002  -0.000042  -0.000003   0.005663
     5  C   -0.000004   0.000000  -0.000000  -0.000000   0.000000  -0.000091
     6  H   -0.000001  -0.000000   0.000000   0.000000   0.000000  -0.000156
     7  H    0.000000   0.000000   0.000000  -0.000000  -0.000000   0.000014
     8  H    0.000000  -0.000000   0.000000   0.000000  -0.000000   0.000003
     9  C    0.000000   0.000009   0.000000  -0.000026   0.000000   0.000100
    10  H    0.000000  -0.000000   0.000000   0.000001  -0.000000   0.000003
    11  C    0.000009  -0.000147   0.000003   0.000039  -0.000003  -0.000045
    12  H   -0.000000   0.000041  -0.000009   0.001479   0.000028  -0.000053
    13  H    0.000000  -0.000004  -0.000000   0.000035   0.000000  -0.000004
    14  H   -0.000000   0.000003  -0.000000  -0.000011  -0.000000   0.000003
    15  C    0.366852  -0.078884  -0.001914   0.004781  -0.003607  -0.037398
    16  H   -0.038116  -0.000501   0.003708  -0.000005  -0.000851  -0.001455
    17  H   -0.033019   0.004664  -0.000069  -0.000168   0.000032  -0.004841
    18  H   -0.035978  -0.002160  -0.000680  -0.000049   0.004480  -0.000761
    19  C    4.732109   0.377683  -0.035974  -0.026769  -0.036195   0.718037
    20  C    0.377683   5.005569   0.382700   0.382382   0.385393  -0.052150
    21  H   -0.035974   0.382700   0.578026  -0.026673  -0.032574  -0.000064
    22  H   -0.026769   0.382382  -0.026673   0.574789  -0.029619  -0.008306
    23  H   -0.036195   0.385393  -0.032574  -0.029619   0.583412   0.000973
    24  C    0.718037  -0.052150  -0.000064  -0.008306   0.000973   4.917733
    25  H   -0.031858   0.006080  -0.000160   0.000027  -0.000153   0.374970
    26  C   -0.038343  -0.013676   0.000173   0.002070   0.000450   0.352778
    27  H    0.001801   0.000350   0.000031  -0.000073  -0.000015  -0.032066
    28  H   -0.006327   0.000825   0.000054   0.002744  -0.000146  -0.038034
              25         26         27         28
     1  C   -0.000657   0.346205  -0.042216  -0.039882
     2  H    0.002504  -0.042543  -0.005257   0.005556
     3  H   -0.000110  -0.039212   0.005616  -0.004839
     4  C   -0.000103  -0.047333  -0.003104  -0.001521
     5  C    0.000007  -0.001587   0.001248  -0.000056
     6  H    0.000015   0.001436   0.001855   0.000016
     7  H   -0.000003  -0.000223   0.000094   0.000021
     8  H   -0.000000  -0.000036  -0.000099  -0.000007
     9  C   -0.000001  -0.004423   0.000056   0.002444
    10  H   -0.000000  -0.000096   0.000001  -0.000077
    11  C    0.000000   0.000378  -0.000007   0.000545
    12  H   -0.000001  -0.000056  -0.000009   0.000037
    13  H    0.000000   0.000077   0.000001  -0.000095
    14  H    0.000000  -0.000043  -0.000000   0.000021
    15  C   -0.013625   0.005701  -0.000181   0.000089
    16  H    0.000217  -0.000206   0.000014   0.000006
    17  H    0.006077   0.000120  -0.000012   0.000010
    18  H    0.000294  -0.000121  -0.000002  -0.000005
    19  C   -0.031858  -0.038343   0.001801  -0.006327
    20  C    0.006080  -0.013676   0.000350   0.000825
    21  H   -0.000160   0.000173   0.000031   0.000054
    22  H    0.000027   0.002070  -0.000073   0.002744
    23  H   -0.000153   0.000450  -0.000015  -0.000146
    24  C    0.374970   0.352778  -0.032066  -0.038034
    25  H    0.613710  -0.052737  -0.004885   0.004707
    26  C   -0.052737   4.996683   0.387272   0.391498
    27  H   -0.004885   0.387272   0.604942  -0.034474
    28  H    0.004707   0.391498  -0.034474   0.599851
 Mulliken charges:
               1
     1  C   -0.253958
     2  H    0.113465
     3  H    0.119549
     4  C    0.090959
     5  C   -0.395368
     6  H    0.125330
     7  H    0.126626
     8  H    0.122925
     9  C   -0.143672
    10  H    0.097004
    11  C   -0.392744
    12  H    0.119484
    13  H    0.130794
    14  H    0.134810
    15  C   -0.394701
    16  H    0.126482
    17  H    0.124385
    18  H    0.125862
    19  C    0.087711
    20  C   -0.399035
    21  H    0.133443
    22  H    0.123644
    23  H    0.128418
    24  C   -0.139046
    25  H    0.095686
    26  C   -0.244208
    27  H    0.119118
    28  H    0.117037
 Sum of Mulliken charges =  -0.00000
 Mulliken charges with hydrogens summed into heavy atoms:
               1
     1  C   -0.020944
     4  C    0.090959
     5  C   -0.020488
     9  C   -0.046668
    11  C   -0.007656
    15  C   -0.017972
    19  C    0.087711
    20  C   -0.013531
    24  C   -0.043360
    26  C   -0.008052
 Electronic spatial extent (au):  <R**2>=           2421.0012
 Charge=              0.0000 electrons
 Dipole moment (field-independent basis, Debye):
    X=              0.2926    Y=              0.1865    Z=             -0.0072  Tot=              0.3471
 Quadrupole moment (field-independent basis, Debye-Ang):
   XX=            -63.1045   YY=            -62.4431   ZZ=            -66.0644
   XY=              0.6024   XZ=              0.7760   YZ=             -0.4168
 Traceless Quadrupole moment (field-independent basis, Debye-Ang):
   XX=              0.7661   YY=              1.4276   ZZ=             -2.1937
   XY=              0.6024   XZ=              0.7760   YZ=             -0.4168
 Octapole moment (field-independent basis, Debye-Ang**2):
  XXX=              3.1089  YYY=             -1.4730  ZZZ=              0.1916  XYY=             -1.4295
  XXY=              4.5866  XXZ=             -2.2742  XZZ=              1.5828  YZZ=              1.2871
  YYZ=              1.2961  XYZ=             -0.8615
 Hexadecapole moment (field-independent basis, Debye-Ang**3):
 XXXX=          -2453.2502 YYYY=           -686.2957 ZZZZ=           -172.1902 XXXY=             -0.6383
 XXXZ=             10.2472 YYYX=            -10.3555 YYYZ=             -2.5489 ZZZX=             -1.0993
 ZZZY=              0.1281 XXYY=           -520.3709 XXZZ=           -448.9880 YYZZ=           -136.9220
 XXYZ=             -3.8004 YYXZ=              2.4020 ZZXY=              4.5478
 N-N= 5.164362455339D+02 E-N=-1.937905894538D+03  KE= 3.880864419916D+02
 No NMR shielding tensors so no spin-rotation constants.
 Leave Link  601 at Wed Jul 14 20:01:56 2021, MaxMem=   524288000 cpu:               3.6 elap:               0.9
 (Enter /opt/gaussian/g16_legacy/l701.exe)
 ... and contract with generalized density number  0.
 Compute integral first derivatives.
 Leave Link  701 at Wed Jul 14 20:01:57 2021, MaxMem=   524288000 cpu:               1.5 elap:               0.5
 (Enter /opt/gaussian/g16_legacy/l702.exe)
 L702 exits ... SP integral derivatives will be done elsewhere.
 Leave Link  702 at Wed Jul 14 20:01:57 2021, MaxMem=   524288000 cpu:               0.2 elap:               0.1
 (Enter /opt/gaussian/g16_legacy/l703.exe)
 Integral derivatives from FoFJK, PRISM(SPDF).
 Compute integral first derivatives, UseDBF=F ICtDFT=           0.
 Calling FoFJK, ICntrl=      2127 FMM=F ISym2X=0 I1Cent= 0 IOpClX= 0 NMat=1 NMatS=1 NMatT=0.
 FoFJK:  IHMeth= 1 ICntrl=    2127 DoSepK=F KAlg= 0 I1Cent=           0 FoldK=F
 IRaf=         0 NMat=       1 IRICut=       1 DoRegI=T DoRafI=F ISym2E= 0 IDoP0=0 IntGTp=1.
 FoFCou: FMM=F IPFlag=           0 FMFlag=      100000 FMFlg1=         800
         NFxFlg=           0 DoJE=F BraDBF=F KetDBF=F FulRan=T
         wScrn=  0.000000 ICntrl=      2127 IOpCl=  0 I1Cent=           0 NGrid=           0
         NMat0=    1 NMatS0=      1 NMatT0=    0 NMatD0=    1 NMtDS0=    0 NMtDT0=    0
 Symmetry not used in FoFCou.
 Leave Link  703 at Wed Jul 14 20:02:10 2021, MaxMem=   524288000 cpu:              77.9 elap:              13.0
 (Enter /opt/gaussian/g16_legacy/l716.exe)
 Dipole        = 1.15137327D-01 7.33737260D-02-2.81498460D-03
 ***** Axes restored to original set *****
 -------------------------------------------------------------------
 Center     Atomic                   Forces (Hartrees/Bohr)
 Number     Number              X              Y              Z
 -------------------------------------------------------------------
      1        6          -0.009212576   -0.000723167    0.002755789
      2        1           0.001233468    0.002156957   -0.000960070
      3        1           0.001481887    0.003065477    0.000856911
      4        6          -0.012869191   -0.000932989    0.005811422
      5        6          -0.003263863    0.001533162    0.001805715
      6        1           0.001322531   -0.001303290   -0.002543043
      7        1           0.002084771    0.000522902   -0.001755448
      8        1           0.001490276   -0.000224521    0.001668003
      9        6           0.011450972   -0.001312371   -0.009325640
     10        1           0.000843667    0.000194153   -0.002883311
     11        6           0.001709890    0.000147266    0.000363771
     12        1           0.000137397   -0.001065346   -0.001158947
     13        1          -0.001152117   -0.001234467    0.001691533
     14        1          -0.000381485    0.000377414    0.003153169
     15        6          -0.000894875   -0.000965674   -0.003654501
     16        1           0.000990228   -0.001215037    0.002422083
     17        1          -0.001788203    0.001233285    0.000893268
     18        1           0.002119722    0.000725320    0.002034704
     19        6          -0.005904534   -0.002983883   -0.014251984
     20        6          -0.004140753    0.000861194   -0.001869016
     21        1           0.000748186   -0.000580611    0.002499204
     22        1           0.000477024    0.000628241   -0.001688966
     23        1           0.002395776    0.000812876    0.000721232
     24        6           0.005278316    0.004673440    0.009631615
     25        1           0.001987763   -0.001624326    0.001500320
     26        6           0.007812320   -0.000051224    0.001644961
     27        1          -0.002372453   -0.000579123   -0.000531650
     28        1          -0.001584146   -0.002135658    0.001168878
 -------------------------------------------------------------------
 Cartesian Forces:  Max     0.014251984 RMS     0.003709107
 Leave Link  716 at Wed Jul 14 20:02:10 2021, MaxMem=   524288000 cpu:               0.2 elap:               0.1
 (Enter /opt/gaussian/g16_legacy/l103.exe)

 GradGradGradGradGradGradGradGradGradGradGradGradGradGradGradGradGradGrad
 Berny optimization.
 FormGI is forming the generalized inverse of G from B-inverse, IUseBI=4.
 Internal  Forces:  Max     0.014848349 RMS     0.002453506
 Search for a local minimum.
 Step number   1 out of a maximum of  138
 All quantities printed in internal units (Hartrees-Bohrs-Radians)
 RMS Force = .24535D-02 SwitMx=.10000D-02 MixMth= 1
 Mixed Optimization -- RFO/linear search
 Second derivative matrix not updated -- first step.
 ITU=  0
     Eigenvalues ---    0.00342   0.00569   0.00671   0.00681   0.00692
     Eigenvalues ---    0.00713   0.00819   0.01219   0.01287   0.01569
     Eigenvalues ---    0.01642   0.02779   0.02784   0.04018   0.04138
     Eigenvalues ---    0.05349   0.05399   0.06978   0.07035   0.07091
     Eigenvalues ---    0.07093   0.07268   0.07301   0.07347   0.07505
     Eigenvalues ---    0.09276   0.09361   0.12766   0.12843   0.15999
     Eigenvalues ---    0.15999   0.16000   0.16000   0.16000   0.16000
     Eigenvalues ---    0.16000   0.16000   0.16000   0.16000   0.16000
     Eigenvalues ---    0.16000   0.16000   0.16000   0.21859   0.21866
     Eigenvalues ---    0.22000   0.22000   0.24994   0.24997   0.24998
     Eigenvalues ---    0.24999   0.29238   0.30868   0.31632   0.31714
     Eigenvalues ---    0.31798   0.31965   0.32800   0.33872   0.33975
     Eigenvalues ---    0.34064   0.34191   0.34219   0.34230   0.34248
     Eigenvalues ---    0.34249   0.34255   0.34259   0.34264   0.34276
     Eigenvalues ---    0.34290   0.34338   0.34549   0.34550   0.34797
     Eigenvalues ---    0.34851   0.55493   0.55575
 RFO step:  Lambda=-3.40865712D-03 EMin= 3.42423816D-03
 Linear search not attempted -- first point.
 Iteration  1 RMS(Cart)=  0.04187092 RMS(Int)=  0.00076481
 Iteration  2 RMS(Cart)=  0.00101149 RMS(Int)=  0.00017857
 Iteration  3 RMS(Cart)=  0.00000059 RMS(Int)=  0.00017857
 ITry= 1 IFail=0 DXMaxC= 2.04D-01 DCOld= 1.00D+10 DXMaxT= 3.00D-01 DXLimC= 3.00D+00 Rises=F
 Variable       Old X    -DE/DX   Delta X   Delta X   Delta X     New X
                                 (Linear)    (Quad)   (Total)
    R1        2.07547  -0.00042   0.00000  -0.00124  -0.00124   2.07423
    R2        2.07223  -0.00107   0.00000  -0.00310  -0.00310   2.06913
    R3        2.86265  -0.00209   0.00000  -0.00671  -0.00671   2.85594
    R4        2.89509   0.00299   0.00000   0.01011   0.01011   2.90520
    R5        2.84822   0.00056   0.00000   0.00175   0.00175   2.84997
    R6        2.54697  -0.01485   0.00000  -0.02659  -0.02659   2.52037
    R7        2.06843   0.00105   0.00000   0.00303   0.00303   2.07146
    R8        2.06894   0.00052   0.00000   0.00151   0.00151   2.07046
    R9        2.06963  -0.00164   0.00000  -0.00474  -0.00474   2.06489
   R10        2.05917   0.00011   0.00000   0.00032   0.00032   2.05949
   R11        2.82705   0.00426   0.00000   0.01284   0.01284   2.83989
   R12        2.06414   0.00010   0.00000   0.00029   0.00029   2.06442
   R13        2.06888  -0.00002   0.00000  -0.00005  -0.00005   2.06882
   R14        2.06763   0.00099   0.00000   0.00285   0.00285   2.07048
   R15        2.06914   0.00070   0.00000   0.00202   0.00202   2.07116
   R16        2.06944  -0.00174   0.00000  -0.00503  -0.00503   2.06441
   R17        2.06912   0.00064   0.00000   0.00185   0.00185   2.07097
   R18        2.84670   0.00054   0.00000   0.00170   0.00170   2.84840
   R19        2.84208   0.00048   0.00000   0.00147   0.00147   2.84356
   R20        2.54624  -0.01404   0.00000  -0.02511  -0.02511   2.52114
   R21        2.06867   0.00076   0.00000   0.00220   0.00220   2.07087
   R22        2.06412  -0.00020   0.00000  -0.00056  -0.00056   2.06356
   R23        2.07008  -0.00001   0.00000  -0.00004  -0.00004   2.07004
   R24        2.06005   0.00023   0.00000   0.00066   0.00066   2.06072
   R25        2.84514   0.00015   0.00000   0.00047   0.00047   2.84562
   R26        2.07372  -0.00002   0.00000  -0.00006  -0.00006   2.07366
   R27        2.06901  -0.00025   0.00000  -0.00073  -0.00073   2.06828
    A1        1.82997   0.00202   0.00000   0.02219   0.02199   1.85197
    A2        1.90266  -0.00043   0.00000   0.00012   0.00012   1.90278
    A3        1.92010  -0.00191   0.00000  -0.01661  -0.01664   1.90346
    A4        1.93000   0.00054   0.00000   0.00905   0.00906   1.93906
    A5        1.91837  -0.00280   0.00000  -0.02166  -0.02170   1.89667
    A6        1.95839   0.00253   0.00000   0.00772   0.00776   1.96615
    A7        2.00821   0.00210   0.00000   0.00861   0.00802   2.01623
    A8        2.17077  -0.00543   0.00000  -0.02107  -0.02162   2.14916
    A9        2.10403   0.00335   0.00000   0.01358   0.01298   2.11701
   A10        1.92810   0.00208   0.00000   0.01050   0.01051   1.93861
   A11        1.92484   0.00154   0.00000   0.00806   0.00808   1.93292
   A12        1.95919  -0.00216   0.00000  -0.00956  -0.00954   1.94964
   A13        1.89498  -0.00315   0.00000  -0.02638  -0.02637   1.86861
   A14        1.87701   0.00049   0.00000   0.00570   0.00572   1.88273
   A15        1.87756   0.00106   0.00000   0.01078   0.01079   1.88835
   A16        2.06964  -0.00192   0.00000  -0.01364  -0.01364   2.05600
   A17        2.22510  -0.00235   0.00000  -0.01051  -0.01051   2.21459
   A18        1.98831   0.00427   0.00000   0.02423   0.02423   2.01253
   A19        1.98129  -0.00264   0.00000  -0.01588  -0.01580   1.96549
   A20        1.91009   0.00243   0.00000   0.01586   0.01581   1.92590
   A21        1.91726   0.00377   0.00000   0.02182   0.02179   1.93905
   A22        1.87259   0.00043   0.00000   0.00493   0.00499   1.87758
   A23        1.89285  -0.00102   0.00000  -0.00787  -0.00780   1.88505
   A24        1.88712  -0.00318   0.00000  -0.02007  -0.02022   1.86690
   A25        1.87876   0.00085   0.00000   0.00805   0.00807   1.88683
   A26        1.89479  -0.00317   0.00000  -0.02654  -0.02652   1.86826
   A27        1.92345   0.00165   0.00000   0.00796   0.00797   1.93142
   A28        1.87922   0.00089   0.00000   0.00953   0.00955   1.88877
   A29        1.96062  -0.00234   0.00000  -0.01071  -0.01069   1.94993
   A30        1.92499   0.00200   0.00000   0.01082   0.01083   1.93582
   A31        1.99475   0.00119   0.00000   0.00471   0.00470   1.99945
   A32        2.10578   0.00271   0.00000   0.01074   0.01073   2.11651
   A33        2.18260  -0.00390   0.00000  -0.01537  -0.01538   2.16722
   A34        1.92160   0.00213   0.00000   0.01029   0.01030   1.93191
   A35        1.97972  -0.00193   0.00000  -0.00809  -0.00807   1.97165
   A36        1.92073   0.00012   0.00000  -0.00014  -0.00013   1.92060
   A37        1.88448   0.00018   0.00000   0.00299   0.00301   1.88749
   A38        1.89077  -0.00249   0.00000  -0.02275  -0.02273   1.86803
   A39        1.86365   0.00189   0.00000   0.01680   0.01681   1.88046
   A40        2.06721  -0.00174   0.00000  -0.01230  -0.01271   2.05450
   A41        2.22715  -0.00241   0.00000  -0.01063  -0.01105   2.21610
   A42        1.98870   0.00416   0.00000   0.02374   0.02330   2.01200
   A43        1.94441   0.00336   0.00000   0.01426   0.01429   1.95870
   A44        1.92088  -0.00239   0.00000  -0.01466  -0.01488   1.90600
   A45        1.92610  -0.00278   0.00000  -0.02616  -0.02623   1.89986
   A46        1.88063   0.00065   0.00000   0.01800   0.01804   1.89867
   A47        1.94658  -0.00042   0.00000  -0.00134  -0.00128   1.94530
   A48        1.84192   0.00148   0.00000   0.01035   0.01006   1.85197
    D1       -0.63960   0.00068   0.00000  -0.01292  -0.01261  -0.65221
    D2        2.48157   0.00171   0.00000   0.05035   0.05010   2.53167
    D3       -2.64269  -0.00179   0.00000  -0.04468  -0.04442  -2.68711
    D4        0.47848  -0.00076   0.00000   0.01859   0.01828   0.49677
    D5        1.49178  -0.00036   0.00000  -0.02876  -0.02849   1.46329
    D6       -1.67023   0.00067   0.00000   0.03451   0.03422  -1.63601
    D7       -1.01269  -0.00026   0.00000   0.01959   0.01957  -0.99312
    D8        1.07224   0.00114   0.00000   0.04161   0.04146   1.11369
    D9        3.09816  -0.00011   0.00000   0.03016   0.03022   3.12838
   D10        0.99383  -0.00051   0.00000   0.02455   0.02462   1.01845
   D11        3.07875   0.00089   0.00000   0.04658   0.04651   3.12526
   D12       -1.17851  -0.00036   0.00000   0.03513   0.03527  -1.14324
   D13       -3.13411  -0.00008   0.00000   0.02586   0.02588  -3.10823
   D14       -1.04919   0.00132   0.00000   0.04789   0.04777  -1.00142
   D15        0.97673   0.00007   0.00000   0.03644   0.03653   1.01326
   D16       -1.05648   0.00137   0.00000   0.05867   0.05907  -0.99741
   D17        1.03847  -0.00023   0.00000   0.03775   0.03815   1.07662
   D18        3.13182   0.00075   0.00000   0.05060   0.05100  -3.10037
   D19        2.10468   0.00049   0.00000  -0.00153  -0.00193   2.10275
   D20       -2.08355  -0.00110   0.00000  -0.02245  -0.02286  -2.10641
   D21        0.00979  -0.00013   0.00000  -0.00960  -0.01000  -0.00021
   D22       -3.11724  -0.00110   0.00000  -0.05102  -0.05088   3.11506
   D23        0.04338  -0.00125   0.00000  -0.05678  -0.05658  -0.01320
   D24        0.00287  -0.00004   0.00000   0.01545   0.01525   0.01812
   D25       -3.11969  -0.00018   0.00000   0.00969   0.00955  -3.11014
   D26        0.13827  -0.00044   0.00000  -0.01741  -0.01740   0.12087
   D27        2.22963   0.00008   0.00000  -0.01039  -0.01045   2.21918
   D28       -1.98422  -0.00007   0.00000  -0.01225  -0.01214  -1.99636
   D29       -2.98504  -0.00053   0.00000  -0.02261  -0.02263  -3.00767
   D30       -0.89368  -0.00000   0.00000  -0.01559  -0.01569  -0.90937
   D31        1.17566  -0.00015   0.00000  -0.01745  -0.01738   1.15828
   D32       -1.04012   0.00081   0.00000   0.01461   0.01465  -1.02547
   D33        2.11159   0.00072   0.00000   0.00708   0.00704   2.11863
   D34       -3.13498   0.00015   0.00000   0.00604   0.00608  -3.12890
   D35        0.01673   0.00006   0.00000  -0.00149  -0.00153   0.01520
   D36        1.05170  -0.00079   0.00000  -0.00639  -0.00635   1.04536
   D37       -2.07977  -0.00089   0.00000  -0.01391  -0.01395  -2.09372
   D38        1.16163  -0.00095   0.00000  -0.02844  -0.02841   1.13321
   D39       -3.00779  -0.00049   0.00000  -0.02268  -0.02265  -3.03044
   D40       -0.92137   0.00073   0.00000  -0.00670  -0.00667  -0.92804
   D41       -1.99060  -0.00080   0.00000  -0.02035  -0.02038  -2.01098
   D42        0.12317  -0.00034   0.00000  -0.01458  -0.01462   0.10856
   D43        2.20959   0.00088   0.00000   0.00139   0.00136   2.21095
   D44        0.00906  -0.00005   0.00000   0.01118   0.01087   0.01994
   D45       -3.11413  -0.00118   0.00000  -0.04669  -0.04640   3.12266
   D46       -3.12126  -0.00020   0.00000   0.00266   0.00237  -3.11889
   D47        0.03873  -0.00133   0.00000  -0.05521  -0.05490  -0.01617
   D48       -1.80420   0.00078   0.00000   0.03094   0.03121  -1.77299
   D49        2.37032   0.00127   0.00000   0.02871   0.02885   2.39916
   D50        0.35657  -0.00067   0.00000   0.00638   0.00657   0.36314
   D51        1.35510  -0.00026   0.00000  -0.02443  -0.02455   1.33055
   D52       -0.75357   0.00023   0.00000  -0.02666  -0.02692  -0.78049
   D53       -2.76732  -0.00171   0.00000  -0.04898  -0.04920  -2.81651
         Item               Value     Threshold  Converged?
 Maximum Force            0.014848     0.002500     NO 
 RMS     Force            0.002454     0.001667     NO 
 Maximum Displacement     0.203706     0.010000     NO 
 RMS     Displacement     0.041914     0.006667     NO 
 Predicted change in Energy=-1.806423D-03
 Lowest energy point so far.  Saving SCF results.
 GradGradGradGradGradGradGradGradGradGradGradGradGradGradGradGradGradGrad

 Leave Link  103 at Wed Jul 14 20:02:11 2021, MaxMem=   524288000 cpu:               0.4 elap:               0.1
 (Enter /opt/gaussian/g16_legacy/l202.exe)
                          Input orientation:                          
 ---------------------------------------------------------------------
 Center     Atomic      Atomic             Coordinates (Angstroms)
 Number     Number       Type             X           Y           Z
[...]
                 (A) (A) (A) (A) (A) (A) (A) (A) (A) (A) (A) (A)
                 (A) (A) (A) (A) (A) (A) (A) (A) (A) (A) (A) (A)
                 (A) (A) (A) (A) (A) (A) (A) (A) (A) (A) (A) (A)
                 (A) (A) (A) (A) (A) (A) (A) (A) (A) (A) (A) (A)
                 (A) (A) (A) (A) (A) (A) (A) (A) (A) (A) (A) (A)
                 (A) (A) (A) (A) (A) (A) (A) (A) (A) (A) (A) (A)
                 (A) (A) (A) (A) (A) (A) (A) (A) (A) (A) (A) (A)
                 (A) (A) (A) (A) (A) (A) (A) (A) (A) (A) (A) (A)
                 (A) (A) (A) (A) (A) (A) (A) (A) (A) (A) (A) (A)
                 (A) (A) (A) (A) (A) (A) (A) (A) (A) (A) (A) (A)
                 (A) (A) (A) (A) (A) (A) (A) (A) (A) (A) (A) (A)
                 (A) (A) (A) (A) (A) (A) (A) (A) (A) (A) (A) (A)
                 (A) (A) (A) (A) (A) (A) (A) (A) (A)
 The electronic state is 1-A.
 Alpha  occ. eigenvalues --  -10.54567 -10.54041 -10.53920 -10.53770 -10.53587
 Alpha  occ. eigenvalues --  -10.53429 -10.53397 -10.53303 -10.53198 -10.53071
 Alpha  occ. eigenvalues --   -0.92195  -0.90147  -0.84513  -0.81604  -0.77895
 Alpha  occ. eigenvalues --   -0.76185  -0.71952  -0.68642  -0.58709  -0.57844
 Alpha  occ. eigenvalues --   -0.54706  -0.51373  -0.50897  -0.49634  -0.48971
 Alpha  occ. eigenvalues --   -0.47706  -0.46312  -0.45719  -0.44371  -0.43357
 Alpha  occ. eigenvalues --   -0.43286  -0.42655  -0.41874  -0.40701  -0.39857
 Alpha  occ. eigenvalues --   -0.37790  -0.36448  -0.28907  -0.27213
 Alpha virt. eigenvalues --    0.06580   0.08335   0.11914   0.14545   0.15267
 Alpha virt. eigenvalues --    0.17190   0.17942   0.18670   0.19793   0.20457
 Alpha virt. eigenvalues --    0.20980   0.21764   0.22403   0.23075   0.23580
 Alpha virt. eigenvalues --    0.24218   0.24738   0.25627   0.27135   0.27912
 Alpha virt. eigenvalues --    0.28812   0.29407   0.30179   0.31520   0.32587
 Alpha virt. eigenvalues --    0.38713   0.40485   0.47176   0.48553   0.54518
 Alpha virt. eigenvalues --    0.55077   0.56661   0.57141   0.58783   0.59806
 Alpha virt. eigenvalues --    0.60142   0.61459   0.62495   0.63594   0.65354
 Alpha virt. eigenvalues --    0.66675   0.67769   0.71264   0.72735   0.72953
 Alpha virt. eigenvalues --    0.74755   0.75993   0.77714   0.78160   0.79632
 Alpha virt. eigenvalues --    0.79866   0.81259   0.82753   0.84527   0.86224
 Alpha virt. eigenvalues --    0.87485   0.88716   0.89930   0.92008   0.92761
 Alpha virt. eigenvalues --    0.93341   0.94241   0.95305   0.95835   0.96213
 Alpha virt. eigenvalues --    0.96431   0.97358   0.98587   0.99377   1.00842
 Alpha virt. eigenvalues --    1.01405   1.03372   1.04545   1.05758   1.07478
 Alpha virt. eigenvalues --    1.14127   1.21677   1.22792   1.24465   1.26244
 Alpha virt. eigenvalues --    1.28127   1.32791   1.34624   1.36807   1.37944
 Alpha virt. eigenvalues --    1.40638   1.42775   1.44933   1.47567   1.48642
 Alpha virt. eigenvalues --    1.52191   1.60233   1.68257   1.69808   1.73160
 Alpha virt. eigenvalues --    1.75593   1.78364   1.78855   1.79271   1.83568
 Alpha virt. eigenvalues --    1.84695   1.84976   1.86914   1.87903   1.89335
 Alpha virt. eigenvalues --    1.90275   1.91662   1.94300   1.98124   2.02514
 Alpha virt. eigenvalues --    2.03092   2.04266   2.06329   2.09563   2.09981
 Alpha virt. eigenvalues --    2.10176   2.10336   2.11716   2.13194   2.14624
 Alpha virt. eigenvalues --    2.15048   2.16250   2.17390   2.17490   2.18870
 Alpha virt. eigenvalues --    2.19924   2.21929   2.22626   2.23585   2.25896
 Alpha virt. eigenvalues --    2.29272   2.30551   2.33942   2.34512   2.34756
 Alpha virt. eigenvalues --    2.38496   2.39239   2.43572   2.44013   2.44610
 Alpha virt. eigenvalues --    2.46455   2.47383   2.50211   2.52459   2.54916
 Alpha virt. eigenvalues --    2.56963   2.59745   2.61172   2.62470   2.64191
 Alpha virt. eigenvalues --    2.66652   2.68538   2.69345   2.71225   2.73664
 Alpha virt. eigenvalues --    2.74332   2.75418   2.76809   2.80635   2.84443
 Alpha virt. eigenvalues --    2.84692   2.86547   2.86893   2.87815   2.89379
 Alpha virt. eigenvalues --    2.90913   2.91176   2.92832   2.93864   3.02436
 Alpha virt. eigenvalues --    3.04794   3.10021   3.10368   3.17320   3.19169
 Alpha virt. eigenvalues --    3.20668   3.23781   3.29043   3.36114   3.39350
 Alpha virt. eigenvalues --    3.40934   3.42106   3.43425   3.43869   3.44752
 Alpha virt. eigenvalues --    3.45534   3.47148   3.48066   3.50231   3.52209
 Alpha virt. eigenvalues --    3.57987   4.19399   4.23323   4.34333   4.41922
 Alpha virt. eigenvalues --    4.48539   4.52497   4.53330   4.67111   4.70271
 Alpha virt. eigenvalues --    4.76893
          Condensed to atoms (all electrons):
               1          2          3          4          5          6
     1  C    5.045930   0.388236   0.380606   0.356015  -0.067607   0.000447
     2  H    0.388236   0.610713  -0.033013  -0.038489  -0.005913  -0.000278
     3  H    0.380606  -0.033013   0.600620  -0.028345   0.004325   0.000035
     4  C    0.356015  -0.038489  -0.028345   4.756285   0.371736  -0.038614
     5  C   -0.067607  -0.005913   0.004325   0.371736   4.998075   0.382203
     6  H    0.000447  -0.000278   0.000035  -0.038614   0.382203   0.594539
     7  H   -0.004121   0.003619   0.000044  -0.031717   0.379114  -0.036477
     8  H    0.004678   0.000149  -0.000174  -0.034684   0.386062  -0.027242
     9  C   -0.051347   0.004173  -0.006956   0.719999  -0.043026  -0.001031
    10  H    0.006039  -0.000178  -0.000022  -0.031920  -0.013752   0.000166
    11  C   -0.014364   0.000323  -0.000690  -0.044886   0.006158  -0.000165
    12  H    0.004059  -0.000102   0.003155  -0.009110   0.000107  -0.000007
    13  H    0.000550  -0.000015  -0.000207  -0.000822  -0.000143   0.000022
    14  H    0.000081   0.000011   0.000180   0.000592  -0.000139  -0.000004
    15  C   -0.000073  -0.000003  -0.000099   0.000002  -0.000000  -0.000000
    16  H   -0.000006   0.000000   0.000002   0.000000  -0.000000   0.000000
    17  H   -0.000003   0.000003  -0.000001   0.000000   0.000000  -0.000000
    18  H    0.000021  -0.000003  -0.000005  -0.000000   0.000000   0.000000
    19  C   -0.005219   0.000162   0.002353   0.000135  -0.000003  -0.000001
    20  C    0.000250   0.000008   0.001169  -0.000015  -0.000000  -0.000000
    21  H   -0.000025  -0.000000   0.000025   0.000002   0.000000  -0.000000
    22  H   -0.000816   0.000006  -0.000291  -0.000031  -0.000001   0.000000
    23  H    0.000150  -0.000003  -0.000167  -0.000009   0.000000   0.000000
    24  C   -0.053166  -0.000900  -0.001465   0.006131  -0.000124  -0.000194
    25  H    0.000026   0.002174  -0.000148  -0.000135   0.000007   0.000015
    26  C    0.351438  -0.043391  -0.039709  -0.044395  -0.001912   0.000971
    27  H   -0.044369  -0.004577   0.005825  -0.002368   0.001348   0.002025
    28  H   -0.040963   0.005809  -0.006320  -0.003401  -0.000016   0.000005
               7          8          9         10         11         12
     1  C   -0.004121   0.004678  -0.051347   0.006039  -0.014364   0.004059
     2  H    0.003619   0.000149   0.004173  -0.000178   0.000323  -0.000102
     3  H    0.000044  -0.000174  -0.006956  -0.000022  -0.000690   0.003155
     4  C   -0.031717  -0.034684   0.719999  -0.031920  -0.044886  -0.009110
     5  C    0.379114   0.386062  -0.043026  -0.013752   0.006158   0.000107
     6  H   -0.036477  -0.027242  -0.001031   0.000166  -0.000165  -0.000007
     7  H    0.587643  -0.026776  -0.000542   0.000312  -0.000164   0.000005
     8  H   -0.026776   0.573470  -0.005289   0.006511   0.000073   0.000008
     9  C   -0.000542  -0.005289   4.889578   0.377248   0.361912  -0.035232
    10  H    0.000312   0.006511   0.377248   0.611888  -0.053646   0.004457
    11  C   -0.000164   0.000073   0.361912  -0.053646   4.978180   0.387823
    12  H    0.000005   0.000008  -0.035232   0.004457   0.387823   0.584765
    13  H   -0.000006  -0.000005  -0.033315  -0.000930   0.386311  -0.030601
    14  H    0.000018  -0.000007  -0.032589  -0.002008   0.385274  -0.027071
    15  C   -0.000000   0.000000   0.000000   0.000000  -0.000000   0.000001
    16  H    0.000000   0.000000   0.000000   0.000000   0.000000  -0.000000
    17  H    0.000000  -0.000000  -0.000000   0.000000   0.000000  -0.000000
    18  H   -0.000000  -0.000000   0.000000  -0.000000  -0.000000  -0.000000
    19  C    0.000000   0.000000  -0.000007   0.000000   0.000020  -0.000017
    20  C    0.000000  -0.000000   0.000025  -0.000000  -0.000431  -0.000014
    21  H    0.000000   0.000000  -0.000000   0.000000   0.000010  -0.000022
    22  H   -0.000000   0.000000  -0.000053   0.000001   0.000104   0.002363
    23  H   -0.000000  -0.000000   0.000001  -0.000000  -0.000018   0.000134
    24  C    0.000017   0.000003   0.000231   0.000003  -0.000041  -0.000013
    25  H   -0.000002  -0.000000  -0.000002  -0.000000   0.000000  -0.000002
    26  C   -0.000019  -0.000066  -0.005922  -0.000090   0.000224  -0.001238
    27  H    0.000042  -0.000138   0.000202  -0.000007  -0.000008   0.000016
    28  H    0.000003   0.000004   0.002454  -0.000094   0.001427  -0.000452
              13         14         15         16         17         18
     1  C    0.000550   0.000081  -0.000073  -0.000006  -0.000003   0.000021
     2  H   -0.000015   0.000011  -0.000003   0.000000   0.000003  -0.000003
     3  H   -0.000207   0.000180  -0.000099   0.000002  -0.000001  -0.000005
     4  C   -0.000822   0.000592   0.000002   0.000000   0.000000  -0.000000
     5  C   -0.000143  -0.000139  -0.000000  -0.000000   0.000000   0.000000
     6  H    0.000022  -0.000004  -0.000000   0.000000  -0.000000   0.000000
     7  H   -0.000006   0.000018  -0.000000   0.000000   0.000000  -0.000000
     8  H   -0.000005  -0.000007   0.000000   0.000000  -0.000000  -0.000000
     9  C   -0.033315  -0.032589   0.000000   0.000000  -0.000000   0.000000
    10  H   -0.000930  -0.002008   0.000000   0.000000   0.000000  -0.000000
    11  C    0.386311   0.385274  -0.000000   0.000000   0.000000  -0.000000
    12  H   -0.030601  -0.027071   0.000001  -0.000000  -0.000000  -0.000000
    13  H    0.579699  -0.033567  -0.000000  -0.000000  -0.000000   0.000000
    14  H   -0.033567   0.576721   0.000000   0.000000  -0.000000  -0.000000
    15  C   -0.000000   0.000000   5.005487   0.381252   0.385088   0.381472
    16  H   -0.000000   0.000000   0.381252   0.590173  -0.026266  -0.036760
    17  H   -0.000000  -0.000000   0.385088  -0.026266   0.569946  -0.026434
    18  H    0.000000  -0.000000   0.381472  -0.036760  -0.026434   0.591105
    19  C    0.000002  -0.000000   0.368512  -0.035682  -0.033473  -0.036211
    20  C   -0.000031   0.000010  -0.078318  -0.001300   0.004740  -0.001509
    21  H   -0.000001  -0.000000  -0.002876   0.004244  -0.000024  -0.000840
    22  H    0.000214  -0.000029   0.004871  -0.000012  -0.000173  -0.000042
    23  H   -0.000000  -0.000001  -0.002491  -0.000740  -0.000024   0.003980
    24  C   -0.000016   0.000002  -0.038405  -0.001371  -0.004952  -0.000707
    25  H    0.000000   0.000000  -0.014235   0.000255   0.006502   0.000237
    26  C    0.000123   0.000001   0.005768  -0.000207   0.000104  -0.000105
    27  H    0.000002  -0.000001  -0.000169   0.000009  -0.000010  -0.000001
    28  H   -0.000059   0.000033   0.000040   0.000012   0.000011  -0.000008
              19         20         21         22         23         24
     1  C   -0.005219   0.000250  -0.000025  -0.000816   0.000150  -0.053166
     2  H    0.000162   0.000008  -0.000000   0.000006  -0.000003  -0.000900
     3  H    0.002353   0.001169   0.000025  -0.000291  -0.000167  -0.001465
     4  C    0.000135  -0.000015   0.000002  -0.000031  -0.000009   0.006131
     5  C   -0.000003  -0.000000   0.000000  -0.000001   0.000000  -0.000124
     6  H   -0.000001  -0.000000  -0.000000   0.000000   0.000000  -0.000194
     7  H    0.000000   0.000000   0.000000  -0.000000  -0.000000   0.000017
     8  H    0.000000  -0.000000   0.000000   0.000000  -0.000000   0.000003
     9  C   -0.000007   0.000025  -0.000000  -0.000053   0.000001   0.000231
    10  H    0.000000  -0.000000   0.000000   0.000001  -0.000000   0.000003
    11  C    0.000020  -0.000431   0.000010   0.000104  -0.000018  -0.000041
    12  H   -0.000017  -0.000014  -0.000022   0.002363   0.000134  -0.000013
    13  H    0.000002  -0.000031  -0.000001   0.000214  -0.000000  -0.000016
    14  H   -0.000000   0.000010  -0.000000  -0.000029  -0.000001   0.000002
    15  C    0.368512  -0.078318  -0.002876   0.004871  -0.002491  -0.038405
    16  H   -0.035682  -0.001300   0.004244  -0.000012  -0.000740  -0.001371
    17  H   -0.033473   0.004740  -0.000024  -0.000173  -0.000024  -0.004952
    18  H   -0.036211  -0.001509  -0.000840  -0.000042   0.003980  -0.000707
    19  C    4.717598   0.378806  -0.035952  -0.027088  -0.034961   0.721754
    20  C    0.378806   5.008219   0.382977   0.381532   0.384259  -0.053986
    21  H   -0.035952   0.382977   0.582306  -0.026145  -0.034679   0.001059
    22  H   -0.027088   0.381532  -0.026145   0.577460  -0.028889  -0.009663
    23  H   -0.034961   0.384259  -0.034679  -0.028889   0.583313  -0.000097
    24  C    0.721754  -0.053986   0.001059  -0.009663  -0.000097   4.917806
    25  H   -0.033866   0.006446  -0.000155   0.000029  -0.000169   0.376132
    26  C   -0.039123  -0.014600   0.000035   0.003035   0.000611   0.349152
    27  H    0.002702   0.000412   0.000013  -0.000068  -0.000015  -0.029850
    28  H   -0.006761  -0.000264   0.000152   0.003090  -0.000226  -0.037077
              25         26         27         28
     1  C    0.000026   0.351438  -0.044369  -0.040963
     2  H    0.002174  -0.043391  -0.004577   0.005809
     3  H   -0.000148  -0.039709   0.005825  -0.006320
     4  C   -0.000135  -0.044395  -0.002368  -0.003401
     5  C    0.000007  -0.001912   0.001348  -0.000016
     6  H    0.000015   0.000971   0.002025   0.000005
     7  H   -0.000002  -0.000019   0.000042   0.000003
     8  H   -0.000000  -0.000066  -0.000138   0.000004
     9  C   -0.000002  -0.005922   0.000202   0.002454
    10  H   -0.000000  -0.000090  -0.000007  -0.000094
    11  C    0.000000   0.000224  -0.000008   0.001427
    12  H   -0.000002  -0.001238   0.000016  -0.000452
    13  H    0.000000   0.000123   0.000002  -0.000059
    14  H    0.000000   0.000001  -0.000001   0.000033
    15  C   -0.014235   0.005768  -0.000169   0.000040
    16  H    0.000255  -0.000207   0.000009   0.000012
    17  H    0.006502   0.000104  -0.000010   0.000011
    18  H    0.000237  -0.000105  -0.000001  -0.000008
    19  C   -0.033866  -0.039123   0.002702  -0.006761
    20  C    0.006446  -0.014600   0.000412  -0.000264
    21  H   -0.000155   0.000035   0.000013   0.000152
    22  H    0.000029   0.003035  -0.000068   0.003090
    23  H   -0.000169   0.000611  -0.000015  -0.000226
    24  C    0.376132   0.349152  -0.029850  -0.037077
    25  H    0.612655  -0.050353  -0.005117   0.004502
    26  C   -0.050353   4.996509   0.386758   0.390809
    27  H   -0.005117   0.386758   0.604010  -0.033183
    28  H    0.004502   0.390809  -0.033183   0.603552
 Mulliken charges:
               1
     1  C   -0.256446
     2  H    0.111479
     3  H    0.119272
     4  C    0.098044
     5  C   -0.396500
     6  H    0.123583
     7  H    0.129006
     8  H    0.123423
     9  C   -0.140512
    10  H    0.096021
    11  C   -0.393425
    12  H    0.116987
    13  H    0.132794
    14  H    0.132492
    15  C   -0.395824
    16  H    0.126395
    17  H    0.124968
    18  H    0.125809
    19  C    0.096320
    20  C   -0.398385
    21  H    0.129895
    22  H    0.120595
    23  H    0.130041
    24  C   -0.140265
    25  H    0.095205
    26  C   -0.244408
    27  H    0.116516
    28  H    0.116921
 Sum of Mulliken charges =  -0.00000
 Mulliken charges with hydrogens summed into heavy atoms:
               1
     1  C   -0.025695
     4  C    0.098044
     5  C   -0.020489
     9  C   -0.044491
    11  C   -0.011153
    15  C   -0.018651
    19  C    0.096320
    20  C   -0.017854
    24  C   -0.045060
    26  C   -0.010972
 Electronic spatial extent (au):  <R**2>=           2350.6150
 Charge=              0.0000 electrons
 Dipole moment (field-independent basis, Debye):
    X=              0.2943    Y=              0.1659    Z=              0.0688  Tot=              0.3448
 Quadrupole moment (field-independent basis, Debye-Ang):
   XX=            -62.9781   YY=            -62.2069   ZZ=            -66.5061
   XY=              0.7394   XZ=              1.2404   YZ=             -0.2318
 Traceless Quadrupole moment (field-independent basis, Debye-Ang):
   XX=              0.9189   YY=              1.6902   ZZ=             -2.6091
   XY=              0.7394   XZ=              1.2404   YZ=             -0.2318
 Octapole moment (field-independent basis, Debye-Ang**2):
  XXX=              4.0698  YYY=             -1.9394  ZZZ=              1.3156  XYY=             -1.2568
  XXY=              3.6193  XXZ=             -1.2898  XZZ=              1.1201  YZZ=              1.4134
  YYZ=              0.0312  XYZ=              0.1790
 Hexadecapole moment (field-independent basis, Debye-Ang**3):
 XXXX=          -2361.5047 YYYY=           -682.1398 ZZZZ=           -161.6358 XXXY=              4.1289
 XXXZ=             12.7886 YYYX=            -12.8039 YYYZ=             -0.1867 ZZZX=              4.3701
 ZZZY=             -0.9952 XXYY=           -503.5621 XXZZ=           -436.9163 YYZZ=           -135.9638
 XXYZ=             -4.1614 YYXZ=             -1.5100 ZZXY=              6.1833
 N-N= 5.206065909481D+02 E-N=-1.946262707016D+03  KE= 3.881384514005D+02
 No NMR shielding tensors so no spin-rotation constants.
 Leave Link  601 at Wed Jul 14 20:18:37 2021, MaxMem=   524288000 cpu:               1.2 elap:               0.2
 (Enter /opt/gaussian/g16_legacy/l9999.exe)
 1\1\GINC-TRUENO91\FOpt\RM062X\6-31G(d,p)\C10H18\JRAMOS\14-Jul-2021\0\\
 #p opt=loose m062x/6-31g(d,p)\\Conformer number 295. Energy MM = 23.24
 2 kcal/mol\\0,1\C,-0.6489710566,-0.523512336,-0.6721166775\H,-0.351834
 2814,-1.1919393378,-1.4894950109\H,-0.6359874134,-1.129931441,0.239486
 82\C,-2.0257161393,0.0362876262,-0.9482416086\C,-2.3881716631,0.162098
 2793,-2.4042149172\H,-1.6273732566,0.7362789474,-2.9467893264\H,-2.435
 2443702,-0.824274796,-2.8799414068\H,-3.3517658535,0.6576540639,-2.542
 1746354\C,-2.8552102196,0.4505679817,0.0142957145\H,-3.8137011873,0.87
 21385062,-0.2882592015\C,-2.6043482444,0.4139626275,1.4934860983\H,-1.
 6598279444,-0.0734629925,1.7450662956\H,-2.5762350709,1.4281788167,1.9
 075900145\H,-3.4069454358,-0.1178741659,2.0152511032\C,3.7875703359,-0
 .8208990408,0.8458598433\H,4.4759017182,-0.1631810349,1.3894891785\H,4
 .1869487254,-0.9810433967,-0.1579165579\H,3.7874339556,-1.781414212,1.
 3743118349\C,2.4029926492,-0.2304996118,0.8077171884\C,1.7883177797,0.
 0080492764,2.1613564808\H,2.4236034891,0.6689098581,2.7623145593\H,0.7
 921860409,0.4499727694,2.107497801\H,1.7097414319,-0.936666658,2.71195
 83011\C,1.7940380271,0.0396022783,-0.3513339124\H,2.3287160061,-0.2035
 677435,-1.2697917829\C,0.4070345971,0.5922528534,-0.530398954\H,0.3766
 307131,1.2257483234,-1.4247527509\H,0.1204166671,1.2363645592,0.307345
 5092\\Version=EM64L-G16RevA.03\State=1-A\HF=-391.6905457\RMSD=8.730e-0
 9\RMSF=1.633e-05\Dipole=0.0863461,-0.0330488,0.0992483\Quadrupole=0.11
 17442,-1.6356739,1.5239296,-1.2049038,0.3540874,0.0662009\PG=C01 [X(C1
 0H18)]\\@


 IMAGINATION WILL OFTEN CARRY US TO WORLDS THAT NEVER WERE.
 BUT WITHOUT IT, WE GO NOWHERE. -- CARL SAGAN (COSMOS)
 Job cpu time:       0 days  1 hours 47 minutes 36.5 seconds.
 Elapsed time:       0 days  0 hours 18 minutes  4.7 seconds.
 File lengths (MBytes):  RWF=     42 Int=      0 D2E=      0 Chk=      6 Scr=      1
 Normal termination of Gaussian 16 at Wed Jul 14 20:18:38 2021.
