 Entering Gaussian System, Link 0=g16
 Input=DVE-DMSD_1_00065_gaussian.com
 Output=DVE-DMSD_1_00065_gaussian.log
 Initial command:
 /dragofs/sw/campus/0.2/software/gaussian/16.gaussian/gaussian/g16_legacy/l1.exe "/lustre/scratch-global/iem/jramos/172813/Gau-1611656.inp" -scrdir="/lustre/scratch-global/iem/jramos/172813/"
 Entering Link 1 = /dragofs/sw/campus/0.2/software/gaussian/16.gaussian/gaussian/g16_legacy/l1.exe PID=   1611657.
  
 Copyright (c) 1988,1990,1992,1993,1995,1998,2003,2009,2016,
            Gaussian, Inc.  All Rights Reserved.
  
 This is part of the Gaussian(R) 16 program.  It is based on
 the Gaussian(R) 09 system (copyright 2009, Gaussian, Inc.),
 the Gaussian(R) 03 system (copyright 2003, Gaussian, Inc.),
 the Gaussian(R) 98 system (copyright 1998, Gaussian, Inc.),
 the Gaussian(R) 94 system (copyright 1995, Gaussian, Inc.),
 the Gaussian 92(TM) system (copyright 1992, Gaussian, Inc.),
 the Gaussian 90(TM) system (copyright 1990, Gaussian, Inc.),
 the Gaussian 88(TM) system (copyright 1988, Gaussian, Inc.),
 the Gaussian 86(TM) system (copyright 1986, Carnegie Mellon
 University), and the Gaussian 82(TM) system (copyright 1983,
 Carnegie Mellon University). Gaussian is a federally registered
 trademark of Gaussian, Inc.
  
 This software contains proprietary and confidential information,
 including trade secrets, belonging to Gaussian, Inc.
  
 This software is provided under written license and may be
 used, copied, transmitted, or stored only in accord with that
 written license.
  
 The following legend is applicable only to US Government
 contracts under FAR:
  
                    RESTRICTED RIGHTS LEGEND
  
 Use, reproduction and disclosure by the US Government is
 subject to restrictions as set forth in subparagraphs (a)
 and (c) of the Commercial Computer Software - Restricted
 Rights clause in FAR 52.227-19.
  
 Gaussian, Inc.
 340 Quinnipiac St., Bldg. 40, Wallingford CT 06492
  
  
 ---------------------------------------------------------------
 Warning -- This program may not be used in any manner that
 competes with the business of Gaussian, Inc. or will provide
 assistance to any competitor of Gaussian, Inc.  The licensee
 of this program is prohibited from giving any competitor of
 Gaussian, Inc. access to this program.  By using this program,
 the user acknowledges that Gaussian, Inc. is engaged in the
 business of creating and licensing software in the field of
 computational chemistry and represents and warrants to the
 licensee that it is not a competitor of Gaussian, Inc. and that
 it will not use this program in any manner prohibited above.
 ---------------------------------------------------------------
  

 Cite this work as:
 Gaussian 16, Revision A.03,
 M. J. Frisch, G. W. Trucks, H. B. Schlegel, G. E. Scuseria, 
 M. A. Robb, J. R. Cheeseman, G. Scalmani, V. Barone, 
 G. A. Petersson, H. Nakatsuji, X. Li, M. Caricato, A. V. Marenich, 
 J. Bloino, B. G. Janesko, R. Gomperts, B. Mennucci, H. P. Hratchian, 
 J. V. Ortiz, A. F. Izmaylov, J. L. Sonnenberg, D. Williams-Young, 
 F. Ding, F. Lipparini, F. Egidi, J. Goings, B. Peng, A. Petrone, 
 T. Henderson, D. Ranasinghe, V. G. Zakrzewski, J. Gao, N. Rega, 
 G. Zheng, W. Liang, M. Hada, M. Ehara, K. Toyota, R. Fukuda, 
 J. Hasegawa, M. Ishida, T. Nakajima, Y. Honda, O. Kitao, H. Nakai, 
 T. Vreven, K. Throssell, J. A. Montgomery, Jr., J. E. Peralta, 
 F. Ogliaro, M. J. Bearpark, J. J. Heyd, E. N. Brothers, K. N. Kudin, 
 V. N. Staroverov, T. A. Keith, R. Kobayashi, J. Normand, 
 K. Raghavachari, A. P. Rendell, J. C. Burant, S. S. Iyengar, 
 J. Tomasi, M. Cossi, J. M. Millam, M. Klene, C. Adamo, R. Cammi, 
 J. W. Ochterski, R. L. Martin, K. Morokuma, O. Farkas, 
 J. B. Foresman, and D. J. Fox, Gaussian, Inc., Wallingford CT, 2016.
 
 ******************************************
 Gaussian 16:  EM64L-G16RevA.03 25-Dec-2016
                27-Jun-2023 
 ******************************************
 %chk=DVE-DMSD_1_00065_gaussian.chk
 %nproc=8
 Will use up to    8 processors via shared memory.
 %mem=2000Mb
 -------------------------------------
 #p opt cam-b3lyp/6-31G* pop=Hirshfeld
 -------------------------------------
 1/18=20,19=15,26=3,38=1/1,3;
 2/9=110,12=2,17=6,18=5,40=1/2;
 3/5=1,6=6,7=1,11=2,25=1,30=1,71=1,74=-40/1,2,3;
 4//1;
 5/5=2,38=5/2;
 6/7=2,8=2,9=2,10=2,28=1,79=1/1;
 7//1,2,3,16;
 1/18=20,19=15,26=3/3(2);
 2/9=110/2;
 99//99;
 2/9=110/2;
 3/5=1,6=6,7=1,11=2,25=1,30=1,71=1,74=-40/1,2,3;
 4/5=5,16=3,69=1/1;
 5/5=2,38=5/2;
 7//1,2,3,16;
 1/18=20,19=15,26=3/3(-5);
 2/9=110/2;
 6/7=2,8=2,9=2,10=2,19=2,28=1,79=1/1;
 99/9=1/99;
 Leave Link    1 at Tue Jun 27 20:51:26 2023, MaxMem=   262144000 cpu:               0.6 elap:               0.1
 (Enter /dragofs/sw/campus/0.2/software/gaussian/16.gaussian/gaussian/g16_legacy/l101.exe)
 ----------------------------------------------------
 Conformer number 00065. Energy MM = 148.772 kcal/mol
 ----------------------------------------------------
 Symbolic Z-matrix:
 Charge =  0 Multiplicity = 1
 C                    -5.2619   -1.6504    0.7682 
 H                    -5.6992   -1.3542    1.7221 
 H                    -5.6601   -1.0919   -0.1092 
 H                    -5.5432   -2.7153    0.5906 
 C                    -3.7486   -1.6025    0.7771 
 H                    -3.4043   -1.9638    1.7682 
 H                    -3.3959   -2.2943   -0.0151 
 O                    -3.2563   -0.3422    0.5154 
 C                    -3.6338    0.6178    1.3979 
 H                    -3.2902    0.4123    2.4404 
 H                    -4.7358    0.764     1.4641 
 C                    -3.0559    1.9523    1.0259 
 H                    -3.3695    2.7425    1.7894 
 H                    -1.9336    1.8317    1.1172 
 O                    -3.4478    2.3776   -0.1796 
 C                    -3.1462    1.7131   -1.3264 
 H                    -3.6139    2.3229   -2.1589 
 H                    -3.6365    0.7408   -1.3913 
 C                    -1.6574    1.56     -1.5884 
 H                    -1.1632    1.2326   -0.661 
 H                    -1.2962    2.6285   -1.7198 
 O                    -1.3613    0.9104   -2.7313 
 C                    -1.7251   -0.3517   -2.959 
 H                    -1.5029   -0.5585   -4.0612 
 H                    -2.857    -0.5116   -2.9494 
 C                    -1.1599   -1.4639   -2.1559 
 H                    -1.5901   -2.4638   -2.4623 
 H                    -1.3463   -1.401    -1.0797 
 S                     0.6327   -1.5949   -2.3671 
 C                     1.4329   -0.1903   -1.5675 
 H                     2.5411   -0.2012   -1.7983 
 H                     1.083     0.7883   -1.8842 
 C                     1.2411   -0.4048   -0.0582 
 H                     0.1523   -0.5338    0.0959 
 H                     1.7019    0.3985    0.5228 
 S                     2.0909   -2.0014    0.2865 
 C                     3.8584   -1.7298    0.0009 
 H                     4.0577   -1.272    -0.9858 
 H                     4.4356   -2.6745    0.0442 
 C                     4.3358   -0.7491    1.0626 
 H                     3.8049    0.2024    1.0096 
 H                     4.2002   -1.1534    2.0849 
 S                     6.1046   -0.4018    0.8671 
 C                     6.5774    0.7549    2.1738 
 H                     6.2672    0.3334    3.1572 
 H                     7.6761    0.8834    2.1299 
 C                     5.8592    2.0666    1.9141 
 H                     6.0182    2.3372    0.8557 
 H                     4.7803    1.9354    2.0955 
 H                     6.2845    2.8226    2.613 
 
 ITRead=  0  0  0  0  0  0  0  0  0  0  0  0  0  0  0  0  0  0  0  0
 ITRead=  0  0  0  0  0  0  0  0  0  0  0  0  0  0  0  0  0  0  0  0
 ITRead=  0  0  0  0  0  0  0  0  0  0
 MicOpt= -1 -1 -1 -1 -1 -1 -1 -1 -1 -1 -1 -1 -1 -1 -1 -1 -1 -1 -1 -1
 MicOpt= -1 -1 -1 -1 -1 -1 -1 -1 -1 -1 -1 -1 -1 -1 -1 -1 -1 -1 -1 -1
 MicOpt= -1 -1 -1 -1 -1 -1 -1 -1 -1 -1
 NAtoms=     50 NQM=       50 NQMF=       0 NMMI=      0 NMMIF=      0
                NMic=       0 NMicF=      0.
                    Isotopes and Nuclear Properties:
 (Nuclear quadrupole moments (NQMom) in fm**2, nuclear magnetic moments (NMagM)
  in nuclear magnetons)

  Atom         1           2           3           4           5           6           7           8           9          10
 IAtWgt=          12           1           1           1          12           1           1          16          12           1
 AtmWgt=  12.0000000   1.0078250   1.0078250   1.0078250  12.0000000   1.0078250   1.0078250  15.9949146  12.0000000   1.0078250
 NucSpn=           0           1           1           1           0           1           1           0           0           1
 AtZEff=  -0.0000000  -0.0000000  -0.0000000  -0.0000000  -0.0000000  -0.0000000  -0.0000000  -0.0000000  -0.0000000  -0.0000000
 NQMom=    0.0000000   0.0000000   0.0000000   0.0000000   0.0000000   0.0000000   0.0000000   0.0000000   0.0000000   0.0000000
 NMagM=    0.0000000   2.7928460   2.7928460   2.7928460   0.0000000   2.7928460   2.7928460   0.0000000   0.0000000   2.7928460
 AtZNuc=   6.0000000   1.0000000   1.0000000   1.0000000   6.0000000   1.0000000   1.0000000   8.0000000   6.0000000   1.0000000

  Atom        11          12          13          14          15          16          17          18          19          20
 IAtWgt=           1          12           1           1          16          12           1           1          12           1
 AtmWgt=   1.0078250  12.0000000   1.0078250   1.0078250  15.9949146  12.0000000   1.0078250   1.0078250  12.0000000   1.0078250
 NucSpn=           1           0           1           1           0           0           1           1           0           1
 AtZEff=  -0.0000000  -0.0000000  -0.0000000  -0.0000000  -0.0000000  -0.0000000  -0.0000000  -0.0000000  -0.0000000  -0.0000000
 NQMom=    0.0000000   0.0000000   0.0000000   0.0000000   0.0000000   0.0000000   0.0000000   0.0000000   0.0000000   0.0000000
 NMagM=    2.7928460   0.0000000   2.7928460   2.7928460   0.0000000   0.0000000   2.7928460   2.7928460   0.0000000   2.7928460
 AtZNuc=   1.0000000   6.0000000   1.0000000   1.0000000   8.0000000   6.0000000   1.0000000   1.0000000   6.0000000   1.0000000

  Atom        21          22          23          24          25          26          27          28          29          30
 IAtWgt=           1          16          12           1           1          12           1           1          32          12
 AtmWgt=   1.0078250  15.9949146  12.0000000   1.0078250   1.0078250  12.0000000   1.0078250   1.0078250  31.9720718  12.0000000
 NucSpn=           1           0           0           1           1           0           1           1           0           0
 AtZEff=  -0.0000000  -0.0000000  -0.0000000  -0.0000000  -0.0000000  -0.0000000  -0.0000000  -0.0000000  -0.0000000  -0.0000000
 NQMom=    0.0000000   0.0000000   0.0000000   0.0000000   0.0000000   0.0000000   0.0000000   0.0000000   0.0000000   0.0000000
 NMagM=    2.7928460   0.0000000   0.0000000   2.7928460   2.7928460   0.0000000   2.7928460   2.7928460   0.0000000   0.0000000
 AtZNuc=   1.0000000   8.0000000   6.0000000   1.0000000   1.0000000   6.0000000   1.0000000   1.0000000  16.0000000   6.0000000

  Atom        31          32          33          34          35          36          37          38          39          40
 IAtWgt=           1           1          12           1           1          32          12           1           1          12
 AtmWgt=   1.0078250   1.0078250  12.0000000   1.0078250   1.0078250  31.9720718  12.0000000   1.0078250   1.0078250  12.0000000
 NucSpn=           1           1           0           1           1           0           0           1           1           0
 AtZEff=  -0.0000000  -0.0000000  -0.0000000  -0.0000000  -0.0000000  -0.0000000  -0.0000000  -0.0000000  -0.0000000  -0.0000000
 NQMom=    0.0000000   0.0000000   0.0000000   0.0000000   0.0000000   0.0000000   0.0000000   0.0000000   0.0000000   0.0000000
 NMagM=    2.7928460   2.7928460   0.0000000   2.7928460   2.7928460   0.0000000   0.0000000   2.7928460   2.7928460   0.0000000
 AtZNuc=   1.0000000   1.0000000   6.0000000   1.0000000   1.0000000  16.0000000   6.0000000   1.0000000   1.0000000   6.0000000

  Atom        41          42          43          44          45          46          47          48          49          50
 IAtWgt=           1           1          32          12           1           1          12           1           1           1
 AtmWgt=   1.0078250   1.0078250  31.9720718  12.0000000   1.0078250   1.0078250  12.0000000   1.0078250   1.0078250   1.0078250
 NucSpn=           1           1           0           0           1           1           0           1           1           1
 AtZEff=  -0.0000000  -0.0000000  -0.0000000  -0.0000000  -0.0000000  -0.0000000  -0.0000000  -0.0000000  -0.0000000  -0.0000000
 NQMom=    0.0000000   0.0000000   0.0000000   0.0000000   0.0000000   0.0000000   0.0000000   0.0000000   0.0000000   0.0000000
 NMagM=    2.7928460   2.7928460   0.0000000   0.0000000   2.7928460   2.7928460   0.0000000   2.7928460   2.7928460   2.7928460
 AtZNuc=   1.0000000   1.0000000  16.0000000   6.0000000   1.0000000   1.0000000   6.0000000   1.0000000   1.0000000   1.0000000
 Leave Link  101 at Tue Jun 27 20:51:26 2023, MaxMem=   262144000 cpu:               1.3 elap:               0.2
 (Enter /dragofs/sw/campus/0.2/software/gaussian/16.gaussian/gaussian/g16_legacy/l103.exe)

 GradGradGradGradGradGradGradGradGradGradGradGradGradGradGradGradGradGrad
 Berny optimization.
 Initialization pass.
                           ----------------------------
                           !    Initial Parameters    !
                           ! (Angstroms and Degrees)  !
 --------------------------                            --------------------------
 ! Name  Definition              Value          Derivative Info.                !
 --------------------------------------------------------------------------------
 ! R1    R(1,2)                  1.0904         estimate D2E/DX2                !
 ! R2    R(1,3)                  1.1137         estimate D2E/DX2                !
 ! R3    R(1,4)                  1.1157         estimate D2E/DX2                !
 ! R4    R(1,5)                  1.5141         estimate D2E/DX2                !
 ! R5    R(5,6)                  1.1097         estimate D2E/DX2                !
 ! R6    R(5,7)                  1.1093         estimate D2E/DX2                !
 ! R7    R(5,8)                  1.3781         estimate D2E/DX2                !
 ! R8    R(8,9)                  1.3575         estimate D2E/DX2                !
 ! R9    R(9,10)                 1.1167         estimate D2E/DX2                !
 ! R10   R(9,11)                 1.1136         estimate D2E/DX2                !
 ! R11   R(9,12)                 1.5011         estimate D2E/DX2                !
 ! R12   R(12,13)                1.1427         estimate D2E/DX2                !
 ! R13   R(12,14)                1.1324         estimate D2E/DX2                !
 ! R14   R(12,15)                1.337          estimate D2E/DX2                !
 ! R15   R(15,16)                1.3593         estimate D2E/DX2                !
 ! R16   R(16,17)                1.133          estimate D2E/DX2                !
 ! R17   R(16,18)                1.0909         estimate D2E/DX2                !
 ! R18   R(16,19)                1.5194         estimate D2E/DX2                !
 ! R19   R(19,20)                1.1007         estimate D2E/DX2                !
 ! R20   R(19,21)                1.1355         estimate D2E/DX2                !
 ! R21   R(19,22)                1.3475         estimate D2E/DX2                !
 ! R22   R(22,23)                1.3331         estimate D2E/DX2                !
 ! R23   R(23,24)                1.1432         estimate D2E/DX2                !
 ! R24   R(23,25)                1.1432         estimate D2E/DX2                !
 ! R25   R(23,26)                1.4837         estimate D2E/DX2                !
 ! R26   R(26,27)                1.1308         estimate D2E/DX2                !
 ! R27   R(26,28)                1.094          estimate D2E/DX2                !
 ! R28   R(26,29)                1.8097         estimate D2E/DX2                !
 ! R29   R(29,30)                1.8035         estimate D2E/DX2                !
 ! R30   R(30,31)                1.132          estimate D2E/DX2                !
 ! R31   R(30,32)                1.0865         estimate D2E/DX2                !
 ! R32   R(30,33)                1.5365         estimate D2E/DX2                !
 ! R33   R(33,34)                1.1072         estimate D2E/DX2                !
 ! R34   R(33,35)                1.0932         estimate D2E/DX2                !
 ! R35   R(33,36)                1.8412         estimate D2E/DX2                !
 ! R36   R(36,37)                1.8109         estimate D2E/DX2                !
 ! R37   R(37,38)                1.1058         estimate D2E/DX2                !
 ! R38   R(37,39)                1.1079         estimate D2E/DX2                !
 ! R39   R(37,40)                1.5221         estimate D2E/DX2                !
 ! R40   R(40,41)                1.0909         estimate D2E/DX2                !
 ! R41   R(40,42)                1.1077         estimate D2E/DX2                !
 ! R42   R(40,43)                1.8131         estimate D2E/DX2                !
 ! R43   R(43,44)                1.808          estimate D2E/DX2                !
 ! R44   R(44,45)                1.114          estimate D2E/DX2                !
 ! R45   R(44,46)                1.1071         estimate D2E/DX2                !
 ! R46   R(44,47)                1.5178         estimate D2E/DX2                !
 ! R47   R(47,48)                1.104          estimate D2E/DX2                !
 ! R48   R(47,49)                1.1019         estimate D2E/DX2                !
 ! R49   R(47,50)                1.1139         estimate D2E/DX2                !
 ! A1    A(2,1,3)              114.1798         estimate D2E/DX2                !
 ! A2    A(2,1,4)              107.3038         estimate D2E/DX2                !
 ! A3    A(2,1,5)              112.7751         estimate D2E/DX2                !
 ! A4    A(3,1,4)              105.2543         estimate D2E/DX2                !
 ! A5    A(3,1,5)              110.2507         estimate D2E/DX2                !
 ! A6    A(4,1,5)              106.4478         estimate D2E/DX2                !
 ! A7    A(1,5,6)              107.7619         estimate D2E/DX2                !
 ! A8    A(1,5,7)              107.0888         estimate D2E/DX2                !
 ! A9    A(1,5,8)              112.6349         estimate D2E/DX2                !
 ! A10   A(6,5,7)              109.6415         estimate D2E/DX2                !
 ! A11   A(6,5,8)              110.8871         estimate D2E/DX2                !
 ! A12   A(7,5,8)              108.731          estimate D2E/DX2                !
 ! A13   A(5,8,9)              115.0825         estimate D2E/DX2                !
 ! A14   A(8,9,10)             113.0273         estimate D2E/DX2                !
 ! A15   A(8,9,11)             113.9949         estimate D2E/DX2                !
 ! A16   A(8,9,12)             111.1326         estimate D2E/DX2                !
 ! A17   A(10,9,11)            105.8509         estimate D2E/DX2                !
 ! A18   A(10,9,12)            106.0508         estimate D2E/DX2                !
 ! A19   A(11,9,12)            106.1998         estimate D2E/DX2                !
 ! A20   A(9,12,13)            110.0933         estimate D2E/DX2                !
 ! A21   A(9,12,14)            105.4789         estimate D2E/DX2                !
 ! A22   A(9,12,15)            113.1653         estimate D2E/DX2                !
 ! A23   A(13,12,14)           106.9635         estimate D2E/DX2                !
 ! A24   A(13,12,15)           107.579          estimate D2E/DX2                !
 ! A25   A(14,12,15)           113.3937         estimate D2E/DX2                !
 ! A26   A(12,15,16)           122.6927         estimate D2E/DX2                !
 ! A27   A(15,16,17)           105.3795         estimate D2E/DX2                !
 ! A28   A(15,16,18)           112.7179         estimate D2E/DX2                !
 ! A29   A(15,16,19)           114.3399         estimate D2E/DX2                !
 ! A30   A(17,16,18)           104.5055         estimate D2E/DX2                !
 ! A31   A(17,16,19)           109.3912         estimate D2E/DX2                !
 ! A32   A(18,16,19)           109.8974         estimate D2E/DX2                !
 ! A33   A(16,19,20)           108.9433         estimate D2E/DX2                !
 ! A34   A(16,19,21)           103.6989         estimate D2E/DX2                !
 ! A35   A(16,19,22)           114.2129         estimate D2E/DX2                !
 ! A36   A(20,19,21)           103.5665         estimate D2E/DX2                !
 ! A37   A(20,19,22)           118.2009         estimate D2E/DX2                !
 ! A38   A(21,19,22)           106.5928         estimate D2E/DX2                !
 ! A39   A(19,22,23)           122.7721         estimate D2E/DX2                !
 ! A40   A(22,23,24)           106.433          estimate D2E/DX2                !
 ! A41   A(22,23,25)           113.6533         estimate D2E/DX2                !
 ! A42   A(22,23,26)           120.8826         estimate D2E/DX2                !
 ! A43   A(24,23,25)           100.0925         estimate D2E/DX2                !
 ! A44   A(24,23,26)           108.1927         estimate D2E/DX2                !
 ! A45   A(25,23,26)           105.5323         estimate D2E/DX2                !
 ! A46   A(23,26,27)           111.792          estimate D2E/DX2                !
 ! A47   A(23,26,28)           115.116          estimate D2E/DX2                !
 ! A48   A(23,26,29)           111.6182         estimate D2E/DX2                !
 ! A49   A(27,26,28)           104.6289         estimate D2E/DX2                !
 ! A50   A(27,26,29)           106.3319         estimate D2E/DX2                !
 ! A51   A(28,26,29)           106.7218         estimate D2E/DX2                !
 ! A52   A(26,29,30)           109.3522         estimate D2E/DX2                !
 ! A53   A(29,30,31)           109.6615         estimate D2E/DX2                !
 ! A54   A(29,30,32)           115.4277         estimate D2E/DX2                !
 ! A55   A(29,30,33)           105.7478         estimate D2E/DX2                !
 ! A56   A(31,30,32)           105.3383         estimate D2E/DX2                !
 ! A57   A(31,30,33)           108.7314         estimate D2E/DX2                !
 ! A58   A(32,30,33)           111.8318         estimate D2E/DX2                !
 ! A59   A(30,33,34)           106.0062         estimate D2E/DX2                !
 ! A60   A(30,33,35)           111.5213         estimate D2E/DX2                !
 ! A61   A(30,33,36)           104.3203         estimate D2E/DX2                !
 ! A62   A(34,33,35)           115.2228         estimate D2E/DX2                !
 ! A63   A(34,33,36)           109.0738         estimate D2E/DX2                !
 ! A64   A(35,33,36)           110.0677         estimate D2E/DX2                !
 ! A65   A(33,36,37)           106.9117         estimate D2E/DX2                !
 ! A66   A(36,37,38)           112.2541         estimate D2E/DX2                !
 ! A67   A(36,37,39)           111.9896         estimate D2E/DX2                !
 ! A68   A(36,37,40)           107.0225         estimate D2E/DX2                !
 ! A69   A(38,37,39)           107.096          estimate D2E/DX2                !
 ! A70   A(38,37,40)           107.4041         estimate D2E/DX2                !
 ! A71   A(39,37,40)           111.0213         estimate D2E/DX2                !
 ! A72   A(37,40,41)           112.0519         estimate D2E/DX2                !
 ! A73   A(37,40,42)           111.7271         estimate D2E/DX2                !
 ! A74   A(37,40,43)           110.7427         estimate D2E/DX2                !
 ! A75   A(41,40,42)           107.6755         estimate D2E/DX2                !
 ! A76   A(41,40,43)           107.6053         estimate D2E/DX2                !
 ! A77   A(42,40,43)           106.7892         estimate D2E/DX2                !
 ! A78   A(40,43,44)           107.4409         estimate D2E/DX2                !
 ! A79   A(43,44,45)           108.8516         estimate D2E/DX2                !
 ! A80   A(43,44,46)           107.7657         estimate D2E/DX2                !
 ! A81   A(43,44,47)           107.7872         estimate D2E/DX2                !
 ! A82   A(45,44,46)           110.8107         estimate D2E/DX2                !
 ! A83   A(45,44,47)           110.2592         estimate D2E/DX2                !
 ! A84   A(46,44,47)           111.2543         estimate D2E/DX2                !
 ! A85   A(44,47,48)           107.9218         estimate D2E/DX2                !
 ! A86   A(44,47,49)           109.4048         estimate D2E/DX2                !
 ! A87   A(44,47,50)           107.3672         estimate D2E/DX2                !
 ! A88   A(48,47,49)           109.1501         estimate D2E/DX2                !
 ! A89   A(48,47,50)           112.3445         estimate D2E/DX2                !
 ! A90   A(49,47,50)           110.57           estimate D2E/DX2                !
 ! D1    D(2,1,5,6)             38.5644         estimate D2E/DX2                !
 ! D2    D(2,1,5,7)            156.452          estimate D2E/DX2                !
 ! D3    D(2,1,5,8)            -84.0638         estimate D2E/DX2                !
 ! D4    D(3,1,5,6)            167.4968         estimate D2E/DX2                !
 ! D5    D(3,1,5,7)            -74.6155         estimate D2E/DX2                !
 ! D6    D(3,1,5,8)             44.8687         estimate D2E/DX2                !
 ! D7    D(4,1,5,6)            -78.8423         estimate D2E/DX2                !
 ! D8    D(4,1,5,7)             39.0454         estimate D2E/DX2                !
 ! D9    D(4,1,5,8)            158.5296         estimate D2E/DX2                !
 ! D10   D(1,5,8,9)             60.2434         estimate D2E/DX2                !
 ! D11   D(6,5,8,9)            -60.6129         estimate D2E/DX2                !
 ! D12   D(7,5,8,9)            178.7703         estimate D2E/DX2                !
 ! D13   D(5,8,9,10)            61.2065         estimate D2E/DX2                !
 ! D14   D(5,8,9,11)           -59.7275         estimate D2E/DX2                !
 ! D15   D(5,8,9,12)          -179.6909         estimate D2E/DX2                !
 ! D16   D(8,9,12,13)         -179.0208         estimate D2E/DX2                !
 ! D17   D(8,9,12,14)          -63.9544         estimate D2E/DX2                !
 ! D18   D(8,9,12,15)           60.56           estimate D2E/DX2                !
 ! D19   D(10,9,12,13)         -55.819          estimate D2E/DX2                !
 ! D20   D(10,9,12,14)          59.2474         estimate D2E/DX2                !
 ! D21   D(10,9,12,15)        -176.2383         estimate D2E/DX2                !
 ! D22   D(11,9,12,13)          56.4869         estimate D2E/DX2                !
 ! D23   D(11,9,12,14)         171.5533         estimate D2E/DX2                !
 ! D24   D(11,9,12,15)         -63.9323         estimate D2E/DX2                !
 ! D25   D(9,12,15,16)         -62.8902         estimate D2E/DX2                !
 ! D26   D(13,12,15,16)        175.2702         estimate D2E/DX2                !
 ! D27   D(14,12,15,16)         57.202          estimate D2E/DX2                !
 ! D28   D(12,15,16,17)       -179.8965         estimate D2E/DX2                !
 ! D29   D(12,15,16,18)         66.7262         estimate D2E/DX2                !
 ! D30   D(12,15,16,19)        -59.7398         estimate D2E/DX2                !
 ! D31   D(15,16,19,20)         45.9093         estimate D2E/DX2                !
 ! D32   D(15,16,19,21)        -63.9024         estimate D2E/DX2                !
 ! D33   D(15,16,19,22)       -179.4902         estimate D2E/DX2                !
 ! D34   D(17,16,19,20)        163.8015         estimate D2E/DX2                !
 ! D35   D(17,16,19,21)         53.9899         estimate D2E/DX2                !
 ! D36   D(17,16,19,22)        -61.598          estimate D2E/DX2                !
 ! D37   D(18,16,19,20)        -82.0067         estimate D2E/DX2                !
 ! D38   D(18,16,19,21)        168.1817         estimate D2E/DX2                !
 ! D39   D(18,16,19,22)         52.5938         estimate D2E/DX2                !
 ! D40   D(16,19,22,23)        -61.6155         estimate D2E/DX2                !
 ! D41   D(20,19,22,23)         68.5516         estimate D2E/DX2                !
 ! D42   D(21,19,22,23)       -175.503          estimate D2E/DX2                !
 ! D43   D(19,22,23,24)        170.0985         estimate D2E/DX2                !
 ! D44   D(19,22,23,25)         60.9121         estimate D2E/DX2                !
 ! D45   D(19,22,23,26)        -66.1438         estimate D2E/DX2                !
 ! D46   D(22,23,26,27)        178.7463         estimate D2E/DX2                !
 ! D47   D(22,23,26,28)         59.549          estimate D2E/DX2                !
 ! D48   D(22,23,26,29)        -62.2936         estimate D2E/DX2                !
 ! D49   D(24,23,26,27)        -58.3297         estimate D2E/DX2                !
 ! D50   D(24,23,26,28)       -177.527          estimate D2E/DX2                !
 ! D51   D(24,23,26,29)         60.6304         estimate D2E/DX2                !
 ! D52   D(25,23,26,27)         48.0971         estimate D2E/DX2                !
 ! D53   D(25,23,26,28)        -71.1002         estimate D2E/DX2                !
 ! D54   D(25,23,26,29)        167.0572         estimate D2E/DX2                !
 ! D55   D(23,26,29,30)         70.2156         estimate D2E/DX2                !
 ! D56   D(27,26,29,30)       -167.6272         estimate D2E/DX2                !
 ! D57   D(28,26,29,30)        -56.3531         estimate D2E/DX2                !
 ! D58   D(26,29,30,31)       -173.4374         estimate D2E/DX2                !
 ! D59   D(26,29,30,32)        -54.6937         estimate D2E/DX2                !
 ! D60   D(26,29,30,33)         69.4934         estimate D2E/DX2                !
 ! D61   D(29,30,33,34)        -54.2747         estimate D2E/DX2                !
 ! D62   D(29,30,33,35)        179.5916         estimate D2E/DX2                !
 ! D63   D(29,30,33,36)         60.8187         estimate D2E/DX2                !
 ! D64   D(31,30,33,34)       -171.9691         estimate D2E/DX2                !
 ! D65   D(31,30,33,35)         61.8972         estimate D2E/DX2                !
 ! D66   D(31,30,33,36)        -56.8756         estimate D2E/DX2                !
 ! D67   D(32,30,33,34)         72.1349         estimate D2E/DX2                !
 ! D68   D(32,30,33,35)        -53.9988         estimate D2E/DX2                !
 ! D69   D(32,30,33,36)       -172.7716         estimate D2E/DX2                !
 ! D70   D(30,33,36,37)         66.5002         estimate D2E/DX2                !
 ! D71   D(34,33,36,37)        179.4162         estimate D2E/DX2                !
 ! D72   D(35,33,36,37)        -53.2578         estimate D2E/DX2                !
 ! D73   D(33,36,37,38)        -51.3525         estimate D2E/DX2                !
 ! D74   D(33,36,37,39)       -171.8694         estimate D2E/DX2                !
 ! D75   D(33,36,37,40)         66.2456         estimate D2E/DX2                !
 ! D76   D(36,37,40,41)        -59.752          estimate D2E/DX2                !
 ! D77   D(36,37,40,42)         61.1831         estimate D2E/DX2                !
 ! D78   D(36,37,40,43)       -179.9084         estimate D2E/DX2                !
 ! D79   D(38,37,40,41)         60.9809         estimate D2E/DX2                !
 ! D80   D(38,37,40,42)       -178.084          estimate D2E/DX2                !
 ! D81   D(38,37,40,43)        -59.1755         estimate D2E/DX2                !
 ! D82   D(39,37,40,41)        177.7568         estimate D2E/DX2                !
 ! D83   D(39,37,40,42)        -61.3081         estimate D2E/DX2                !
 ! D84   D(39,37,40,43)         57.6004         estimate D2E/DX2                !
 ! D85   D(37,40,43,44)       -179.5515         estimate D2E/DX2                !
 ! D86   D(41,40,43,44)         57.6714         estimate D2E/DX2                !
 ! D87   D(42,40,43,44)        -57.699          estimate D2E/DX2                !
 ! D88   D(40,43,44,45)         53.5696         estimate D2E/DX2                !
 ! D89   D(40,43,44,46)        173.8091         estimate D2E/DX2                !
 ! D90   D(40,43,44,47)        -66.0212         estimate D2E/DX2                !
 ! D91   D(43,44,47,48)        -49.1644         estimate D2E/DX2                !
 ! D92   D(43,44,47,49)         69.4856         estimate D2E/DX2                !
 ! D93   D(43,44,47,50)       -170.4831         estimate D2E/DX2                !
 ! D94   D(45,44,47,48)       -167.8585         estimate D2E/DX2                !
 ! D95   D(45,44,47,49)        -49.2084         estimate D2E/DX2                !
 ! D96   D(45,44,47,50)         70.8229         estimate D2E/DX2                !
 ! D97   D(46,44,47,48)         68.7801         estimate D2E/DX2                !
 ! D98   D(46,44,47,49)       -172.5698         estimate D2E/DX2                !
 ! D99   D(46,44,47,50)        -52.5385         estimate D2E/DX2                !
 --------------------------------------------------------------------------------
 Trust Radius=3.00D-01 FncErr=1.00D-07 GrdErr=1.00D-06 EigMax=2.50D+02 EigMin=1.00D-04
 Number of steps in this run=    248 maximum allowed number of steps=    300.
 GradGradGradGradGradGradGradGradGradGradGradGradGradGradGradGradGradGrad

 Leave Link  103 at Tue Jun 27 20:51:26 2023, MaxMem=   262144000 cpu:               0.3 elap:               0.1
 (Enter /dragofs/sw/campus/0.2/software/gaussian/16.gaussian/gaussian/g16_legacy/l202.exe)
                          Input orientation:                          
 ---------------------------------------------------------------------
 Center     Atomic      Atomic             Coordinates (Angstroms)
 Number     Number       Type             X           Y           Z
 ---------------------------------------------------------------------
      1          6           0       -5.261900   -1.650400    0.768200
      2          1           0       -5.699200   -1.354200    1.722100
      3          1           0       -5.660100   -1.091900   -0.109200
      4          1           0       -5.543200   -2.715300    0.590600
      5          6           0       -3.748600   -1.602500    0.777100
      6          1           0       -3.404300   -1.963800    1.768200
      7          1           0       -3.395900   -2.294300   -0.015100
      8          8           0       -3.256300   -0.342200    0.515400
      9          6           0       -3.633800    0.617800    1.397900
     10          1           0       -3.290200    0.412300    2.440400
     11          1           0       -4.735800    0.764000    1.464100
     12          6           0       -3.055900    1.952300    1.025900
     13          1           0       -3.369500    2.742500    1.789400
     14          1           0       -1.933600    1.831700    1.117200
     15          8           0       -3.447800    2.377600   -0.179600
     16          6           0       -3.146200    1.713100   -1.326400
     17          1           0       -3.613900    2.322900   -2.158900
     18          1           0       -3.636500    0.740800   -1.391300
     19          6           0       -1.657400    1.560000   -1.588400
     20          1           0       -1.163200    1.232600   -0.661000
     21          1           0       -1.296200    2.628500   -1.719800
     22          8           0       -1.361300    0.910400   -2.731300
     23          6           0       -1.725100   -0.351700   -2.959000
     24          1           0       -1.502900   -0.558500   -4.061200
     25          1           0       -2.857000   -0.511600   -2.949400
     26          6           0       -1.159900   -1.463900   -2.155900
     27          1           0       -1.590100   -2.463800   -2.462300
     28          1           0       -1.346300   -1.401000   -1.079700
     29         16           0        0.632700   -1.594900   -2.367100
     30          6           0        1.432900   -0.190300   -1.567500
     31          1           0        2.541100   -0.201200   -1.798300
     32          1           0        1.083000    0.788300   -1.884200
     33          6           0        1.241100   -0.404800   -0.058200
     34          1           0        0.152300   -0.533800    0.095900
     35          1           0        1.701900    0.398500    0.522800
     36         16           0        2.090900   -2.001400    0.286500
     37          6           0        3.858400   -1.729800    0.000900
     38          1           0        4.057700   -1.272000   -0.985800
     39          1           0        4.435600   -2.674500    0.044200
     40          6           0        4.335800   -0.749100    1.062600
     41          1           0        3.804900    0.202400    1.009600
     42          1           0        4.200200   -1.153400    2.084900
     43         16           0        6.104600   -0.401800    0.867100
     44          6           0        6.577400    0.754900    2.173800
     45          1           0        6.267200    0.333400    3.157200
     46          1           0        7.676100    0.883400    2.129900
     47          6           0        5.859200    2.066600    1.914100
     48          1           0        6.018200    2.337200    0.855700
     49          1           0        4.780300    1.935400    2.095500
     50          1           0        6.284500    2.822600    2.613000
 ---------------------------------------------------------------------
                    Distance matrix (angstroms):
                    1          2          3          4          5
     1  C    0.000000
     2  H    1.090363   0.000000
     3  H    1.113695   1.850403   0.000000
     4  H    1.115654   1.776857   1.771670   0.000000
     5  C    1.514084   2.181632   2.167965   2.119834   0.000000
     6  H    2.132814   2.374932   3.061613   2.554679   1.109666
     7  H    2.123705   3.034278   2.565389   2.270465   1.109309
     8  O    2.407847   2.906549   2.594307   3.296539   1.378115
     9  C    2.862161   2.873981   3.049642   3.925188   2.308312
    10  H    3.307353   3.072419   3.792032   4.275471   2.652568
    11  H    2.567175   2.341255   2.602685   3.677013   2.654591
    12  C    4.232292   4.290067   4.163828   5.306848   3.630198
    13  H    4.890971   4.713277   4.853262   5.995805   4.477443
    14  H    4.829534   4.969467   4.892678   5.829385   3.899182
    15  O    4.518193   4.755165   4.115417   5.560714   4.104504
    16  C    4.491845   5.021901   3.958446   5.388063   3.972506
    17  H    5.202973   5.738615   4.477618   6.055197   4.903775
    18  H    3.608767   4.282174   3.016211   4.416793   3.194617
    19  C    5.371466   5.982317   5.024163   6.174599   4.468793
    20  H    5.210916   5.739860   5.092140   6.028003   4.097587
    21  H    6.342390   6.862579   5.956428   7.206327   5.490914
    22  O    5.832570   6.616537   5.418883   6.455154   4.931809
    23  C    5.299773   6.221830   4.914619   5.723998   4.429164
    24  H    6.216545   7.189481   5.760654   6.528021   5.435278
    25  H    4.571757   5.532720   4.032475   4.960198   3.983945
    26  C    5.040987   5.971278   4.957738   5.321897   3.914469
    27  H    4.957808   5.968678   4.897355   5.001045   3.986812
    28  H    4.336918   5.176873   4.432413   4.704387   3.042919
    29  S    6.676788   7.541383   6.704510   6.938662   5.392758
    30  C    7.239319   7.939961   7.297271   7.726512   5.859983
    31  H    8.341098   9.034665   8.420575   8.796786   6.939499
    32  H    7.296591   7.974581   7.221854   7.893439   6.011888
    33  C    6.672591   7.227627   6.935508   7.196254   5.198973
    34  H    5.568873   6.128428   5.842734   6.119019   4.101606
    35  H    7.263107   7.699777   7.537888   7.886179   5.811766
    36  S    7.376917   7.947671   7.814203   7.673436   5.873633
    37  C    9.152864   9.718607   9.540486   9.471486   7.647558
    38  H    9.490766  10.126035   9.758919   9.835926   8.009705
    39  H    9.778265  10.357254  10.220143   9.993831   8.286583
    40  C    9.644421  10.074836  10.070186  10.083817   8.134330
    41  H    9.257322   9.657048   9.618376   9.801811   7.769626
    42  H    9.566193   9.908081  10.101652   9.980296   8.068175
    43  S   11.435301  11.872986  11.825293  11.878551   9.926496
    44  C   12.162656  12.464640  12.584878  12.706603  10.683369
    45  H   11.939972  12.169726  12.448347  12.464652  10.475153
    46  H   13.253913  13.567306  13.666368  13.786587  11.770027
    47  C   11.781682  12.055511  12.114625  12.435150  10.347216
    48  H   11.964500  12.315622  12.209523  12.619984  10.531752
    49  H   10.745486  10.990033  11.091763  11.422276   9.327221
    50  H   12.519200  12.721966  12.861071  13.215632  11.118234
                    6          7          8          9         10
     6  H    0.000000
     7  H    1.813687   0.000000
     8  O    2.054507   2.027711   0.000000
     9  C    2.618101   3.245534   1.357539   0.000000
    10  H    2.471988   3.656000   2.067860   1.116735   0.000000
    11  H    3.050617   3.651926   2.076687   1.113625   1.779498
    12  C    4.001029   4.385532   2.359131   1.501080   2.104117
    13  H    4.706476   5.350352   3.339351   2.176575   2.420727
    14  H    4.122206   4.521537   2.614869   2.107849   2.367682
    15  O    4.758526   4.675083   2.813718   2.370654   3.278970
    16  C    4.812770   4.223874   2.761993   2.976449   3.987681
    17  H    5.817374   5.095286   3.792429   3.944438   4.990865
    18  H    4.165479   3.341204   2.225521   2.791912   3.861316
    19  C    5.170647   4.511461   3.255890   3.702956   4.496052
    20  H    4.597882   4.223880   2.871407   3.274280   3.849117
    21  H    6.139988   5.616823   4.202757   4.384899   5.118090
    22  O    5.716675   4.667702   3.962460   4.722305   5.542133
    23  C    5.269250   3.902796   3.796856   4.854446   5.673337
    24  H    6.290635   4.792429   4.905758   5.977139   6.812319
    25  H    4.966304   3.475421   3.491844   4.558287   5.485544
    26  C    4.548164   3.205041   3.576164   4.804493   5.402248
    27  H    4.630168   3.046052   4.017973   5.345476   5.932854
    28  H    3.558461   2.476332   2.704349   3.930230   4.411112
    29  S    5.790869   4.717063   5.000238   6.105267   6.521507
    30  C    6.137646   5.491272   5.133239   5.926050   6.223670
    31  H    7.153633   6.542846   6.243632   7.001132   7.235124
    32  H    6.407023   5.749478   5.085827   5.748865   6.161852
    33  C    5.229336   5.007378   4.534263   5.189469   5.238639
    34  H    4.182211   3.962500   3.439658   4.166046   4.271135
    35  H    5.762357   5.790343   5.013226   5.411431   5.347751
    36  S    5.691579   5.502884   5.603382   6.392778   6.278652
    37  C    7.478296   7.276248   7.266987   7.974703   7.851257
    38  H    7.984018   7.585744   7.524143   8.271187   8.280540
    39  H    8.058617   7.840948   8.051520   8.819692   8.657834
    40  C    7.866544   7.957906   7.622662   8.092921   7.836010
    41  H    7.565743   7.689931   7.099392   7.460402   7.240973
    42  H    7.654114   7.963190   7.662948   8.061059   7.660541
    43  S    9.678378   9.727247   9.367694   9.806007   9.560350
    44  C   10.353269  10.656248  10.032725  10.241554   9.877144
    45  H   10.037149  10.504466   9.906190  10.060110   9.584567
    46  H   11.446075  11.716996  11.118726  11.336675  10.980805
    47  C   10.103358  10.411347   9.531580   9.616784   9.312638
    48  H   10.397825  10.527790   9.659779   9.818932   9.636536
    49  H    9.071856   9.444323   8.501242   8.545162   8.220204
    50  H   10.839564  11.260538  10.268532  10.232804   9.874929
                   11         12         13         14         15
    11  H    0.000000
    12  C    2.103839   0.000000
    13  H    2.426326   1.142669   0.000000
    14  H    3.018716   1.132447   1.828447   0.000000
    15  O    2.639015   1.337047   2.004057   2.067002   0.000000
    16  C    3.348807   2.366154   3.289033   2.730503   1.359291
    17  H    4.100605   3.254483   3.978048   3.714501   1.987010
    18  H    3.059789   2.765445   3.767618   3.222189   2.045223
    19  C    4.407711   2.990697   3.967257   2.733199   2.420479
    20  H    4.183193   2.635510   3.626571   2.028406   2.600417
    21  H    5.044247   3.330564   4.077506   3.014919   2.657922
    22  O    5.386099   4.251326   5.275053   3.998409   3.607954
    23  C    5.465612   4.791542   5.901307   4.628835   4.259324
    24  H    6.536787   5.881710   6.972110   5.719649   5.241196
    25  H    4.963469   4.681172   5.771313   4.783404   4.045777
    26  C    5.554728   5.038759   6.175883   4.708798   4.888494
    27  H    5.977519   5.815329   6.953328   5.601976   5.665768
    28  H    4.758871   4.312877   5.430807   3.952422   4.416367
    29  S    7.004520   6.140102   7.218527   5.519767   6.100524
    30  C    6.939319   5.609437   6.552338   4.757039   5.686968
    31  H    8.032941   6.628731   7.514796   5.714522   6.718432
    32  H    6.713430   5.191731   6.094177   4.381434   5.095065
    33  C    6.277486   5.019502   5.880200   4.057366   5.453647
    34  H    5.239254   4.163909   5.099525   3.315060   4.638197
    35  H    6.516411   5.030315   5.728674   3.952750   5.561440
    36  S    7.459089   6.532075   7.387778   5.619548   7.076022
    37  C    9.067539   7.900382   8.685778   6.890404   8.383548
    38  H    9.352697   8.065132   8.887139   7.067619   8.384633
    39  H    9.897170   8.859661   9.659669   7.875524   9.365991
    40  C    9.205683   7.869952   8.490651   6.780036   8.479607
    41  H    8.571203   7.080466   7.650635   5.966287   7.664682
    42  H    9.160454   7.963532   8.518551   6.889903   8.722834
    43  S   10.919239   9.459480  10.024761   8.346480  10.003449
    44  C   11.335442   9.775066  10.150820   8.643670  10.424792
    45  H   11.140826   9.699663  10.026995   8.582518  10.473501
    46  H   12.430318  10.841457  11.206135   9.709334  11.458952
    47  C   10.684254   8.959965   9.254258   7.836961   9.544661
    48  H   10.885478   9.083854   9.442721   7.972141   9.522533
    49  H    9.608694   7.908879   8.195386   6.785593   8.548289
    50  H   11.269641   9.514167   9.689399   8.411686  10.134807
                   16         17         18         19         20
    16  C    0.000000
    17  H    1.132985   0.000000
    18  H    1.090859   1.758625   0.000000
    19  C    1.519411   2.176093   2.150994   0.000000
    20  H    2.146142   3.072196   2.625342   1.100679   0.000000
    21  H    2.101243   2.378641   3.024620   1.135528   1.757067
    22  O    2.409137   2.719744   2.645921   1.347544   2.104566
    23  C    2.991372   3.370639   2.702719   2.353237   2.847199
    24  H    3.916597   4.046916   3.656336   3.259855   3.858082
    25  H    2.768945   3.038450   2.145647   2.753704   3.338857
    26  C    3.837550   4.512425   3.402773   3.116654   3.083156
    27  H    4.599805   5.205796   3.950222   4.118155   4.134041
    28  H    3.605291   4.491560   3.151098   3.020444   2.672954
    29  S    5.128938   5.781532   4.963240   3.975465   3.759094
    30  C    4.964798   5.668873   5.157210   3.551611   3.096146
    31  H    6.019353   6.662217   6.262248   4.557772   4.131715
    32  H    4.364920   4.948871   4.745407   2.862309   2.595965
    33  C    5.034107   5.951833   5.184644   3.821420   2.970708
    34  H    4.236933   5.237282   4.265135   3.239734   2.328864
    35  H    5.352736   6.257201   5.681502   4.134144   3.210281
    36  S    6.620134   7.564674   6.567936   5.499870   4.684622
    37  C    7.917052   8.770655   8.013464   6.616095   5.867742
    38  H    7.805319   8.552948   7.963448   6.406693   5.799682
    39  H    8.866412   9.727390   8.881651   7.597435   6.863621
    40  C    8.231043   9.111146   8.473429   6.948251   6.094008
    41  H    7.487116   8.341133   7.837642   6.199145   5.341744
    42  H    8.592053   9.547495   8.779853   7.427459   6.480665
    43  S    9.739689  10.537073  10.064538   8.374174   7.604424
    44  C   10.378726  11.184521  10.818220   9.089239   8.257189
    45  H   10.517525  11.395401  10.905875   9.317969   8.402265
    46  H   11.391075  12.162650  11.848802  10.069646   9.276006
    47  C    9.577214  10.314778  10.141584   8.308034   7.526008
    48  H    9.441255  10.092837  10.040455   8.092744   7.422468
    49  H    8.636447   9.418740   9.188437   7.426710   6.589189
    50  H   10.280465  10.999957  10.899291   9.073020   8.289476
                   21         22         23         24         25
    21  H    0.000000
    22  O    1.994803   0.000000
    23  C    3.255943   1.333077   0.000000
    24  H    3.960031   1.986543   1.143234   0.000000
    25  H    3.715944   2.075276   1.143179   1.752680   0.000000
    26  C    4.117827   2.451315   1.483715   2.137187   2.101587
    27  H    5.154532   3.392630   2.173914   2.488826   2.377685
    28  H    4.080332   2.840876   2.185472   3.102204   2.563011
    29  S    4.687938   3.222609   2.730405   2.916314   3.700084
    30  C    3.926425   3.220796   3.454748   3.869500   4.518420
    31  H    4.768463   4.163516   4.423837   4.647829   5.528188
    32  H    3.012301   2.589805   3.215621   3.638692   4.283456
    33  C    4.289489   3.955717   4.149193   4.855633   5.016460
    34  H    3.923654   3.517067   3.590293   4.474570   4.281382
    35  H    4.357839   4.498267   4.942677   5.674473   5.802415
    36  S    6.077307   5.431701   5.274148   5.822358   6.096906
    37  C    6.966024   6.456070   6.468048   6.827601   7.435380
    38  H    6.664601   6.097147   6.179098   6.394329   7.228209
    39  H    8.005438   7.359277   7.236631   7.523134   8.174460
    40  C    7.132276   7.043051   7.284621   7.770462   8.239473
    41  H    6.273500   6.417571   6.829181   7.380022   7.782313
    42  H    7.680425   7.641030   7.822585   8.405582   8.692534
    43  S    8.405154   8.391068   8.714686   9.065691   9.741047
    44  C    8.981318   9.333121   9.823528  10.290359  10.810139
    45  H    9.287499   9.654086  10.087325  10.643084  11.011613
    46  H    9.918051  10.261900  10.761270  11.165251  11.776736
    47  C    8.044918   8.663265   9.333643   9.838490  10.308874
    48  H    7.760058   8.328226   9.041063   9.440759  10.067950
    49  H    7.208381   7.878317   8.549797   9.143473   9.474554
    50  H    8.733719   9.522411  10.260461  10.799092  11.208220
                   26         27         28         29         30
    26  C    0.000000
    27  H    1.130820   0.000000
    28  H    1.094033   1.760842   0.000000
    29  S    1.809746   2.388491   2.368847   0.000000
    30  C    2.948030   3.886901   3.070455   1.803491   0.000000
    31  H    3.926791   4.756792   4.131318   2.430622   1.132031
    32  H    3.190114   4.249214   3.367752   2.472975   1.086456
    33  C    3.359589   4.246748   2.954745   2.667866   1.536484
    34  H    2.767229   3.647636   2.092815   2.724534   2.127164
    35  H    4.339800   5.285910   3.885580   3.669926   2.188241
    36  S    4.101454   4.617302   3.747176   3.055026   2.674016
    37  C    5.468622   6.024306   5.325853   4.003843   3.273070
    38  H    5.350636   5.958027   5.406355   3.707139   2.897935
    39  H    6.133157   6.529625   6.026219   4.630546   4.217231
    40  C    6.408775   7.105027   6.107429   5.117731   3.956831
    41  H    6.119329   6.947571   5.785406   4.969431   3.524492
    42  H    6.841891   7.478085   6.390592   5.722087   4.682471
    43  S    7.939745   8.633954   7.765587   6.467243   5.272266
    44  C    9.139759   9.927815   8.832791   7.840969   6.430910
    45  H    9.307048  10.056852   8.883966   8.123043   6.779934
    46  H   10.097168  10.869890   9.844984   8.716333   7.334926
    47  C    8.848565   9.755484   8.538520   7.684501   6.066899
    48  H    8.662749   9.588793   8.482675   7.406177   5.769327
    49  H    8.057023   8.983791   7.664769   7.041335   5.398264
    50  H    9.825252  10.757045   9.471216   8.732614   7.077582
                   31         32         33         34         35
    31  H    0.000000
    32  H    1.764241   0.000000
    33  C    2.181605   2.186952   0.000000
    34  H    3.066754   2.556354   1.107192   0.000000
    35  H    2.539961   2.515677   1.093247   1.858141   0.000000
    36  S    2.791020   3.675626   1.841225   2.438924   2.442679
    37  C    2.703520   4.194911   2.934174   3.895461   3.074497
    38  H    2.026535   3.728377   3.089614   4.119122   3.258257
    39  H    3.619551   5.191304   3.920058   4.788729   4.140713
    40  C    3.421387   4.650585   3.309366   4.299132   2.923320
    41  H    3.105541   4.015731   2.842879   3.836447   2.167496
    42  H    4.328804   5.407485   3.729551   4.552529   3.330173
    43  S    4.454563   5.848287   4.950739   6.003503   4.488072
    44  C    5.743120   6.830586   5.899392   6.874615   5.159779
    45  H    6.223070   7.245590   6.012106   6.893156   5.271268
    46  H    6.555558   7.719521   6.917837   7.921690   6.205559
    47  C    5.471254   6.234839   5.596841   6.529674   4.690567
    48  H    5.057412   5.853404   5.583409   6.574855   4.743398
    49  H    4.974008   5.551926   4.758245   5.613709   3.783120
    50  H    6.528091   7.170689   6.556470   7.430013   5.589760
                   36         37         38         39         40
    36  S    0.000000
    37  C    1.810909   0.000000
    38  H    2.453380   1.105838   0.000000
    39  H    2.451406   1.107923   1.780650   0.000000
    40  C    2.685175   1.522133   2.132301   2.180427   0.000000
    41  H    2.883991   2.180306   2.493869   3.099409   1.090879
    42  H    2.898705   2.189091   3.076292   2.556094   1.107675
    43  S    4.359542   2.749418   2.894872   2.937327   1.813144
    44  C    5.593547   4.276469   4.521093   4.569824   2.919170
    45  H    5.579757   4.474521   4.962222   4.700318   3.047862
    46  H    6.550928   5.092768   5.238908   5.244963   3.868047
    47  C    5.779082   4.698530   4.775047   5.291615   3.312698
    48  H    5.879721   4.683579   4.501223   5.317922   3.521154
    49  H    5.099387   4.320988   4.505993   5.057453   2.910499
    50  H    6.802195   5.782160   5.888612   6.343128   4.354103
                   41         42         43         44         45
    41  H    0.000000
    42  H    1.775028   0.000000
    43  S    2.382013   2.382158   0.000000
    44  C    3.057348   3.049687   1.808026   0.000000
    45  H    3.269903   2.762769   2.410709   1.113985   0.000000
    46  H    4.087178   4.028953   2.390819   1.107060   1.828345
    47  C    2.917792   3.626273   2.692476   1.517831   2.171576
    48  H    3.078921   4.123147   2.740386   2.133955   3.061718
    49  H    2.265805   3.142819   2.953852   2.151576   2.429914
    50  H    3.947753   4.520152   3.671142   2.134027   2.548052
                   46         47         48         49         50
    46  H    0.000000
    47  C    2.178912   0.000000
    48  H    2.546714   1.103955   0.000000
    49  H    3.081160   1.101882   1.797483   0.000000
    50  H    2.435248   1.113947   1.842453   1.821414   0.000000
 Stoichiometry    C14H30O3S3
 Framework group  C1[X(C14H30O3S3)]
 Deg. of freedom   144
 Full point group                 C1      NOp   1
 Largest Abelian subgroup         C1      NOp   1
 Largest concise Abelian subgroup C1      NOp   1
                         Standard orientation:                         
 ---------------------------------------------------------------------
 Center     Atomic      Atomic             Coordinates (Angstroms)
 Number     Number       Type             X           Y           Z
 ---------------------------------------------------------------------
      1          6           0       -5.391472    0.309436    2.453462
      2          1           0       -5.683921    1.259441    2.901630
      3          1           0       -5.940835    0.058129    1.517854
      4          1           0       -5.660718   -0.495758    3.177238
      5          6           0       -3.897940    0.202330    2.229093
      6          1           0       -3.390695    0.673363    3.096382
      7          1           0       -3.650240   -0.878403    2.194096
      8          8           0       -3.495810    0.787002    1.047715
      9          6           0       -3.762980    2.113793    0.942080
     10          1           0       -3.253681    2.725657    1.725236
     11          1           0       -4.845369    2.365074    1.015925
     12          6           0       -3.296140    2.656474   -0.377314
     13          1           0       -3.513083    3.776609   -0.439973
     14          1           0       -2.169936    2.537867   -0.371463
     15          8           0       -3.886100    2.071668   -1.425000
     16          6           0       -3.745261    0.748524   -1.702722
     17          1           0       -4.357945    0.571163   -2.639107
     18          1           0       -4.206323    0.108499   -0.949221
     19          6           0       -2.311472    0.309135   -1.947249
     20          1           0       -1.667383    0.740398   -1.165803
     21          1           0       -2.011836    0.877893   -2.883281
     22          8           0       -2.175959   -1.000778   -2.232975
     23          6           0       -2.527774   -1.965035   -1.382371
     24          1           0       -2.473897   -2.946617   -1.965962
     25          1           0       -3.638124   -1.954245   -1.110593
     26          6           0       -1.806364   -2.148958   -0.098958
     27          1           0       -2.244955   -2.993519    0.511867
     28          1           0       -1.824078   -1.284762    0.571684
     29         16           0       -0.065497   -2.564989   -0.366320
     30          6           0        0.801739   -1.121244   -1.011366
     31          1           0        1.859887   -1.407387   -1.294100
     32          1           0        0.373512   -0.681891   -1.908014
     33          6           0        0.855906   -0.114744    0.148293
     34          1           0       -0.190338    0.020290    0.484466
     35          1           0        1.374363    0.803170   -0.141231
     36         16           0        1.802981   -0.986978    1.464488
     37          6           0        3.493736   -1.191856    0.849052
     38          1           0        3.520481   -1.648388   -0.157795
     39          1           0        4.102391   -1.835261    1.514681
     40          6           0        4.097772    0.200533    0.733795
     41          1           0        3.533070    0.836706    0.050851
     42          1           0        4.137656    0.712716    1.715131
     43         16           0        5.801336    0.112640    0.119275
     44          6           0        6.433187    1.804314    0.030036
     45          1           0        6.295222    2.292859    1.021626
     46          1           0        7.506466    1.750431   -0.235953
     47          6           0        5.639005    2.540399   -1.033574
     48          1           0        5.621117    1.911164   -1.940469
     49          1           0        4.606881    2.693459   -0.679405
     50          1           0        6.142479    3.518847   -1.206870
 ---------------------------------------------------------------------
 Rotational constants (GHZ):           0.3583311           0.0973946           0.0926258
 Leave Link  202 at Tue Jun 27 20:51:26 2023, MaxMem=   262144000 cpu:               0.3 elap:               0.1
 (Enter /dragofs/sw/campus/0.2/software/gaussian/16.gaussian/gaussian/g16_legacy/l301.exe)
 Standard basis: 6-31G(d) (6D, 7F)
 Ernie: Thresh=  0.10000D-02 Tol=  0.10000D-05 Strict=F.
 There are   372 symmetry adapted cartesian basis functions of A   symmetry.
 There are   372 symmetry adapted basis functions of A   symmetry.
   372 basis functions,   752 primitive gaussians,   372 cartesian basis functions
    93 alpha electrons       93 beta electrons
       nuclear repulsion energy      2131.7656297660 Hartrees.
 IExCor=20419 DFT=T Ex+Corr=CAM-B3LYP ExCW=0 ScaHFX=  1.000000
 ScaDFX=  1.000000  1.000000  1.000000  0.810000 ScalE2=  1.000000  1.000000
 IRadAn=      5 IRanWt=     -1 IRanGd=            0 ICorTp=0 IEmpDi=  4
 HFx  wShort=  0.000000 wLong=  0.330000 cFull=  0.190000 cShort=  0.000000 cLong=  0.460000
 DFx  wShort=  0.000000 wLong=  0.330000 cFull=  0.190000 cShort=  0.000000 cLong=  0.460000
 NAtoms=   50 NActive=   50 NUniq=   50 SFac= 1.00D+00 NAtFMM=   60 NAOKFM=F Big=F
 Integral buffers will be    131072 words long.
 Raffenetti 2 integral format.
 Two-electron integral symmetry is turned on.
 Leave Link  301 at Tue Jun 27 20:51:26 2023, MaxMem=   262144000 cpu:               0.8 elap:               0.2
 (Enter /dragofs/sw/campus/0.2/software/gaussian/16.gaussian/gaussian/g16_legacy/l302.exe)
 NPDir=0 NMtPBC=     1 NCelOv=     1 NCel=       1 NClECP=     1 NCelD=      1
         NCelK=      1 NCelE2=     1 NClLst=     1 CellRange=     0.0.
 One-electron integrals computed using PRISM.
 One-electron integral symmetry used in STVInt
 NBasis=   372 RedAO= T EigKep=  3.28D-03  NBF=   372
 NBsUse=   372 1.00D-06 EigRej= -1.00D+00 NBFU=   372
 Precomputing XC quadrature grid using
 IXCGrd= 4 IRadAn=           5 IRanWt=          -1 IRanGd=           0 AccXCQ= 0.00D+00.
 Generated NRdTot=       0 NPtTot=           0 NUsed=           0 NTot=          32
 NSgBfM=   368   368   368   368   368 MxSgAt=    50 MxSgA2=    50.
 Leave Link  302 at Tue Jun 27 20:51:27 2023, MaxMem=   262144000 cpu:               6.3 elap:               0.9
 (Enter /dragofs/sw/campus/0.2/software/gaussian/16.gaussian/gaussian/g16_legacy/l303.exe)
 DipDrv:  MaxL=1.
 Leave Link  303 at Tue Jun 27 20:51:27 2023, MaxMem=   262144000 cpu:               1.0 elap:               0.2
 (Enter /dragofs/sw/campus/0.2/software/gaussian/16.gaussian/gaussian/g16_legacy/l401.exe)
 ExpMin= 1.17D-01 ExpMax= 2.19D+04 ExpMxC= 3.30D+03 IAcc=3 IRadAn=         5 AccDes= 0.00D+00
 Harris functional with IExCor=20419 and IRadAn=       5 diagonalized for initial guess.
 HarFok:  IExCor=20419 AccDes= 0.00D+00 IRadAn=         5 IDoV= 1 UseB2=F ITyADJ=14
 ICtDFT=  3500011 ScaDFX=  1.000000  1.000000  1.000000  1.000000
 FoFCou: FMM=F IPFlag=           0 FMFlag=      100000 FMFlg1=           0
         NFxFlg=           0 DoJE=T BraDBF=F KetDBF=T FulRan=T
         wScrn=  0.000000 ICntrl=       500 IOpCl=  0 I1Cent=   200000004 NGrid=           0
         NMat0=    1 NMatS0=      1 NMatT0=    0 NMatD0=    1 NMtDS0=    0 NMtDT0=    0
 Petite list used in FoFCou.
 Harris En= -1921.22065995641    
 JPrj=0 DoOrth=F DoCkMO=F.
 Leave Link  401 at Tue Jun 27 20:51:31 2023, MaxMem=   262144000 cpu:              25.7 elap:               3.4
 (Enter /dragofs/sw/campus/0.2/software/gaussian/16.gaussian/gaussian/g16_legacy/l502.exe)
 Integral symmetry usage will be decided dynamically.
 Closed shell SCF:
 Using DIIS extrapolation, IDIIS=  1040.
 NGot=   262144000 LenX=   261859787 LenY=   261720962
 Requested convergence on RMS density matrix=1.00D-08 within 128 cycles.
 Requested convergence on MAX density matrix=1.00D-06.
 Requested convergence on             energy=1.00D-06.
 No special actions if energy rises.
 Fock matrices will be formed incrementally for  20 cycles.
 Integral accuracy reduced to 1.0D-05 until final iterations.

 Cycle   1  Pass 0  IDiag  1:
 FoFJK:  IHMeth= 1 ICntrl=       0 DoSepK=T KAlg= 0 I1Cent=           0 FoldK=F
 IRaf=         1 NMat=       1 IRICut=       1 DoRegI=T DoRafI=F ISym2E= 0 IDoP0=0 IntGTp=1.
 FoFCou: FMM=F IPFlag=           0 FMFlag=      100000 FMFlg1=           0
         NFxFlg=           0 DoJE=T BraDBF=F KetDBF=F FulRan=T
         wScrn=  0.000000 ICntrl=       500 IOpCl=  0 I1Cent=           0 NGrid=           0
         NMat0=    1 NMatS0=      1 NMatT0=    0 NMatD0=    1 NMtDS0=    0 NMtDT0=    0
 Symmetry not used in FoFCou.
 E= -1970.88433941373    
 DIIS: error= 7.00D-02 at cycle   1 NSaved=   1.
 NSaved= 1 IEnMin= 1 EnMin= -1970.88433941373     IErMin= 1 ErrMin= 7.00D-02
 ErrMax= 7.00D-02  0.00D+00 EMaxC= 1.00D-01 BMatC= 9.70D-01 BMatP= 9.70D-01
 IDIUse=3 WtCom= 3.00D-01 WtEn= 7.00D-01
 Coeff-Com:  0.100D+01
 Coeff-En:   0.100D+01
 Coeff:      0.100D+01
 Gap=     0.399 Goal=   None    Shift=    0.000
 GapD=    0.399 DampG=1.000 DampE=0.500 DampFc=0.5000 IDamp=-1.
 Damping current iteration by 5.00D-01
 RMSDP=3.52D-03 MaxDP=2.63D-01              OVMax= 1.08D-01

 Cycle   2  Pass 0  IDiag  1:
 RMSU=  1.76D-03    CP:  1.00D+00
 E= -1971.06037952792     Delta-E=       -0.176040114183 Rises=F Damp=T
 DIIS: error= 2.80D-02 at cycle   2 NSaved=   2.
 NSaved= 2 IEnMin= 2 EnMin= -1971.06037952792     IErMin= 2 ErrMin= 2.80D-02
 ErrMax= 2.80D-02  0.00D+00 EMaxC= 1.00D-01 BMatC= 1.68D-01 BMatP= 9.70D-01
 IDIUse=3 WtCom= 7.20D-01 WtEn= 2.80D-01
 Coeff-Com: -0.425D+00 0.143D+01
 Coeff-En:   0.000D+00 0.100D+01
 Coeff:     -0.306D+00 0.131D+01
 Gap=     0.367 Goal=   None    Shift=    0.000
 RMSDP=9.34D-04 MaxDP=4.43D-02 DE=-1.76D-01 OVMax= 7.06D-02

 Cycle   3  Pass 0  IDiag  1:
 RMSU=  8.89D-04    CP:  1.01D+00  1.15D+00
 E= -1971.20902685865     Delta-E=       -0.148647330732 Rises=F Damp=F
 DIIS: error= 6.19D-03 at cycle   3 NSaved=   3.
 NSaved= 3 IEnMin= 3 EnMin= -1971.20902685865     IErMin= 3 ErrMin= 6.19D-03
 ErrMax= 6.19D-03  0.00D+00 EMaxC= 1.00D-01 BMatC= 2.99D-02 BMatP= 1.68D-01
 IDIUse=3 WtCom= 9.38D-01 WtEn= 6.19D-02
 Coeff-Com: -0.240D+00 0.545D+00 0.695D+00
 Coeff-En:   0.000D+00 0.000D+00 0.100D+01
 Coeff:     -0.225D+00 0.511D+00 0.714D+00
 Gap=     0.332 Goal=   None    Shift=    0.000
 RMSDP=4.84D-04 MaxDP=2.65D-02 DE=-1.49D-01 OVMax= 1.87D-02

 Cycle   4  Pass 0  IDiag  1:
 RMSU=  3.11D-04    CP:  1.00D+00  1.30D+00  7.08D-01
 E= -1971.23164283332     Delta-E=       -0.022615974672 Rises=F Damp=F
 DIIS: error= 1.95D-03 at cycle   4 NSaved=   4.
 NSaved= 4 IEnMin= 4 EnMin= -1971.23164283332     IErMin= 4 ErrMin= 1.95D-03
 ErrMax= 1.95D-03  0.00D+00 EMaxC= 1.00D-01 BMatC= 1.93D-03 BMatP= 2.99D-02
 IDIUse=3 WtCom= 9.81D-01 WtEn= 1.95D-02
 Coeff-Com: -0.870D-01 0.187D+00 0.332D+00 0.568D+00
 Coeff-En:   0.000D+00 0.000D+00 0.000D+00 0.100D+01
 Coeff:     -0.853D-01 0.183D+00 0.325D+00 0.576D+00
 Gap=     0.335 Goal=   None    Shift=    0.000
 RMSDP=1.15D-04 MaxDP=7.61D-03 DE=-2.26D-02 OVMax= 5.05D-03

 Cycle   5  Pass 0  IDiag  1:
 RMSU=  6.67D-05    CP:  1.00D+00  1.32D+00  7.37D-01  7.36D-01
 E= -1971.23304492370     Delta-E=       -0.001402090375 Rises=F Damp=F
 DIIS: error= 2.40D-04 at cycle   5 NSaved=   5.
 NSaved= 5 IEnMin= 5 EnMin= -1971.23304492370     IErMin= 5 ErrMin= 2.40D-04
 ErrMax= 2.40D-04  0.00D+00 EMaxC= 1.00D-01 BMatC= 3.99D-05 BMatP= 1.93D-03
 IDIUse=3 WtCom= 9.98D-01 WtEn= 2.40D-03
 Coeff-Com: -0.133D-01 0.272D-01 0.715D-01 0.191D+00 0.723D+00
 Coeff-En:   0.000D+00 0.000D+00 0.000D+00 0.000D+00 0.100D+01
 Coeff:     -0.133D-01 0.271D-01 0.713D-01 0.191D+00 0.724D+00
 Gap=     0.334 Goal=   None    Shift=    0.000
 RMSDP=2.39D-05 MaxDP=9.28D-04 DE=-1.40D-03 OVMax= 9.61D-04

 Cycle   6  Pass 0  IDiag  1:
 RMSU=  1.84D-05    CP:  1.00D+00  1.32D+00  7.48D-01  7.70D-01  9.26D-01
 E= -1971.23308140256     Delta-E=       -0.000036478865 Rises=F Damp=F
 DIIS: error= 7.60D-05 at cycle   6 NSaved=   6.
 NSaved= 6 IEnMin= 6 EnMin= -1971.23308140256     IErMin= 6 ErrMin= 7.60D-05
 ErrMax= 7.60D-05  0.00D+00 EMaxC= 1.00D-01 BMatC= 4.17D-06 BMatP= 3.99D-05
 IDIUse=1 WtCom= 1.00D+00 WtEn= 0.00D+00
 Coeff-Com:  0.498D-02-0.109D-01-0.874D-02 0.823D-02 0.263D+00 0.743D+00
 Coeff:      0.498D-02-0.109D-01-0.874D-02 0.823D-02 0.263D+00 0.743D+00
 Gap=     0.334 Goal=   None    Shift=    0.000
 RMSDP=8.50D-06 MaxDP=5.69D-04 DE=-3.65D-05 OVMax= 3.92D-04

 Initial convergence to 1.0D-05 achieved.  Increase integral accuracy.
 Cycle   7  Pass 1  IDiag  1:
 E= -1971.23309009228     Delta-E=       -0.000008689722 Rises=F Damp=F
 DIIS: error= 2.09D-05 at cycle   1 NSaved=   1.
 NSaved= 1 IEnMin= 1 EnMin= -1971.23309009228     IErMin= 1 ErrMin= 2.09D-05
 ErrMax= 2.09D-05  0.00D+00 EMaxC= 1.00D-01 BMatC= 4.40D-07 BMatP= 4.40D-07
 IDIUse=1 WtCom= 1.00D+00 WtEn= 0.00D+00
 Coeff-Com:  0.100D+01
 Coeff:      0.100D+01
 Gap=     0.334 Goal=   None    Shift=    0.000
 RMSDP=8.50D-06 MaxDP=5.69D-04 DE=-8.69D-06 OVMax= 1.50D-04

 Cycle   8  Pass 1  IDiag  1:
 RMSU=  6.03D-06    CP:  1.00D+00
 E= -1971.23309030887     Delta-E=       -0.000000216589 Rises=F Damp=F
 DIIS: error= 1.91D-05 at cycle   2 NSaved=   2.
 NSaved= 2 IEnMin= 2 EnMin= -1971.23309030887     IErMin= 2 ErrMin= 1.91D-05
 ErrMax= 1.91D-05  0.00D+00 EMaxC= 1.00D-01 BMatC= 2.77D-07 BMatP= 4.40D-07
 IDIUse=1 WtCom= 1.00D+00 WtEn= 0.00D+00
 Coeff-Com:  0.432D+00 0.568D+00
 Coeff:      0.432D+00 0.568D+00
 Gap=     0.334 Goal=   None    Shift=    0.000
 RMSDP=1.50D-06 MaxDP=7.79D-05 DE=-2.17D-07 OVMax= 6.09D-05

 Cycle   9  Pass 1  IDiag  1:
 RMSU=  1.46D-06    CP:  1.00D+00  9.39D-01
 E= -1971.23309052269     Delta-E=       -0.000000213820 Rises=F Damp=F
 DIIS: error= 6.07D-06 at cycle   3 NSaved=   3.
 NSaved= 3 IEnMin= 3 EnMin= -1971.23309052269     IErMin= 3 ErrMin= 6.07D-06
 ErrMax= 6.07D-06  0.00D+00 EMaxC= 1.00D-01 BMatC= 1.77D-08 BMatP= 2.77D-07
 IDIUse=1 WtCom= 1.00D+00 WtEn= 0.00D+00
 Coeff-Com:  0.104D-01 0.196D+00 0.793D+00
 Coeff:      0.104D-01 0.196D+00 0.793D+00
 Gap=     0.334 Goal=   None    Shift=    0.000
 RMSDP=4.59D-07 MaxDP=2.49D-05 DE=-2.14D-07 OVMax= 2.15D-05

 Cycle  10  Pass 1  IDiag  1:
 RMSU=  3.51D-07    CP:  1.00D+00  9.83D-01  9.09D-01
 E= -1971.23309053629     Delta-E=       -0.000000013593 Rises=F Damp=F
 DIIS: error= 1.51D-06 at cycle   4 NSaved=   4.
 NSaved= 4 IEnMin= 4 EnMin= -1971.23309053629     IErMin= 4 ErrMin= 1.51D-06
 ErrMax= 1.51D-06  0.00D+00 EMaxC= 1.00D-01 BMatC= 1.32D-09 BMatP= 1.77D-08
 IDIUse=1 WtCom= 1.00D+00 WtEn= 0.00D+00
 Coeff-Com: -0.140D-01 0.590D-01 0.339D+00 0.616D+00
 Coeff:     -0.140D-01 0.590D-01 0.339D+00 0.616D+00
 Gap=     0.334 Goal=   None    Shift=    0.000
 RMSDP=1.39D-07 MaxDP=6.14D-06 DE=-1.36D-08 OVMax= 7.66D-06

 Cycle  11  Pass 1  IDiag  1:
 RMSU=  1.21D-07    CP:  1.00D+00  9.91D-01  9.21D-01  8.81D-01
 E= -1971.23309053751     Delta-E=       -0.000000001226 Rises=F Damp=F
 DIIS: error= 2.91D-07 at cycle   5 NSaved=   5.
 NSaved= 5 IEnMin= 5 EnMin= -1971.23309053751     IErMin= 5 ErrMin= 2.91D-07
 ErrMax= 2.91D-07  0.00D+00 EMaxC= 1.00D-01 BMatC= 4.78D-11 BMatP= 1.32D-09
 IDIUse=1 WtCom= 1.00D+00 WtEn= 0.00D+00
 Coeff-Com: -0.374D-02-0.780D-03 0.198D-01 0.142D+00 0.843D+00
 Coeff:     -0.374D-02-0.780D-03 0.198D-01 0.142D+00 0.843D+00
 Gap=     0.334 Goal=   None    Shift=    0.000
 RMSDP=5.49D-08 MaxDP=2.82D-06 DE=-1.23D-09 OVMax= 3.84D-06

 Cycle  12  Pass 1  IDiag  1:
 RMSU=  3.24D-08    CP:  1.00D+00  9.94D-01  9.32D-01  9.56D-01  1.22D+00
 E= -1971.23309053764     Delta-E=       -0.000000000131 Rises=F Damp=F
 DIIS: error= 1.08D-07 at cycle   6 NSaved=   6.
 NSaved= 6 IEnMin= 6 EnMin= -1971.23309053764     IErMin= 6 ErrMin= 1.08D-07
 ErrMax= 1.08D-07  0.00D+00 EMaxC= 1.00D-01 BMatC= 1.10D-11 BMatP= 4.78D-11
 IDIUse=1 WtCom= 1.00D+00 WtEn= 0.00D+00
 Coeff-Com:  0.459D-03-0.926D-02-0.430D-01-0.348D-01 0.331D+00 0.755D+00
 Coeff:      0.459D-03-0.926D-02-0.430D-01-0.348D-01 0.331D+00 0.755D+00
 Gap=     0.334 Goal=   None    Shift=    0.000
 RMSDP=2.13D-08 MaxDP=1.04D-06 DE=-1.31D-10 OVMax= 1.54D-06

 Cycle  13  Pass 1  IDiag  1:
 RMSU=  1.05D-08    CP:  1.00D+00  9.95D-01  9.34D-01  9.95D-01  1.31D+00
                    CP:  8.91D-01
 E= -1971.23309053762     Delta-E=        0.000000000020 Rises=F Damp=F
 DIIS: error= 2.72D-08 at cycle   7 NSaved=   7.
 NSaved= 7 IEnMin= 6 EnMin= -1971.23309053764     IErMin= 7 ErrMin= 2.72D-08
 ErrMax= 2.72D-08  0.00D+00 EMaxC= 1.00D-01 BMatC= 8.02D-13 BMatP= 1.10D-11
 IDIUse=1 WtCom= 1.00D+00 WtEn= 0.00D+00
 Coeff-Com:  0.485D-03-0.321D-02-0.169D-01-0.230D-01 0.563D-01 0.279D+00
 Coeff-Com:  0.707D+00
 Coeff:      0.485D-03-0.321D-02-0.169D-01-0.230D-01 0.563D-01 0.279D+00
 Coeff:      0.707D+00
 Gap=     0.334 Goal=   None    Shift=    0.000
 RMSDP=5.31D-09 MaxDP=2.72D-07 DE= 2.00D-11 OVMax= 4.38D-07

 SCF Done:  E(RCAM-B3LYP) =  -1971.23309054     A.U. after   13 cycles
            NFock= 13  Conv=0.53D-08     -V/T= 2.0053
 KE= 1.960761440295D+03 PE=-8.908473976500D+03 EE= 2.844713815901D+03
 Leave Link  502 at Tue Jun 27 20:52:33 2023, MaxMem=   262144000 cpu:             473.0 elap:              62.1
 (Enter /dragofs/sw/campus/0.2/software/gaussian/16.gaussian/gaussian/g16_legacy/l601.exe)
 Copying SCF densities to generalized density rwf, IOpCl= 0 IROHF=0.

 **********************************************************************

            Population analysis using the SCF density.

 **********************************************************************

 Orbital symmetries:
       Occupied  (A) (A) (A) (A) (A) (A) (A) (A) (A) (A) (A) (A)
                 (A) (A) (A) (A) (A) (A) (A) (A) (A) (A) (A) (A)
                 (A) (A) (A) (A) (A) (A) (A) (A) (A) (A) (A) (A)
                 (A) (A) (A) (A) (A) (A) (A) (A) (A) (A) (A) (A)
                 (A) (A) (A) (A) (A) (A) (A) (A) (A) (A) (A) (A)
                 (A) (A) (A) (A) (A) (A) (A) (A) (A) (A) (A) (A)
                 (A) (A) (A) (A) (A) (A) (A) (A) (A) (A) (A) (A)
                 (A) (A) (A) (A) (A) (A) (A) (A) (A)
       Virtual   (A) (A) (A) (A) (A) (A) (A) (A) (A) (A) (A) (A)
                 (A) (A) (A) (A) (A) (A) (A) (A) (A) (A) (A) (A)
                 (A) (A) (A) (A) (A) (A) (A) (A) (A) (A) (A) (A)
                 (A) (A) (A) (A) (A) (A) (A) (A) (A) (A) (A) (A)
                 (A) (A) (A) (A) (A) (A) (A) (A) (A) (A) (A) (A)
                 (A) (A) (A) (A) (A) (A) (A) (A) (A) (A) (A) (A)
                 (A) (A) (A) (A) (A) (A) (A) (A) (A) (A) (A) (A)
                 (A) (A) (A) (A) (A) (A) (A) (A) (A) (A) (A) (A)
                 (A) (A) (A) (A) (A) (A) (A) (A) (A) (A) (A) (A)
                 (A) (A) (A) (A) (A) (A) (A) (A) (A) (A) (A) (A)
                 (A) (A) (A) (A) (A) (A) (A) (A) (A) (A) (A) (A)
                 (A) (A) (A) (A) (A) (A) (A) (A) (A) (A) (A) (A)
                 (A) (A) (A) (A) (A) (A) (A) (A) (A) (A) (A) (A)
                 (A) (A) (A) (A) (A) (A) (A) (A) (A) (A) (A) (A)
                 (A) (A) (A) (A) (A) (A) (A) (A) (A) (A) (A) (A)
                 (A) (A) (A) (A) (A) (A) (A) (A) (A) (A) (A) (A)
                 (A) (A) (A) (A) (A) (A) (A) (A) (A) (A) (A) (A)
                 (A) (A) (A) (A) (A) (A) (A) (A) (A) (A) (A) (A)
                 (A) (A) (A) (A) (A) (A) (A) (A) (A) (A) (A) (A)
                 (A) (A) (A) (A) (A) (A) (A) (A) (A) (A) (A) (A)
                 (A) (A) (A) (A) (A) (A) (A) (A) (A) (A) (A) (A)
                 (A) (A) (A) (A) (A) (A) (A) (A) (A) (A) (A) (A)
                 (A) (A) (A) (A) (A) (A) (A) (A) (A) (A) (A) (A)
                 (A) (A) (A)
 The electronic state is 1-A.
 Alpha  occ. eigenvalues --  -88.93188 -88.92764 -88.92361 -19.23943 -19.23322
 Alpha  occ. eigenvalues --  -19.22342 -10.31745 -10.31480 -10.31221 -10.30884
 Alpha  occ. eigenvalues --  -10.30554 -10.29642 -10.29627 -10.29608 -10.28943
 Alpha  occ. eigenvalues --  -10.28907 -10.28844 -10.28749 -10.26085 -10.25793
 Alpha  occ. eigenvalues --   -7.99475  -7.99126  -7.98727  -5.96118  -5.95748
 Alpha  occ. eigenvalues --   -5.95683  -5.95368  -5.95324  -5.94965  -5.94916
 Alpha  occ. eigenvalues --   -5.94652  -5.94222  -1.16746  -1.16086  -1.14400
 Alpha  occ. eigenvalues --   -0.92345  -0.90294  -0.88181  -0.87341  -0.85846
 Alpha  occ. eigenvalues --   -0.83982  -0.81235  -0.79391  -0.76910  -0.75080
 Alpha  occ. eigenvalues --   -0.72348  -0.70642  -0.68893  -0.67088  -0.64855
 Alpha  occ. eigenvalues --   -0.64333  -0.63111  -0.60812  -0.59384  -0.58654
 Alpha  occ. eigenvalues --   -0.57588  -0.56195  -0.55392  -0.54782  -0.53465
 Alpha  occ. eigenvalues --   -0.53354  -0.52762  -0.52261  -0.51569  -0.50373
 Alpha  occ. eigenvalues --   -0.49638  -0.49160  -0.47435  -0.46921  -0.46637
 Alpha  occ. eigenvalues --   -0.45990  -0.45473  -0.44621  -0.44337  -0.44205
 Alpha  occ. eigenvalues --   -0.43932  -0.43689  -0.42683  -0.42057  -0.41024
 Alpha  occ. eigenvalues --   -0.40515  -0.39599  -0.37588  -0.35939  -0.35385
 Alpha  occ. eigenvalues --   -0.34630  -0.34342  -0.33602  -0.32434  -0.29758
 Alpha  occ. eigenvalues --   -0.28546  -0.26981  -0.24719
 Alpha virt. eigenvalues --    0.08702   0.09275   0.10790   0.11188   0.12412
 Alpha virt. eigenvalues --    0.12496   0.13056   0.13922   0.14152   0.14934
 Alpha virt. eigenvalues --    0.15310   0.15880   0.16058   0.16885   0.17132
 Alpha virt. eigenvalues --    0.17404   0.17928   0.18030   0.18387   0.18964
 Alpha virt. eigenvalues --    0.19920   0.20187   0.20481   0.20754   0.21314
 Alpha virt. eigenvalues --    0.21579   0.22225   0.22672   0.22892   0.23078
 Alpha virt. eigenvalues --    0.23531   0.23783   0.24282   0.25314   0.26454
 Alpha virt. eigenvalues --    0.27280   0.27897   0.28281   0.29161   0.29214
 Alpha virt. eigenvalues --    0.30091   0.30278   0.31489   0.32032   0.32810
 Alpha virt. eigenvalues --    0.33660   0.35165   0.35894   0.38084   0.40085
 Alpha virt. eigenvalues --    0.42181   0.42736   0.44666   0.45253   0.46789
 Alpha virt. eigenvalues --    0.47150   0.49254   0.49671   0.50781   0.52507
 Alpha virt. eigenvalues --    0.53216   0.54800   0.56153   0.56516   0.57060
 Alpha virt. eigenvalues --    0.57433   0.58107   0.59185   0.59295   0.60694
 Alpha virt. eigenvalues --    0.61111   0.61556   0.62016   0.62587   0.64018
 Alpha virt. eigenvalues --    0.64361   0.64953   0.65844   0.66813   0.67072
 Alpha virt. eigenvalues --    0.67785   0.68351   0.69889   0.70363   0.70399
 Alpha virt. eigenvalues --    0.70907   0.71535   0.71767   0.72496   0.73810
 Alpha virt. eigenvalues --    0.74795   0.76187   0.77438   0.78353   0.80801
 Alpha virt. eigenvalues --    0.81313   0.82521   0.84628   0.85542   0.85741
 Alpha virt. eigenvalues --    0.87314   0.88442   0.88636   0.89083   0.89923
 Alpha virt. eigenvalues --    0.90616   0.90916   0.91250   0.91968   0.92119
 Alpha virt. eigenvalues --    0.92257   0.92609   0.92935   0.93868   0.94069
 Alpha virt. eigenvalues --    0.94690   0.95164   0.95649   0.95738   0.96466
 Alpha virt. eigenvalues --    0.96680   0.97358   0.97730   0.98286   0.98753
 Alpha virt. eigenvalues --    0.99522   1.00166   1.00519   1.01529   1.02371
 Alpha virt. eigenvalues --    1.02511   1.02798   1.03980   1.04272   1.05316
 Alpha virt. eigenvalues --    1.05519   1.06916   1.07842   1.08005   1.08612
 Alpha virt. eigenvalues --    1.09075   1.10514   1.11102   1.12278   1.13667
 Alpha virt. eigenvalues --    1.14537   1.15315   1.17252   1.17849   1.19064
 Alpha virt. eigenvalues --    1.21610   1.22939   1.23807   1.24520   1.26531
 Alpha virt. eigenvalues --    1.27317   1.29185   1.32389   1.33270   1.33821
 Alpha virt. eigenvalues --    1.36784   1.39968   1.42004   1.42836   1.45515
 Alpha virt. eigenvalues --    1.48300   1.49638   1.53042   1.54279   1.56650
 Alpha virt. eigenvalues --    1.57303   1.58726   1.58999   1.61042   1.62538
 Alpha virt. eigenvalues --    1.63929   1.64125   1.64988   1.66179   1.67235
[...]
    11  H    0.000000   0.000000   0.000000   0.000000  -0.000000  -0.000000
    12  C    0.000000  -0.000000   0.000000   0.000000  -0.000000   0.000000
    13  H   -0.000000   0.000000   0.000000  -0.000000   0.000000   0.000000
    14  H   -0.000000   0.000000  -0.000000  -0.000000  -0.000000  -0.000000
    15  O    0.000000  -0.000000   0.000000   0.000000  -0.000000   0.000000
    16  C   -0.000000   0.000000  -0.000000  -0.000000   0.000000  -0.000000
    17  H    0.000000   0.000000   0.000000  -0.000000   0.000000   0.000000
    18  H   -0.000000  -0.000000   0.000000  -0.000000  -0.000000  -0.000000
    19  C   -0.000000  -0.000000  -0.000000   0.000000  -0.000000  -0.000000
    20  H    0.000000  -0.000000  -0.000000   0.000000   0.000000  -0.000000
    21  H   -0.000000  -0.000000   0.000000  -0.000000  -0.000000   0.000000
    22  O    0.000000   0.000000  -0.000000   0.000000   0.000000  -0.000000
    23  C   -0.000000   0.000000   0.000000  -0.000000  -0.000000   0.000000
    24  H   -0.000000   0.000000   0.000000  -0.000000   0.000000   0.000000
    25  H   -0.000000   0.000000   0.000000  -0.000000   0.000000   0.000000
    26  C   -0.000000  -0.000000   0.000000   0.000000   0.000000  -0.000000
    27  H    0.000000   0.000000   0.000000   0.000000  -0.000000   0.000000
    28  H   -0.000000   0.000000  -0.000000  -0.000000   0.000000   0.000000
    29  S    0.000000   0.000000   0.000000  -0.000000  -0.000000   0.000000
    30  C    0.000008   0.000000  -0.000000  -0.000000  -0.000000  -0.000000
    31  H   -0.000012  -0.000000  -0.000000   0.000000   0.000000  -0.000000
    32  H   -0.000001   0.000000   0.000000  -0.000000   0.000000   0.000000
    33  C    0.000134   0.000000   0.000000   0.000000  -0.000000   0.000000
    34  H   -0.000000  -0.000000  -0.000000   0.000000   0.000000  -0.000000
    35  H   -0.000396   0.000006   0.000000  -0.000000  -0.000004   0.000000
    36  S    0.005821  -0.000134  -0.000020   0.000003  -0.000002  -0.000001
    37  C   -0.039362   0.001778   0.000065  -0.000043   0.000077  -0.000008
    38  H    0.002538   0.000016   0.000010   0.000002  -0.000012   0.000001
    39  H    0.002638   0.000011  -0.000014  -0.000002   0.000002   0.000000
    40  C    0.239162  -0.018995  -0.006411   0.002641  -0.003856  -0.000519
    41  H   -0.050042  -0.002112  -0.000873  -0.000058   0.003245   0.000048
    42  H   -0.048052  -0.004139   0.007688   0.000064  -0.000811   0.000065
    43  S   15.679916   0.265392  -0.043337  -0.038137  -0.057538   0.003235
    44  C    0.265392   5.175203   0.371205   0.378295   0.347590  -0.037285
    45  H   -0.043337   0.371205   0.575711  -0.027998  -0.045320   0.004693
    46  H   -0.038137   0.378295  -0.027998   0.545774  -0.036224  -0.003350
    47  C   -0.057538   0.347590  -0.045320  -0.036224   5.093656   0.384288
    48  H    0.003235  -0.037285   0.004693  -0.003350   0.384288   0.540961
    49  H   -0.005997  -0.038157  -0.003386   0.004425   0.387300  -0.028831
    50  H    0.005260  -0.027674  -0.001479  -0.003176   0.367450  -0.028136
              49         50
     1  C    0.000000   0.000000
     2  H    0.000000   0.000000
     3  H    0.000000   0.000000
     4  H    0.000000   0.000000
     5  C   -0.000000   0.000000
     6  H    0.000000   0.000000
     7  H   -0.000000   0.000000
     8  O    0.000000   0.000000
     9  C    0.000000  -0.000000
    10  H    0.000000   0.000000
    11  H    0.000000   0.000000
    12  C    0.000000   0.000000
    13  H   -0.000000   0.000000
    14  H   -0.000000   0.000000
    15  O    0.000000   0.000000
    16  C   -0.000000  -0.000000
    17  H   -0.000000   0.000000
    18  H    0.000000   0.000000
    19  C    0.000000  -0.000000
    20  H    0.000000  -0.000000
    21  H    0.000000   0.000000
    22  O   -0.000000  -0.000000
    23  C   -0.000000   0.000000
    24  H   -0.000000   0.000000
    25  H   -0.000000   0.000000
    26  C    0.000000  -0.000000
    27  H    0.000000  -0.000000
    28  H   -0.000000  -0.000000
    29  S   -0.000000   0.000000
    30  C    0.000000   0.000000
    31  H    0.000000  -0.000000
    32  H   -0.000000   0.000000
    33  C   -0.000002   0.000000
    34  H    0.000000  -0.000000
    35  H   -0.000019   0.000000
    36  S    0.000024  -0.000000
    37  C   -0.000033  -0.000000
    38  H    0.000005   0.000000
    39  H   -0.000000   0.000000
    40  C    0.002059   0.000088
    41  H    0.002862  -0.000187
    42  H    0.000249   0.000016
    43  S   -0.005997   0.005260
    44  C   -0.038157  -0.027674
    45  H   -0.003386  -0.001479
    46  H    0.004425  -0.003176
    47  C    0.387300   0.367450
    48  H   -0.028831  -0.028136
    49  H    0.557569  -0.030315
    50  H   -0.030315   0.567048
 Mulliken charges:
               1
     1  C   -0.463076
     2  H    0.154309
     3  H    0.161779
     4  H    0.149975
     5  C   -0.021349
     6  H    0.124314
     7  H    0.149559
     8  O   -0.475015
     9  C   -0.035424
    10  H    0.123234
    11  H    0.142471
    12  C   -0.049586
    13  H    0.151539
    14  H    0.134484
    15  O   -0.477919
    16  C   -0.059358
    17  H    0.152937
    18  H    0.165841
    19  C   -0.060584
    20  H    0.126616
    21  H    0.152545
    22  O   -0.471972
    23  C   -0.038452
    24  H    0.165858
    25  H    0.145969
    26  C   -0.437152
    27  H    0.176938
    28  H    0.169045
    29  S    0.098806
    30  C   -0.424443
    31  H    0.177771
    32  H    0.211415
    33  C   -0.418439
    34  H    0.178137
    35  H    0.170889
    36  S    0.111055
    37  C   -0.442936
    38  H    0.183773
    39  H    0.196284
    40  C   -0.393477
    41  H    0.171267
    42  H    0.179007
    43  S    0.078770
    44  C   -0.411001
    45  H    0.169467
    46  H    0.177784
    47  C   -0.439840
    48  H    0.164839
    49  H    0.152247
    50  H    0.151106
 Sum of Mulliken charges =  -0.00000
 Mulliken charges with hydrogens summed into heavy atoms:
               1
     1  C    0.002987
     5  C    0.252523
     8  O   -0.475015
     9  C    0.230281
    12  C    0.236438
    15  O   -0.477919
    16  C    0.259420
    19  C    0.218577
    22  O   -0.471972
    23  C    0.273374
    26  C   -0.091170
    29  S    0.098806
    30  C   -0.035258
    33  C   -0.069413
    36  S    0.111055
    37  C   -0.062879
    40  C   -0.043203
    43  S    0.078770
    44  C   -0.063750
    47  C    0.028351
 Electronic spatial extent (au):  <R**2>=          17333.7353
 Charge=             -0.0000 electrons
 Dipole moment (field-independent basis, Debye):
    X=             -3.8870    Y=              2.7180    Z=              1.5290  Tot=              4.9834
 Quadrupole moment (field-independent basis, Debye-Ang):
   XX=           -119.6876   YY=           -154.3926   ZZ=           -150.5399
   XY=             15.3968   XZ=             -2.6400   YZ=              4.0198
 Traceless Quadrupole moment (field-independent basis, Debye-Ang):
   XX=             21.8525   YY=            -12.8526   ZZ=             -8.9999
   XY=             15.3968   XZ=             -2.6400   YZ=              4.0198
 Octapole moment (field-independent basis, Debye-Ang**2):
  XXX=           -237.6410  YYY=             30.0846  ZZZ=             -2.2092  XYY=             -4.2828
  XXY=             63.1908  XXZ=             53.6876  XZZ=            -34.6185  YZZ=             13.7539
  YYZ=              3.4095  XYZ=             -2.2878
 Hexadecapole moment (field-independent basis, Debye-Ang**3):
 XXXX=         -17957.0395 YYYY=          -2832.5820 ZZZZ=           -745.8251 XXXY=            490.9568
 XXXZ=            101.0810 YYYX=            107.9933 YYYZ=             12.8707 ZZZX=            -20.0783
 ZZZY=              8.2350 XXYY=          -3513.6251 XXZZ=          -3425.3657 YYZZ=           -566.9638
 XXYZ=             94.2966 YYXZ=            -55.6517 ZZXY=            -28.1964
 N-N= 1.970411815550D+03 E-N=-8.586126384526D+03  KE= 1.960317870904D+03
 There are a total of     1155668 grid points.
 ElSum from          density=      186.0000411688
 ElSum from atomic densities=      186.0000502814
 Hirshfeld populations at iteration   1 (CA, CB, DipXYZ):
               1          2          3          4          5
     1  C    3.046715   3.046715  -0.003711  -0.008499   0.006797
     2  H    0.483530   0.483530  -0.046166   0.130603  -0.006645
     3  H    0.481679   0.481679   0.077728  -0.028329  -0.117598
     4  H    0.481146   0.481146  -0.116389  -0.080316  -0.006258
     5  C    2.985168   2.985168   0.039511   0.023719  -0.007055
     6  H    0.486136   0.486136  -0.076843   0.012082   0.098533
     7  H    0.480441   0.480441   0.026156  -0.139110  -0.001117
     8  O    4.085511   4.085511  -0.122887   0.068220   0.009379
     9  C    2.989364   2.989364   0.004096  -0.050086  -0.011483
    10  H    0.485188   0.485188  -0.057184   0.019318   0.110358
    11  H    0.483773   0.483773  -0.061476   0.080671  -0.082094
    12  C    2.987269   2.987269   0.016895   0.021104  -0.048674
    13  H    0.478374   0.478374  -0.014695   0.117998   0.079585
    14  H    0.484996   0.484996   0.063251  -0.073211   0.080357
    15  O    4.092337   4.092337  -0.015892  -0.154581   0.035589
    16  C    2.992281   2.992281  -0.010798   0.054975   0.030896
    17  H    0.480259   0.480259   0.019167   0.054491  -0.130803
    18  H    0.487813   0.487813  -0.064966  -0.077820  -0.038093
    19  C    2.989870   2.989870   0.017655  -0.038955  -0.041726
    20  H    0.486837   0.486837  -0.000262  -0.021571   0.119146
    21  H    0.480657   0.480657   0.097878   0.101374  -0.015635
    22  O    4.084209   4.084209  -0.075157  -0.012428   0.118266
    23  C    2.987912   2.987912   0.010420   0.050239  -0.014113
    24  H    0.480856   0.480856  -0.033275  -0.078589  -0.110631
    25  H    0.483251   0.483251  -0.109552  -0.002149   0.048824
    26  C    3.028541   3.028541  -0.014495   0.000897  -0.008757
    27  H    0.477104   0.477104  -0.082883  -0.111391   0.059555
    28  H    0.483221   0.483221   0.016845   0.080349   0.110295
    29  S    8.026830   8.026830  -0.055582   0.223581   0.017311
    30  C    3.028838   3.028838   0.003424   0.016587   0.003387
    31  H    0.480305   0.480305   0.100027  -0.036548  -0.099443
    32  H    0.483003   0.483003  -0.039073   0.092034  -0.076038
    33  C    3.026768   3.026768  -0.002169   0.007564  -0.019489
    34  H    0.480669   0.480669  -0.099836   0.036798   0.096768
    35  H    0.481593   0.481593   0.034129   0.127739  -0.047047
    36  S    8.023927   8.023927   0.017259   0.116285  -0.185132
    37  C    3.026237   3.026237  -0.001355   0.008444   0.007142
    38  H    0.481463   0.481463  -0.034537  -0.016832  -0.134673
    39  H    0.478057   0.478057   0.098545  -0.111308   0.027000
    40  C    3.028752   3.028752   0.008376   0.000361  -0.007869
    41  H    0.484935   0.484935  -0.093926   0.098424  -0.012319
    42  H    0.482467   0.482467   0.051770   0.008189   0.133999
    43  S    8.031192   8.031192  -0.068558   0.134541   0.176279
    44  C    3.023366   3.023366  -0.007447   0.023563   0.000840
    45  H    0.482255   0.482255   0.034296  -0.007016   0.140558
    46  H    0.478681   0.478681   0.132059   0.027134  -0.068250
    47  C    3.045906   3.045906   0.013912   0.009689   0.010427
    48  H    0.483389   0.483389  -0.024418   0.034660  -0.135080
    49  H    0.484255   0.484255  -0.119422  -0.000808   0.068792
    50  H    0.482700   0.482700   0.067242   0.112544   0.049525
       Tot  93.000021  93.000021  -0.502316   0.844628   0.213586

 Dip from Atomic Chgs             -1.026994   0.224728   0.387974
         Total Dipole             -1.529309   1.069356   0.601560

 Hirshfeld charges, spin densities, dipoles, and CM5 charges using IRadAn=      5:
              Q-H        S-H        Dx         Dy         Dz        Q-CM5   
     1  C   -0.093429   0.000000  -0.003711  -0.008499   0.006797  -0.241243
     2  H    0.032941   0.000000  -0.046166   0.130603  -0.006645   0.085861
     3  H    0.036642   0.000000   0.077728  -0.028329  -0.117598   0.089743
     4  H    0.037708   0.000000  -0.116389  -0.080316  -0.006258   0.088795
     5  C    0.029663   0.000000   0.039511   0.023719  -0.007055  -0.054432
     6  H    0.027728   0.000000  -0.076843   0.012082   0.098533   0.089722
     7  H    0.039119   0.000000   0.026156  -0.139110  -0.001117   0.102694
     8  O   -0.171021   0.000000  -0.122887   0.068220   0.009379  -0.279320
     9  C    0.021273   0.000000   0.004096  -0.050086  -0.011483  -0.058470
    10  H    0.029625   0.000000  -0.057184   0.019318   0.110358   0.092048
    11  H    0.032455   0.000000  -0.061476   0.080671  -0.082094   0.097595
    12  C    0.025462   0.000000   0.016895   0.021104  -0.048674  -0.053669
    13  H    0.043252   0.000000  -0.014695   0.117998   0.079585   0.107678
    14  H    0.030007   0.000000   0.063251  -0.073211   0.080357   0.095860
    15  O   -0.184673   0.000000  -0.015892  -0.154581   0.035589  -0.285644
    16  C    0.015439   0.000000  -0.010798   0.054975   0.030896  -0.064220
    17  H    0.039482   0.000000   0.019167   0.054491  -0.130803   0.105107
    18  H    0.024375   0.000000  -0.064966  -0.077820  -0.038093   0.097316
    19  C    0.020260   0.000000   0.017655  -0.038955  -0.041726  -0.060211
    20  H    0.026326   0.000000  -0.000262  -0.021571   0.119146   0.092213
    21  H    0.038687   0.000000   0.097878   0.101374  -0.015635   0.103664
    22  O   -0.168418   0.000000  -0.075157  -0.012428   0.118266  -0.275076
    23  C    0.024177   0.000000   0.010420   0.050239  -0.014113  -0.056833
    24  H    0.038288   0.000000  -0.033275  -0.078589  -0.110631   0.102750
    25  H    0.033497   0.000000  -0.109552  -0.002149   0.048824   0.097591
    26  C   -0.057083   0.000000  -0.014495   0.000897  -0.008757  -0.147266
    27  H    0.045792   0.000000  -0.082883  -0.111391   0.059555   0.102477
    28  H    0.033559   0.000000   0.016845   0.080349   0.110295   0.092133
    29  S   -0.053660   0.000000  -0.055582   0.223581   0.017311  -0.099678
    30  C   -0.057676   0.000000   0.003424   0.016587   0.003387  -0.148326
    31  H    0.039391   0.000000   0.100027  -0.036548  -0.099443   0.097025
    32  H    0.033994   0.000000  -0.039073   0.092034  -0.076038   0.096841
    33  C   -0.053536   0.000000  -0.002169   0.007564  -0.019489  -0.144430
    34  H    0.038661   0.000000  -0.099836   0.036798   0.096768   0.096433
    35  H    0.036815   0.000000   0.034129   0.127739  -0.047047   0.093398
    36  S   -0.047853   0.000000   0.017259   0.116285  -0.185132  -0.094634
    37  C   -0.052474   0.000000  -0.001355   0.008444   0.007142  -0.142962
    38  H    0.037074   0.000000  -0.034537  -0.016832  -0.134673   0.094640
    39  H    0.043887   0.000000   0.098545  -0.111308   0.027000   0.101189
    40  C   -0.057504   0.000000   0.008376   0.000361  -0.007869  -0.148665
    41  H    0.030131   0.000000  -0.093926   0.098424  -0.012319   0.087563
    42  H    0.035067   0.000000   0.051770   0.008189   0.133999   0.092104
    43  S   -0.062384   0.000000  -0.068558   0.134541   0.176279  -0.109967
    44  C   -0.046733   0.000000  -0.007447   0.023563   0.000840  -0.141183
    45  H    0.035491   0.000000   0.034296  -0.007016   0.140558   0.091199
    46  H    0.042638   0.000000   0.132059   0.027134  -0.068250   0.098763
    47  C   -0.091812   0.000000   0.013912   0.009689   0.010427  -0.239911
    48  H    0.033222   0.000000  -0.024418   0.034660  -0.135080   0.085017
    49  H    0.031490   0.000000  -0.119422  -0.000808   0.068792   0.083399
    50  H    0.034600   0.000000   0.067242   0.112544   0.049525   0.085279
       Tot  -0.000041   0.000000  -0.502316   0.844628   0.213586  -0.000041
 Hirshfeld charges with hydrogens summed into heavy atoms:
              Q-H       Q-CM5   
     1  C    0.013862   0.023156
     5  C    0.096510   0.137984
     8  O   -0.171021  -0.279320
     9  C    0.083352   0.131173
    12  C    0.098721   0.149869
    15  O   -0.184673  -0.285644
    16  C    0.079296   0.138203
    19  C    0.085273   0.135665
    22  O   -0.168418  -0.275076
    23  C    0.095962   0.143508
    26  C    0.022268   0.047344
    29  S   -0.053660  -0.099678
    30  C    0.015708   0.045541
    33  C    0.021940   0.045401
    36  S   -0.047853  -0.094634
    37  C    0.028487   0.052867
    40  C    0.007693   0.031003
    43  S   -0.062384  -0.109967
    44  C    0.031396   0.048778
    47  C    0.007500   0.013785
 
 EQQ= 0.000000000000E+00 EQD= 0.000000000000E+00 EDD=-0.478593595866E-02
 EQQ+QD+DD=-0.478593595866E-02
 
 No NMR shielding tensors so no spin-rotation constants.
 Leave Link  601 at Tue Jun 27 21:43:31 2023, MaxMem=   262144000 cpu:              16.9 elap:               2.1
 (Enter /dragofs/sw/campus/0.2/software/gaussian/16.gaussian/gaussian/g16_legacy/l9999.exe)
 1\1\GINC-DRAGO31050165\FOpt\RCAM-B3LYP\6-31G(d)\C14H30O3S3\JRAMOS\27-J
 un-2023\0\\#p opt cam-b3lyp/6-31G* pop=Hirshfeld\\Conformer number 000
 65. Energy MM = 148.772 kcal/mol\\0,1\C,-7.2002594228,-0.1196678947,-1
 .3510271973\H,-7.550478314,0.8066466025,-0.8869498229\H,-6.5503702858,
 0.1424126188,-2.1907329355\H,-8.0756248528,-0.6461505746,-1.7442155632
 \C,-6.4565875948,-1.0063751654,-0.3633310204\H,-7.1066583989,-1.267077
 7151,0.4861294399\H,-6.1591005084,-1.9402030813,-0.8487666668\O,-5.254
 6175836,-0.4328654884,0.1177896031\C,-5.4357481425,0.5789754279,1.0888
 850795\H,-6.0361406054,0.1834650432,1.9246720145\H,-5.9627197608,1.449
 593117,0.675686138\C,-4.0845308935,1.0268021052,1.6183792176\H,-4.2383
 128555,1.547470451,2.5682489794\H,-3.4779846143,0.132677297,1.81944587
 49\O,-3.4067811161,1.9513120898,0.7950987596\C,-2.8569271388,1.4282968
 132,-0.4031610667\H,-2.7019324369,2.2818931925,-1.068126008\H,-3.55477
 85811,0.7405917272,-0.8884775258\C,-1.5178674506,0.7364268222,-0.15894
 73189\H,-1.605160225,-0.0006643475,0.6508885151\H,-0.7673481479,1.4706
 010019,0.1464472753\O,-1.0531278063,0.1283334066,-1.3503057466\C,-1.53
 7311539,-1.1886994037,-1.5595311205\H,-1.5857271559,-1.3368478335,-2.6
 415912579\H,-2.5552703922,-1.2876002559,-1.1549462698\C,-0.6429234173,
 -2.2523229529,-0.9325978684\H,-1.1538519971,-3.2194578631,-0.980273242
 9\H,-0.4807746221,-2.0385701412,0.1292996978\S,0.9507564426,-2.5452076
 171,-1.7667281091\C,1.8900029278,-1.0386073312,-1.3499282648\H,2.71277
 55839,-1.0080559067,-2.0697200487\H,1.2491099281,-0.175600398,-1.53948
 77439\C,2.4270961404,-0.9861597742,0.0780548994\H,1.6298229741,-1.1957
 474523,0.796218122\H,2.7839168736,0.0256618298,0.2984345273\S,3.757539
 638,-2.1742792711,0.4569441852\C,5.1949228489,-1.304999362,-0.24990637
 4\H,4.9294342177,-0.9010589156,-1.2318079215\H,5.9547623496,-2.0722680
 523,-0.4185226782\C,5.7460415411,-0.2119271083,0.6576033145\H,4.970306
 8431,0.5259949391,0.8790220983\H,6.077077741,-0.6489342724,1.604014421
 6\S,7.161276999,0.5996084091,-0.1629916963\C,7.7700655458,1.6570399748
 ,1.1912514401\H,7.9686159156,1.0268694732,2.0642083317\H,8.7377187327,
 2.0259767999,0.8392641918\C,6.8584108686,2.8221697817,1.5539388019\H,6
 .6770241,3.4605586873,0.6852912828\H,5.8902769571,2.4754301382,1.92665
 4329\H,7.3158606909,3.4316404296,2.3408029276\\Version=EM64L-G16RevA.0
 3\State=1-A\HF=-1971.3142112\RMSD=4.934e-09\RMSF=2.384e-06\Dipole=-1.5
 948452,0.622402,0.9555717\Quadrupole=15.3300104,-10.9355417,-4.3944687
 ,11.5296009,4.7643916,1.120947\PG=C01 [X(C14H30O3S3)]\\@


 DO NOT LET SELFISH MEN OR GREEDY INTERESTS SKIN YOUR COUNTRY OF ITS
 BEAUTY, ITS RICHES, OR ITS ROMANCE. -- THEODORE ROOSEVELT
 Job cpu time:       0 days  6 hours 47 minutes 39.3 seconds.
 Elapsed time:       0 days  0 hours 52 minutes  2.3 seconds.
 File lengths (MBytes):  RWF=     92 Int=      0 D2E=      0 Chk=     13 Scr=      1
 Normal termination of Gaussian 16 at Tue Jun 27 21:43:31 2023.
