 Entering Gaussian System, Link 0=g16
 Input=DVE-DMSD_1_00064_gaussian.com
 Output=DVE-DMSD_1_00064_gaussian.log
 Initial command:
 /dragofs/sw/campus/0.2/software/gaussian/16.gaussian/gaussian/g16_legacy/l1.exe "/lustre/scratch-global/iem/jramos/172812/Gau-809354.inp" -scrdir="/lustre/scratch-global/iem/jramos/172812/"
 Entering Link 1 = /dragofs/sw/campus/0.2/software/gaussian/16.gaussian/gaussian/g16_legacy/l1.exe PID=    809355.
  
 Copyright (c) 1988,1990,1992,1993,1995,1998,2003,2009,2016,
            Gaussian, Inc.  All Rights Reserved.
  
 This is part of the Gaussian(R) 16 program.  It is based on
 the Gaussian(R) 09 system (copyright 2009, Gaussian, Inc.),
 the Gaussian(R) 03 system (copyright 2003, Gaussian, Inc.),
 the Gaussian(R) 98 system (copyright 1998, Gaussian, Inc.),
 the Gaussian(R) 94 system (copyright 1995, Gaussian, Inc.),
 the Gaussian 92(TM) system (copyright 1992, Gaussian, Inc.),
 the Gaussian 90(TM) system (copyright 1990, Gaussian, Inc.),
 the Gaussian 88(TM) system (copyright 1988, Gaussian, Inc.),
 the Gaussian 86(TM) system (copyright 1986, Carnegie Mellon
 University), and the Gaussian 82(TM) system (copyright 1983,
 Carnegie Mellon University). Gaussian is a federally registered
 trademark of Gaussian, Inc.
  
 This software contains proprietary and confidential information,
 including trade secrets, belonging to Gaussian, Inc.
  
 This software is provided under written license and may be
 used, copied, transmitted, or stored only in accord with that
 written license.
  
 The following legend is applicable only to US Government
 contracts under FAR:
  
                    RESTRICTED RIGHTS LEGEND
  
 Use, reproduction and disclosure by the US Government is
 subject to restrictions as set forth in subparagraphs (a)
 and (c) of the Commercial Computer Software - Restricted
 Rights clause in FAR 52.227-19.
  
 Gaussian, Inc.
 340 Quinnipiac St., Bldg. 40, Wallingford CT 06492
  
  
 ---------------------------------------------------------------
 Warning -- This program may not be used in any manner that
 competes with the business of Gaussian, Inc. or will provide
 assistance to any competitor of Gaussian, Inc.  The licensee
 of this program is prohibited from giving any competitor of
 Gaussian, Inc. access to this program.  By using this program,
 the user acknowledges that Gaussian, Inc. is engaged in the
 business of creating and licensing software in the field of
 computational chemistry and represents and warrants to the
 licensee that it is not a competitor of Gaussian, Inc. and that
 it will not use this program in any manner prohibited above.
 ---------------------------------------------------------------
  

 Cite this work as:
 Gaussian 16, Revision A.03,
 M. J. Frisch, G. W. Trucks, H. B. Schlegel, G. E. Scuseria, 
 M. A. Robb, J. R. Cheeseman, G. Scalmani, V. Barone, 
 G. A. Petersson, H. Nakatsuji, X. Li, M. Caricato, A. V. Marenich, 
 J. Bloino, B. G. Janesko, R. Gomperts, B. Mennucci, H. P. Hratchian, 
 J. V. Ortiz, A. F. Izmaylov, J. L. Sonnenberg, D. Williams-Young, 
 F. Ding, F. Lipparini, F. Egidi, J. Goings, B. Peng, A. Petrone, 
 T. Henderson, D. Ranasinghe, V. G. Zakrzewski, J. Gao, N. Rega, 
 G. Zheng, W. Liang, M. Hada, M. Ehara, K. Toyota, R. Fukuda, 
 J. Hasegawa, M. Ishida, T. Nakajima, Y. Honda, O. Kitao, H. Nakai, 
 T. Vreven, K. Throssell, J. A. Montgomery, Jr., J. E. Peralta, 
 F. Ogliaro, M. J. Bearpark, J. J. Heyd, E. N. Brothers, K. N. Kudin, 
 V. N. Staroverov, T. A. Keith, R. Kobayashi, J. Normand, 
 K. Raghavachari, A. P. Rendell, J. C. Burant, S. S. Iyengar, 
 J. Tomasi, M. Cossi, J. M. Millam, M. Klene, C. Adamo, R. Cammi, 
 J. W. Ochterski, R. L. Martin, K. Morokuma, O. Farkas, 
 J. B. Foresman, and D. J. Fox, Gaussian, Inc., Wallingford CT, 2016.
 
 ******************************************
 Gaussian 16:  EM64L-G16RevA.03 25-Dec-2016
                27-Jun-2023 
 ******************************************
 %chk=DVE-DMSD_1_00064_gaussian.chk
 %nproc=8
 Will use up to    8 processors via shared memory.
 %mem=2000Mb
 -------------------------------------
 #p opt cam-b3lyp/6-31G* pop=Hirshfeld
 -------------------------------------
 1/18=20,19=15,26=3,38=1/1,3;
 2/9=110,12=2,17=6,18=5,40=1/2;
 3/5=1,6=6,7=1,11=2,25=1,30=1,71=1,74=-40/1,2,3;
 4//1;
 5/5=2,38=5/2;
 6/7=2,8=2,9=2,10=2,28=1,79=1/1;
 7//1,2,3,16;
 1/18=20,19=15,26=3/3(2);
 2/9=110/2;
 99//99;
 2/9=110/2;
 3/5=1,6=6,7=1,11=2,25=1,30=1,71=1,74=-40/1,2,3;
 4/5=5,16=3,69=1/1;
 5/5=2,38=5/2;
 7//1,2,3,16;
 1/18=20,19=15,26=3/3(-5);
 2/9=110/2;
 6/7=2,8=2,9=2,10=2,19=2,28=1,79=1/1;
 99/9=1/99;
 Leave Link    1 at Tue Jun 27 20:50:25 2023, MaxMem=   262144000 cpu:               0.3 elap:               0.1
 (Enter /dragofs/sw/campus/0.2/software/gaussian/16.gaussian/gaussian/g16_legacy/l101.exe)
 ----------------------------------------------------
 Conformer number 00064. Energy MM = 162.552 kcal/mol
 ----------------------------------------------------
 Symbolic Z-matrix:
 Charge =  0 Multiplicity = 1
 C                    -8.3473   -1.2877    0.6774 
 H                    -8.816    -0.8579   -0.2525 
 H                    -7.6941   -2.0983    0.3311 
 H                    -9.1298   -1.7297    1.34 
 C                    -7.6252   -0.2097    1.4543 
 H                    -8.0207    0.803     1.1528 
 H                    -7.7259   -0.3462    2.5572 
 O                    -6.2746   -0.1993    1.0561 
 C                    -6.2798    0.0661   -0.3028 
 H                    -6.7035    1.0732   -0.514 
 H                    -6.7917   -0.7284   -0.8814 
 C                    -4.8403    0.1083   -0.8574 
 H                    -4.3575   -0.8775   -0.6784 
 H                    -4.9549    0.2462   -1.9407 
 O                    -4.1736    1.0961   -0.1975 
 C                    -2.8854    1.2491   -0.6506 
 H                    -2.4561    2.1281   -0.0881 
 H                    -2.9816    1.5806   -1.7184 
 C                    -2.0724    0.0278   -0.4662 
 H                    -2.4556   -0.8493   -1.0662 
 H                    -2.0361   -0.2498    0.6221 
 O                    -0.7787    0.2078   -0.9072 
 C                    -0.7272    0.4861   -2.2426 
 H                    -1.2694    1.3939   -2.5759 
 H                    -1.1134   -0.4165   -2.7862 
 C                     0.7456    0.6262   -2.6439 
 H                     1.1386    1.4597   -1.9913 
 H                     0.8349    0.9474   -3.7008 
 S                     1.5772   -0.9293   -2.3101 
 C                     1.663    -1.2001   -0.5285 
 H                     0.6973   -1.2623   -0.0377 
 H                     2.2703   -2.1384   -0.357 
 C                     2.5662   -0.0902    0.0301 
 H                     2.6561   -0.1618    1.1343 
 H                     2.1095    0.8668   -0.2965 
 S                     4.1781   -0.3181   -0.7971 
 C                     5.3149    0.9524   -0.2167 
 H                     4.9143    1.9534   -0.4262 
 H                     6.2808    0.7941   -0.7792 
 C                     5.577     0.7062    1.2538 
 H                     6.2217    1.4868    1.7 
 H                     4.5684    0.6768    1.7524 
 S                     6.3068   -0.9445    1.4146 
 C                     7.9461   -0.9099    0.6199 
 H                     8.4008   -1.9198    0.5976 
 H                     7.9227   -0.5184   -0.3981 
 C                     8.8084    0.0329    1.4706 
 H                     8.2737    0.9871    1.5954 
 H                     8.9718   -0.3896    2.4693 
 H                     9.7663    0.2563    0.9696 
 
 ITRead=  0  0  0  0  0  0  0  0  0  0  0  0  0  0  0  0  0  0  0  0
 ITRead=  0  0  0  0  0  0  0  0  0  0  0  0  0  0  0  0  0  0  0  0
 ITRead=  0  0  0  0  0  0  0  0  0  0
 MicOpt= -1 -1 -1 -1 -1 -1 -1 -1 -1 -1 -1 -1 -1 -1 -1 -1 -1 -1 -1 -1
 MicOpt= -1 -1 -1 -1 -1 -1 -1 -1 -1 -1 -1 -1 -1 -1 -1 -1 -1 -1 -1 -1
 MicOpt= -1 -1 -1 -1 -1 -1 -1 -1 -1 -1
 NAtoms=     50 NQM=       50 NQMF=       0 NMMI=      0 NMMIF=      0
                NMic=       0 NMicF=      0.
                    Isotopes and Nuclear Properties:
 (Nuclear quadrupole moments (NQMom) in fm**2, nuclear magnetic moments (NMagM)
  in nuclear magnetons)

  Atom         1           2           3           4           5           6           7           8           9          10
 IAtWgt=          12           1           1           1          12           1           1          16          12           1
 AtmWgt=  12.0000000   1.0078250   1.0078250   1.0078250  12.0000000   1.0078250   1.0078250  15.9949146  12.0000000   1.0078250
 NucSpn=           0           1           1           1           0           1           1           0           0           1
 AtZEff=  -0.0000000  -0.0000000  -0.0000000  -0.0000000  -0.0000000  -0.0000000  -0.0000000  -0.0000000  -0.0000000  -0.0000000
 NQMom=    0.0000000   0.0000000   0.0000000   0.0000000   0.0000000   0.0000000   0.0000000   0.0000000   0.0000000   0.0000000
 NMagM=    0.0000000   2.7928460   2.7928460   2.7928460   0.0000000   2.7928460   2.7928460   0.0000000   0.0000000   2.7928460
 AtZNuc=   6.0000000   1.0000000   1.0000000   1.0000000   6.0000000   1.0000000   1.0000000   8.0000000   6.0000000   1.0000000

  Atom        11          12          13          14          15          16          17          18          19          20
 IAtWgt=           1          12           1           1          16          12           1           1          12           1
 AtmWgt=   1.0078250  12.0000000   1.0078250   1.0078250  15.9949146  12.0000000   1.0078250   1.0078250  12.0000000   1.0078250
 NucSpn=           1           0           1           1           0           0           1           1           0           1
 AtZEff=  -0.0000000  -0.0000000  -0.0000000  -0.0000000  -0.0000000  -0.0000000  -0.0000000  -0.0000000  -0.0000000  -0.0000000
 NQMom=    0.0000000   0.0000000   0.0000000   0.0000000   0.0000000   0.0000000   0.0000000   0.0000000   0.0000000   0.0000000
 NMagM=    2.7928460   0.0000000   2.7928460   2.7928460   0.0000000   0.0000000   2.7928460   2.7928460   0.0000000   2.7928460
 AtZNuc=   1.0000000   6.0000000   1.0000000   1.0000000   8.0000000   6.0000000   1.0000000   1.0000000   6.0000000   1.0000000

  Atom        21          22          23          24          25          26          27          28          29          30
 IAtWgt=           1          16          12           1           1          12           1           1          32          12
 AtmWgt=   1.0078250  15.9949146  12.0000000   1.0078250   1.0078250  12.0000000   1.0078250   1.0078250  31.9720718  12.0000000
 NucSpn=           1           0           0           1           1           0           1           1           0           0
 AtZEff=  -0.0000000  -0.0000000  -0.0000000  -0.0000000  -0.0000000  -0.0000000  -0.0000000  -0.0000000  -0.0000000  -0.0000000
 NQMom=    0.0000000   0.0000000   0.0000000   0.0000000   0.0000000   0.0000000   0.0000000   0.0000000   0.0000000   0.0000000
 NMagM=    2.7928460   0.0000000   0.0000000   2.7928460   2.7928460   0.0000000   2.7928460   2.7928460   0.0000000   0.0000000
 AtZNuc=   1.0000000   8.0000000   6.0000000   1.0000000   1.0000000   6.0000000   1.0000000   1.0000000  16.0000000   6.0000000

  Atom        31          32          33          34          35          36          37          38          39          40
 IAtWgt=           1           1          12           1           1          32          12           1           1          12
 AtmWgt=   1.0078250   1.0078250  12.0000000   1.0078250   1.0078250  31.9720718  12.0000000   1.0078250   1.0078250  12.0000000
 NucSpn=           1           1           0           1           1           0           0           1           1           0
 AtZEff=  -0.0000000  -0.0000000  -0.0000000  -0.0000000  -0.0000000  -0.0000000  -0.0000000  -0.0000000  -0.0000000  -0.0000000
 NQMom=    0.0000000   0.0000000   0.0000000   0.0000000   0.0000000   0.0000000   0.0000000   0.0000000   0.0000000   0.0000000
 NMagM=    2.7928460   2.7928460   0.0000000   2.7928460   2.7928460   0.0000000   0.0000000   2.7928460   2.7928460   0.0000000
 AtZNuc=   1.0000000   1.0000000   6.0000000   1.0000000   1.0000000  16.0000000   6.0000000   1.0000000   1.0000000   6.0000000

  Atom        41          42          43          44          45          46          47          48          49          50
 IAtWgt=           1           1          32          12           1           1          12           1           1           1
 AtmWgt=   1.0078250   1.0078250  31.9720718  12.0000000   1.0078250   1.0078250  12.0000000   1.0078250   1.0078250   1.0078250
 NucSpn=           1           1           0           0           1           1           0           1           1           1
 AtZEff=  -0.0000000  -0.0000000  -0.0000000  -0.0000000  -0.0000000  -0.0000000  -0.0000000  -0.0000000  -0.0000000  -0.0000000
 NQMom=    0.0000000   0.0000000   0.0000000   0.0000000   0.0000000   0.0000000   0.0000000   0.0000000   0.0000000   0.0000000
 NMagM=    2.7928460   2.7928460   0.0000000   0.0000000   2.7928460   2.7928460   0.0000000   2.7928460   2.7928460   2.7928460
 AtZNuc=   1.0000000   1.0000000  16.0000000   6.0000000   1.0000000   1.0000000   6.0000000   1.0000000   1.0000000   1.0000000
 Leave Link  101 at Tue Jun 27 20:50:25 2023, MaxMem=   262144000 cpu:               1.5 elap:               0.2
 (Enter /dragofs/sw/campus/0.2/software/gaussian/16.gaussian/gaussian/g16_legacy/l103.exe)

 GradGradGradGradGradGradGradGradGradGradGradGradGradGradGradGradGradGrad
 Berny optimization.
 Initialization pass.
                           ----------------------------
                           !    Initial Parameters    !
                           ! (Angstroms and Degrees)  !
 --------------------------                            --------------------------
 ! Name  Definition              Value          Derivative Info.                !
 --------------------------------------------------------------------------------
 ! R1    R(1,2)                  1.1266         estimate D2E/DX2                !
 ! R2    R(1,3)                  1.0971         estimate D2E/DX2                !
 ! R3    R(1,4)                  1.1166         estimate D2E/DX2                !
 ! R4    R(1,5)                  1.5123         estimate D2E/DX2                !
 ! R5    R(5,6)                  1.1282         estimate D2E/DX2                !
 ! R6    R(5,7)                  1.1159         estimate D2E/DX2                !
 ! R7    R(5,8)                  1.4081         estimate D2E/DX2                !
 ! R8    R(8,9)                  1.3846         estimate D2E/DX2                !
 ! R9    R(9,10)                 1.1128         estimate D2E/DX2                !
 ! R10   R(9,11)                 1.1082         estimate D2E/DX2                !
 ! R11   R(9,12)                 1.5432         estimate D2E/DX2                !
 ! R12   R(12,13)                1.1122         estimate D2E/DX2                !
 ! R13   R(12,14)                1.098          estimate D2E/DX2                !
 ! R14   R(12,15)                1.3622         estimate D2E/DX2                !
 ! R15   R(15,16)                1.3741         estimate D2E/DX2                !
 ! R16   R(16,17)                1.1284         estimate D2E/DX2                !
 ! R17   R(16,18)                1.1222         estimate D2E/DX2                !
 ! R18   R(16,19)                1.4787         estimate D2E/DX2                !
 ! R19   R(19,20)                1.1297         estimate D2E/DX2                !
 ! R20   R(19,21)                1.1237         estimate D2E/DX2                !
 ! R21   R(19,22)                1.3786         estimate D2E/DX2                !
 ! R22   R(22,23)                1.3651         estimate D2E/DX2                !
 ! R23   R(23,24)                1.1087         estimate D2E/DX2                !
 ! R24   R(23,25)                1.1222         estimate D2E/DX2                !
 ! R25   R(23,26)                1.5329         estimate D2E/DX2                !
 ! R26   R(26,27)                1.1292         estimate D2E/DX2                !
 ! R27   R(26,28)                1.1082         estimate D2E/DX2                !
 ! R28   R(26,29)                1.7951         estimate D2E/DX2                !
 ! R29   R(29,30)                1.8041         estimate D2E/DX2                !
 ! R30   R(30,31)                1.085          estimate D2E/DX2                !
 ! R31   R(30,32)                1.1308         estimate D2E/DX2                !
 ! R32   R(30,33)                1.5361         estimate D2E/DX2                !
 ! R33   R(33,34)                1.1102         estimate D2E/DX2                !
 ! R34   R(33,35)                1.1095         estimate D2E/DX2                !
 ! R35   R(33,36)                1.826          estimate D2E/DX2                !
 ! R36   R(36,37)                1.8009         estimate D2E/DX2                !
 ! R37   R(37,38)                1.0983         estimate D2E/DX2                !
 ! R38   R(37,39)                1.1289         estimate D2E/DX2                !
 ! R39   R(37,40)                1.5138         estimate D2E/DX2                !
 ! R40   R(40,41)                1.1064         estimate D2E/DX2                !
 ! R41   R(40,42)                1.1255         estimate D2E/DX2                !
 ! R42   R(40,43)                1.812          estimate D2E/DX2                !
 ! R43   R(43,44)                1.8221         estimate D2E/DX2                !
 ! R44   R(44,45)                1.1078         estimate D2E/DX2                !
 ! R45   R(44,46)                1.0909         estimate D2E/DX2                !
 ! R46   R(44,47)                1.535          estimate D2E/DX2                !
 ! R47   R(47,48)                1.1009         estimate D2E/DX2                !
 ! R48   R(47,49)                1.0966         estimate D2E/DX2                !
 ! R49   R(47,50)                1.1038         estimate D2E/DX2                !
 ! A1    A(2,1,3)              105.6073         estimate D2E/DX2                !
 ! A2    A(2,1,4)              110.4442         estimate D2E/DX2                !
 ! A3    A(2,1,5)              110.5329         estimate D2E/DX2                !
 ! A4    A(3,1,4)              108.1849         estimate D2E/DX2                !
 ! A5    A(3,1,5)              113.8618         estimate D2E/DX2                !
 ! A6    A(4,1,5)              108.1764         estimate D2E/DX2                !
 ! A7    A(1,5,6)              109.5825         estimate D2E/DX2                !
 ! A8    A(1,5,7)              112.1765         estimate D2E/DX2                !
 ! A9    A(1,5,8)              108.5401         estimate D2E/DX2                !
 ! A10   A(6,5,7)              110.0168         estimate D2E/DX2                !
 ! A11   A(6,5,8)              104.7163         estimate D2E/DX2                !
 ! A12   A(7,5,8)              111.5285         estimate D2E/DX2                !
 ! A13   A(5,8,9)              105.9833         estimate D2E/DX2                !
 ! A14   A(8,9,10)             111.1719         estimate D2E/DX2                !
 ! A15   A(8,9,11)             112.1321         estimate D2E/DX2                !
 ! A16   A(8,9,12)             110.7598         estimate D2E/DX2                !
 ! A17   A(10,9,11)            111.954          estimate D2E/DX2                !
 ! A18   A(10,9,12)            105.2007         estimate D2E/DX2                !
 ! A19   A(11,9,12)            105.2393         estimate D2E/DX2                !
 ! A20   A(9,12,13)            108.8353         estimate D2E/DX2                !
 ! A21   A(9,12,14)            105.1078         estimate D2E/DX2                !
 ! A22   A(9,12,15)            107.5933         estimate D2E/DX2                !
 ! A23   A(13,12,14)           108.3855         estimate D2E/DX2                !
 ! A24   A(13,12,15)           110.6286         estimate D2E/DX2                !
 ! A25   A(14,12,15)           115.972          estimate D2E/DX2                !
 ! A26   A(12,15,16)           112.3226         estimate D2E/DX2                !
 ! A27   A(15,16,17)           106.2017         estimate D2E/DX2                !
 ! A28   A(15,16,18)           105.4432         estimate D2E/DX2                !
 ! A29   A(15,16,19)           112.4794         estimate D2E/DX2                !
 ! A30   A(17,16,18)           106.0707         estimate D2E/DX2                !
 ! A31   A(17,16,19)           111.8411         estimate D2E/DX2                !
 ! A32   A(18,16,19)           114.1904         estimate D2E/DX2                !
 ! A33   A(16,19,20)           112.8633         estimate D2E/DX2                !
 ! A34   A(16,19,21)           110.0332         estimate D2E/DX2                !
 ! A35   A(16,19,22)           111.6057         estimate D2E/DX2                !
 ! A36   A(20,19,21)           109.4836         estimate D2E/DX2                !
 ! A37   A(20,19,22)           104.4655         estimate D2E/DX2                !
 ! A38   A(21,19,22)           108.1643         estimate D2E/DX2                !
 ! A39   A(19,22,23)           112.0219         estimate D2E/DX2                !
 ! A40   A(22,23,24)           116.2685         estimate D2E/DX2                !
 ! A41   A(22,23,25)           107.2725         estimate D2E/DX2                !
 ! A42   A(22,23,26)           108.1184         estimate D2E/DX2                !
 ! A43   A(24,23,25)           110.1604         estimate D2E/DX2                !
 ! A44   A(24,23,26)           108.4415         estimate D2E/DX2                !
 ! A45   A(25,23,26)           106.102          estimate D2E/DX2                !
 ! A46   A(23,26,27)           104.5104         estimate D2E/DX2                !
 ! A47   A(23,26,28)           110.7059         estimate D2E/DX2                !
 ! A48   A(23,26,29)           108.4943         estimate D2E/DX2                !
 ! A49   A(27,26,28)           108.0103         estimate D2E/DX2                !
 ! A50   A(27,26,29)           111.7717         estimate D2E/DX2                !
 ! A51   A(28,26,29)           113.0257         estimate D2E/DX2                !
 ! A52   A(26,29,30)           109.6164         estimate D2E/DX2                !
 ! A53   A(29,30,31)           114.3912         estimate D2E/DX2                !
 ! A54   A(29,30,32)           107.4498         estimate D2E/DX2                !
 ! A55   A(29,30,33)           106.1776         estimate D2E/DX2                !
 ! A56   A(31,30,32)           111.2123         estimate D2E/DX2                !
 ! A57   A(31,30,33)           113.5927         estimate D2E/DX2                !
 ! A58   A(32,30,33)           103.2156         estimate D2E/DX2                !
 ! A59   A(30,33,34)           111.2662         estimate D2E/DX2                !
 ! A60   A(30,33,35)           105.9108         estimate D2E/DX2                !
 ! A61   A(30,33,36)           105.3143         estimate D2E/DX2                !
 ! A62   A(34,33,35)           112.4411         estimate D2E/DX2                !
 ! A63   A(34,33,36)           111.7795         estimate D2E/DX2                !
 ! A64   A(35,33,36)           109.7334         estimate D2E/DX2                !
 ! A65   A(33,36,37)           108.8545         estimate D2E/DX2                !
 ! A66   A(36,37,38)           110.5633         estimate D2E/DX2                !
 ! A67   A(36,37,39)           106.2948         estimate D2E/DX2                !
 ! A68   A(36,37,40)           107.9152         estimate D2E/DX2                !
 ! A69   A(38,37,39)           110.1708         estimate D2E/DX2                !
 ! A70   A(38,37,40)           113.3688         estimate D2E/DX2                !
 ! A71   A(39,37,40)           108.2441         estimate D2E/DX2                !
 ! A72   A(37,40,41)           112.2036         estimate D2E/DX2                !
 ! A73   A(37,40,42)           106.2255         estimate D2E/DX2                !
 ! A74   A(37,40,43)           107.7037         estimate D2E/DX2                !
 ! A75   A(41,40,42)           111.2205         estimate D2E/DX2                !
 ! A76   A(41,40,43)           111.8552         estimate D2E/DX2                !
 ! A77   A(42,40,43)           107.3268         estimate D2E/DX2                !
 ! A78   A(40,43,44)           107.8396         estimate D2E/DX2                !
 ! A79   A(43,44,45)           111.1465         estimate D2E/DX2                !
 ! A80   A(43,44,46)           113.235          estimate D2E/DX2                !
 ! A81   A(43,44,47)           105.9833         estimate D2E/DX2                !
 ! A82   A(45,44,46)           108.4925         estimate D2E/DX2                !
 ! A83   A(45,44,47)           109.9086         estimate D2E/DX2                !
 ! A84   A(46,44,47)           107.9863         estimate D2E/DX2                !
 ! A85   A(44,47,48)           108.8049         estimate D2E/DX2                !
 ! A86   A(44,47,49)           110.5966         estimate D2E/DX2                !
 ! A87   A(44,47,50)           111.1163         estimate D2E/DX2                !
 ! A88   A(48,47,49)           107.6416         estimate D2E/DX2                !
 ! A89   A(48,47,50)           107.3083         estimate D2E/DX2                !
 ! A90   A(49,47,50)           111.2234         estimate D2E/DX2                !
 ! D1    D(2,1,5,6)             20.4979         estimate D2E/DX2                !
 ! D2    D(2,1,5,7)            143.0004         estimate D2E/DX2                !
 ! D3    D(2,1,5,8)            -93.3114         estimate D2E/DX2                !
 ! D4    D(3,1,5,6)            139.1715         estimate D2E/DX2                !
 ! D5    D(3,1,5,7)            -98.326          estimate D2E/DX2                !
 ! D6    D(3,1,5,8)             25.3623         estimate D2E/DX2                !
 ! D7    D(4,1,5,6)           -100.5364         estimate D2E/DX2                !
 ! D8    D(4,1,5,7)             21.9661         estimate D2E/DX2                !
 ! D9    D(4,1,5,8)            145.6543         estimate D2E/DX2                !
 ! D10   D(1,5,8,9)             59.9146         estimate D2E/DX2                !
 ! D11   D(6,5,8,9)            -57.0595         estimate D2E/DX2                !
 ! D12   D(7,5,8,9)           -176.0102         estimate D2E/DX2                !
 ! D13   D(5,8,9,10)            63.193          estimate D2E/DX2                !
 ! D14   D(5,8,9,11)           -62.9881         estimate D2E/DX2                !
 ! D15   D(5,8,9,12)           179.7776         estimate D2E/DX2                !
 ! D16   D(8,9,12,13)           59.8934         estimate D2E/DX2                !
 ! D17   D(8,9,12,14)          175.8236         estimate D2E/DX2                !
 ! D18   D(8,9,12,15)          -60.0188         estimate D2E/DX2                !
 ! D19   D(10,9,12,13)        -179.8918         estimate D2E/DX2                !
 ! D20   D(10,9,12,14)         -63.9617         estimate D2E/DX2                !
 ! D21   D(10,9,12,15)          60.1959         estimate D2E/DX2                !
 ! D22   D(11,9,12,13)         -61.4962         estimate D2E/DX2                !
 ! D23   D(11,9,12,14)          54.434          estimate D2E/DX2                !
 ! D24   D(11,9,12,15)         178.5916         estimate D2E/DX2                !
 ! D25   D(9,12,15,16)        -177.9335         estimate D2E/DX2                !
 ! D26   D(13,12,15,16)         63.2986         estimate D2E/DX2                !
 ! D27   D(14,12,15,16)        -60.6365         estimate D2E/DX2                !
 ! D28   D(12,15,16,17)        176.3678         estimate D2E/DX2                !
 ! D29   D(12,15,16,18)         64.0751         estimate D2E/DX2                !
 ! D30   D(12,15,16,19)        -60.9819         estimate D2E/DX2                !
 ! D31   D(15,16,19,20)         63.6519         estimate D2E/DX2                !
 ! D32   D(15,16,19,21)        -58.9662         estimate D2E/DX2                !
 ! D33   D(15,16,19,22)       -179.0526         estimate D2E/DX2                !
 ! D34   D(17,16,19,20)       -176.9308         estimate D2E/DX2                !
 ! D35   D(17,16,19,21)         60.451          estimate D2E/DX2                !
 ! D36   D(17,16,19,22)        -59.6353         estimate D2E/DX2                !
 ! D37   D(18,16,19,20)        -56.4674         estimate D2E/DX2                !
 ! D38   D(18,16,19,21)       -179.0856         estimate D2E/DX2                !
 ! D39   D(18,16,19,22)         60.828          estimate D2E/DX2                !
 ! D40   D(16,19,22,23)        -61.7691         estimate D2E/DX2                !
 ! D41   D(20,19,22,23)         60.4899         estimate D2E/DX2                !
 ! D42   D(21,19,22,23)        177.0517         estimate D2E/DX2                !
 ! D43   D(19,22,23,24)         59.5092         estimate D2E/DX2                !
 ! D44   D(19,22,23,25)        -64.2674         estimate D2E/DX2                !
 ! D45   D(19,22,23,26)       -178.3052         estimate D2E/DX2                !
 ! D46   D(22,23,26,27)        -58.5781         estimate D2E/DX2                !
 ! D47   D(22,23,26,28)       -174.6346         estimate D2E/DX2                !
 ! D48   D(22,23,26,29)         60.7994         estimate D2E/DX2                !
 ! D49   D(24,23,26,27)         68.2908         estimate D2E/DX2                !
 ! D50   D(24,23,26,28)        -47.7656         estimate D2E/DX2                !
 ! D51   D(24,23,26,29)       -172.3316         estimate D2E/DX2                !
 ! D52   D(25,23,26,27)       -173.3887         estimate D2E/DX2                !
 ! D53   D(25,23,26,28)         70.5549         estimate D2E/DX2                !
 ! D54   D(25,23,26,29)        -54.0112         estimate D2E/DX2                !
 ! D55   D(23,26,29,30)        -68.1105         estimate D2E/DX2                !
 ! D56   D(27,26,29,30)         46.6033         estimate D2E/DX2                !
 ! D57   D(28,26,29,30)        168.7104         estimate D2E/DX2                !
 ! D58   D(26,29,30,31)         60.9051         estimate D2E/DX2                !
 ! D59   D(26,29,30,32)       -175.1096         estimate D2E/DX2                !
 ! D60   D(26,29,30,33)        -65.1892         estimate D2E/DX2                !
 ! D61   D(29,30,33,34)        178.5001         estimate D2E/DX2                !
 ! D62   D(29,30,33,35)         56.0279         estimate D2E/DX2                !
 ! D63   D(29,30,33,36)        -60.2088         estimate D2E/DX2                !
 ! D64   D(31,30,33,34)         51.9226         estimate D2E/DX2                !
 ! D65   D(31,30,33,35)        -70.5496         estimate D2E/DX2                !
 ! D66   D(31,30,33,36)        173.2137         estimate D2E/DX2                !
 ! D67   D(32,30,33,34)        -68.6166         estimate D2E/DX2                !
 ! D68   D(32,30,33,35)        168.9111         estimate D2E/DX2                !
 ! D69   D(32,30,33,36)         52.6744         estimate D2E/DX2                !
 ! D70   D(30,33,36,37)        179.548          estimate D2E/DX2                !
 ! D71   D(34,33,36,37)        -59.4962         estimate D2E/DX2                !
 ! D72   D(35,33,36,37)         65.9577         estimate D2E/DX2                !
 ! D73   D(33,36,37,38)        -58.5116         estimate D2E/DX2                !
 ! D74   D(33,36,37,39)       -178.0734         estimate D2E/DX2                !
 ! D75   D(33,36,37,40)         65.9954         estimate D2E/DX2                !
 ! D76   D(36,37,40,41)       -176.4827         estimate D2E/DX2                !
 ! D77   D(36,37,40,42)        -54.7507         estimate D2E/DX2                !
 ! D78   D(36,37,40,43)         59.9885         estimate D2E/DX2                !
 ! D79   D(38,37,40,41)        -53.6753         estimate D2E/DX2                !
 ! D80   D(38,37,40,42)         68.0566         estimate D2E/DX2                !
 ! D81   D(38,37,40,43)       -177.2041         estimate D2E/DX2                !
 ! D82   D(39,37,40,41)         68.8688         estimate D2E/DX2                !
 ! D83   D(39,37,40,42)       -169.3993         estimate D2E/DX2                !
 ! D84   D(39,37,40,43)        -54.66           estimate D2E/DX2                !
 ! D85   D(37,40,43,44)         66.3247         estimate D2E/DX2                !
 ! D86   D(41,40,43,44)        -57.416          estimate D2E/DX2                !
 ! D87   D(42,40,43,44)       -179.6689         estimate D2E/DX2                !
 ! D88   D(40,43,44,45)       -174.3643         estimate D2E/DX2                !
 ! D89   D(40,43,44,46)        -51.9416         estimate D2E/DX2                !
 ! D90   D(40,43,44,47)         66.257          estimate D2E/DX2                !
 ! D91   D(43,44,47,48)        -52.1243         estimate D2E/DX2                !
 ! D92   D(43,44,47,49)         65.909          estimate D2E/DX2                !
 ! D93   D(43,44,47,50)       -170.0562         estimate D2E/DX2                !
 ! D94   D(45,44,47,48)       -172.3129         estimate D2E/DX2                !
 ! D95   D(45,44,47,49)        -54.2797         estimate D2E/DX2                !
 ! D96   D(45,44,47,50)         69.7552         estimate D2E/DX2                !
 ! D97   D(46,44,47,48)         69.5064         estimate D2E/DX2                !
 ! D98   D(46,44,47,49)       -172.4603         estimate D2E/DX2                !
 ! D99   D(46,44,47,50)        -48.4254         estimate D2E/DX2                !
 --------------------------------------------------------------------------------
 Trust Radius=3.00D-01 FncErr=1.00D-07 GrdErr=1.00D-06 EigMax=2.50D+02 EigMin=1.00D-04
 Number of steps in this run=    248 maximum allowed number of steps=    300.
 GradGradGradGradGradGradGradGradGradGradGradGradGradGradGradGradGradGrad

 Leave Link  103 at Tue Jun 27 20:50:25 2023, MaxMem=   262144000 cpu:               0.1 elap:               0.0
 (Enter /dragofs/sw/campus/0.2/software/gaussian/16.gaussian/gaussian/g16_legacy/l202.exe)
                          Input orientation:                          
 ---------------------------------------------------------------------
 Center     Atomic      Atomic             Coordinates (Angstroms)
 Number     Number       Type             X           Y           Z
 ---------------------------------------------------------------------
      1          6           0       -8.347300   -1.287700    0.677400
      2          1           0       -8.816000   -0.857900   -0.252500
      3          1           0       -7.694100   -2.098300    0.331100
      4          1           0       -9.129800   -1.729700    1.340000
      5          6           0       -7.625200   -0.209700    1.454300
      6          1           0       -8.020700    0.803000    1.152800
      7          1           0       -7.725900   -0.346200    2.557200
      8          8           0       -6.274600   -0.199300    1.056100
      9          6           0       -6.279800    0.066100   -0.302800
     10          1           0       -6.703500    1.073200   -0.514000
     11          1           0       -6.791700   -0.728400   -0.881400
     12          6           0       -4.840300    0.108300   -0.857400
     13          1           0       -4.357500   -0.877500   -0.678400
     14          1           0       -4.954900    0.246200   -1.940700
     15          8           0       -4.173600    1.096100   -0.197500
     16          6           0       -2.885400    1.249100   -0.650600
     17          1           0       -2.456100    2.128100   -0.088100
     18          1           0       -2.981600    1.580600   -1.718400
     19          6           0       -2.072400    0.027800   -0.466200
     20          1           0       -2.455600   -0.849300   -1.066200
     21          1           0       -2.036100   -0.249800    0.622100
     22          8           0       -0.778700    0.207800   -0.907200
     23          6           0       -0.727200    0.486100   -2.242600
     24          1           0       -1.269400    1.393900   -2.575900
     25          1           0       -1.113400   -0.416500   -2.786200
     26          6           0        0.745600    0.626200   -2.643900
     27          1           0        1.138600    1.459700   -1.991300
     28          1           0        0.834900    0.947400   -3.700800
     29         16           0        1.577200   -0.929300   -2.310100
     30          6           0        1.663000   -1.200100   -0.528500
     31          1           0        0.697300   -1.262300   -0.037700
     32          1           0        2.270300   -2.138400   -0.357000
     33          6           0        2.566200   -0.090200    0.030100
     34          1           0        2.656100   -0.161800    1.134300
     35          1           0        2.109500    0.866800   -0.296500
     36         16           0        4.178100   -0.318100   -0.797100
     37          6           0        5.314900    0.952400   -0.216700
     38          1           0        4.914300    1.953400   -0.426200
     39          1           0        6.280800    0.794100   -0.779200
     40          6           0        5.577000    0.706200    1.253800
     41          1           0        6.221700    1.486800    1.700000
     42          1           0        4.568400    0.676800    1.752400
     43         16           0        6.306800   -0.944500    1.414600
     44          6           0        7.946100   -0.909900    0.619900
     45          1           0        8.400800   -1.919800    0.597600
     46          1           0        7.922700   -0.518400   -0.398100
     47          6           0        8.808400    0.032900    1.470600
     48          1           0        8.273700    0.987100    1.595400
     49          1           0        8.971800   -0.389600    2.469300
     50          1           0        9.766300    0.256300    0.969600
 ---------------------------------------------------------------------
                    Distance matrix (angstroms):
                    1          2          3          4          5
     1  C    0.000000
     2  H    1.126553   0.000000
     3  H    1.097117   1.771395   0.000000
     4  H    1.116561   1.842434   1.793036   0.000000
     5  C    1.512311   2.179756   2.198439   2.141795   0.000000
     6  H    2.168801   2.316454   3.033051   2.771230   1.128222
     7  H    2.192307   3.056889   2.833088   2.316589   1.115868
     8  O    2.371521   2.933411   2.479275   3.251906   1.408116
     9  C    2.658594   2.699744   2.662086   3.747825   2.230150
    10  H    3.113737   2.874054   3.428395   4.144936   2.523800
    11  H    2.272128   2.123694   2.039879   3.376971   2.533627
    12  C    4.074736   4.135896   3.798130   5.158161   3.633283
    13  H    4.233788   4.478839   3.693554   5.251193   3.958817
    14  H    4.551448   4.356277   4.261569   5.665418   4.343313
    15  O    4.885460   5.037164   4.783046   5.908720   4.043155
    16  C    6.166951   6.306342   5.940742   7.199185   5.387430
    17  H    6.852731   7.027912   6.743503   7.839666   5.879107
    18  H    6.538940   6.491176   6.320001   7.623140   5.902052
    19  C    6.512506   6.804871   6.062961   7.493868   5.880333
    20  H    6.159908   6.412244   5.563662   7.149115   5.786776
    21  H    6.396213   6.863072   5.959412   7.281900   5.650859
    22  O    7.875988   8.134036   7.394203   8.862544   7.254347
    23  C    8.350969   8.437744   7.863889   9.399387   7.857074
    24  H    8.238423   8.210966   7.869109   9.320785   7.694819
    25  H    8.067517   8.120623   7.473394   9.111130   7.773554
    26  C    9.867871   9.967223   9.354254  10.906202   9.357578
    27  H   10.229979  10.367678   9.801505  11.256548   9.563642
    28  H   10.415234  10.406236   9.913443  11.483544   9.974328
    29  S   10.370598  10.595160   9.710793  11.340358   9.968586
    30  C   10.083054  10.488218   9.439332  10.966143   9.548981
    31  H    9.072861   9.524314   8.441001   9.934204   8.520448
    32  H   10.701734  11.160495   9.988211  11.532958  10.243125
    33  C   10.998067  11.411560  10.459294  11.882770  10.291125
    34  H   11.070285  11.576565  10.560388  11.891512  10.286390
    35  H   10.720775  11.060880  10.261397  11.650829   9.949298
    36  S   12.649107  13.016705  12.057822  13.552122  12.016590
    37  C   13.873470  14.246431  13.373142  14.773839  13.099195
    38  H   13.696448  14.016231  13.265049  14.626053  12.862906
    39  H   14.847117  15.196048  14.314209  15.759034  14.119949
    40  C   14.078139  14.555885  13.595539  14.907414  13.235451
    41  H   14.866046  15.344129  14.435246  15.688978  13.952603
    42  H   13.108402  13.620466  12.652675  13.914094  12.229416
    43  S   14.676645  15.214657  14.090083  15.456737  13.951420
    44  C   16.297881  16.784868  15.687943  17.110727  15.609353
    45  H   16.760214  17.270452  16.098096  17.547343  16.139735
    46  H   16.323646  16.742776  15.713442  17.183597  15.660903
    47  C   17.224726  17.730823  16.678519  18.025061  16.435399
    48  H   16.801044  17.288048  16.312228  17.616130  15.944506
    49  H   17.434699  18.000926  16.889162  18.186234  16.628981
    50  H   18.181634  18.655746  17.630014  19.003789  17.404493
                    6          7          8          9         10
     6  H    0.000000
     7  H    1.838452   0.000000
     8  O    2.015644   2.093120   0.000000
     9  C    2.385901   3.231222   1.384584   0.000000
    10  H    2.141552   3.534440   2.066017   1.112824   0.000000
    11  H    2.827295   3.583682   2.073944   1.108174   1.840795
    12  C    3.826024   4.493634   2.411082   1.543218   2.126140
    13  H    4.426783   4.700798   2.672773   2.174096   3.055483
    14  H    4.390774   5.316059   3.304677   2.114359   2.403540
    15  O    4.087713   4.720957   2.768352   2.346927   2.549724
    16  C    5.461004   6.022076   4.061695   3.611427   3.824590
    17  H    5.853247   6.394573   4.615943   4.349554   4.397114
    18  H    5.851579   6.670959   4.659372   3.895607   3.944689
    19  C    6.213241   6.422062   4.475205   4.210746   4.747866
    20  H    6.214853   6.415466   4.417173   4.005651   4.695273
    21  H    6.099628   6.010635   4.260961   4.354793   4.982537
    22  O    7.552776   7.782838   5.850230   5.536017   6.000565
    23  C    8.051354   8.527169   6.490365   5.896659   6.248912
    24  H    7.735142   8.429891   6.386058   5.659871   5.820973
    25  H    8.044482   8.501883   6.438046   5.752553   6.215410
    26  C    9.554800   9.988159   7.978387   7.426352   7.760501
    27  H    9.706152  10.125685   8.185014   7.734715   7.989389
    28  H   10.099502  10.682849   8.630644   7.933603   8.185291
    29  S   10.349504  10.515621   8.574087   8.170222   8.706663
    30  C   10.030614   9.919785   8.155860   8.046258   8.669857
    31  H    9.038046   8.861323   7.136789   7.107380   7.775170
    32  H   10.809071  10.565442   8.875375   8.829891   9.532477
    33  C   10.683666  10.600901   8.900805   8.853642   9.358252
    34  H   10.720319  10.480676   8.931121   9.053591   9.583540
    35  H   10.233547  10.312617   8.559161   8.427426   8.818099
    36  S   12.404422  12.367592  10.616374  10.476622  10.973836
    37  C   13.406568  13.395647  11.715927  11.628844  12.022683
    38  H   13.081700  13.189522  11.490118  11.352753  11.651426
    39  H   14.431410  14.443666  12.727656  12.590696  12.990007
    40  C   13.598420  13.407966  11.887785  11.975660  12.412513
    41  H   14.269302  14.093624  12.625967  12.740373  13.119972
    42  H   12.604003  12.363011  10.900598  11.058040  11.504322
    43  S   14.436050  14.091848  12.608548  12.743362  13.306334
    44  C   16.067256  15.801344  14.245123  14.289163  14.826638
    45  H   16.654956  16.321357  14.783021  14.841649  15.438056
    46  H   16.073064  15.926146  14.275148  14.214842  14.712999
    47  C   16.849708  16.574302  15.090481  15.192098  15.672903
    48  H   16.301450  16.083841  14.606554  14.705637  15.125260
    49  H   17.085097  16.697988  15.312938  15.508175  16.023573
    50  H   17.796343  17.574429  16.047602  16.097593  16.556651
                   11         12         13         14         15
    11  H    0.000000
    12  C    2.123348   0.000000
    13  H    2.447196   1.112177   0.000000
    14  H    2.333623   1.098038   1.792481   0.000000
    15  O    3.263582   1.362243   2.039652   2.090815   0.000000
    16  C    4.384399   2.272845   2.586557   2.636854   1.374106
    17  H    5.252270   3.218047   3.605192   3.635612   2.006688
    18  H    4.533091   2.522648   3.002825   2.392479   1.992170
    19  C    4.797502   2.796567   2.467038   3.245097   2.372447
    20  H    4.341720   2.578253   1.941239   2.865549   2.736923
    21  H    5.010519   3.190720   2.733899   3.915783   2.655579
    22  O    6.085500   4.063124   3.746737   4.302353   3.580237
    23  C    6.332933   4.356501   4.181531   4.245249   4.053666
    24  H    6.153965   4.166214   4.277397   3.911982   3.765614
    25  H    5.997386   4.229121   3.896091   3.988880   4.284174
    26  C    7.858259   5.887451   5.671502   5.756265   5.514001
    27  H    8.301164   6.233719   6.115008   6.213363   5.618665
    28  H    8.301949   6.402883   6.279027   6.091914   6.113943
    29  S    8.492351   6.661175   6.155144   6.647299   6.452676
    30  C    8.475199   6.641762   6.031000   6.919732   6.280764
    31  H    7.555263   5.763286   5.109752   6.151776   5.414172
    32  H    9.186019   7.473867   6.754325   7.771611   7.211884
    33  C    9.423822   7.462124   7.004244   7.782298   6.847190
    34  H    9.677035   7.761175   7.279333   8.218845   7.071125
    35  H    9.061906   7.013533   6.708988   7.279717   6.288062
    36  S   10.977794   9.028676   8.554735   9.221602   8.491783
    37  C   12.240779  10.210342   9.854797  10.437418   9.489608
    38  H   12.017891   9.936929   9.697622  10.129627   9.131111
    39  H   13.161258  11.142500  10.769301  11.308856  10.474925
    40  C   12.633364  10.645881  10.243817  11.015323   9.865723
    41  H   13.450625  11.437150  11.098026  11.819906  10.574281
    42  H   11.745781   9.780485   9.380636  10.223387   8.966632
    43  S   13.299963  11.424894  10.867954  11.811083  10.798227
    44  C   14.815181  12.911668  12.371952  13.203372  12.311755
    45  H   15.310746  13.474307  12.864244  13.766236  12.955438
    46  H   14.723833  12.786629  12.288647  12.992183  12.205217
    47  C   15.794765  13.846020  13.371161  14.181357  13.131842
    48  H   15.363716  13.370322  12.968967  13.713088  12.576233
    49  H   16.119240  14.215799  13.704609  14.622083  13.495209
    50  H   16.690213  14.721162  14.264751  15.006121  14.013857
                   16         17         18         19         20
    16  C    0.000000
    17  H    1.128426   0.000000
    18  H    1.122205   1.798273   0.000000
    19  C    1.478697   2.168282   2.192222   0.000000
    20  H    2.181911   3.133942   2.570302   1.129667   0.000000
    21  H    2.141910   2.516981   3.118056   1.123733   1.840037
    22  O    2.363966   2.678087   2.719447   1.378601   1.988652
    23  C    2.788272   3.213585   2.560280   2.274906   2.480842
    24  H    2.517777   2.852447   1.924004   2.638536   2.952662
    25  H    3.236510   3.944309   2.935775   2.549408   2.224234
    26  C    4.188724   4.363336   3.957202   3.611313   3.861854
    27  H    4.246693   4.121989   4.130997   3.832335   4.370991
    28  H    4.820309   5.027558   4.347013   4.445300   4.582209
    29  S    5.235854   5.527430   5.237591   4.199475   4.221038
    30  C    5.167343   5.313930   5.542604   3.932535   4.168339
    31  H    4.417976   4.630473   4.943798   3.085321   3.342029
    32  H    6.175970   6.372926   6.577752   4.854214   4.949634
    33  C    5.654823   5.491659   6.052017   4.666567   5.195823
    34  H    5.990386   5.733454   6.554198   4.995624   5.607525
    35  H    5.022008   4.741204   5.333911   4.268607   4.937365
    36  S    7.236754   7.106278   7.464259   6.268803   6.660373
    37  C    8.217130   7.860487   8.454682   7.449117   8.021748
    38  H    7.834648   7.380219   8.009619   7.247311   7.910762
    39  H    9.178387   8.865134   9.343058   8.394113   8.894258
    40  C    8.691012   8.267599   9.102098   7.869685   8.504390
    41  H    9.408565   8.883287   9.818095   8.695585   9.402381
    42  H    7.852456   7.405222   8.358577   7.031615   7.720755
    43  S    9.673338   9.406774  10.122559   8.642556   9.107309
    44  C   11.117412  10.859856  11.449230  10.120733  10.537645
    45  H   11.788903  11.607237  12.131599  10.705734  11.035199
    46  H   10.954581  10.715389  11.182699  10.010245  10.405045
    47  C   11.946698  11.563234  12.311344  11.051834  11.579781
    48  H   11.385898  10.920836  11.747991  10.593028  11.205997
    49  H   12.369814  11.978147  12.818046  11.435285  11.970654
    50  H   12.793600  12.410053  13.095345  11.927638  12.439521
                   21         22         23         24         25
    21  H    0.000000
    22  O    2.032046   0.000000
    23  C    3.234389   1.365063   0.000000
    24  H    3.676518   2.105274   1.108680   0.000000
    25  H    3.534922   2.008088   1.122202   1.829238   0.000000
    26  C    4.378583   2.348335   1.532909   2.157362   2.136201
    27  H    4.453198   2.533489   2.119495   2.478820   3.037021
    28  H    5.325729   3.309821   2.186161   2.427517   2.548056
    29  S    4.702707   2.968398   2.705212   3.683889   2.780101
    30  C    3.988771   2.843852   3.390349   4.418105   3.663282
    31  H    2.988640   2.257388   3.153995   4.167225   3.398274
    32  H    4.803179   3.886358   4.407777   5.470844   4.507258
    33  C    4.642963   3.486501   4.042743   4.868841   4.645156
    34  H    4.720893   4.012752   4.823893   5.620973   5.444660
    35  H    4.390515   3.024721   3.461084   4.109801   4.269959
    36  S    6.374565   4.985836   5.176695   5.980830   5.653864
    37  C    7.495737   6.177635   6.389732   7.008121   7.056859
    38  H    7.366212   5.974004   6.105637   6.570570   6.893417
    39  H    8.498482   7.084961   7.165785   7.784177   7.756790
    40  C    7.698849   6.731511   7.212225   7.874816   7.895790
    41  H    8.506992   7.578848   8.051876   8.626038   8.806375
    42  H    6.764288   5.990402   6.636247   7.302624   7.353710
    43  S    8.409200   7.544724   8.055984   8.876430   8.543118
    44  C   10.004002   8.927677   9.239527  10.022279   9.691207
    45  H   10.569692   9.542239   9.857762  10.703480  10.209310
    46  H   10.014522   8.746480   8.901234   9.638174   9.346898
    47  C   10.881317   9.879120  10.243091  10.944795  10.805759
    48  H   10.429248   9.424238   9.797829  10.422859  10.454002
    49  H   11.162686  10.335855  10.818477  11.554960  11.372434
    50  H   11.818356  10.710824  10.976547  11.646947  11.529378
                   26         27         28         29         30
    26  C    0.000000
    27  H    1.129185   0.000000
    28  H    1.108234   1.810269   0.000000
    29  S    1.795149   2.449760   2.450930   0.000000
    30  C    2.941413   3.080473   3.919310   1.804104   0.000000
    31  H    3.218857   3.379435   4.280188   2.459454   1.085048
    32  H    3.898414   4.110718   4.771114   2.399356   1.130766
    33  C    3.313320   2.919981   4.241890   2.675583   1.536126
    34  H    4.306478   3.834246   5.284438   3.690118   2.197548
    35  H    2.725509   2.041207   3.635981   2.750255   2.127266
    36  S    4.010540   3.718232   4.605426   3.070410   2.678768
    37  C    5.184227   4.565965   5.675331   4.679051   4.250512
    38  H    4.904866   4.116939   5.326964   4.795339   4.530561
    39  H    5.843264   5.324888   6.181996   5.238093   5.036245
    40  C    6.208131   5.549579   6.862489   5.601307   4.704250
    41  H    7.042568   6.282065   7.647039   6.594681   5.741724
    42  H    5.826132   5.137290   6.614351   5.294407   4.143261
    43  S    7.061548   6.640077   7.725820   6.020194   5.040421
    44  C    8.053521   7.666513   8.525678   7.010575   6.393777
    45  H    8.694339   8.418015   9.161873   7.483136   6.869062
    46  H    7.606871   7.243975   7.955709   6.640027   6.298060
    47  C    9.071376   8.535007   9.547586   8.216433   7.521531
    48  H    8.647208   7.999839   9.131651   7.985526   7.279845
    49  H    9.738944   9.201950  10.298876   8.821227   7.941176
    50  H    9.724569   9.200669  10.102483   8.900755   8.368326
                   31         32         33         34         35
    31  H    0.000000
    32  H    1.828615   0.000000
    33  C    2.207080   2.105357   0.000000
    34  H    2.534084   2.505946   1.110165   0.000000
    35  H    2.567947   3.010107   1.109546   1.844987   0.000000
    36  S    3.685671   2.673365   1.826039   2.463985   2.435918
    37  C    5.124370   4.340774   2.950132   3.183687   3.207536
    38  H    5.317400   4.872202   3.146122   3.465357   3.010718
    39  H    5.996172   4.986173   3.903230   4.208762   4.199765
    40  C    5.417973   4.649805   3.346134   3.049485   3.801681
    41  H    6.410628   5.743421   4.317195   3.968804   4.613090
    42  H    4.685081   4.201926   2.750166   2.177657   3.206288
    43  S    5.803160   4.566979   4.079063   3.744169   4.881188
    44  C    7.287093   5.888824   5.473856   5.367342   6.169469
    45  H    7.757566   6.208227   6.141014   6.031599   6.938661
    46  H    7.272529   5.880112   5.390622   5.496589   5.976822
    47  C    8.351195   7.127511   6.407437   6.164560   6.978058
    48  H    8.070233   7.044248   6.015505   5.752392   6.449118
    49  H    8.689879   7.480399   6.860834   6.459271   7.504622
    50  H    9.250274   7.980255   7.269399   7.124386   7.784748
                   36         37         38         39         40
    36  S    0.000000
    37  C    1.800930   0.000000
    38  H    2.416458   1.098349   0.000000
    39  H    2.378793   1.128906   1.826447   0.000000
    40  C    2.685573   1.513830   2.194785   2.153172   0.000000
    41  H    3.697225   2.186689   2.539239   2.574832   1.106376
    42  H    2.764437   2.123811   2.548657   3.058606   1.125496
    43  S    3.132947   2.691326   3.704784   2.799315   1.811981
    44  C    4.068899   3.330356   4.299375   2.763027   2.937047
    45  H    4.726714   4.293646   5.310888   3.708805   3.911562
    46  H    3.771121   2.999463   3.893720   2.136289   3.119411
    47  C    5.167721   3.987105   4.738163   3.468398   3.307912
    48  H    4.919506   3.469785   4.038090   3.106063   2.732725
    49  H    5.801210   4.731646   5.507892   4.381253   3.768672
    50  H    5.888900   4.659058   5.326379   3.936526   4.222963
                   41         42         43         44         45
    41  H    0.000000
    42  H    1.841805   0.000000
    43  S    2.449472   2.400991   0.000000
    44  C    3.143937   3.899876   1.822100   0.000000
    45  H    4.191502   4.771078   2.450211   1.107767   0.000000
    46  H    3.363964   4.159866   2.465477   1.090937   1.784354
    47  C    2.976150   4.297862   2.686345   1.534967   2.177454
    48  H    2.114556   3.721583   2.762691   2.158131   3.076008
    49  H    3.416980   4.587056   2.919337   2.177855   2.484112
    50  H    3.822539   5.273306   3.688914   2.189849   2.595840
                   46         47         48         49         50
    46  H    0.000000
    47  C    2.140195   0.000000
    48  H    2.522652   1.100898   0.000000
    49  H    3.056008   1.096635   1.773795   0.000000
    50  H    2.422731   1.103848   1.775823   1.815907   0.000000
 Stoichiometry    C14H30O3S3
 Framework group  C1[X(C14H30O3S3)]
 Deg. of freedom   144
 Full point group                 C1      NOp   1
 Largest Abelian subgroup         C1      NOp   1
 Largest concise Abelian subgroup C1      NOp   1
                         Standard orientation:                         
 ---------------------------------------------------------------------
 Center     Atomic      Atomic             Coordinates (Angstroms)
 Number     Number       Type             X           Y           Z
 ---------------------------------------------------------------------
      1          6           0       -8.834287   -1.382821   -1.139081
      2          1           0       -9.340261   -0.421771   -0.839925
      3          1           0       -8.180815   -1.122685   -1.981085
      4          1           0       -9.587418   -2.124560   -1.498701
      5          6           0       -8.103047   -1.986365    0.039100
      6          1           0       -8.523704   -1.569202    0.999259
      7          1           0       -8.164753   -3.100495    0.047313
      8          8           0       -6.766822   -1.543041    0.011585
      9          6           0       -6.821453   -0.162141    0.096460
     10          1           0       -7.267188    0.163831    1.062607
     11          1           0       -7.340303    0.289350   -0.772447
     12          6           0       -5.402096    0.443422    0.080910
     13          1           0       -4.898699    0.154212   -0.867714
     14          1           0       -5.554911    1.530755    0.074362
     15          8           0       -4.728762   -0.057929    1.153745
     16          6           0       -3.458890    0.456232    1.259729
     17          1           0       -3.024403    0.028833    2.209411
     18          1           0       -3.595734    1.554150    1.447326
     19          6           0       -2.621767    0.142496    0.081875
     20          1           0       -3.011467    0.608917   -0.870350
     21          1           0       -2.544915   -0.970795   -0.050241
     22          8           0       -1.346403    0.648389    0.216269
     23          6           0       -1.343783    2.009681    0.317617
     24          1           0       -1.910514    2.439494    1.168056
     25          1           0       -1.734210    2.416784   -0.652524
     26          6           0        0.112491    2.477315    0.419570
     27          1           0        0.514404    1.953425    1.335574
     28          1           0        0.161543    3.569601    0.600361
     29         16           0        0.978260    1.972538   -1.069795
     30          6           0        1.127645    0.174949   -1.103745
     31          1           0        0.179940   -0.353376   -1.111340
     32          1           0        1.754487   -0.096250   -2.004940
     33          6           0        2.032083   -0.201774    0.079366
     34          1           0        2.159909   -1.302019    0.154116
     35          1           0        1.550273    0.230832    0.980367
     36         16           0        3.618708    0.644644   -0.237841
     37          6           0        4.754884    0.275508    1.109821
     38          1           0        4.332382    0.599810    2.070390
     39          1           0        5.703734    0.846070    0.889434
     40          6           0        5.069681   -1.204436    1.061346
     41          1           0        5.717028   -1.521897    1.900529
     42          1           0        4.078868   -1.737709    1.086831
     43         16           0        5.829379   -1.553817   -0.546157
     44          6           0        7.440493   -0.704340   -0.598592
     45          1           0        7.909447   -0.798236   -1.597799
     46          1           0        7.377156    0.354633   -0.344212
     47          6           0        8.316353   -1.393747    0.456732
     48          1           0        7.771723   -1.411496    1.413309
     49          1           0        8.519422   -2.432731    0.170582
     50          1           0        9.253480   -0.834527    0.622707
 ---------------------------------------------------------------------
 Rotational constants (GHZ):           0.6496465           0.0566506           0.0543599
 Leave Link  202 at Tue Jun 27 20:50:26 2023, MaxMem=   262144000 cpu:               0.1 elap:               0.0
 (Enter /dragofs/sw/campus/0.2/software/gaussian/16.gaussian/gaussian/g16_legacy/l301.exe)
 Standard basis: 6-31G(d) (6D, 7F)
 Ernie: Thresh=  0.10000D-02 Tol=  0.10000D-05 Strict=F.
 There are   372 symmetry adapted cartesian basis functions of A   symmetry.
 There are   372 symmetry adapted basis functions of A   symmetry.
   372 basis functions,   752 primitive gaussians,   372 cartesian basis functions
    93 alpha electrons       93 beta electrons
       nuclear repulsion energy      1991.3342484663 Hartrees.
 IExCor=20419 DFT=T Ex+Corr=CAM-B3LYP ExCW=0 ScaHFX=  1.000000
 ScaDFX=  1.000000  1.000000  1.000000  0.810000 ScalE2=  1.000000  1.000000
 IRadAn=      5 IRanWt=     -1 IRanGd=            0 ICorTp=0 IEmpDi=  4
 HFx  wShort=  0.000000 wLong=  0.330000 cFull=  0.190000 cShort=  0.000000 cLong=  0.460000
 DFx  wShort=  0.000000 wLong=  0.330000 cFull=  0.190000 cShort=  0.000000 cLong=  0.460000
 NAtoms=   50 NActive=   50 NUniq=   50 SFac= 1.00D+00 NAtFMM=   60 NAOKFM=F Big=F
 Integral buffers will be    131072 words long.
 Raffenetti 2 integral format.
 Two-electron integral symmetry is turned on.
 Leave Link  301 at Tue Jun 27 20:50:26 2023, MaxMem=   262144000 cpu:               0.4 elap:               0.1
 (Enter /dragofs/sw/campus/0.2/software/gaussian/16.gaussian/gaussian/g16_legacy/l302.exe)
 NPDir=0 NMtPBC=     1 NCelOv=     1 NCel=       1 NClECP=     1 NCelD=      1
         NCelK=      1 NCelE2=     1 NClLst=     1 CellRange=     0.0.
 One-electron integrals computed using PRISM.
 One-electron integral symmetry used in STVInt
 NBasis=   372 RedAO= T EigKep=  2.87D-03  NBF=   372
 NBsUse=   372 1.00D-06 EigRej= -1.00D+00 NBFU=   372
 Precomputing XC quadrature grid using
 IXCGrd= 4 IRadAn=           5 IRanWt=          -1 IRanGd=           0 AccXCQ= 0.00D+00.
 Generated NRdTot=       0 NPtTot=           0 NUsed=           0 NTot=          32
 NSgBfM=   349   349   349   349   349 MxSgAt=    50 MxSgA2=    50.
 Leave Link  302 at Tue Jun 27 20:50:26 2023, MaxMem=   262144000 cpu:               4.8 elap:               0.6
 (Enter /dragofs/sw/campus/0.2/software/gaussian/16.gaussian/gaussian/g16_legacy/l303.exe)
 DipDrv:  MaxL=1.
 Leave Link  303 at Tue Jun 27 20:50:26 2023, MaxMem=   262144000 cpu:               0.3 elap:               0.1
 (Enter /dragofs/sw/campus/0.2/software/gaussian/16.gaussian/gaussian/g16_legacy/l401.exe)
 ExpMin= 1.17D-01 ExpMax= 2.19D+04 ExpMxC= 3.30D+03 IAcc=3 IRadAn=         5 AccDes= 0.00D+00
 Harris functional with IExCor=20419 and IRadAn=       5 diagonalized for initial guess.
 HarFok:  IExCor=20419 AccDes= 0.00D+00 IRadAn=         5 IDoV= 1 UseB2=F ITyADJ=14
 ICtDFT=  3500011 ScaDFX=  1.000000  1.000000  1.000000  1.000000
 FoFCou: FMM=F IPFlag=           0 FMFlag=      100000 FMFlg1=           0
         NFxFlg=           0 DoJE=T BraDBF=F KetDBF=T FulRan=T
         wScrn=  0.000000 ICntrl=       500 IOpCl=  0 I1Cent=   200000004 NGrid=           0
         NMat0=    1 NMatS0=      1 NMatT0=    0 NMatD0=    1 NMtDS0=    0 NMtDT0=    0
 Petite list used in FoFCou.
 Harris En= -1921.22160054551    
 JPrj=0 DoOrth=F DoCkMO=F.
 Leave Link  401 at Tue Jun 27 20:50:29 2023, MaxMem=   262144000 cpu:              20.3 elap:               2.6
 (Enter /dragofs/sw/campus/0.2/software/gaussian/16.gaussian/gaussian/g16_legacy/l502.exe)
 Integral symmetry usage will be decided dynamically.
 Closed shell SCF:
 Using DIIS extrapolation, IDIIS=  1040.
 NGot=   262144000 LenX=   261859787 LenY=   261720962
 Requested convergence on RMS density matrix=1.00D-08 within 128 cycles.
 Requested convergence on MAX density matrix=1.00D-06.
 Requested convergence on             energy=1.00D-06.
 No special actions if energy rises.
 Fock matrices will be formed incrementally for  20 cycles.
 Integral accuracy reduced to 1.0D-05 until final iterations.

 Cycle   1  Pass 0  IDiag  1:
 FoFJK:  IHMeth= 1 ICntrl=       0 DoSepK=T KAlg= 0 I1Cent=           0 FoldK=F
 IRaf=         1 NMat=       1 IRICut=       1 DoRegI=T DoRafI=F ISym2E= 0 IDoP0=0 IntGTp=1.
 FoFCou: FMM=F IPFlag=           0 FMFlag=      100000 FMFlg1=           0
         NFxFlg=           0 DoJE=T BraDBF=F KetDBF=F FulRan=T
         wScrn=  0.000000 ICntrl=       500 IOpCl=  0 I1Cent=           0 NGrid=           0
         NMat0=    1 NMatS0=      1 NMatT0=    0 NMatD0=    1 NMtDS0=    0 NMtDT0=    0
 Symmetry not used in FoFCou.
 E= -1970.87984288502    
 DIIS: error= 5.91D-02 at cycle   1 NSaved=   1.
 NSaved= 1 IEnMin= 1 EnMin= -1970.87984288502     IErMin= 1 ErrMin= 5.91D-02
 ErrMax= 5.91D-02  0.00D+00 EMaxC= 1.00D-01 BMatC= 9.67D-01 BMatP= 9.67D-01
 IDIUse=3 WtCom= 4.09D-01 WtEn= 5.91D-01
 Coeff-Com:  0.100D+01
 Coeff-En:   0.100D+01
 Coeff:      0.100D+01
 Gap=     0.387 Goal=   None    Shift=    0.000
 GapD=    0.387 DampG=1.000 DampE=0.500 DampFc=0.5000 IDamp=-1.
 Damping current iteration by 5.00D-01
 RMSDP=3.50D-03 MaxDP=2.61D-01              OVMax= 1.20D-01

 Cycle   2  Pass 0  IDiag  1:
 RMSU=  1.75D-03    CP:  1.00D+00
 E= -1971.05237484642     Delta-E=       -0.172531961404 Rises=F Damp=T
 DIIS: error= 3.18D-02 at cycle   2 NSaved=   2.
 NSaved= 2 IEnMin= 2 EnMin= -1971.05237484642     IErMin= 2 ErrMin= 3.18D-02
 ErrMax= 3.18D-02  0.00D+00 EMaxC= 1.00D-01 BMatC= 1.68D-01 BMatP= 9.67D-01
 IDIUse=3 WtCom= 6.82D-01 WtEn= 3.18D-01
 Coeff-Com: -0.427D+00 0.143D+01
 Coeff-En:   0.000D+00 0.100D+01
 Coeff:     -0.291D+00 0.129D+01
 Gap=     0.343 Goal=   None    Shift=    0.000
 RMSDP=9.61D-04 MaxDP=4.56D-02 DE=-1.73D-01 OVMax= 6.47D-02

 Cycle   3  Pass 0  IDiag  1:
 RMSU=  9.15D-04    CP:  1.01D+00  1.16D+00
 E= -1971.20003356693     Delta-E=       -0.147658720502 Rises=F Damp=F
 DIIS: error= 7.36D-03 at cycle   3 NSaved=   3.
 NSaved= 3 IEnMin= 3 EnMin= -1971.20003356693     IErMin= 3 ErrMin= 7.36D-03
 ErrMax= 7.36D-03  0.00D+00 EMaxC= 1.00D-01 BMatC= 2.88D-02 BMatP= 1.68D-01
 IDIUse=3 WtCom= 9.26D-01 WtEn= 7.36D-02
 Coeff-Com: -0.237D+00 0.539D+00 0.698D+00
 Coeff-En:   0.000D+00 0.000D+00 0.100D+01
 Coeff:     -0.219D+00 0.499D+00 0.720D+00
 Gap=     0.336 Goal=   None    Shift=    0.000
 RMSDP=4.90D-04 MaxDP=2.40D-02 DE=-1.48D-01 OVMax= 2.19D-02

 Cycle   4  Pass 0  IDiag  1:
 RMSU=  3.12D-04    CP:  1.00D+00  1.30D+00  7.01D-01
 E= -1971.22170526750     Delta-E=       -0.021671700569 Rises=F Damp=F
 DIIS: error= 2.48D-03 at cycle   4 NSaved=   4.
 NSaved= 4 IEnMin= 4 EnMin= -1971.22170526750     IErMin= 4 ErrMin= 2.48D-03
 ErrMax= 2.48D-03  0.00D+00 EMaxC= 1.00D-01 BMatC= 2.25D-03 BMatP= 2.88D-02
 IDIUse=3 WtCom= 9.75D-01 WtEn= 2.48D-02
 Coeff-Com: -0.881D-01 0.191D+00 0.347D+00 0.550D+00
 Coeff-En:   0.000D+00 0.000D+00 0.000D+00 0.100D+01
 Coeff:     -0.860D-01 0.186D+00 0.339D+00 0.561D+00
 Gap=     0.337 Goal=   None    Shift=    0.000
 RMSDP=1.19D-04 MaxDP=6.88D-03 DE=-2.17D-02 OVMax= 6.10D-03

 Cycle   5  Pass 0  IDiag  1:
 RMSU=  7.50D-05    CP:  1.00D+00  1.32D+00  7.31D-01  7.38D-01
 E= -1971.22330803963     Delta-E=       -0.001602772132 Rises=F Damp=F
 DIIS: error= 2.72D-04 at cycle   5 NSaved=   5.
 NSaved= 5 IEnMin= 5 EnMin= -1971.22330803963     IErMin= 5 ErrMin= 2.72D-04
 ErrMax= 2.72D-04  0.00D+00 EMaxC= 1.00D-01 BMatC= 4.90D-05 BMatP= 2.25D-03
 IDIUse=3 WtCom= 9.97D-01 WtEn= 2.72D-03
 Coeff-Com: -0.120D-01 0.245D-01 0.711D-01 0.193D+00 0.724D+00
 Coeff-En:   0.000D+00 0.000D+00 0.000D+00 0.000D+00 0.100D+01
 Coeff:     -0.120D-01 0.245D-01 0.709D-01 0.192D+00 0.725D+00
 Gap=     0.336 Goal=   None    Shift=    0.000
 RMSDP=2.48D-05 MaxDP=1.04D-03 DE=-1.60D-03 OVMax= 1.01D-03

 Cycle   6  Pass 0  IDiag  1:
 RMSU=  1.85D-05    CP:  1.00D+00  1.32D+00  7.41D-01  7.77D-01  9.27D-01
 E= -1971.22335320393     Delta-E=       -0.000045164304 Rises=F Damp=F
 DIIS: error= 8.57D-05 at cycle   6 NSaved=   6.
 NSaved= 6 IEnMin= 6 EnMin= -1971.22335320393     IErMin= 6 ErrMin= 8.57D-05
 ErrMax= 8.57D-05  0.00D+00 EMaxC= 1.00D-01 BMatC= 4.06D-06 BMatP= 4.90D-05
 IDIUse=1 WtCom= 1.00D+00 WtEn= 0.00D+00
 Coeff-Com:  0.428D-02-0.945D-02-0.575D-02 0.179D-01 0.257D+00 0.736D+00
 Coeff:      0.428D-02-0.945D-02-0.575D-02 0.179D-01 0.257D+00 0.736D+00
 Gap=     0.336 Goal=   None    Shift=    0.000
 RMSDP=8.75D-06 MaxDP=5.65D-04 DE=-4.52D-05 OVMax= 4.34D-04

 Initial convergence to 1.0D-05 achieved.  Increase integral accuracy.
 Cycle   7  Pass 1  IDiag  1:
 E= -1971.22332197693     Delta-E=        0.000031226998 Rises=F Damp=F
 DIIS: error= 2.29D-05 at cycle   1 NSaved=   1.
 NSaved= 1 IEnMin= 1 EnMin= -1971.22332197693     IErMin= 1 ErrMin= 2.29D-05
 ErrMax= 2.29D-05  0.00D+00 EMaxC= 1.00D-01 BMatC= 3.92D-07 BMatP= 3.92D-07
 IDIUse=1 WtCom= 1.00D+00 WtEn= 0.00D+00
 Coeff-Com:  0.100D+01
 Coeff:      0.100D+01
 Gap=     0.336 Goal=   None    Shift=    0.000
 RMSDP=8.75D-06 MaxDP=5.65D-04 DE= 3.12D-05 OVMax= 2.34D-04

 Cycle   8  Pass 1  IDiag  1:
 RMSU=  7.26D-06    CP:  1.00D+00
 E= -1971.22332223511     Delta-E=       -0.000000258174 Rises=F Damp=F
 DIIS: error= 2.07D-05 at cycle   2 NSaved=   2.
 NSaved= 2 IEnMin= 2 EnMin= -1971.22332223511     IErMin= 2 ErrMin= 2.07D-05
 ErrMax= 2.07D-05  0.00D+00 EMaxC= 1.00D-01 BMatC= 2.19D-07 BMatP= 3.92D-07
 IDIUse=1 WtCom= 1.00D+00 WtEn= 0.00D+00
 Coeff-Com:  0.414D+00 0.586D+00
 Coeff:      0.414D+00 0.586D+00
 Gap=     0.336 Goal=   None    Shift=    0.000
 RMSDP=1.38D-06 MaxDP=6.43D-05 DE=-2.58D-07 OVMax= 5.76D-05

 Cycle   9  Pass 1  IDiag  1:
 RMSU=  1.37D-06    CP:  1.00D+00  9.79D-01
 E= -1971.22332241593     Delta-E=       -0.000000180822 Rises=F Damp=F
 DIIS: error= 6.76D-06 at cycle   3 NSaved=   3.
 NSaved= 3 IEnMin= 3 EnMin= -1971.22332241593     IErMin= 3 ErrMin= 6.76D-06
 ErrMax= 6.76D-06  0.00D+00 EMaxC= 1.00D-01 BMatC= 1.48D-08 BMatP= 2.19D-07
 IDIUse=1 WtCom= 1.00D+00 WtEn= 0.00D+00
 Coeff-Com:  0.144D-01 0.198D+00 0.788D+00
 Coeff:      0.144D-01 0.198D+00 0.788D+00
 Gap=     0.336 Goal=   None    Shift=    0.000
 RMSDP=4.95D-07 MaxDP=2.53D-05 DE=-1.81D-07 OVMax= 3.66D-05

 Cycle  10  Pass 1  IDiag  1:
 RMSU=  4.12D-07    CP:  1.00D+00  1.02D+00  9.72D-01
 E= -1971.22332242846     Delta-E=       -0.000000012535 Rises=F Damp=F
 DIIS: error= 2.06D-06 at cycle   4 NSaved=   4.
 NSaved= 4 IEnMin= 4 EnMin= -1971.22332242846     IErMin= 4 ErrMin= 2.06D-06
 ErrMax= 2.06D-06  0.00D+00 EMaxC= 1.00D-01 BMatC= 1.64D-09 BMatP= 1.48D-08
 IDIUse=1 WtCom= 1.00D+00 WtEn= 0.00D+00
 Coeff-Com: -0.186D-01 0.510D-01 0.343D+00 0.624D+00
 Coeff:     -0.186D-01 0.510D-01 0.343D+00 0.624D+00
 Gap=     0.336 Goal=   None    Shift=    0.000
 RMSDP=1.79D-07 MaxDP=8.08D-06 DE=-1.25D-08 OVMax= 1.48D-05

 Cycle  11  Pass 1  IDiag  1:
 RMSU=  1.59D-07    CP:  1.00D+00  1.03D+00  9.90D-01  1.05D+00
 E= -1971.22332243012     Delta-E=       -0.000000001652 Rises=F Damp=F
 DIIS: error= 4.76D-07 at cycle   5 NSaved=   5.
 NSaved= 5 IEnMin= 5 EnMin= -1971.22332243012     IErMin= 5 ErrMin= 4.76D-07
 ErrMax= 4.76D-07  0.00D+00 EMaxC= 1.00D-01 BMatC= 7.53D-11 BMatP= 1.64D-09
 IDIUse=1 WtCom= 1.00D+00 WtEn= 0.00D+00
 Coeff-Com: -0.461D-02-0.948D-02-0.122D-01 0.121D+00 0.905D+00
 Coeff:     -0.461D-02-0.948D-02-0.122D-01 0.121D+00 0.905D+00
 Gap=     0.336 Goal=   None    Shift=    0.000
 RMSDP=9.60D-08 MaxDP=5.39D-06 DE=-1.65D-09 OVMax= 1.03D-05

 Cycle  12  Pass 1  IDiag  1:
 RMSU=  3.84D-08    CP:  1.00D+00  1.03D+00  1.01D+00  1.21D+00  1.27D+00
 E= -1971.22332243031     Delta-E=       -0.000000000193 Rises=F Damp=F
 DIIS: error= 1.58D-07 at cycle   6 NSaved=   6.
 NSaved= 6 IEnMin= 6 EnMin= -1971.22332243031     IErMin= 6 ErrMin= 1.58D-07
 ErrMax= 1.58D-07  0.00D+00 EMaxC= 1.00D-01 BMatC= 1.81D-11 BMatP= 7.53D-11
 IDIUse=1 WtCom= 1.00D+00 WtEn= 0.00D+00
 Coeff-Com:  0.837D-03-0.118D-01-0.584D-01-0.494D-01 0.353D+00 0.766D+00
 Coeff:      0.837D-03-0.118D-01-0.584D-01-0.494D-01 0.353D+00 0.766D+00
 Gap=     0.336 Goal=   None    Shift=    0.000
 RMSDP=3.85D-08 MaxDP=2.48D-06 DE=-1.93D-10 OVMax= 4.21D-06

 Cycle  13  Pass 1  IDiag  1:
 RMSU=  1.80D-08    CP:  1.00D+00  1.03D+00  1.02D+00  1.28D+00  1.36D+00
                    CP:  9.58D-01
 E= -1971.22332243033     Delta-E=       -0.000000000019 Rises=F Damp=F
 DIIS: error= 4.22D-08 at cycle   7 NSaved=   7.
 NSaved= 7 IEnMin= 7 EnMin= -1971.22332243033     IErMin= 7 ErrMin= 4.22D-08
 ErrMax= 4.22D-08  0.00D+00 EMaxC= 1.00D-01 BMatC= 1.60D-12 BMatP= 1.81D-11
 IDIUse=1 WtCom= 1.00D+00 WtEn= 0.00D+00
 Coeff-Com:  0.792D-03-0.309D-02-0.190D-01-0.281D-01 0.413D-01 0.274D+00
 Coeff-Com:  0.734D+00
 Coeff:      0.792D-03-0.309D-02-0.190D-01-0.281D-01 0.413D-01 0.274D+00
 Coeff:      0.734D+00
 Gap=     0.336 Goal=   None    Shift=    0.000
 RMSDP=9.83D-09 MaxDP=6.25D-07 DE=-1.91D-11 OVMax= 1.12D-06

 SCF Done:  E(RCAM-B3LYP) =  -1971.22332243     A.U. after   13 cycles
            NFock= 13  Conv=0.98D-08     -V/T= 2.0054
 KE= 1.960588774674D+03 PE=-8.628548086599D+03 EE= 2.705401741029D+03
 Leave Link  502 at Tue Jun 27 20:51:20 2023, MaxMem=   262144000 cpu:             409.2 elap:              51.5
 (Enter /dragofs/sw/campus/0.2/software/gaussian/16.gaussian/gaussian/g16_legacy/l601.exe)
 Copying SCF densities to generalized density rwf, IOpCl= 0 IROHF=0.

 **********************************************************************

            Population analysis using the SCF density.

 **********************************************************************

 Orbital symmetries:
       Occupied  (A) (A) (A) (A) (A) (A) (A) (A) (A) (A) (A) (A)
                 (A) (A) (A) (A) (A) (A) (A) (A) (A) (A) (A) (A)
                 (A) (A) (A) (A) (A) (A) (A) (A) (A) (A) (A) (A)
                 (A) (A) (A) (A) (A) (A) (A) (A) (A) (A) (A) (A)
                 (A) (A) (A) (A) (A) (A) (A) (A) (A) (A) (A) (A)
                 (A) (A) (A) (A) (A) (A) (A) (A) (A) (A) (A) (A)
                 (A) (A) (A) (A) (A) (A) (A) (A) (A) (A) (A) (A)
                 (A) (A) (A) (A) (A) (A) (A) (A) (A)
       Virtual   (A) (A) (A) (A) (A) (A) (A) (A) (A) (A) (A) (A)
                 (A) (A) (A) (A) (A) (A) (A) (A) (A) (A) (A) (A)
                 (A) (A) (A) (A) (A) (A) (A) (A) (A) (A) (A) (A)
                 (A) (A) (A) (A) (A) (A) (A) (A) (A) (A) (A) (A)
                 (A) (A) (A) (A) (A) (A) (A) (A) (A) (A) (A) (A)
                 (A) (A) (A) (A) (A) (A) (A) (A) (A) (A) (A) (A)
                 (A) (A) (A) (A) (A) (A) (A) (A) (A) (A) (A) (A)
                 (A) (A) (A) (A) (A) (A) (A) (A) (A) (A) (A) (A)
                 (A) (A) (A) (A) (A) (A) (A) (A) (A) (A) (A) (A)
                 (A) (A) (A) (A) (A) (A) (A) (A) (A) (A) (A) (A)
                 (A) (A) (A) (A) (A) (A) (A) (A) (A) (A) (A) (A)
                 (A) (A) (A) (A) (A) (A) (A) (A) (A) (A) (A) (A)
                 (A) (A) (A) (A) (A) (A) (A) (A) (A) (A) (A) (A)
                 (A) (A) (A) (A) (A) (A) (A) (A) (A) (A) (A) (A)
                 (A) (A) (A) (A) (A) (A) (A) (A) (A) (A) (A) (A)
                 (A) (A) (A) (A) (A) (A) (A) (A) (A) (A) (A) (A)
                 (A) (A) (A) (A) (A) (A) (A) (A) (A) (A) (A) (A)
                 (A) (A) (A) (A) (A) (A) (A) (A) (A) (A) (A) (A)
                 (A) (A) (A) (A) (A) (A) (A) (A) (A) (A) (A) (A)
                 (A) (A) (A) (A) (A) (A) (A) (A) (A) (A) (A) (A)
                 (A) (A) (A) (A) (A) (A) (A) (A) (A) (A) (A) (A)
                 (A) (A) (A) (A) (A) (A) (A) (A) (A) (A) (A) (A)
                 (A) (A) (A) (A) (A) (A) (A) (A) (A) (A) (A) (A)
                 (A) (A) (A)
 The electronic state is 1-A.
 Alpha  occ. eigenvalues --  -88.92398 -88.92371 -88.91877 -19.23283 -19.22326
 Alpha  occ. eigenvalues --  -19.21639 -10.31126 -10.30951 -10.30768 -10.30620
 Alpha  occ. eigenvalues --  -10.30358 -10.30072 -10.29086 -10.28906 -10.28725
 Alpha  occ. eigenvalues --  -10.28562 -10.28523 -10.28392 -10.25446 -10.25104
 Alpha  occ. eigenvalues --   -7.98719  -7.98716  -7.98181  -5.95364  -5.95359
 Alpha  occ. eigenvalues --   -5.94916  -5.94907  -5.94840  -5.94384  -5.94220
 Alpha  occ. eigenvalues --   -5.94211  -5.93657  -1.15830  -1.14626  -1.12378
 Alpha  occ. eigenvalues --   -0.91913  -0.90191  -0.87332  -0.85853  -0.84825
 Alpha  occ. eigenvalues --   -0.82415  -0.80178  -0.78698  -0.75867  -0.73307
 Alpha  occ. eigenvalues --   -0.71937  -0.70372  -0.68086  -0.67140  -0.65298
 Alpha  occ. eigenvalues --   -0.64093  -0.61908  -0.60452  -0.58801  -0.57407
 Alpha  occ. eigenvalues --   -0.56065  -0.55169  -0.54669  -0.54129  -0.54010
 Alpha  occ. eigenvalues --   -0.53155  -0.52188  -0.50966  -0.50495  -0.50023
 Alpha  occ. eigenvalues --   -0.49186  -0.47984  -0.47932  -0.46736  -0.46001
 Alpha  occ. eigenvalues --   -0.45483  -0.44757  -0.44222  -0.44055  -0.43340
 Alpha  occ. eigenvalues --   -0.42518  -0.42264  -0.41671  -0.40732  -0.40646
 Alpha  occ. eigenvalues --   -0.40050  -0.38611  -0.37892  -0.36887  -0.35658
 Alpha  occ. eigenvalues --   -0.34501  -0.34318  -0.32923  -0.31597  -0.30547
 Alpha  occ. eigenvalues --   -0.28809  -0.26199  -0.23573
 Alpha virt. eigenvalues --    0.10050   0.10634   0.11736   0.12351   0.12941
 Alpha virt. eigenvalues --    0.13085   0.13397   0.13910   0.14347   0.15100
 Alpha virt. eigenvalues --    0.15403   0.15844   0.15963   0.16241   0.16769
 Alpha virt. eigenvalues --    0.17183   0.17590   0.18310   0.18638   0.19722
 Alpha virt. eigenvalues --    0.20412   0.20516   0.21009   0.21429   0.21530
 Alpha virt. eigenvalues --    0.22204   0.22563   0.22690   0.23066   0.23466
 Alpha virt. eigenvalues --    0.24529   0.24735   0.25216   0.25425   0.26791
 Alpha virt. eigenvalues --    0.27001   0.27877   0.28217   0.28576   0.29065
 Alpha virt. eigenvalues --    0.29985   0.30329   0.30629   0.31806   0.32881
 Alpha virt. eigenvalues --    0.33536   0.34017   0.35928   0.36714   0.40138
 Alpha virt. eigenvalues --    0.41432   0.43973   0.44949   0.45743   0.46698
 Alpha virt. eigenvalues --    0.47523   0.48788   0.51400   0.52586   0.53764
 Alpha virt. eigenvalues --    0.55996   0.56193   0.57157   0.57636   0.58073
 Alpha virt. eigenvalues --    0.59485   0.60016   0.60521   0.61095   0.61614
 Alpha virt. eigenvalues --    0.62121   0.63019   0.63273   0.63930   0.65506
 Alpha virt. eigenvalues --    0.65924   0.66717   0.67363   0.67572   0.67714
 Alpha virt. eigenvalues --    0.68637   0.69006   0.69496   0.69961   0.70269
 Alpha virt. eigenvalues --    0.70816   0.71288   0.72385   0.73678   0.74045
 Alpha virt. eigenvalues --    0.75330   0.75834   0.77169   0.78025   0.81593
 Alpha virt. eigenvalues --    0.82598   0.83445   0.85284   0.86873   0.87284
 Alpha virt. eigenvalues --    0.87555   0.87921   0.88577   0.88797   0.89407
 Alpha virt. eigenvalues --    0.90512   0.91140   0.91417   0.91648   0.91806
 Alpha virt. eigenvalues --    0.92415   0.92834   0.93428   0.94099   0.94418
 Alpha virt. eigenvalues --    0.94567   0.94954   0.95413   0.96336   0.96400
 Alpha virt. eigenvalues --    0.97126   0.97354   0.97637   0.98378   0.99045
 Alpha virt. eigenvalues --    0.99831   0.99932   1.00344   1.00850   1.01693
 Alpha virt. eigenvalues --    1.02180   1.02561   1.03207   1.03728   1.04285
 Alpha virt. eigenvalues --    1.05741   1.05872   1.06857   1.07527   1.08446
 Alpha virt. eigenvalues --    1.09216   1.09479   1.10213   1.11639   1.12642
 Alpha virt. eigenvalues --    1.13008   1.13629   1.14777   1.15442   1.16225
 Alpha virt. eigenvalues --    1.16849   1.18494   1.20030   1.20882   1.27234
 Alpha virt. eigenvalues --    1.28114   1.30168   1.32569   1.33077   1.37541
 Alpha virt. eigenvalues --    1.38644   1.40048   1.40905   1.44103   1.46341
 Alpha virt. eigenvalues --    1.48361   1.49501   1.50995   1.52471   1.55451
 Alpha virt. eigenvalues --    1.56111   1.58626   1.59568   1.60772   1.62610
 Alpha virt. eigenvalues --    1.63537   1.65317   1.66850   1.67262   1.68051
[...]
    11  H    0.000000   0.000000   0.000000   0.000000   0.000000   0.000000
    12  C   -0.000000  -0.000000   0.000000  -0.000000   0.000000  -0.000000
    13  H   -0.000000  -0.000000   0.000000  -0.000000   0.000000  -0.000000
    14  H   -0.000000   0.000000   0.000000   0.000000   0.000000  -0.000000
    15  O    0.000000   0.000000   0.000000   0.000000   0.000000  -0.000000
    16  C   -0.000000   0.000000  -0.000000   0.000000   0.000000   0.000000
    17  H    0.000000   0.000000   0.000000  -0.000000  -0.000000  -0.000000
    18  H   -0.000000  -0.000000  -0.000000   0.000000   0.000000  -0.000000
    19  C    0.000000   0.000000   0.000000   0.000000  -0.000000   0.000000
    20  H   -0.000000  -0.000000   0.000000  -0.000000   0.000000  -0.000000
    21  H    0.000000   0.000000   0.000000   0.000000  -0.000000  -0.000000
    22  O   -0.000000  -0.000000  -0.000000  -0.000000   0.000000  -0.000000
    23  C    0.000000   0.000000  -0.000000  -0.000000   0.000000   0.000000
    24  H   -0.000000   0.000000  -0.000000   0.000000  -0.000000  -0.000000
    25  H    0.000000   0.000000  -0.000000  -0.000000  -0.000000  -0.000000
    26  C   -0.000000   0.000000   0.000000   0.000000  -0.000000  -0.000000
    27  H    0.000000  -0.000000  -0.000000  -0.000000   0.000000  -0.000000
    28  H   -0.000000  -0.000000  -0.000000  -0.000000  -0.000000  -0.000000
    29  S    0.000003  -0.000000   0.000000  -0.000000   0.000000   0.000000
    30  C    0.000018   0.000000  -0.000000  -0.000000   0.000000  -0.000000
    31  H   -0.000000   0.000000   0.000000   0.000000   0.000000   0.000000
    32  H    0.000001   0.000000  -0.000000   0.000000  -0.000000  -0.000000
    33  C   -0.000055   0.000000   0.000000  -0.000000   0.000000   0.000000
    34  H   -0.000041  -0.000000  -0.000000  -0.000000   0.000000  -0.000000
    35  H    0.000013   0.000000   0.000000   0.000000  -0.000000  -0.000000
    36  S    0.003972  -0.000134   0.000010  -0.000012   0.000008   0.000001
    37  C   -0.057243  -0.005123   0.000066   0.003678  -0.000106   0.000083
    38  H    0.005666   0.000112   0.000002  -0.000345   0.000000  -0.000002
    39  H   -0.006464   0.001711  -0.000145   0.005041  -0.000002  -0.000009
    40  C    0.266500  -0.019026   0.002746  -0.006950  -0.005391   0.000754
    41  H   -0.040798  -0.007271   0.000066  -0.000655   0.004136   0.005555
    42  H   -0.037647   0.002677  -0.000066  -0.000008   0.000070  -0.000111
    43  S   15.627473   0.267081  -0.039452  -0.040776  -0.057231  -0.005503
    44  C    0.267081   5.186208   0.380833   0.368010   0.344392  -0.037951
    45  H   -0.039452   0.380833   0.543625  -0.027900  -0.037527   0.004446
    46  H   -0.040776   0.368010  -0.027900   0.579446  -0.045466  -0.003230
    47  C   -0.057231   0.344392  -0.037527  -0.045466   5.097732   0.385465
    48  H   -0.005503  -0.037951   0.004446  -0.003230   0.385465   0.560785
    49  H    0.002483  -0.037255  -0.003529   0.004640   0.385639  -0.028592
    50  H    0.005403  -0.027187  -0.002721  -0.001464   0.364105  -0.030671
              49         50
     1  C    0.000000   0.000000
     2  H    0.000000   0.000000
     3  H    0.000000   0.000000
     4  H    0.000000   0.000000
     5  C    0.000000   0.000000
     6  H    0.000000   0.000000
     7  H    0.000000   0.000000
     8  O    0.000000   0.000000
     9  C    0.000000   0.000000
    10  H    0.000000   0.000000
    11  H    0.000000   0.000000
    12  C    0.000000   0.000000
    13  H    0.000000   0.000000
    14  H    0.000000   0.000000
    15  O    0.000000   0.000000
    16  C   -0.000000  -0.000000
    17  H    0.000000   0.000000
    18  H    0.000000  -0.000000
    19  C    0.000000   0.000000
    20  H    0.000000  -0.000000
    21  H   -0.000000   0.000000
    22  O    0.000000  -0.000000
    23  C   -0.000000  -0.000000
    24  H   -0.000000   0.000000
    25  H    0.000000   0.000000
    26  C    0.000000   0.000000
    27  H   -0.000000  -0.000000
    28  H    0.000000   0.000000
    29  S    0.000000  -0.000000
    30  C    0.000000  -0.000000
    31  H   -0.000000  -0.000000
    32  H    0.000000   0.000000
    33  C   -0.000000  -0.000000
    34  H   -0.000000  -0.000000
    35  H   -0.000000   0.000000
    36  S    0.000000  -0.000000
    37  C    0.000011   0.000005
    38  H   -0.000000  -0.000001
    39  H    0.000002   0.000004
    40  C   -0.000215   0.000113
    41  H    0.000018  -0.000338
    42  H   -0.000013   0.000001
    43  S    0.002483   0.005403
    44  C   -0.037255  -0.027187
    45  H   -0.003529  -0.002721
    46  H    0.004640  -0.001464
    47  C    0.385639   0.364105
    48  H   -0.028592  -0.030671
    49  H    0.539817  -0.028365
    50  H   -0.028365   0.572501
 Mulliken charges:
               1
     1  C   -0.464592
     2  H    0.151238
     3  H    0.159981
     4  H    0.149955
     5  C   -0.021292
     6  H    0.127506
     7  H    0.150204
     8  O   -0.470459
     9  C   -0.022001
    10  H    0.135368
    11  H    0.122233
    12  C   -0.041627
    13  H    0.137891
    14  H    0.139938
    15  O   -0.472696
    16  C   -0.047612
    17  H    0.151036
    18  H    0.125001
    19  C   -0.056168
    20  H    0.159176
    21  H    0.148767
    22  O   -0.480990
    23  C   -0.008636
    24  H    0.122732
    25  H    0.144209
    26  C   -0.446613
    27  H    0.194428
    28  H    0.178612
    29  S    0.092222
    30  C   -0.413860
    31  H    0.191167
    32  H    0.183981
    33  C   -0.419934
    34  H    0.164483
    35  H    0.187893
    36  S    0.126233
    37  C   -0.419813
    38  H    0.166259
    39  H    0.179205
    40  C   -0.415681
    41  H    0.168955
    42  H    0.181116
    43  S    0.106595
    44  C   -0.417078
    45  H    0.179546
    46  H    0.165991
    47  C   -0.435823
    48  H    0.148979
    49  H    0.165359
    50  H    0.148615
 Sum of Mulliken charges =  -0.00000
 Mulliken charges with hydrogens summed into heavy atoms:
               1
     1  C   -0.003418
     5  C    0.256418
     8  O   -0.470459
     9  C    0.235600
    12  C    0.236203
    15  O   -0.472696
    16  C    0.228424
    19  C    0.251776
    22  O   -0.480990
    23  C    0.258304
    26  C   -0.073573
    29  S    0.092222
    30  C   -0.038712
    33  C   -0.067558
    36  S    0.126233
    37  C   -0.074350
    40  C   -0.065610
    43  S    0.106595
    44  C   -0.071540
    47  C    0.027131
 Electronic spatial extent (au):  <R**2>=          17262.6253
 Charge=             -0.0000 electrons
 Dipole moment (field-independent basis, Debye):
    X=             -3.8438    Y=             -3.5192    Z=              1.1631  Tot=              5.3397
 Quadrupole moment (field-independent basis, Debye-Ang):
   XX=           -123.6151   YY=           -156.4432   ZZ=           -140.6026
   XY=            -13.4099   XZ=              8.1955   YZ=             -0.0159
 Traceless Quadrupole moment (field-independent basis, Debye-Ang):
   XX=             16.6052   YY=            -16.2229   ZZ=             -0.3823
   XY=            -13.4099   XZ=              8.1955   YZ=             -0.0159
 Octapole moment (field-independent basis, Debye-Ang**2):
  XXX=           -158.0439  YYY=            -28.9649  ZZZ=              5.7829  XYY=            -16.8290
  XXY=            -86.0624  XXZ=             40.5896  XZZ=            -53.0585  YZZ=              5.0773
  YYZ=              3.8876  XYZ=             -6.8585
 Hexadecapole moment (field-independent basis, Debye-Ang**3):
 XXXX=         -17788.2225 YYYY=          -2373.6403 ZZZZ=          -1046.2066 XXXY=            -67.7705
 XXXZ=            550.1508 YYYX=            -31.7930 YYYZ=             15.0839 ZZZX=             46.1036
 ZZZY=             -5.3180 XXYY=          -3652.6429 XXZZ=          -3415.0148 YYZZ=           -523.3551
 XXYZ=            -64.3176 YYXZ=            -15.2455 ZZXY=             18.3631
 N-N= 1.985492484480D+03 E-N=-8.616805629599D+03  KE= 1.960300223289D+03
 There are a total of     1156272 grid points.
 ElSum from          density=      185.9999997219
 ElSum from atomic densities=      185.9999687461
 Hirshfeld populations at iteration   1 (CA, CB, DipXYZ):
               1          2          3          4          5
     1  C    3.047113   3.047113   0.007415   0.000912  -0.010783
     2  H    0.484223   0.484223  -0.087726  -0.099042   0.038661
     3  H    0.482118   0.482118  -0.015693   0.114965   0.084615
     4  H    0.481253   0.481253  -0.041264   0.036656  -0.130406
     5  C    2.984680   2.984680   0.011634  -0.002355   0.045978
     6  H    0.485828   0.485828   0.013250  -0.092585  -0.085455
     7  H    0.480023   0.480023   0.075518   0.105091  -0.057749
     8  O    4.084034   4.084034  -0.081662  -0.085475  -0.063451
     9  C    2.989429   2.989429   0.008912   0.047500  -0.017223
    10  H    0.483734   0.483734  -0.000827  -0.104571  -0.075924
    11  H    0.485805   0.485805  -0.115591   0.001878   0.049917
    12  C    2.986290   2.986290   0.044348  -0.026216  -0.016765
    13  H    0.482066   0.482066  -0.004878   0.101226   0.082554
    14  H    0.482046   0.482046  -0.062331  -0.097826   0.070469
    15  O    4.090242   4.090242  -0.018271   0.134973   0.069174
    16  C    2.989222   2.989222  -0.047849  -0.036177  -0.021676
    17  H    0.481327   0.481327   0.111326  -0.085838   0.002615
    18  H    0.486947   0.486947  -0.007286   0.039352   0.116649
    19  C    2.991639   2.991639   0.063413   0.027027   0.014495
    20  H    0.486782   0.486782  -0.071828   0.084848  -0.003974
    21  H    0.480897   0.480897   0.019255  -0.058357  -0.127007
    22  O    4.082332   4.082332  -0.115968   0.034332   0.044512
    23  C    2.988604   2.988604   0.003643  -0.049559  -0.019281
    24  H    0.486822   0.486822  -0.042832  -0.025120   0.113271
    25  H    0.485786   0.485786  -0.087985   0.085087  -0.037178
    26  C    3.026554   3.026554  -0.020682  -0.003717   0.005661
    27  H    0.482030   0.482030   0.067106  -0.093424   0.068332
    28  H    0.476296   0.476296  -0.022536   0.099964   0.112640
    29  S    8.026130   8.026130  -0.027037  -0.228153   0.019289
    30  C    3.025917   3.025917   0.004842  -0.013157  -0.003795
    31  H    0.482452   0.482452  -0.102024  -0.053676  -0.085595
    32  H    0.479343   0.479343   0.071299   0.062676  -0.114954
    33  C    3.027744   3.027744  -0.003346  -0.001066  -0.015425
    34  H    0.482324   0.482324   0.018297  -0.081979  -0.111801
    35  H    0.485313   0.485313  -0.062742  -0.083923   0.073397
    36  S    8.024488   8.024488  -0.060787  -0.195912  -0.058636
    37  C    3.028266   3.028266  -0.003191  -0.017789  -0.009055
    38  H    0.481832   0.481832  -0.090791  -0.103825   0.039448
    39  H    0.480944   0.480944   0.086541   0.002595   0.116233
    40  C    3.027717   3.027717  -0.004517  -0.011287   0.015829
    41  H    0.482354   0.482354   0.013364  -0.136773   0.017860
    42  H    0.480449   0.480449  -0.085568  -0.002159  -0.117586
    43  S    8.026197   8.026197  -0.024257  -0.155716   0.156501
    44  C    3.024427   3.024427   0.012277  -0.020270   0.000489
    45  H    0.478656   0.478656   0.124219   0.086419   0.005491
    46  H    0.483285   0.483285  -0.041570  -0.001981   0.133891
    47  C    3.046360   3.046360   0.011788   0.000787   0.016622
    48  H    0.485123   0.485123  -0.096729  -0.095764   0.001200
    49  H    0.483291   0.483291   0.072724  -0.010102  -0.121864
    50  H    0.483267   0.483267   0.091905  -0.043866   0.094908
       Tot  93.000000  93.000000  -0.514690  -1.051371   0.305118

 Dip from Atomic Chgs             -0.997449  -0.333228   0.152340
         Total Dipole             -1.512139  -1.384599   0.457458

 Hirshfeld charges, spin densities, dipoles, and CM5 charges using IRadAn=      5:
              Q-H        S-H        Dx         Dy         Dz        Q-CM5   
     1  C   -0.094226   0.000000   0.007415   0.000912  -0.010783  -0.241914
     2  H    0.031553   0.000000  -0.087726  -0.099042   0.038661   0.084433
     3  H    0.035765   0.000000  -0.015693   0.114965   0.084615   0.088897
     4  H    0.037495   0.000000  -0.041264   0.036656  -0.130406   0.088580
     5  C    0.030639   0.000000   0.011634  -0.002355   0.045978  -0.053388
     6  H    0.028344   0.000000   0.013250  -0.092585  -0.085455   0.090370
     7  H    0.039954   0.000000   0.075518   0.105091  -0.057749   0.103641
     8  O   -0.168067   0.000000  -0.081662  -0.085475  -0.063451  -0.274891
     9  C    0.021143   0.000000   0.008912   0.047500  -0.017223  -0.057431
    10  H    0.032533   0.000000  -0.000827  -0.104571  -0.075924   0.097812
    11  H    0.028390   0.000000  -0.115591   0.001878   0.049917   0.090754
    12  C    0.027421   0.000000   0.044348  -0.026216  -0.016765  -0.051256
    13  H    0.035869   0.000000  -0.004878   0.101226   0.082554   0.101997
    14  H    0.035908   0.000000  -0.062331  -0.097826   0.070469   0.098721
    15  O   -0.180483   0.000000  -0.018271   0.134973   0.069174  -0.281361
    16  C    0.021556   0.000000  -0.047849  -0.036177  -0.021676  -0.057609
    17  H    0.037346   0.000000   0.111326  -0.085838   0.002615   0.103334
    18  H    0.026107   0.000000  -0.007286   0.039352   0.116649   0.090754
    19  C    0.016722   0.000000   0.063413   0.027027   0.014495  -0.063277
    20  H    0.026436   0.000000  -0.071828   0.084848  -0.003974   0.096284
    21  H    0.038206   0.000000   0.019255  -0.058357  -0.127007   0.104303
    22  O   -0.164665   0.000000  -0.115968   0.034332   0.044512  -0.271585
    23  C    0.022792   0.000000   0.003643  -0.049559  -0.019281  -0.056983
    24  H    0.026356   0.000000  -0.042832  -0.025120   0.113271   0.088588
    25  H    0.028428   0.000000  -0.087985   0.085087  -0.037178   0.091637
    26  C   -0.053108   0.000000  -0.020682  -0.003717   0.005661  -0.142545
    27  H    0.035941   0.000000   0.067106  -0.093424   0.068332   0.095733
    28  H    0.047408   0.000000  -0.022536   0.099964   0.112640   0.104381
    29  S   -0.052260   0.000000  -0.027037  -0.228153   0.019289  -0.097811
    30  C   -0.051834   0.000000   0.004842  -0.013157  -0.003795  -0.142333
    31  H    0.035096   0.000000  -0.102024  -0.053676  -0.085595   0.094796
    32  H    0.041313   0.000000   0.071299   0.062676  -0.114954   0.098705
    33  C   -0.055489   0.000000  -0.003346  -0.001066  -0.015425  -0.147063
    34  H    0.035353   0.000000   0.018297  -0.081979  -0.111801   0.092196
    35  H    0.029374   0.000000  -0.062742  -0.083923   0.073397   0.089974
    36  S   -0.048976   0.000000  -0.060787  -0.195912  -0.058636  -0.094861
    37  C   -0.056531   0.000000  -0.003191  -0.017789  -0.009055  -0.147296
    38  H    0.036337   0.000000  -0.090791  -0.103825   0.039448   0.092463
    39  H    0.038111   0.000000   0.086541   0.002595   0.116233   0.095624
    40  C   -0.055434   0.000000  -0.004517  -0.011287   0.015829  -0.146360
    41  H    0.035292   0.000000   0.013364  -0.136773   0.017860   0.091779
    42  H    0.039101   0.000000  -0.085568  -0.002159  -0.117586   0.096658
    43  S   -0.052395   0.000000  -0.024257  -0.155716   0.156501  -0.099311
    44  C   -0.048854   0.000000   0.012277  -0.020270   0.000489  -0.143474
    45  H    0.042688   0.000000   0.124219   0.086419   0.005491   0.098839
    46  H    0.033429   0.000000  -0.041570  -0.001981   0.133891   0.089442
    47  C   -0.092721   0.000000   0.011788   0.000787   0.016622  -0.240833
    48  H    0.029753   0.000000  -0.096729  -0.095764   0.001200   0.081565
    49  H    0.033418   0.000000   0.072724  -0.010102  -0.121864   0.085214
    50  H    0.033466   0.000000   0.091905  -0.043866   0.094908   0.084109
       Tot   0.000000   0.000000  -0.514690  -1.051371   0.305118   0.000000
 Hirshfeld charges with hydrogens summed into heavy atoms:
              Q-H       Q-CM5   
     1  C    0.010587   0.019996
     5  C    0.098937   0.140623
     8  O   -0.168067  -0.274891
     9  C    0.082065   0.131135
    12  C    0.099198   0.149461
    15  O   -0.180483  -0.281361
    16  C    0.085009   0.136478
    19  C    0.081363   0.137310
    22  O   -0.164665  -0.271585
    23  C    0.077576   0.123242
    26  C    0.030240   0.057569
    29  S   -0.052260  -0.097811
    30  C    0.024576   0.051168
    33  C    0.009238   0.035107
    36  S   -0.048976  -0.094861
    37  C    0.017917   0.040791
    40  C    0.018958   0.042077
    43  S   -0.052395  -0.099311
    44  C    0.027264   0.044807
    47  C    0.003916   0.010055
 
 EQQ= 0.000000000000E+00 EQD= 0.000000000000E+00 EDD=-0.216823515584E-02
 EQQ+QD+DD=-0.216823515584E-02
 
 No NMR shielding tensors so no spin-rotation constants.
 Leave Link  601 at Tue Jun 27 21:49:58 2023, MaxMem=   262144000 cpu:              17.8 elap:               2.3
 (Enter /dragofs/sw/campus/0.2/software/gaussian/16.gaussian/gaussian/g16_legacy/l9999.exe)
 1\1\GINC-DRAGO31070248\FOpt\RCAM-B3LYP\6-31G(d)\C14H30O3S3\JRAMOS\27-J
 un-2023\0\\#p opt cam-b3lyp/6-31G* pop=Hirshfeld\\Conformer number 000
 64. Energy MM = 162.552 kcal/mol\\0,1\C,-7.3996466709,-1.4893078726,0.
 0979934724\H,-8.0390870005,-0.6605253191,0.4160518601\H,-7.4653119995,
 -1.5755368142,-0.9903945929\H,-7.7994865288,-2.4064906167,0.541695771\
 C,-5.9531374543,-1.2871508393,0.5249157003\H,-5.8862781666,-1.17913925
 44,1.6183082488\H,-5.3534133512,-2.1566290775,0.2413748388\O,-5.331140
 5183,-0.1824382267,-0.1023447745\C,-5.7464879698,1.0782493173,0.367297
 4303\H,-5.7645142986,1.0937533189,1.4673894039\H,-6.7572940696,1.32492
 22775,0.0082742631\C,-4.7809317732,2.1353680732,-0.1264108468\H,-4.644
 5628434,2.0208599348,-1.2096152814\H,-5.2242861742,3.1233502937,0.0549
 016586\O,-3.5444129928,2.0765908155,0.5522475206\C,-2.4064633511,1.752
 9199878,-0.2166286033\H,-1.5443154178,2.1851828784,0.2998002376\H,-2.4
 628379439,2.2198207162,-1.2105526977\C,-2.1991822976,0.2453565539,-0.3
 397593528\H,-3.0470457152,-0.2258056583,-0.8486472904\H,-2.1362853935,
 -0.1844846544,0.664003176\O,-0.9775759112,-0.0414193731,-0.998762665\C
 ,-1.0823326721,-0.138586317,-2.4044508643\H,-1.4434948143,0.8094119681
 ,-2.8341427348\H,-1.7992584093,-0.9256039744,-2.6779747964\C,0.2841457
 533,-0.4473123839,-2.9846193237\H,1.0119959731,0.3052033559,-2.6685086
 724\H,0.2242210051,-0.3949503026,-4.0759771143\S,0.9376538365,-2.11354
 4624,-2.6583845538\C,1.2968330752,-2.0979643853,-0.8678166364\H,0.3587
 467105,-2.1403516532,-0.3126340783\H,1.8404143283,-3.0329933476,-0.704
 774067\C,2.1075995647,-0.9199650721,-0.3465780601\H,2.3220194993,-1.10
 6996314,0.7110909993\H,1.5091271383,-0.0074747367,-0.4057042056\S,3.68
 23333943,-0.6984779318,-1.2440980385\C,4.4720732796,0.4946504572,-0.11
 67722352\H,3.7253531629,1.241283858,0.1772255469\H,5.2224855278,1.0199
 937524,-0.7136393855\C,5.1148242198,-0.1091109342,1.1315344658\H,5.344
 9792509,0.6843944154,1.8504062792\H,4.4190601203,-0.7888687153,1.63048
 96729\S,6.6214877259,-1.0860349315,0.8270991149\C,7.8592275543,0.24099
 05343,0.6367982722\H,8.7194371813,-0.2500606913,0.1731255484\H,7.49301
 43927,0.9737536154,-0.0894829336\C,8.2735544294,0.9179394201,1.9370692
 335\H,7.4274053569,1.4116049584,2.42445609\H,8.685533721,0.189584515,2
 .6401889897\H,9.0349575362,1.6817390038,1.7443360104\\Version=EM64L-G1
 6RevA.03\State=1-A\HF=-1971.3142115\RMSD=8.142e-09\RMSF=1.655e-06\Dipo
 le=-1.4984747,1.3295207,0.6326571\Quadrupole=12.798993,-6.4768118,-6.3
 221812,10.8113825,4.0566683,-5.4130962\PG=C01 [X(C14H30O3S3)]\\@


 DO NOT LET SELFISH MEN OR GREEDY INTERESTS SKIN YOUR COUNTRY OF ITS
 BEAUTY, ITS RICHES, OR ITS ROMANCE. -- THEODORE ROOSEVELT
 Job cpu time:       0 days  7 hours 51 minutes 54.3 seconds.
 Elapsed time:       0 days  0 hours 59 minutes 30.4 seconds.
 File lengths (MBytes):  RWF=     92 Int=      0 D2E=      0 Chk=     13 Scr=      1
 Normal termination of Gaussian 16 at Tue Jun 27 21:49:58 2023.
