 Entering Gaussian System, Link 0=g16
 Input=DVE-DMSD_1_00012_gaussian.com
 Output=DVE-DMSD_1_00012_gaussian.log
 Initial command:
 /dragofs/sw/campus/0.2/software/gaussian/16.gaussian/gaussian/g16_legacy/l1.exe "/lustre/scratch-global/iem/jramos/172758/Gau-194752.inp" -scrdir="/lustre/scratch-global/iem/jramos/172758/"
 Entering Link 1 = /dragofs/sw/campus/0.2/software/gaussian/16.gaussian/gaussian/g16_legacy/l1.exe PID=    194755.
  
 Copyright (c) 1988,1990,1992,1993,1995,1998,2003,2009,2016,
            Gaussian, Inc.  All Rights Reserved.
  
 This is part of the Gaussian(R) 16 program.  It is based on
 the Gaussian(R) 09 system (copyright 2009, Gaussian, Inc.),
 the Gaussian(R) 03 system (copyright 2003, Gaussian, Inc.),
 the Gaussian(R) 98 system (copyright 1998, Gaussian, Inc.),
 the Gaussian(R) 94 system (copyright 1995, Gaussian, Inc.),
 the Gaussian 92(TM) system (copyright 1992, Gaussian, Inc.),
 the Gaussian 90(TM) system (copyright 1990, Gaussian, Inc.),
 the Gaussian 88(TM) system (copyright 1988, Gaussian, Inc.),
 the Gaussian 86(TM) system (copyright 1986, Carnegie Mellon
 University), and the Gaussian 82(TM) system (copyright 1983,
 Carnegie Mellon University). Gaussian is a federally registered
 trademark of Gaussian, Inc.
  
 This software contains proprietary and confidential information,
 including trade secrets, belonging to Gaussian, Inc.
  
 This software is provided under written license and may be
 used, copied, transmitted, or stored only in accord with that
 written license.
  
 The following legend is applicable only to US Government
 contracts under FAR:
  
                    RESTRICTED RIGHTS LEGEND
  
 Use, reproduction and disclosure by the US Government is
 subject to restrictions as set forth in subparagraphs (a)
 and (c) of the Commercial Computer Software - Restricted
 Rights clause in FAR 52.227-19.
  
 Gaussian, Inc.
 340 Quinnipiac St., Bldg. 40, Wallingford CT 06492
  
  
 ---------------------------------------------------------------
 Warning -- This program may not be used in any manner that
 competes with the business of Gaussian, Inc. or will provide
 assistance to any competitor of Gaussian, Inc.  The licensee
 of this program is prohibited from giving any competitor of
 Gaussian, Inc. access to this program.  By using this program,
 the user acknowledges that Gaussian, Inc. is engaged in the
 business of creating and licensing software in the field of
 computational chemistry and represents and warrants to the
 licensee that it is not a competitor of Gaussian, Inc. and that
 it will not use this program in any manner prohibited above.
 ---------------------------------------------------------------
  

 Cite this work as:
 Gaussian 16, Revision A.03,
 M. J. Frisch, G. W. Trucks, H. B. Schlegel, G. E. Scuseria, 
 M. A. Robb, J. R. Cheeseman, G. Scalmani, V. Barone, 
 G. A. Petersson, H. Nakatsuji, X. Li, M. Caricato, A. V. Marenich, 
 J. Bloino, B. G. Janesko, R. Gomperts, B. Mennucci, H. P. Hratchian, 
 J. V. Ortiz, A. F. Izmaylov, J. L. Sonnenberg, D. Williams-Young, 
 F. Ding, F. Lipparini, F. Egidi, J. Goings, B. Peng, A. Petrone, 
 T. Henderson, D. Ranasinghe, V. G. Zakrzewski, J. Gao, N. Rega, 
 G. Zheng, W. Liang, M. Hada, M. Ehara, K. Toyota, R. Fukuda, 
 J. Hasegawa, M. Ishida, T. Nakajima, Y. Honda, O. Kitao, H. Nakai, 
 T. Vreven, K. Throssell, J. A. Montgomery, Jr., J. E. Peralta, 
 F. Ogliaro, M. J. Bearpark, J. J. Heyd, E. N. Brothers, K. N. Kudin, 
 V. N. Staroverov, T. A. Keith, R. Kobayashi, J. Normand, 
 K. Raghavachari, A. P. Rendell, J. C. Burant, S. S. Iyengar, 
 J. Tomasi, M. Cossi, J. M. Millam, M. Klene, C. Adamo, R. Cammi, 
 J. W. Ochterski, R. L. Martin, K. Morokuma, O. Farkas, 
 J. B. Foresman, and D. J. Fox, Gaussian, Inc., Wallingford CT, 2016.
 
 ******************************************
 Gaussian 16:  EM64L-G16RevA.03 25-Dec-2016
                27-Jun-2023 
 ******************************************
 %chk=DVE-DMSD_1_00012_gaussian.chk
 %nproc=8
 Will use up to    8 processors via shared memory.
 %mem=2000Mb
 -------------------------------------
 #p opt cam-b3lyp/6-31G* pop=Hirshfeld
 -------------------------------------
 1/18=20,19=15,26=3,38=1/1,3;
 2/9=110,12=2,17=6,18=5,40=1/2;
 3/5=1,6=6,7=1,11=2,25=1,30=1,71=1,74=-40/1,2,3;
 4//1;
 5/5=2,38=5/2;
 6/7=2,8=2,9=2,10=2,28=1,79=1/1;
 7//1,2,3,16;
 1/18=20,19=15,26=3/3(2);
 2/9=110/2;
 99//99;
 2/9=110/2;
 3/5=1,6=6,7=1,11=2,25=1,30=1,71=1,74=-40/1,2,3;
 4/5=5,16=3,69=1/1;
 5/5=2,38=5/2;
 7//1,2,3,16;
 1/18=20,19=15,26=3/3(-5);
 2/9=110/2;
 6/7=2,8=2,9=2,10=2,19=2,28=1,79=1/1;
 99/9=1/99;
 Leave Link    1 at Tue Jun 27 19:48:12 2023, MaxMem=   262144000 cpu:               0.2 elap:               0.0
 (Enter /dragofs/sw/campus/0.2/software/gaussian/16.gaussian/gaussian/g16_legacy/l101.exe)
 ----------------------------------------------------
 Conformer number 00012. Energy MM = 138.715 kcal/mol
 ----------------------------------------------------
 Symbolic Z-matrix:
 Charge =  0 Multiplicity = 1
 C                    -7.8302    1.4374   -1.1189 
 H                    -8.794     1.8074   -0.7494 
 H                    -7.0051    2.1882   -0.9721 
 H                    -7.9137    1.2641   -2.2033 
 C                    -7.4411    0.1498   -0.3856 
 H                    -8.3631   -0.3182   -0.0005 
 H                    -6.9044   -0.4762   -1.1314 
 O                    -6.5668    0.5001    0.624 
 C                    -6.1196   -0.5563    1.3835 
 H                    -6.9541   -1.0313    1.923 
 H                    -5.4175   -0.1679    2.1409 
 C                    -5.3767   -1.603     0.5771 
 H                    -5.0357   -2.3796    1.2921 
 H                    -6.0274   -2.0672   -0.201 
 O                    -4.2803   -0.9782   -0.0051 
 C                    -3.5196   -1.8532   -0.7754 
 H                    -4.083    -2.2895   -1.6141 
 H                    -3.0769   -2.6579   -0.1664 
 C                    -2.3655   -1.0189   -1.3439 
 H                    -2.7429   -0.1597   -1.9295 
 H                    -1.7704   -1.7057   -1.9949 
 O                    -1.6728   -0.5293   -0.2568 
 C                    -0.6176    0.256    -0.6388 
 H                    -0.0579    0.6746    0.2449 
 H                    -0.9972    1.1307   -1.2156 
 C                     0.3763   -0.4833   -1.4731 
 H                    -0.0442   -0.8101   -2.4537 
 H                     0.8325   -1.3369   -0.948 
 S                     1.7116    0.6754   -1.887 
 C                     2.6493    1.171    -0.4135 
 H                     1.9909    1.6433    0.3421 
 H                     3.1652    0.2764   -0.0106 
 C                     3.7251    2.1418   -0.8935 
 H                     3.3227    2.9525   -1.5081 
 H                     4.3789    1.5176   -1.5714 
 S                     4.7434    2.7243    0.4784 
 C                     5.718     1.3341    1.1624 
 H                     4.9792    0.4987    1.3269 
 H                     6.1796    1.5901    2.1211 
 C                     6.693     0.9307    0.0886 
 H                     6.09      0.6352   -0.7966 
 H                     7.3304    1.8274   -0.1219 
 S                     7.7695   -0.425     0.54 
 C                     6.8369   -1.9666    0.7545 
 H                     7.5109   -2.7459    1.1923 
 H                     5.9732   -1.7368    1.4127 
 C                     6.246    -2.437    -0.5606 
 H                     5.386    -3.1025   -0.4198 
 H                     5.9908   -1.5952   -1.2243 
 H                     7.048    -3.0056   -1.1045 
 
 ITRead=  0  0  0  0  0  0  0  0  0  0  0  0  0  0  0  0  0  0  0  0
 ITRead=  0  0  0  0  0  0  0  0  0  0  0  0  0  0  0  0  0  0  0  0
 ITRead=  0  0  0  0  0  0  0  0  0  0
 MicOpt= -1 -1 -1 -1 -1 -1 -1 -1 -1 -1 -1 -1 -1 -1 -1 -1 -1 -1 -1 -1
 MicOpt= -1 -1 -1 -1 -1 -1 -1 -1 -1 -1 -1 -1 -1 -1 -1 -1 -1 -1 -1 -1
 MicOpt= -1 -1 -1 -1 -1 -1 -1 -1 -1 -1
 NAtoms=     50 NQM=       50 NQMF=       0 NMMI=      0 NMMIF=      0
                NMic=       0 NMicF=      0.
                    Isotopes and Nuclear Properties:
 (Nuclear quadrupole moments (NQMom) in fm**2, nuclear magnetic moments (NMagM)
  in nuclear magnetons)

  Atom         1           2           3           4           5           6           7           8           9          10
 IAtWgt=          12           1           1           1          12           1           1          16          12           1
 AtmWgt=  12.0000000   1.0078250   1.0078250   1.0078250  12.0000000   1.0078250   1.0078250  15.9949146  12.0000000   1.0078250
 NucSpn=           0           1           1           1           0           1           1           0           0           1
 AtZEff=  -0.0000000  -0.0000000  -0.0000000  -0.0000000  -0.0000000  -0.0000000  -0.0000000  -0.0000000  -0.0000000  -0.0000000
 NQMom=    0.0000000   0.0000000   0.0000000   0.0000000   0.0000000   0.0000000   0.0000000   0.0000000   0.0000000   0.0000000
 NMagM=    0.0000000   2.7928460   2.7928460   2.7928460   0.0000000   2.7928460   2.7928460   0.0000000   0.0000000   2.7928460
 AtZNuc=   6.0000000   1.0000000   1.0000000   1.0000000   6.0000000   1.0000000   1.0000000   8.0000000   6.0000000   1.0000000

  Atom        11          12          13          14          15          16          17          18          19          20
 IAtWgt=           1          12           1           1          16          12           1           1          12           1
 AtmWgt=   1.0078250  12.0000000   1.0078250   1.0078250  15.9949146  12.0000000   1.0078250   1.0078250  12.0000000   1.0078250
 NucSpn=           1           0           1           1           0           0           1           1           0           1
 AtZEff=  -0.0000000  -0.0000000  -0.0000000  -0.0000000  -0.0000000  -0.0000000  -0.0000000  -0.0000000  -0.0000000  -0.0000000
 NQMom=    0.0000000   0.0000000   0.0000000   0.0000000   0.0000000   0.0000000   0.0000000   0.0000000   0.0000000   0.0000000
 NMagM=    2.7928460   0.0000000   2.7928460   2.7928460   0.0000000   0.0000000   2.7928460   2.7928460   0.0000000   2.7928460
 AtZNuc=   1.0000000   6.0000000   1.0000000   1.0000000   8.0000000   6.0000000   1.0000000   1.0000000   6.0000000   1.0000000

  Atom        21          22          23          24          25          26          27          28          29          30
 IAtWgt=           1          16          12           1           1          12           1           1          32          12
 AtmWgt=   1.0078250  15.9949146  12.0000000   1.0078250   1.0078250  12.0000000   1.0078250   1.0078250  31.9720718  12.0000000
 NucSpn=           1           0           0           1           1           0           1           1           0           0
 AtZEff=  -0.0000000  -0.0000000  -0.0000000  -0.0000000  -0.0000000  -0.0000000  -0.0000000  -0.0000000  -0.0000000  -0.0000000
 NQMom=    0.0000000   0.0000000   0.0000000   0.0000000   0.0000000   0.0000000   0.0000000   0.0000000   0.0000000   0.0000000
 NMagM=    2.7928460   0.0000000   0.0000000   2.7928460   2.7928460   0.0000000   2.7928460   2.7928460   0.0000000   0.0000000
 AtZNuc=   1.0000000   8.0000000   6.0000000   1.0000000   1.0000000   6.0000000   1.0000000   1.0000000  16.0000000   6.0000000

  Atom        31          32          33          34          35          36          37          38          39          40
 IAtWgt=           1           1          12           1           1          32          12           1           1          12
 AtmWgt=   1.0078250   1.0078250  12.0000000   1.0078250   1.0078250  31.9720718  12.0000000   1.0078250   1.0078250  12.0000000
 NucSpn=           1           1           0           1           1           0           0           1           1           0
 AtZEff=  -0.0000000  -0.0000000  -0.0000000  -0.0000000  -0.0000000  -0.0000000  -0.0000000  -0.0000000  -0.0000000  -0.0000000
 NQMom=    0.0000000   0.0000000   0.0000000   0.0000000   0.0000000   0.0000000   0.0000000   0.0000000   0.0000000   0.0000000
 NMagM=    2.7928460   2.7928460   0.0000000   2.7928460   2.7928460   0.0000000   0.0000000   2.7928460   2.7928460   0.0000000
 AtZNuc=   1.0000000   1.0000000   6.0000000   1.0000000   1.0000000  16.0000000   6.0000000   1.0000000   1.0000000   6.0000000

  Atom        41          42          43          44          45          46          47          48          49          50
 IAtWgt=           1           1          32          12           1           1          12           1           1           1
 AtmWgt=   1.0078250   1.0078250  31.9720718  12.0000000   1.0078250   1.0078250  12.0000000   1.0078250   1.0078250   1.0078250
 NucSpn=           1           1           0           0           1           1           0           1           1           1
 AtZEff=  -0.0000000  -0.0000000  -0.0000000  -0.0000000  -0.0000000  -0.0000000  -0.0000000  -0.0000000  -0.0000000  -0.0000000
 NQMom=    0.0000000   0.0000000   0.0000000   0.0000000   0.0000000   0.0000000   0.0000000   0.0000000   0.0000000   0.0000000
 NMagM=    2.7928460   2.7928460   0.0000000   0.0000000   2.7928460   2.7928460   0.0000000   2.7928460   2.7928460   2.7928460
 AtZNuc=   1.0000000   1.0000000  16.0000000   6.0000000   1.0000000   1.0000000   6.0000000   1.0000000   1.0000000   1.0000000
 Leave Link  101 at Tue Jun 27 19:48:12 2023, MaxMem=   262144000 cpu:               1.0 elap:               0.1
 (Enter /dragofs/sw/campus/0.2/software/gaussian/16.gaussian/gaussian/g16_legacy/l103.exe)

 GradGradGradGradGradGradGradGradGradGradGradGradGradGradGradGradGradGrad
 Berny optimization.
 Initialization pass.
                           ----------------------------
                           !    Initial Parameters    !
                           ! (Angstroms and Degrees)  !
 --------------------------                            --------------------------
 ! Name  Definition              Value          Derivative Info.                !
 --------------------------------------------------------------------------------
 ! R1    R(1,2)                  1.0965         estimate D2E/DX2                !
 ! R2    R(1,3)                  1.1252         estimate D2E/DX2                !
 ! R3    R(1,4)                  1.1013         estimate D2E/DX2                !
 ! R4    R(1,5)                  1.532          estimate D2E/DX2                !
 ! R5    R(5,6)                  1.1034         estimate D2E/DX2                !
 ! R6    R(5,7)                  1.1118         estimate D2E/DX2                !
 ! R7    R(5,8)                  1.3807         estimate D2E/DX2                !
 ! R8    R(8,9)                  1.3758         estimate D2E/DX2                !
 ! R9    R(9,10)                 1.1014         estimate D2E/DX2                !
 ! R10   R(9,11)                 1.1034         estimate D2E/DX2                !
 ! R11   R(9,12)                 1.5158         estimate D2E/DX2                !
 ! R12   R(12,13)                1.1093         estimate D2E/DX2                !
 ! R13   R(12,14)                1.1155         estimate D2E/DX2                !
 ! R14   R(12,15)                1.3898         estimate D2E/DX2                !
 ! R15   R(15,16)                1.392          estimate D2E/DX2                !
 ! R16   R(16,17)                1.1005         estimate D2E/DX2                !
 ! R17   R(16,18)                1.102          estimate D2E/DX2                !
 ! R18   R(16,19)                1.5334         estimate D2E/DX2                !
 ! R19   R(19,20)                1.1062         estimate D2E/DX2                !
 ! R20   R(19,21)                1.1179         estimate D2E/DX2                !
 ! R21   R(19,22)                1.3789         estimate D2E/DX2                !
 ! R22   R(22,23)                1.3697         estimate D2E/DX2                !
 ! R23   R(23,24)                1.1267         estimate D2E/DX2                !
 ! R24   R(23,25)                1.1144         estimate D2E/DX2                !
 ! R25   R(23,26)                1.4935         estimate D2E/DX2                !
 ! R26   R(26,27)                1.1159         estimate D2E/DX2                !
 ! R27   R(26,28)                1.1011         estimate D2E/DX2                !
 ! R28   R(26,29)                1.8157         estimate D2E/DX2                !
 ! R29   R(29,30)                1.8155         estimate D2E/DX2                !
 ! R30   R(30,31)                1.1079         estimate D2E/DX2                !
 ! R31   R(30,32)                1.1085         estimate D2E/DX2                !
 ! R32   R(30,33)                1.5265         estimate D2E/DX2                !
 ! R33   R(33,34)                1.094          estimate D2E/DX2                !
 ! R34   R(33,35)                1.1299         estimate D2E/DX2                !
 ! R35   R(33,36)                1.8051         estimate D2E/DX2                !
 ! R36   R(36,37)                1.8304         estimate D2E/DX2                !
 ! R37   R(37,38)                1.1273         estimate D2E/DX2                !
 ! R38   R(37,39)                1.0944         estimate D2E/DX2                !
 ! R39   R(37,40)                1.5055         estimate D2E/DX2                !
 ! R40   R(40,41)                1.1111         estimate D2E/DX2                !
 ! R41   R(40,42)                1.1201         estimate D2E/DX2                !
 ! R42   R(40,43)                1.789          estimate D2E/DX2                !
 ! R43   R(43,44)                1.8145         estimate D2E/DX2                !
 ! R44   R(44,45)                1.1195         estimate D2E/DX2                !
 ! R45   R(44,46)                1.11           estimate D2E/DX2                !
 ! R46   R(44,47)                1.5166         estimate D2E/DX2                !
 ! R47   R(47,48)                1.0965         estimate D2E/DX2                !
 ! R48   R(47,49)                1.1019         estimate D2E/DX2                !
 ! R49   R(47,50)                1.1235         estimate D2E/DX2                !
 ! A1    A(2,1,3)              112.0506         estimate D2E/DX2                !
 ! A2    A(2,1,4)              108.5573         estimate D2E/DX2                !
 ! A3    A(2,1,5)              110.2152         estimate D2E/DX2                !
 ! A4    A(3,1,4)              106.8015         estimate D2E/DX2                !
 ! A5    A(3,1,5)              108.1872         estimate D2E/DX2                !
 ! A6    A(4,1,5)              110.9958         estimate D2E/DX2                !
 ! A7    A(1,5,6)              108.1387         estimate D2E/DX2                !
 ! A8    A(1,5,7)              105.9467         estimate D2E/DX2                !
 ! A9    A(1,5,8)              107.3128         estimate D2E/DX2                !
 ! A10   A(6,5,7)              113.4957         estimate D2E/DX2                !
 ! A11   A(6,5,8)              112.4289         estimate D2E/DX2                !
 ! A12   A(7,5,8)              109.1274         estimate D2E/DX2                !
 ! A13   A(5,8,9)              114.4991         estimate D2E/DX2                !
 ! A14   A(8,9,10)             110.8105         estimate D2E/DX2                !
 ! A15   A(8,9,11)             108.3902         estimate D2E/DX2                !
 ! A16   A(8,9,12)             113.3178         estimate D2E/DX2                !
 ! A17   A(10,9,11)            107.3191         estimate D2E/DX2                !
 ! A18   A(10,9,12)            109.5188         estimate D2E/DX2                !
 ! A19   A(11,9,12)            107.2405         estimate D2E/DX2                !
 ! A20   A(9,12,13)            106.928          estimate D2E/DX2                !
 ! A21   A(9,12,14)            111.8724         estimate D2E/DX2                !
 ! A22   A(9,12,15)            107.4014         estimate D2E/DX2                !
 ! A23   A(13,12,14)           109.7292         estimate D2E/DX2                !
 ! A24   A(13,12,15)           110.013          estimate D2E/DX2                !
 ! A25   A(14,12,15)           110.7976         estimate D2E/DX2                !
 ! A26   A(12,15,16)           112.3553         estimate D2E/DX2                !
 ! A27   A(15,16,17)           113.0266         estimate D2E/DX2                !
 ! A28   A(15,16,18)           111.8841         estimate D2E/DX2                !
 ! A29   A(15,16,19)           105.9301         estimate D2E/DX2                !
 ! A30   A(17,16,18)           109.7133         estimate D2E/DX2                !
 ! A31   A(17,16,19)           108.5703         estimate D2E/DX2                !
 ! A32   A(18,16,19)           107.4479         estimate D2E/DX2                !
 ! A33   A(16,19,20)           111.2298         estimate D2E/DX2                !
 ! A34   A(16,19,21)           106.3979         estimate D2E/DX2                !
 ! A35   A(16,19,22)           106.2006         estimate D2E/DX2                !
 ! A36   A(20,19,21)           110.5207         estimate D2E/DX2                !
 ! A37   A(20,19,22)           108.2385         estimate D2E/DX2                !
 ! A38   A(21,19,22)           114.1947         estimate D2E/DX2                !
 ! A39   A(19,22,23)           111.7596         estimate D2E/DX2                !
 ! A40   A(22,23,24)           112.1463         estimate D2E/DX2                !
 ! A41   A(22,23,25)           109.3871         estimate D2E/DX2                !
 ! A42   A(22,23,26)           112.6236         estimate D2E/DX2                !
 ! A43   A(24,23,25)           106.4727         estimate D2E/DX2                !
 ! A44   A(24,23,26)           106.9463         estimate D2E/DX2                !
 ! A45   A(25,23,26)           109.0318         estimate D2E/DX2                !
 ! A46   A(23,26,27)           112.6499         estimate D2E/DX2                !
 ! A47   A(23,26,28)           113.1452         estimate D2E/DX2                !
 ! A48   A(23,26,29)           107.5089         estimate D2E/DX2                !
 ! A49   A(27,26,28)           110.3745         estimate D2E/DX2                !
 ! A50   A(27,26,29)           105.2894         estimate D2E/DX2                !
 ! A51   A(28,26,29)           107.3805         estimate D2E/DX2                !
 ! A52   A(26,29,30)           111.6552         estimate D2E/DX2                !
 ! A53   A(29,30,31)           111.2818         estimate D2E/DX2                !
 ! A54   A(29,30,32)           108.3646         estimate D2E/DX2                !
 ! A55   A(29,30,33)           106.4032         estimate D2E/DX2                !
 ! A56   A(31,30,32)           111.8837         estimate D2E/DX2                !
 ! A57   A(31,30,33)           111.2324         estimate D2E/DX2                !
 ! A58   A(32,30,33)           107.43           estimate D2E/DX2                !
 ! A59   A(30,33,34)           112.8734         estimate D2E/DX2                !
 ! A60   A(30,33,35)           104.189          estimate D2E/DX2                !
 ! A61   A(30,33,36)           111.3344         estimate D2E/DX2                !
 ! A62   A(34,33,35)           106.5684         estimate D2E/DX2                !
 ! A63   A(34,33,36)           113.2865         estimate D2E/DX2                !
 ! A64   A(35,33,36)           107.9289         estimate D2E/DX2                !
 ! A65   A(33,36,37)           109.8336         estimate D2E/DX2                !
 ! A66   A(36,37,38)           105.5703         estimate D2E/DX2                !
 ! A67   A(36,37,39)           111.9792         estimate D2E/DX2                !
 ! A68   A(36,37,40)           106.3685         estimate D2E/DX2                !
 ! A69   A(38,37,39)           108.7806         estimate D2E/DX2                !
 ! A70   A(38,37,40)           109.2663         estimate D2E/DX2                !
 ! A71   A(39,37,40)           114.478          estimate D2E/DX2                !
 ! A72   A(37,40,41)           106.7409         estimate D2E/DX2                !
 ! A73   A(37,40,42)           106.7425         estimate D2E/DX2                !
 ! A74   A(37,40,43)           114.3804         estimate D2E/DX2                !
 ! A75   A(41,40,42)           111.8401         estimate D2E/DX2                !
 ! A76   A(41,40,43)           109.0292         estimate D2E/DX2                !
 ! A77   A(42,40,43)           108.1587         estimate D2E/DX2                !
 ! A78   A(40,43,44)           111.3698         estimate D2E/DX2                !
 ! A79   A(43,44,45)           109.1608         estimate D2E/DX2                !
 ! A80   A(43,44,46)           107.1065         estimate D2E/DX2                !
 ! A81   A(43,44,47)           111.179          estimate D2E/DX2                !
 ! A82   A(45,44,46)           112.3772         estimate D2E/DX2                !
 ! A83   A(45,44,47)           110.9643         estimate D2E/DX2                !
 ! A84   A(46,44,47)           105.9771         estimate D2E/DX2                !
 ! A85   A(44,47,48)           112.4886         estimate D2E/DX2                !
 ! A86   A(44,47,49)           112.0602         estimate D2E/DX2                !
 ! A87   A(44,47,50)           107.3758         estimate D2E/DX2                !
 ! A88   A(48,47,49)           111.0605         estimate D2E/DX2                !
 ! A89   A(48,47,50)           108.3525         estimate D2E/DX2                !
 ! A90   A(49,47,50)           105.0909         estimate D2E/DX2                !
 ! D1    D(2,1,5,6)             23.7009         estimate D2E/DX2                !
 ! D2    D(2,1,5,7)            145.7014         estimate D2E/DX2                !
 ! D3    D(2,1,5,8)            -97.8098         estimate D2E/DX2                !
 ! D4    D(3,1,5,6)            146.5265         estimate D2E/DX2                !
 ! D5    D(3,1,5,7)            -91.473          estimate D2E/DX2                !
 ! D6    D(3,1,5,8)             25.0159         estimate D2E/DX2                !
 ! D7    D(4,1,5,6)            -96.6027         estimate D2E/DX2                !
 ! D8    D(4,1,5,7)             25.3978         estimate D2E/DX2                !
 ! D9    D(4,1,5,8)            141.8867         estimate D2E/DX2                !
 ! D10   D(1,5,8,9)            179.9996         estimate D2E/DX2                !
 ! D11   D(6,5,8,9)             61.22           estimate D2E/DX2                !
 ! D12   D(7,5,8,9)            -65.6256         estimate D2E/DX2                !
 ! D13   D(5,8,9,10)           -63.5896         estimate D2E/DX2                !
 ! D14   D(5,8,9,11)           178.896          estimate D2E/DX2                !
 ! D15   D(5,8,9,12)            59.987          estimate D2E/DX2                !
 ! D16   D(8,9,12,13)          178.0324         estimate D2E/DX2                !
 ! D17   D(8,9,12,14)          -61.8078         estimate D2E/DX2                !
 ! D18   D(8,9,12,15)           59.98           estimate D2E/DX2                !
 ! D19   D(10,9,12,13)         -57.6858         estimate D2E/DX2                !
 ! D20   D(10,9,12,14)          62.474          estimate D2E/DX2                !
 ! D21   D(10,9,12,15)        -175.7382         estimate D2E/DX2                !
 ! D22   D(11,9,12,13)          58.4633         estimate D2E/DX2                !
 ! D23   D(11,9,12,14)         178.6232         estimate D2E/DX2                !
 ! D24   D(11,9,12,15)         -59.589          estimate D2E/DX2                !
 ! D25   D(9,12,15,16)         179.9899         estimate D2E/DX2                !
 ! D26   D(13,12,15,16)         63.9564         estimate D2E/DX2                !
 ! D27   D(14,12,15,16)        -57.5537         estimate D2E/DX2                !
 ! D28   D(12,15,16,17)         61.0788         estimate D2E/DX2                !
 ! D29   D(12,15,16,18)        -63.3722         estimate D2E/DX2                !
 ! D30   D(12,15,16,19)        179.8407         estimate D2E/DX2                !
 ! D31   D(15,16,19,20)        -57.5356         estimate D2E/DX2                !
 ! D32   D(15,16,19,21)       -177.9552         estimate D2E/DX2                !
 ! D33   D(15,16,19,22)         60.0136         estimate D2E/DX2                !
 ! D34   D(17,16,19,20)         64.1336         estimate D2E/DX2                !
 ! D35   D(17,16,19,21)        -56.286          estimate D2E/DX2                !
 ! D36   D(17,16,19,22)       -178.3172         estimate D2E/DX2                !
 ! D37   D(18,16,19,20)       -177.2726         estimate D2E/DX2                !
 ! D38   D(18,16,19,21)         62.3077         estimate D2E/DX2                !
 ! D39   D(18,16,19,22)        -59.7235         estimate D2E/DX2                !
 ! D40   D(16,19,22,23)       -179.138          estimate D2E/DX2                !
 ! D41   D(20,19,22,23)        -59.6153         estimate D2E/DX2                !
 ! D42   D(21,19,22,23)         63.9365         estimate D2E/DX2                !
 ! D43   D(19,22,23,24)        178.9789         estimate D2E/DX2                !
 ! D44   D(19,22,23,25)         61.0891         estimate D2E/DX2                !
 ! D45   D(19,22,23,26)        -60.3214         estimate D2E/DX2                !
 ! D46   D(22,23,26,27)         64.9065         estimate D2E/DX2                !
 ! D47   D(22,23,26,28)        -61.1547         estimate D2E/DX2                !
 ! D48   D(22,23,26,29)       -179.5465         estimate D2E/DX2                !
 ! D49   D(24,23,26,27)       -171.4572         estimate D2E/DX2                !
 ! D50   D(24,23,26,28)         62.4817         estimate D2E/DX2                !
 ! D51   D(24,23,26,29)        -55.9101         estimate D2E/DX2                !
 ! D52   D(25,23,26,27)        -56.706          estimate D2E/DX2                !
 ! D53   D(25,23,26,28)        177.2329         estimate D2E/DX2                !
 ! D54   D(25,23,26,29)         58.841          estimate D2E/DX2                !
 ! D55   D(23,26,29,30)         66.3317         estimate D2E/DX2                !
 ! D56   D(27,26,29,30)       -173.346          estimate D2E/DX2                !
 ! D57   D(28,26,29,30)        -55.7157         estimate D2E/DX2                !
 ! D58   D(26,29,30,31)        -58.3538         estimate D2E/DX2                !
 ! D59   D(26,29,30,32)         65.0664         estimate D2E/DX2                !
 ! D60   D(26,29,30,33)       -179.6733         estimate D2E/DX2                !
 ! D61   D(29,30,33,34)         51.2358         estimate D2E/DX2                !
 ! D62   D(29,30,33,35)        -63.9717         estimate D2E/DX2                !
 ! D63   D(29,30,33,36)        179.9477         estimate D2E/DX2                !
 ! D64   D(31,30,33,34)        -70.1153         estimate D2E/DX2                !
 ! D65   D(31,30,33,35)        174.6771         estimate D2E/DX2                !
 ! D66   D(31,30,33,36)         58.5966         estimate D2E/DX2                !
 ! D67   D(32,30,33,34)        167.1267         estimate D2E/DX2                !
 ! D68   D(32,30,33,35)         51.9191         estimate D2E/DX2                !
 ! D69   D(32,30,33,36)        -64.1614         estimate D2E/DX2                !
 ! D70   D(30,33,36,37)         66.5482         estimate D2E/DX2                !
 ! D71   D(34,33,36,37)       -164.9604         estimate D2E/DX2                !
 ! D72   D(35,33,36,37)        -47.2149         estimate D2E/DX2                !
 ! D73   D(33,36,37,38)        -49.4567         estimate D2E/DX2                !
 ! D74   D(33,36,37,39)       -167.6773         estimate D2E/DX2                !
 ! D75   D(33,36,37,40)         66.5735         estimate D2E/DX2                !
 ! D76   D(36,37,40,41)        -59.5335         estimate D2E/DX2                !
 ! D77   D(36,37,40,42)         60.2131         estimate D2E/DX2                !
 ! D78   D(36,37,40,43)        179.7936         estimate D2E/DX2                !
 ! D79   D(38,37,40,41)         53.9836         estimate D2E/DX2                !
 ! D80   D(38,37,40,42)        173.7302         estimate D2E/DX2                !
 ! D81   D(38,37,40,43)        -66.6893         estimate D2E/DX2                !
 ! D82   D(39,37,40,41)        176.25           estimate D2E/DX2                !
 ! D83   D(39,37,40,42)        -64.0034         estimate D2E/DX2                !
 ! D84   D(39,37,40,43)         55.5771         estimate D2E/DX2                !
 ! D85   D(37,40,43,44)         66.3725         estimate D2E/DX2                !
 ! D86   D(41,40,43,44)        -53.023          estimate D2E/DX2                !
 ! D87   D(42,40,43,44)       -174.8442         estimate D2E/DX2                !
 ! D88   D(40,43,44,45)       -171.0188         estimate D2E/DX2                !
 ! D89   D(40,43,44,46)        -49.1062         estimate D2E/DX2                !
 ! D90   D(40,43,44,47)         66.2407         estimate D2E/DX2                !
 ! D91   D(43,44,47,48)       -157.4657         estimate D2E/DX2                !
 ! D92   D(43,44,47,49)        -31.4918         estimate D2E/DX2                !
 ! D93   D(43,44,47,50)         83.4161         estimate D2E/DX2                !
 ! D94   D(45,44,47,48)         80.8391         estimate D2E/DX2                !
 ! D95   D(45,44,47,49)       -153.187          estimate D2E/DX2                !
 ! D96   D(45,44,47,50)        -38.2791         estimate D2E/DX2                !
 ! D97   D(46,44,47,48)        -41.4216         estimate D2E/DX2                !
 ! D98   D(46,44,47,49)         84.5524         estimate D2E/DX2                !
 ! D99   D(46,44,47,50)       -160.5398         estimate D2E/DX2                !
 --------------------------------------------------------------------------------
 Trust Radius=3.00D-01 FncErr=1.00D-07 GrdErr=1.00D-06 EigMax=2.50D+02 EigMin=1.00D-04
 Number of steps in this run=    248 maximum allowed number of steps=    300.
 GradGradGradGradGradGradGradGradGradGradGradGradGradGradGradGradGradGrad

 Leave Link  103 at Tue Jun 27 19:48:12 2023, MaxMem=   262144000 cpu:               0.1 elap:               0.0
 (Enter /dragofs/sw/campus/0.2/software/gaussian/16.gaussian/gaussian/g16_legacy/l202.exe)
                          Input orientation:                          
 ---------------------------------------------------------------------
 Center     Atomic      Atomic             Coordinates (Angstroms)
 Number     Number       Type             X           Y           Z
 ---------------------------------------------------------------------
      1          6           0       -7.830200    1.437400   -1.118900
      2          1           0       -8.794000    1.807400   -0.749400
      3          1           0       -7.005100    2.188200   -0.972100
      4          1           0       -7.913700    1.264100   -2.203300
      5          6           0       -7.441100    0.149800   -0.385600
      6          1           0       -8.363100   -0.318200   -0.000500
      7          1           0       -6.904400   -0.476200   -1.131400
      8          8           0       -6.566800    0.500100    0.624000
      9          6           0       -6.119600   -0.556300    1.383500
     10          1           0       -6.954100   -1.031300    1.923000
     11          1           0       -5.417500   -0.167900    2.140900
     12          6           0       -5.376700   -1.603000    0.577100
     13          1           0       -5.035700   -2.379600    1.292100
     14          1           0       -6.027400   -2.067200   -0.201000
     15          8           0       -4.280300   -0.978200   -0.005100
     16          6           0       -3.519600   -1.853200   -0.775400
     17          1           0       -4.083000   -2.289500   -1.614100
     18          1           0       -3.076900   -2.657900   -0.166400
     19          6           0       -2.365500   -1.018900   -1.343900
     20          1           0       -2.742900   -0.159700   -1.929500
     21          1           0       -1.770400   -1.705700   -1.994900
     22          8           0       -1.672800   -0.529300   -0.256800
     23          6           0       -0.617600    0.256000   -0.638800
     24          1           0       -0.057900    0.674600    0.244900
     25          1           0       -0.997200    1.130700   -1.215600
     26          6           0        0.376300   -0.483300   -1.473100
     27          1           0       -0.044200   -0.810100   -2.453700
     28          1           0        0.832500   -1.336900   -0.948000
     29         16           0        1.711600    0.675400   -1.887000
     30          6           0        2.649300    1.171000   -0.413500
     31          1           0        1.990900    1.643300    0.342100
     32          1           0        3.165200    0.276400   -0.010600
     33          6           0        3.725100    2.141800   -0.893500
     34          1           0        3.322700    2.952500   -1.508100
     35          1           0        4.378900    1.517600   -1.571400
     36         16           0        4.743400    2.724300    0.478400
     37          6           0        5.718000    1.334100    1.162400
     38          1           0        4.979200    0.498700    1.326900
     39          1           0        6.179600    1.590100    2.121100
     40          6           0        6.693000    0.930700    0.088600
     41          1           0        6.090000    0.635200   -0.796600
     42          1           0        7.330400    1.827400   -0.121900
     43         16           0        7.769500   -0.425000    0.540000
     44          6           0        6.836900   -1.966600    0.754500
     45          1           0        7.510900   -2.745900    1.192300
     46          1           0        5.973200   -1.736800    1.412700
     47          6           0        6.246000   -2.437000   -0.560600
     48          1           0        5.386000   -3.102500   -0.419800
     49          1           0        5.990800   -1.595200   -1.224300
     50          1           0        7.048000   -3.005600   -1.104500
 ---------------------------------------------------------------------
                    Distance matrix (angstroms):
                    1          2          3          4          5
     1  C    0.000000
     2  H    1.096513   0.000000
     3  H    1.125185   1.842489   0.000000
     4  H    1.101330   1.784357   1.787559   0.000000
     5  C    1.532006   2.170329   2.165445   2.183815   0.000000
     6  H    2.148705   2.294494   3.011679   2.749175   1.103363
     7  H    2.125824   2.988535   2.671057   2.279539   1.111819
     8  O    2.347852   2.925010   2.364175   3.223579   1.380725
     9  C    3.628085   4.157975   3.723606   4.404292   2.318330
    10  H    4.014372   4.311052   4.330056   4.818303   2.638522
    11  H    4.361698   4.863784   4.214552   5.210922   3.252552
    12  C    4.259121   5.006832   4.407369   4.731517   2.874169
    13  H    5.309580   5.985274   5.465339   5.811820   3.872789
    14  H    4.046585   4.792426   4.433838   4.320288   2.635852
    15  O    4.435929   5.356028   4.287856   4.802248   3.377547
    16  C    5.433904   6.420278   5.340441   5.573560   4.420646
    17  H    5.308155   6.302842   5.385223   5.258278   4.328537
    18  H    6.346070   7.277639   6.290039   6.551769   5.193984
    19  C    5.995580   7.047483   5.652399   6.060790   5.295839
    20  H    5.393368   6.471316   4.959395   5.370228   4.955048
    21  H    6.882415   7.951358   6.603837   6.826659   6.179771
    22  O    6.521097   7.510946   6.027428   6.778936   5.809565
    23  C    7.324466   8.323016   6.681665   7.529741   6.829022
    24  H    7.927828   8.865174   7.213575   8.249533   7.428633
    25  H    6.840563   7.839984   6.105118   6.987941   6.570762
    26  C    8.435709   9.479739   7.865938   8.503570   7.918031
    27  H    8.213084   9.290584   7.722634   8.142115   7.740321
    28  H    9.097710  10.128947   8.593886   9.210700   8.424905
    29  S    9.602946  10.627473   8.894182   9.648472   9.289907
    30  C   10.506592  11.465904   9.723897  10.713964  10.141982
    31  H    9.931310  10.841235   9.107802  10.233472   9.577198
    32  H   11.111934  12.079414  10.393001  11.336909  10.613682
    33  C   11.578944  12.524394  10.730588  11.745110  11.353856
    34  H   11.262068  12.194314  10.369904  11.383790  11.179201
    35  H   12.217746  13.201703  11.419471  12.311441  11.957817
    36  S   12.739815  13.623854  11.849836  13.020210  12.483453
    37  C   13.739313  14.645038  12.929147  14.041228  13.302661
    38  H   13.074549  13.990166  12.319223  13.389362  12.542657
    39  H   14.380383  15.247809  13.555882  14.745434  13.924133
    40  C   14.582117  15.534414  13.796533  14.789173  14.163596
    41  H   13.947020  14.930162  13.188034  14.088220  13.546040
    42  H   15.198352  16.136618  14.365221  15.395847  14.868796
    43  S   15.797820  16.762926  15.079923  16.010669  15.249573
    44  C   15.173024  16.150227  14.554878  15.387209  14.478959
    45  H   16.068323  17.039733  15.483676  16.295045  15.311341
    46  H   14.388134  15.339694  13.766959  14.660384  13.665160
    47  C   14.610342  15.628569  14.041135  14.727312  13.930501
    48  H   13.991690  15.009602  13.484654  14.111346  13.233031
    49  H   14.150188  15.178720  13.537767  14.229166  13.570718
    50  H   15.527437  16.560798  14.982747  15.597762  14.846124
                    6          7          8          9         10
     6  H    0.000000
     7  H    1.852486   0.000000
     8  O    2.070340   2.036803   0.000000
     9  C    2.646779   2.635726   1.375794   0.000000
    10  H    2.488703   3.104829   2.045138   1.101397   0.000000
    11  H    3.644824   3.607474   2.016953   1.103383   1.775973
    12  C    3.301957   2.553922   2.416933   1.515837   2.150925
    13  H    4.122108   3.603932   3.329159   2.123115   2.428211
    14  H    2.924841   2.041091   2.750019   2.191337   2.538353
    15  O    4.135804   2.899389   2.794498   2.342911   3.296907
    16  C    5.139668   3.671476   4.096556   3.619779   4.444398
    17  H    4.980862   3.388415   4.354334   4.017129   4.726242
    18  H    5.783220   4.510077   4.772536   4.009605   4.695114
    19  C    6.186025   4.576166   4.881692   4.663258   5.632765
    20  H    5.944141   4.249143   4.645203   4.747143   5.773703
    21  H    7.026128   5.349323   5.893186   5.625855   6.532649
    22  O    6.698535   5.304468   5.078062   4.739762   5.735474
    23  C    7.792939   6.348435   6.086644   5.917899   6.954940
    24  H    8.367928   7.077648   6.522265   6.289335   7.299568
    25  H    7.604753   6.122437   5.899341   5.986675   7.071754
    26  C    8.864137   7.288717   7.319258   7.096634   8.097442
    27  H    8.687016   6.994449   7.330291   7.190202   8.182368
    28  H    9.300245   7.786788   7.784304   7.374071   8.304648
    29  S   10.297849   8.725398   8.652616   8.575602   9.618902
    30  C   11.120308   9.721205   9.298549   9.116270  10.125939
    31  H   10.543727   9.262281   8.638322   8.467760   9.469200
    32  H   11.543628  10.159697   9.755234   9.425732  10.385043
    33  C   12.368251  10.949739  10.531913  10.458613  11.491151
    34  H   12.228175  10.793121  10.409723  10.479984  11.543644
    35  H   12.969058  11.466547  11.209970  11.101847  12.130318
    36  S   13.463525  12.186300  11.527744  11.383598  12.370243
    37  C   14.225323  12.956222  12.324842  11.989632  12.913394
    38  H   13.433030  12.174302  11.567376  11.148973  12.045741
    39  H   14.820018  13.639626  12.880222  12.506854  13.394217
    40  C   15.108072  13.724323  13.277589  12.963435  13.908911
    41  H   14.506373  13.046139  12.736991  12.459809  13.428402
    42  H   15.839958  14.455283  13.980353  13.742298  14.710565
    43  S   16.142005  14.768871  14.366362  13.915309  14.800834
    44  C   15.307751  13.949955  13.629410  13.048198  13.871981
    45  H   16.102806  14.776738  14.458254  13.806572  14.584581
    46  H   14.475464  13.186893  12.762342  12.150319  12.956590
    47  C   14.772570  13.308027  13.198397  12.657986  13.505069
    48  H   14.034454  12.588001  12.527477  11.921152  12.730147
    49  H   14.462464  12.943994  12.864673  12.431481  13.333939
    50  H   15.682568  14.179847  14.164760  13.622588  14.461066
                   11         12         13         14         15
    11  H    0.000000
    12  C    2.122886   0.000000
    13  H    2.399552   1.109330   0.000000
    14  H    3.076331   1.115496   1.819453   0.000000
    15  O    2.560298   1.389757   2.053601   2.068008   0.000000
    16  C    3.866144   2.310990   2.617291   2.581626   1.391996
    17  H    4.514654   2.635583   3.059698   2.413910   2.085022
    18  H    4.123365   2.637174   2.457961   3.009248   2.072578
    19  C    4.709855   3.619218   3.991236   3.976766   2.336771
    20  H    4.870494   3.911913   4.534710   4.173034   2.595545
    21  H    5.724597   4.430703   4.681954   4.633660   3.284533
    22  O    4.461205   3.945516   4.139058   4.618527   2.657804
    23  C    5.562865   5.251983   5.494940   5.903801   3.916656
    24  H    5.747168   5.795468   5.933233   6.584165   4.541245
    25  H    5.700132   5.465063   5.909336   6.046395   4.085525
    26  C    6.835831   6.209191   6.366477   6.718210   4.907532
    27  H    7.098952   6.184658   6.435015   6.515646   4.895758
    28  H    7.068972   6.399289   6.367185   6.938989   5.211377
    29  S    8.231598   7.842633   8.060134   8.381919   6.494521
    30  C    8.566847   8.549447   8.635685   9.263704   7.266719
    31  H    7.835848   8.054515   8.152259   8.851887   6.805936
    32  H    8.859407   8.765934   8.718149   9.488551   7.550465
    33  C    9.906030   9.951329  10.098095  10.644552   8.637713
    34  H    9.972121  10.038934  10.302197  10.692533   8.689938
    35  H   10.610916  10.465464  10.584068  11.091432   9.146806
    36  S   10.694513  11.006893  11.060863  11.808056   9.765728
    37  C   11.278866  11.491801  11.377630  12.303744  10.328397
    38  H   10.449800  10.593583  10.420367  11.404541   9.470681
    39  H   11.729607  12.088337  11.925968  12.952947  10.978452
    40  C   12.332196  12.342444  12.246179  13.072102  11.138491
    41  H   11.903631  11.763579  11.714644  12.429364  10.524859
    42  H   13.100017  13.180540  13.138443  13.914201  11.945434
    43  S   13.286307  13.198926  12.975333  13.914034  12.074802
    44  C   12.463055  12.220299  11.891939  12.900128  11.186870
    45  H   13.217014  12.952796  12.552343  13.626720  11.982943
    46  H   11.521275  11.381404  11.028310  12.113117  10.378819
    47  C   12.185407  11.707992  11.432959  12.284234  10.641413
    48  H   11.484105  10.912288  10.586077  11.462348   9.905654
    49  H   11.979610  11.509351  11.337163  12.070918  10.361594
    50  H   13.189915  12.616189  12.334965  13.140129  11.560684
                   16         17         18         19         20
    16  C    0.000000
    17  H    1.100543   0.000000
    18  H    1.102001   1.801053   0.000000
    19  C    1.533361   2.153425   2.139840   0.000000
    20  H    2.191609   2.536019   3.075887   1.106157   0.000000
    21  H    2.137437   2.415357   2.440705   1.117873   1.827608
    22  O    2.330735   3.278663   2.551589   1.378886   2.019813
    23  C    3.590124   4.409056   3.842152   2.275454   2.521034
    24  H    4.406149   5.333217   4.515427   3.273720   3.554335
    25  H    3.931913   4.623714   4.447411   2.551369   2.285225
    26  C    4.188251   4.813273   4.284967   2.796610   3.168979
    27  H    3.997894   4.382403   4.224142   2.581412   2.825029
    28  H    4.386015   5.051067   4.199922   3.238065   3.890068
    29  S    5.915651   6.514791   6.082852   4.448410   4.532303
    30  C    6.879832   7.664226   6.892815   5.550633   5.757155
    31  H    6.621173   7.495725   6.666445   5.376628   5.551562
    32  H    7.057384   7.854391   6.899145   5.834735   6.227199
    33  C    8.274035   9.006781   8.356614   6.876648   6.942998
    34  H    8.393371   9.073819   8.615778   6.939351   6.830437
    35  H    8.624512   9.278986   8.660126   7.209197   7.325408
    36  S    9.529045  10.364463   9.515300   8.238251   8.376164
    37  C    9.962289  10.811985   9.749464   8.784140   9.131162
    38  H    9.065357   9.927085   8.780365   7.961212   8.406453
    39  H   10.692077  11.589822  10.438436   9.582893   9.953902
    40  C   10.620442  11.375019  10.411245   9.376002   9.710711
    41  H    9.926580  10.616596   9.760826   8.633138   8.940663
    42  H   11.475904  12.224616  11.332775  10.178663  10.425323
    43  S   11.454860  12.190089  11.096361  10.325697  10.801822
    44  C   10.469506  11.178495   9.980450   9.486073  10.111445
    45  H   11.240137  11.937449  10.674986  10.342056  11.026082
    46  H    9.742412  10.516376   9.232892   8.811818   9.467204
    47  C    9.785392  10.383634   9.333845   8.762562   9.373383
    48  H    8.999829   9.578585   8.478358   8.079672   8.776006
    49  H    9.524483  10.105219   9.190847   8.377003   8.878935
    50  H   10.635342  11.165646  10.174209   9.623839  10.229443
                   21         22         23         24         25
    21  H    0.000000
    22  O    2.101056   0.000000
    23  C    2.648815   1.369696   0.000000
    24  H    3.689876   2.075808   1.126684   0.000000
    25  H    3.041433   2.032568   1.114403   1.795375   0.000000
    26  C    2.524848   2.383341   1.493472   2.116787   2.134902
    27  H    1.998090   2.749101   2.181563   3.080092   2.491547
    28  H    2.829682   2.721489   2.176172   2.502390   3.083579
    29  S    4.219669   3.944999   2.675644   2.770583   2.827662
    30  C    5.505450   4.647163   3.400091   2.829989   3.733892
    31  H    5.552004   4.301345   3.113043   2.268349   3.408508
    32  H    5.676823   4.910806   3.834661   3.257640   4.416721
    33  C    6.798298   6.056194   4.741324   4.214228   4.840061
    34  H    6.919210   6.216406   4.853118   4.437375   4.697451
    35  H    6.955782   6.522350   5.237021   4.867729   5.401735
    36  S    8.256616   7.231463   6.006743   5.225732   6.193843
    37  C    8.676696   7.753084   6.674313   5.885386   7.126722
    38  H    7.839058   6.914766   5.936923   5.155002   6.525419
    39  H    9.539720   8.473869   7.456460   6.577589   7.927867
    40  C    9.106081   8.499265   7.377615   6.757564   7.802571
    41  H    8.288644   7.868196   6.720163   6.235619   7.116845
    42  H    9.940598   9.307515   8.118324   7.486686   8.427959
    43  S    9.953673   9.476434   8.496869   7.909766   9.075096
    44  C    9.039518   8.689278   7.902582   7.400939   8.651456
    45  H    9.868272   9.557905   8.856458   8.359672   9.654728
    46  H    8.460263   7.918750   7.184605   6.599453   7.982292
    47  C    8.176471   8.151013   7.373423   7.076019   8.100707
    48  H    7.459628   7.514957   6.882637   6.659156   7.700553
    49  H    7.800145   7.797626   6.887721   6.625505   7.500850
    50  H    8.958054   9.105109   8.343640   8.115329   9.046909
                   26         27         28         29         30
    26  C    0.000000
    27  H    1.115883   0.000000
    28  H    1.101127   1.820234   0.000000
    29  S    1.815744   2.368690   2.388282   0.000000
    30  C    3.004328   3.916901   3.142613   1.815517   0.000000
    31  H    3.228670   4.239965   3.447875   2.446166   1.107921
    32  H    3.239446   4.177256   2.987130   2.406872   1.108508
    33  C    4.294362   5.035430   4.524540   2.681707   1.526499
    34  H    4.526281   5.136860   4.991369   2.815030   2.196670
    35  H    4.475944   5.075476   4.594970   2.814852   2.110066
    36  S    5.759220   6.634026   5.815763   4.357169   2.755627
    37  C    6.227565   7.132792   5.954506   5.077792   3.453546
    38  H    5.476405   6.421872   5.073433   4.586675   2.984864
    39  H    7.134112   8.088599   6.824821   6.071620   4.366104
    40  C    6.658754   7.408342   6.368831   5.364934   4.081833
    41  H    5.861319   6.516386   5.617242   4.512314   3.503179
    42  H    7.451482   8.171807   7.274472   6.001133   4.735883
    43  S    7.662596   8.376422   7.153158   6.618109   5.447277
    44  C    6.992977   7.679816   6.272786   6.342427   5.361413
    45  H    7.945202   8.609307   7.153125   7.404003   6.446383
    46  H    6.420623   7.212276   5.670945   5.904910   4.778977
    47  C    6.253237   6.767366   5.537714   5.657487   5.096622
    48  H    5.750369   6.235296   4.912301   5.470505   5.074679
    49  H    5.728947   6.208787   5.172148   4.889412   4.413035
    50  H    7.142090   7.545851   6.437507   6.529872   6.104919
                   31         32         33         34         35
    31  H    0.000000
    32  H    1.836244   0.000000
    33  C    2.186929   2.138391   0.000000
    34  H    2.628866   3.070639   1.094026   0.000000
    35  H    3.062650   2.334468   1.129880   1.782836   0.000000
    36  S    2.960303   2.953312   1.805090   2.452885   2.406380
    37  C    3.828808   3.001907   2.975022   3.935512   3.049676
    38  H    3.348115   2.264712   3.033599   4.099067   3.130281
    39  H    4.551140   3.918745   3.926418   4.815507   4.108812
    40  C    4.762542   3.589334   3.352568   4.242175   2.907767
    41  H    4.372130   3.049752   2.805706   3.678867   2.075285
    42  H    5.362784   4.445996   3.700325   4.387375   3.302783
    43  S    6.140786   4.689851   5.000056   5.947794   4.441607
    44  C    6.056828   4.370104   5.410929   6.454960   4.857080
    45  H    7.103402   5.428294   6.524757   7.570003   5.968659
    46  H    5.331977   3.736793   5.041433   6.127459   4.694440
    47  C    5.964025   4.142025   5.237477   6.204043   4.488501
    48  H    5.884710   4.064033   5.521382   6.488808   4.866802
    49  H    5.379655   3.599996   4.382693   5.280234   3.522531
    50  H    7.019913   5.200411   6.130409   7.038445   5.272706
                   36         37         38         39         40
    36  S    0.000000
    37  C    1.830398   0.000000
    38  H    2.393501   1.127288   0.000000
    39  H    2.459175   1.094402   1.806341   0.000000
    40  C    2.677664   1.505458   2.158036   2.197600   0.000000
    41  H    2.793438   2.112943   2.400367   3.071292   1.111084
    42  H    2.803098   2.119577   3.064736   2.532134   1.120116
    43  S    4.367970   2.773169   3.042730   3.014679   1.789004
    44  C    5.144270   3.508980   3.139490   3.866491   2.976319
    45  H    6.171855   4.456656   4.117651   4.629895   3.924857
    46  H    4.720883   3.091635   2.448031   3.407740   3.063806
    47  C    5.475066   4.179558   3.712920   4.838746   3.458710
    48  H    5.930539   4.721970   4.023070   5.395041   4.270061
    49  H    4.807627   3.788345   3.452010   4.623146   2.932058
    50  H    6.375618   5.073532   4.740439   5.681467   4.128434
                   41         42         43         44         45
    41  H    0.000000
    42  H    1.848013   0.000000
    43  S    2.394002   2.388352   0.000000
    44  C    3.119797   3.925055   1.814465   0.000000
    45  H    4.172112   4.761804   2.424654   1.119488   0.000000
    46  H    3.243614   4.111023   2.389376   1.109961   1.852399
    47  C    3.085198   4.421933   2.753274   1.516551   2.183586
    48  H    3.822041   5.307857   3.710969   2.185031   2.690953
    49  H    2.273203   3.837187   2.765121   2.183912   3.078111
    50  H    3.777299   4.939954   3.143953   2.140085   2.357331
                   46         47         48         49         50
    46  H    0.000000
    47  C    2.111543   0.000000
    48  H    2.359660   1.096501   0.000000
    49  H    2.640858   1.101931   1.812445   0.000000
    50  H    3.016843   1.123538   1.800124   1.766707   0.000000
 Stoichiometry    C14H30O3S3
 Framework group  C1[X(C14H30O3S3)]
 Deg. of freedom   144
 Full point group                 C1      NOp   1
 Largest Abelian subgroup         C1      NOp   1
 Largest concise Abelian subgroup C1      NOp   1
                         Standard orientation:                         
 ---------------------------------------------------------------------
 Center     Atomic      Atomic             Coordinates (Angstroms)
 Number     Number       Type             X           Y           Z
 ---------------------------------------------------------------------
      1          6           0       -8.413691   -1.735196    0.564574
      2          1           0       -9.350373   -2.125485    0.149071
      3          1           0       -7.554324   -2.444499    0.408312
      4          1           0       -8.535262   -1.617224    1.652798
      5          6           0       -8.057491   -0.399580   -0.095952
      6          1           0       -8.986711    0.048923   -0.486854
      7          1           0       -7.568733    0.211183    0.694127
      8          8           0       -7.140924   -0.666096   -1.093588
      9          6           0       -6.716366    0.442343   -1.789235
     10          1           0       -7.554075    0.908691   -2.331304
     11          1           0       -5.977411    0.118892   -2.542081
     12          6           0       -6.040839    1.478363   -0.912830
     13          1           0       -5.712022    2.301171   -1.580273
     14          1           0       -6.732193    1.878540   -0.134229
     15          8           0       -4.936574    0.870961   -0.327092
     16          6           0       -4.235121    1.738047    0.505841
     17          1           0       -4.839862    2.110989    1.346316
     18          1           0       -3.808927    2.587925   -0.051360
     19          6           0       -3.064156    0.924515    1.069933
     20          1           0       -3.422205    0.023973    1.603232
     21          1           0       -2.516882    1.602815    1.769963
     22          8           0       -2.320970    0.515387   -0.017089
     23          6           0       -1.245479   -0.244319    0.360050
     24          1           0       -0.643882   -0.597600   -0.524647
     25          1           0       -1.604832   -1.160000    0.883775
     26          6           0       -0.307327    0.493623    1.257697
     27          1           0       -0.768866    0.756242    2.239129
     28          1           0        0.127925    1.388851    0.786949
     29         16           0        1.062473   -0.629059    1.657896
     30          6           0        2.061640   -1.015959    0.192265
     31          1           0        1.445247   -1.477728   -0.604176
     32          1           0        2.551324   -0.083239   -0.152748
     33          6           0        3.162592   -1.964648    0.659269
     34          1           0        2.776736   -2.819167    1.223012
     35          1           0        3.770316   -1.347757    1.385041
     36         16           0        4.242955   -2.439890   -0.706495
     37          6           0        5.178251   -0.980769   -1.295175
     38          1           0        4.410466   -0.168746   -1.443174
     39          1           0        5.677278   -1.172122   -2.250200
     40          6           0        6.104604   -0.590240   -0.174568
     41          1           0        5.464820   -0.361627    0.704591
     42          1           0        6.772343   -1.469697    0.013421
     43         16           0        7.136453    0.827450   -0.529501
     44          6           0        6.147273    2.338923   -0.700550
     45          1           0        6.800633    3.164561   -1.080939
     46          1           0        5.313006    2.106322   -1.394745
     47          6           0        5.500038    2.722107    0.616334
     48          1           0        4.617571    3.358576    0.480415
     49          1           0        5.261080    1.840106    1.232147
     50          1           0        6.261909    3.295824    1.210252
 ---------------------------------------------------------------------
 Rotational constants (GHZ):           0.5048333           0.0533905           0.0513276
 Leave Link  202 at Tue Jun 27 19:48:12 2023, MaxMem=   262144000 cpu:               0.1 elap:               0.0
 (Enter /dragofs/sw/campus/0.2/software/gaussian/16.gaussian/gaussian/g16_legacy/l301.exe)
 Standard basis: 6-31G(d) (6D, 7F)
 Ernie: Thresh=  0.10000D-02 Tol=  0.10000D-05 Strict=F.
 There are   372 symmetry adapted cartesian basis functions of A   symmetry.
 There are   372 symmetry adapted basis functions of A   symmetry.
   372 basis functions,   752 primitive gaussians,   372 cartesian basis functions
    93 alpha electrons       93 beta electrons
       nuclear repulsion energy      1917.7269347586 Hartrees.
 IExCor=20419 DFT=T Ex+Corr=CAM-B3LYP ExCW=0 ScaHFX=  1.000000
 ScaDFX=  1.000000  1.000000  1.000000  0.810000 ScalE2=  1.000000  1.000000
 IRadAn=      5 IRanWt=     -1 IRanGd=            0 ICorTp=0 IEmpDi=  4
 HFx  wShort=  0.000000 wLong=  0.330000 cFull=  0.190000 cShort=  0.000000 cLong=  0.460000
 DFx  wShort=  0.000000 wLong=  0.330000 cFull=  0.190000 cShort=  0.000000 cLong=  0.460000
 NAtoms=   50 NActive=   50 NUniq=   50 SFac= 1.00D+00 NAtFMM=   60 NAOKFM=F Big=F
 Integral buffers will be    131072 words long.
 Raffenetti 2 integral format.
 Two-electron integral symmetry is turned on.
 Leave Link  301 at Tue Jun 27 19:48:12 2023, MaxMem=   262144000 cpu:               0.4 elap:               0.1
 (Enter /dragofs/sw/campus/0.2/software/gaussian/16.gaussian/gaussian/g16_legacy/l302.exe)
 NPDir=0 NMtPBC=     1 NCelOv=     1 NCel=       1 NClECP=     1 NCelD=      1
         NCelK=      1 NCelE2=     1 NClLst=     1 CellRange=     0.0.
 One-electron integrals computed using PRISM.
 One-electron integral symmetry used in STVInt
 NBasis=   372 RedAO= T EigKep=  3.47D-03  NBF=   372
 NBsUse=   372 1.00D-06 EigRej= -1.00D+00 NBFU=   372
 Precomputing XC quadrature grid using
 IXCGrd= 4 IRadAn=           5 IRanWt=          -1 IRanGd=           0 AccXCQ= 0.00D+00.
 Generated NRdTot=       0 NPtTot=           0 NUsed=           0 NTot=          32
 NSgBfM=   356   356   356   356   356 MxSgAt=    50 MxSgA2=    50.
 Leave Link  302 at Tue Jun 27 19:48:13 2023, MaxMem=   262144000 cpu:               5.2 elap:               0.7
 (Enter /dragofs/sw/campus/0.2/software/gaussian/16.gaussian/gaussian/g16_legacy/l303.exe)
 DipDrv:  MaxL=1.
 Leave Link  303 at Tue Jun 27 19:48:13 2023, MaxMem=   262144000 cpu:               0.3 elap:               0.1
 (Enter /dragofs/sw/campus/0.2/software/gaussian/16.gaussian/gaussian/g16_legacy/l401.exe)
 ExpMin= 1.17D-01 ExpMax= 2.19D+04 ExpMxC= 3.30D+03 IAcc=3 IRadAn=         5 AccDes= 0.00D+00
 Harris functional with IExCor=20419 and IRadAn=       5 diagonalized for initial guess.
 HarFok:  IExCor=20419 AccDes= 0.00D+00 IRadAn=         5 IDoV= 1 UseB2=F ITyADJ=14
 ICtDFT=  3500011 ScaDFX=  1.000000  1.000000  1.000000  1.000000
 FoFCou: FMM=F IPFlag=           0 FMFlag=      100000 FMFlg1=           0
         NFxFlg=           0 DoJE=T BraDBF=F KetDBF=T FulRan=T
         wScrn=  0.000000 ICntrl=       500 IOpCl=  0 I1Cent=   200000004 NGrid=           0
         NMat0=    1 NMatS0=      1 NMatT0=    0 NMatD0=    1 NMtDS0=    0 NMtDT0=    0
 Petite list used in FoFCou.
 Harris En= -1921.26541579743    
 JPrj=0 DoOrth=F DoCkMO=F.
 Leave Link  401 at Tue Jun 27 19:48:15 2023, MaxMem=   262144000 cpu:              19.8 elap:               2.5
 (Enter /dragofs/sw/campus/0.2/software/gaussian/16.gaussian/gaussian/g16_legacy/l502.exe)
 Integral symmetry usage will be decided dynamically.
 Closed shell SCF:
 Using DIIS extrapolation, IDIIS=  1040.
 NGot=   262144000 LenX=   261859787 LenY=   261720962
 Requested convergence on RMS density matrix=1.00D-08 within 128 cycles.
 Requested convergence on MAX density matrix=1.00D-06.
 Requested convergence on             energy=1.00D-06.
 No special actions if energy rises.
 Fock matrices will be formed incrementally for  20 cycles.
 Integral accuracy reduced to 1.0D-05 until final iterations.

 Cycle   1  Pass 0  IDiag  1:
 FoFJK:  IHMeth= 1 ICntrl=       0 DoSepK=T KAlg= 0 I1Cent=           0 FoldK=F
 IRaf=         1 NMat=       1 IRICut=       1 DoRegI=T DoRafI=F ISym2E= 0 IDoP0=0 IntGTp=1.
 FoFCou: FMM=F IPFlag=           0 FMFlag=      100000 FMFlg1=           0
         NFxFlg=           0 DoJE=T BraDBF=F KetDBF=F FulRan=T
         wScrn=  0.000000 ICntrl=       500 IOpCl=  0 I1Cent=           0 NGrid=           0
         NMat0=    1 NMatS0=      1 NMatT0=    0 NMatD0=    1 NMtDS0=    0 NMtDT0=    0
 Symmetry not used in FoFCou.
 E= -1970.91029426046    
 DIIS: error= 6.31D-02 at cycle   1 NSaved=   1.
 NSaved= 1 IEnMin= 1 EnMin= -1970.91029426046     IErMin= 1 ErrMin= 6.31D-02
 ErrMax= 6.31D-02  0.00D+00 EMaxC= 1.00D-01 BMatC= 9.69D-01 BMatP= 9.69D-01
 IDIUse=3 WtCom= 3.69D-01 WtEn= 6.31D-01
 Coeff-Com:  0.100D+01
 Coeff-En:   0.100D+01
 Coeff:      0.100D+01
 Gap=     0.410 Goal=   None    Shift=    0.000
 GapD=    0.410 DampG=2.000 DampE=0.500 DampFc=1.0000 IDamp=-1.
 RMSDP=3.44D-03 MaxDP=2.67D-01              OVMax= 1.10D-01

 Cycle   2  Pass 0  IDiag  1:
 RMSU=  3.44D-03    CP:  1.01D+00
 E= -1971.07554627759     Delta-E=       -0.165252017123 Rises=F Damp=F
 DIIS: error= 1.25D-02 at cycle   2 NSaved=   2.
 NSaved= 2 IEnMin= 2 EnMin= -1971.07554627759     IErMin= 2 ErrMin= 1.25D-02
 ErrMax= 1.25D-02  0.00D+00 EMaxC= 1.00D-01 BMatC= 2.16D-01 BMatP= 9.69D-01
 IDIUse=3 WtCom= 8.75D-01 WtEn= 1.25D-01
 Coeff-Com:  0.277D+00 0.723D+00
 Coeff-En:   0.285D+00 0.715D+00
 Coeff:      0.278D+00 0.722D+00
 Gap=     0.370 Goal=   None    Shift=    0.000
 RMSDP=1.82D-03 MaxDP=1.59D-01 DE=-1.65D-01 OVMax= 6.98D-02

 Cycle   3  Pass 0  IDiag  1:
 RMSU=  9.29D-04    CP:  1.01D+00  5.46D-01
 E= -1971.21723614829     Delta-E=       -0.141689870709 Rises=F Damp=F
 DIIS: error= 7.30D-03 at cycle   3 NSaved=   3.
 NSaved= 3 IEnMin= 3 EnMin= -1971.21723614829     IErMin= 3 ErrMin= 7.30D-03
 ErrMax= 7.30D-03  0.00D+00 EMaxC= 1.00D-01 BMatC= 5.44D-02 BMatP= 2.16D-01
 IDIUse=3 WtCom= 9.27D-01 WtEn= 7.30D-02
 Coeff-Com:  0.341D-01 0.342D+00 0.624D+00
 Coeff-En:   0.000D+00 0.147D+00 0.853D+00
 Coeff:      0.316D-01 0.327D+00 0.641D+00
 Gap=     0.346 Goal=   None    Shift=    0.000
 RMSDP=6.09D-04 MaxDP=2.82D-02 DE=-1.42D-01 OVMax= 2.67D-02

 Cycle   4  Pass 0  IDiag  1:
 RMSU=  3.45D-04    CP:  1.01D+00  6.45D-01  6.09D-01
 E= -1971.25885040698     Delta-E=       -0.041614258686 Rises=F Damp=F
 DIIS: error= 1.85D-03 at cycle   4 NSaved=   4.
 NSaved= 4 IEnMin= 4 EnMin= -1971.25885040698     IErMin= 4 ErrMin= 1.85D-03
 ErrMax= 1.85D-03  0.00D+00 EMaxC= 1.00D-01 BMatC= 2.64D-03 BMatP= 5.44D-02
 IDIUse=3 WtCom= 9.81D-01 WtEn= 1.85D-02
 Coeff-Com:  0.595D-02 0.128D+00 0.309D+00 0.557D+00
 Coeff-En:   0.000D+00 0.000D+00 0.000D+00 0.100D+01
 Coeff:      0.584D-02 0.125D+00 0.303D+00 0.565D+00
 Gap=     0.349 Goal=   None    Shift=    0.000
 RMSDP=1.41D-04 MaxDP=8.91D-03 DE=-4.16D-02 OVMax= 5.83D-03

 Cycle   5  Pass 0  IDiag  1:
 RMSU=  6.42D-05    CP:  1.01D+00  6.60D-01  6.52D-01  6.88D-01
 E= -1971.26083096952     Delta-E=       -0.001980562537 Rises=F Damp=F
 DIIS: error= 2.71D-04 at cycle   5 NSaved=   5.
 NSaved= 5 IEnMin= 5 EnMin= -1971.26083096952     IErMin= 5 ErrMin= 2.71D-04
 ErrMax= 2.71D-04  0.00D+00 EMaxC= 1.00D-01 BMatC= 5.73D-05 BMatP= 2.64D-03
 IDIUse=3 WtCom= 9.97D-01 WtEn= 2.71D-03
 Coeff-Com:  0.851D-04 0.249D-01 0.752D-01 0.199D+00 0.700D+00
 Coeff-En:   0.000D+00 0.000D+00 0.000D+00 0.000D+00 0.100D+01
 Coeff:      0.848D-04 0.249D-01 0.750D-01 0.199D+00 0.701D+00
 Gap=     0.349 Goal=   None    Shift=    0.000
 RMSDP=2.48D-05 MaxDP=8.76D-04 DE=-1.98D-03 OVMax= 9.44D-04

 Cycle   6  Pass 0  IDiag  1:
 RMSU=  2.00D-05    CP:  1.01D+00  6.61D-01  6.60D-01  7.20D-01  9.02D-01
 E= -1971.26088059470     Delta-E=       -0.000049625186 Rises=F Damp=F
 DIIS: error= 6.92D-05 at cycle   6 NSaved=   6.
 NSaved= 6 IEnMin= 6 EnMin= -1971.26088059470     IErMin= 6 ErrMin= 6.92D-05
 ErrMax= 6.92D-05  0.00D+00 EMaxC= 1.00D-01 BMatC= 4.96D-06 BMatP= 5.73D-05
 IDIUse=1 WtCom= 1.00D+00 WtEn= 0.00D+00
 Coeff-Com: -0.463D-03-0.703D-02-0.105D-01 0.167D-02 0.237D+00 0.779D+00
 Coeff:     -0.463D-03-0.703D-02-0.105D-01 0.167D-02 0.237D+00 0.779D+00
 Gap=     0.349 Goal=   None    Shift=    0.000
 RMSDP=8.97D-06 MaxDP=6.82D-04 DE=-4.96D-05 OVMax= 3.42D-04

 Initial convergence to 1.0D-05 achieved.  Increase integral accuracy.
 Cycle   7  Pass 1  IDiag  1:
 E= -1971.26083176503     Delta-E=        0.000048829676 Rises=F Damp=F
 DIIS: error= 1.28D-05 at cycle   1 NSaved=   1.
 NSaved= 1 IEnMin= 1 EnMin= -1971.26083176503     IErMin= 1 ErrMin= 1.28D-05
 ErrMax= 1.28D-05  0.00D+00 EMaxC= 1.00D-01 BMatC= 2.77D-07 BMatP= 2.77D-07
 IDIUse=1 WtCom= 1.00D+00 WtEn= 0.00D+00
 Coeff-Com:  0.100D+01
 Coeff:      0.100D+01
 Gap=     0.349 Goal=   None    Shift=    0.000
 RMSDP=8.97D-06 MaxDP=6.82D-04 DE= 4.88D-05 OVMax= 1.04D-04

 Cycle   8  Pass 1  IDiag  1:
 RMSU=  4.67D-06    CP:  1.00D+00
 E= -1971.26083191366     Delta-E=       -0.000000148634 Rises=F Damp=F
 DIIS: error= 1.20D-05 at cycle   2 NSaved=   2.
 NSaved= 2 IEnMin= 2 EnMin= -1971.26083191366     IErMin= 2 ErrMin= 1.20D-05
 ErrMax= 1.20D-05  0.00D+00 EMaxC= 1.00D-01 BMatC= 1.81D-07 BMatP= 2.77D-07
 IDIUse=1 WtCom= 1.00D+00 WtEn= 0.00D+00
 Coeff-Com:  0.439D+00 0.561D+00
 Coeff:      0.439D+00 0.561D+00
 Gap=     0.349 Goal=   None    Shift=    0.000
 RMSDP=1.20D-06 MaxDP=5.21D-05 DE=-1.49D-07 OVMax= 5.46D-05

 Cycle   9  Pass 1  IDiag  1:
 RMSU=  1.16D-06    CP:  1.00D+00  9.34D-01
 E= -1971.26083206735     Delta-E=       -0.000000153684 Rises=F Damp=F
 DIIS: error= 3.95D-06 at cycle   3 NSaved=   3.
 NSaved= 3 IEnMin= 3 EnMin= -1971.26083206735     IErMin= 3 ErrMin= 3.95D-06
 ErrMax= 3.95D-06  0.00D+00 EMaxC= 1.00D-01 BMatC= 8.13D-09 BMatP= 1.81D-07
 IDIUse=1 WtCom= 1.00D+00 WtEn= 0.00D+00
 Coeff-Com:  0.210D-01 0.171D+00 0.809D+00
 Coeff:      0.210D-01 0.171D+00 0.809D+00
 Gap=     0.349 Goal=   None    Shift=    0.000
 RMSDP=3.27D-07 MaxDP=1.60D-05 DE=-1.54D-07 OVMax= 1.44D-05

 Cycle  10  Pass 1  IDiag  1:
 RMSU=  2.46D-07    CP:  1.00D+00  9.78D-01  9.43D-01
 E= -1971.26083207403     Delta-E=       -0.000000006681 Rises=F Damp=F
 DIIS: error= 1.16D-06 at cycle   4 NSaved=   4.
 NSaved= 4 IEnMin= 4 EnMin= -1971.26083207403     IErMin= 4 ErrMin= 1.16D-06
 ErrMax= 1.16D-06  0.00D+00 EMaxC= 1.00D-01 BMatC= 8.91D-10 BMatP= 8.13D-09
 IDIUse=1 WtCom= 1.00D+00 WtEn= 0.00D+00
 Coeff-Com: -0.171D-01 0.388D-01 0.338D+00 0.640D+00
 Coeff:     -0.171D-01 0.388D-01 0.338D+00 0.640D+00
 Gap=     0.349 Goal=   None    Shift=    0.000
 RMSDP=9.57D-08 MaxDP=4.91D-06 DE=-6.68D-09 OVMax= 4.46D-06

 Cycle  11  Pass 1  IDiag  1:
 RMSU=  8.59D-08    CP:  1.00D+00  9.85D-01  9.65D-01  9.42D-01
 E= -1971.26083207488     Delta-E=       -0.000000000854 Rises=F Damp=F
 DIIS: error= 2.38D-07 at cycle   5 NSaved=   5.
 NSaved= 5 IEnMin= 5 EnMin= -1971.26083207488     IErMin= 5 ErrMin= 2.38D-07
 ErrMax= 2.38D-07  0.00D+00 EMaxC= 1.00D-01 BMatC= 4.69D-11 BMatP= 8.91D-10
 IDIUse=1 WtCom= 1.00D+00 WtEn= 0.00D+00
 Coeff-Com: -0.653D-02-0.117D-02 0.390D-01 0.198D+00 0.771D+00
 Coeff:     -0.653D-02-0.117D-02 0.390D-01 0.198D+00 0.771D+00
 Gap=     0.349 Goal=   None    Shift=    0.000
 RMSDP=3.81D-08 MaxDP=1.09D-06 DE=-8.54D-10 OVMax= 2.14D-06

 Cycle  12  Pass 1  IDiag  1:
 RMSU=  2.54D-08    CP:  1.00D+00  9.87D-01  9.75D-01  1.03D+00  1.09D+00
 E= -1971.26083207491     Delta-E=       -0.000000000027 Rises=F Damp=F
 DIIS: error= 6.08D-08 at cycle   6 NSaved=   6.
 NSaved= 6 IEnMin= 6 EnMin= -1971.26083207491     IErMin= 6 ErrMin= 6.08D-08
 ErrMax= 6.08D-08  0.00D+00 EMaxC= 1.00D-01 BMatC= 6.33D-12 BMatP= 4.69D-11
 IDIUse=1 WtCom= 1.00D+00 WtEn= 0.00D+00
 Coeff-Com:  0.318D-05-0.589D-02-0.337D-01-0.213D-01 0.259D+00 0.802D+00
 Coeff:      0.318D-05-0.589D-02-0.337D-01-0.213D-01 0.259D+00 0.802D+00
 Gap=     0.349 Goal=   None    Shift=    0.000
 RMSDP=1.48D-08 MaxDP=5.84D-07 DE=-2.68D-11 OVMax= 9.66D-07

 Cycle  13  Pass 1  IDiag  1:
 RMSU=  7.05D-09    CP:  1.00D+00  9.87D-01  9.77D-01  1.07D+00  1.18D+00
                    CP:  9.27D-01
 E= -1971.26083207491     Delta-E=        0.000000000000 Rises=F Damp=F
 DIIS: error= 2.52D-08 at cycle   7 NSaved=   7.
 NSaved= 7 IEnMin= 6 EnMin= -1971.26083207491     IErMin= 7 ErrMin= 2.52D-08
 ErrMax= 2.52D-08  0.00D+00 EMaxC= 1.00D-01 BMatC= 7.96D-13 BMatP= 6.33D-12
 IDIUse=1 WtCom= 1.00D+00 WtEn= 0.00D+00
 Coeff-Com:  0.571D-03-0.236D-02-0.175D-01-0.251D-01 0.508D-01 0.349D+00
 Coeff-Com:  0.645D+00
 Coeff:      0.571D-03-0.236D-02-0.175D-01-0.251D-01 0.508D-01 0.349D+00
 Coeff:      0.645D+00
 Gap=     0.349 Goal=   None    Shift=    0.000
 RMSDP=3.50D-09 MaxDP=1.12D-07 DE= 0.00D+00 OVMax= 2.22D-07

 SCF Done:  E(RCAM-B3LYP) =  -1971.26083207     A.U. after   13 cycles
            NFock= 13  Conv=0.35D-08     -V/T= 2.0055
 KE= 1.960459375353D+03 PE=-8.480083081723D+03 EE= 2.630635939537D+03
 Leave Link  502 at Tue Jun 27 19:49:03 2023, MaxMem=   262144000 cpu:             383.3 elap:              48.3
 (Enter /dragofs/sw/campus/0.2/software/gaussian/16.gaussian/gaussian/g16_legacy/l601.exe)
 Copying SCF densities to generalized density rwf, IOpCl= 0 IROHF=0.

 **********************************************************************

            Population analysis using the SCF density.

 **********************************************************************

 Orbital symmetries:
       Occupied  (A) (A) (A) (A) (A) (A) (A) (A) (A) (A) (A) (A)
                 (A) (A) (A) (A) (A) (A) (A) (A) (A) (A) (A) (A)
                 (A) (A) (A) (A) (A) (A) (A) (A) (A) (A) (A) (A)
                 (A) (A) (A) (A) (A) (A) (A) (A) (A) (A) (A) (A)
                 (A) (A) (A) (A) (A) (A) (A) (A) (A) (A) (A) (A)
                 (A) (A) (A) (A) (A) (A) (A) (A) (A) (A) (A) (A)
                 (A) (A) (A) (A) (A) (A) (A) (A) (A) (A) (A) (A)
                 (A) (A) (A) (A) (A) (A) (A) (A) (A)
       Virtual   (A) (A) (A) (A) (A) (A) (A) (A) (A) (A) (A) (A)
                 (A) (A) (A) (A) (A) (A) (A) (A) (A) (A) (A) (A)
                 (A) (A) (A) (A) (A) (A) (A) (A) (A) (A) (A) (A)
                 (A) (A) (A) (A) (A) (A) (A) (A) (A) (A) (A) (A)
                 (A) (A) (A) (A) (A) (A) (A) (A) (A) (A) (A) (A)
                 (A) (A) (A) (A) (A) (A) (A) (A) (A) (A) (A) (A)
                 (A) (A) (A) (A) (A) (A) (A) (A) (A) (A) (A) (A)
                 (A) (A) (A) (A) (A) (A) (A) (A) (A) (A) (A) (A)
                 (A) (A) (A) (A) (A) (A) (A) (A) (A) (A) (A) (A)
                 (A) (A) (A) (A) (A) (A) (A) (A) (A) (A) (A) (A)
                 (A) (A) (A) (A) (A) (A) (A) (A) (A) (A) (A) (A)
                 (A) (A) (A) (A) (A) (A) (A) (A) (A) (A) (A) (A)
                 (A) (A) (A) (A) (A) (A) (A) (A) (A) (A) (A) (A)
                 (A) (A) (A) (A) (A) (A) (A) (A) (A) (A) (A) (A)
                 (A) (A) (A) (A) (A) (A) (A) (A) (A) (A) (A) (A)
                 (A) (A) (A) (A) (A) (A) (A) (A) (A) (A) (A) (A)
                 (A) (A) (A) (A) (A) (A) (A) (A) (A) (A) (A) (A)
                 (A) (A) (A) (A) (A) (A) (A) (A) (A) (A) (A) (A)
                 (A) (A) (A) (A) (A) (A) (A) (A) (A) (A) (A) (A)
                 (A) (A) (A) (A) (A) (A) (A) (A) (A) (A) (A) (A)
                 (A) (A) (A) (A) (A) (A) (A) (A) (A) (A) (A) (A)
                 (A) (A) (A) (A) (A) (A) (A) (A) (A) (A) (A) (A)
                 (A) (A) (A) (A) (A) (A) (A) (A) (A) (A) (A) (A)
                 (A) (A) (A)
 The electronic state is 1-A.
 Alpha  occ. eigenvalues --  -88.94456 -88.94047 -88.93601 -19.22329 -19.22048
 Alpha  occ. eigenvalues --  -19.21202 -10.30995 -10.30943 -10.30734 -10.30563
 Alpha  occ. eigenvalues --  -10.30292 -10.30226 -10.30172 -10.29902 -10.29847
 Alpha  occ. eigenvalues --  -10.29781 -10.29718 -10.29293 -10.26155 -10.24432
 Alpha  occ. eigenvalues --   -8.00756  -8.00375  -7.99952  -5.97383  -5.97015
 Alpha  occ. eigenvalues --   -5.96951  -5.96584  -5.96560  -5.96277  -5.96127
 Alpha  occ. eigenvalues --   -5.95898  -5.95484  -1.14847  -1.13395  -1.11690
 Alpha  occ. eigenvalues --   -0.93035  -0.91070  -0.88678  -0.86735  -0.85601
 Alpha  occ. eigenvalues --   -0.83377  -0.80959  -0.78944  -0.76578  -0.73001
 Alpha  occ. eigenvalues --   -0.71739  -0.70638  -0.68725  -0.66533  -0.65513
 Alpha  occ. eigenvalues --   -0.65312  -0.64234  -0.59291  -0.58408  -0.57427
 Alpha  occ. eigenvalues --   -0.57229  -0.56550  -0.55315  -0.54968  -0.53540
 Alpha  occ. eigenvalues --   -0.53378  -0.52723  -0.51669  -0.51240  -0.49766
 Alpha  occ. eigenvalues --   -0.49483  -0.48389  -0.48306  -0.47309  -0.46688
 Alpha  occ. eigenvalues --   -0.45661  -0.45168  -0.45020  -0.44225  -0.43673
 Alpha  occ. eigenvalues --   -0.43371  -0.42804  -0.41911  -0.41337  -0.41185
 Alpha  occ. eigenvalues --   -0.41159  -0.39239  -0.38443  -0.36164  -0.35941
 Alpha  occ. eigenvalues --   -0.35724  -0.34097  -0.32733  -0.31912  -0.30893
 Alpha  occ. eigenvalues --   -0.29014  -0.28266  -0.27265
 Alpha virt. eigenvalues --    0.07618   0.08225   0.09486   0.11282   0.12099
 Alpha virt. eigenvalues --    0.12256   0.12734   0.13204   0.14268   0.14975
 Alpha virt. eigenvalues --    0.15606   0.15840   0.16126   0.16583   0.17143
 Alpha virt. eigenvalues --    0.17948   0.18223   0.18349   0.19136   0.19458
 Alpha virt. eigenvalues --    0.19672   0.19910   0.20229   0.20425   0.21414
 Alpha virt. eigenvalues --    0.21850   0.22316   0.22740   0.23154   0.23345
 Alpha virt. eigenvalues --    0.23426   0.24084   0.24362   0.24696   0.25246
 Alpha virt. eigenvalues --    0.25571   0.26163   0.26964   0.27239   0.27640
 Alpha virt. eigenvalues --    0.29407   0.29716   0.30249   0.30798   0.31200
 Alpha virt. eigenvalues --    0.31776   0.33378   0.34014   0.36310   0.39993
 Alpha virt. eigenvalues --    0.40572   0.42432   0.43897   0.44310   0.45114
 Alpha virt. eigenvalues --    0.46809   0.47434   0.48543   0.48594   0.51491
 Alpha virt. eigenvalues --    0.52400   0.54200   0.55586   0.55982   0.56397
 Alpha virt. eigenvalues --    0.57053   0.58404   0.59173   0.59671   0.60378
 Alpha virt. eigenvalues --    0.60904   0.61690   0.62103   0.62288   0.62728
 Alpha virt. eigenvalues --    0.63778   0.64279   0.65425   0.65595   0.66626
 Alpha virt. eigenvalues --    0.68289   0.68431   0.69002   0.69500   0.70394
 Alpha virt. eigenvalues --    0.70631   0.70946   0.72026   0.73231   0.73688
 Alpha virt. eigenvalues --    0.73779   0.74152   0.75847   0.77959   0.80634
 Alpha virt. eigenvalues --    0.82362   0.83903   0.84489   0.85662   0.86996
 Alpha virt. eigenvalues --    0.87920   0.88592   0.88779   0.89069   0.89357
 Alpha virt. eigenvalues --    0.90037   0.90862   0.91156   0.91266   0.91744
 Alpha virt. eigenvalues --    0.92385   0.92644   0.92746   0.93112   0.93631
 Alpha virt. eigenvalues --    0.93785   0.94450   0.94969   0.95193   0.95517
 Alpha virt. eigenvalues --    0.96034   0.96326   0.97007   0.97209   0.97922
 Alpha virt. eigenvalues --    0.98283   0.99296   0.99480   0.99756   1.00034
 Alpha virt. eigenvalues --    1.01038   1.01264   1.01605   1.02135   1.02697
 Alpha virt. eigenvalues --    1.03161   1.03594   1.04641   1.05129   1.06285
 Alpha virt. eigenvalues --    1.06596   1.08227   1.08517   1.09046   1.10162
 Alpha virt. eigenvalues --    1.10699   1.11231   1.13191   1.14976   1.16742
 Alpha virt. eigenvalues --    1.18834   1.20014   1.22119   1.22819   1.24143
 Alpha virt. eigenvalues --    1.26416   1.27531   1.29427   1.30760   1.32489
 Alpha virt. eigenvalues --    1.33195   1.35578   1.38722   1.43604   1.44271
 Alpha virt. eigenvalues --    1.47316   1.48306   1.49978   1.51068   1.52454
 Alpha virt. eigenvalues --    1.53490   1.54732   1.58209   1.59919   1.60097
 Alpha virt. eigenvalues --    1.60871   1.61866   1.64970   1.65046   1.66005
 Alpha virt. eigenvalues --    1.68534   1.68782   1.71892   1.72898   1.78484
[...]
    10  H    0.000000   0.000000   0.000000   0.000000   0.000000   0.000000
    11  H    0.000000   0.000000   0.000000   0.000000   0.000000   0.000000
    12  C   -0.000000   0.000000   0.000000   0.000000   0.000000   0.000000
    13  H    0.000000   0.000000   0.000000  -0.000000  -0.000000   0.000000
    14  H    0.000000   0.000000   0.000000   0.000000   0.000000  -0.000000
    15  O    0.000000  -0.000000   0.000000   0.000000   0.000000  -0.000000
    16  C   -0.000000   0.000000  -0.000000  -0.000000   0.000000   0.000000
    17  H    0.000000  -0.000000   0.000000   0.000000   0.000000   0.000000
    18  H    0.000000   0.000000  -0.000000  -0.000000  -0.000000  -0.000000
    19  C   -0.000000   0.000000  -0.000000   0.000000   0.000000  -0.000000
    20  H    0.000000  -0.000000  -0.000000   0.000000   0.000000   0.000000
    21  H    0.000000  -0.000000  -0.000000   0.000000  -0.000000   0.000000
    22  O   -0.000000   0.000000   0.000000  -0.000000   0.000000  -0.000000
    23  C    0.000000  -0.000000   0.000000  -0.000000  -0.000000  -0.000000
    24  H   -0.000000  -0.000000   0.000000  -0.000000   0.000000   0.000000
    25  H    0.000000  -0.000000   0.000000   0.000000   0.000000  -0.000000
    26  C    0.000000  -0.000000   0.000000  -0.000000  -0.000000  -0.000000
    27  H   -0.000000   0.000000  -0.000000  -0.000000   0.000000   0.000000
    28  H    0.000000  -0.000000   0.000000   0.000000  -0.000000  -0.000000
    29  S   -0.000003  -0.000000  -0.000000   0.000011  -0.000004   0.000001
    30  C    0.000006  -0.000009   0.000000   0.000006   0.000001   0.000000
    31  H   -0.000000   0.000000  -0.000000   0.000001  -0.000000   0.000000
    32  H   -0.000001  -0.000011   0.000000   0.000076   0.000002  -0.000000
    33  C    0.000065   0.000022  -0.000000  -0.000011  -0.000022   0.000000
    34  H    0.000003  -0.000000   0.000000  -0.000000   0.000000  -0.000000
    35  H   -0.000412  -0.000016  -0.000000   0.000117   0.000016   0.000000
    36  S    0.007295   0.000054   0.000003  -0.000377   0.000009  -0.000002
    37  C   -0.050719  -0.004759   0.000073   0.002868  -0.000043  -0.000003
    38  H   -0.003710   0.001308  -0.000101   0.004504   0.000005   0.000001
    39  H    0.002071  -0.000218  -0.000006   0.000043   0.000008  -0.000000
    40  C    0.243924  -0.018192   0.002625  -0.005770  -0.005433   0.000136
    41  H   -0.039103  -0.007034   0.000042  -0.000670   0.004167  -0.000314
    42  H   -0.037377   0.002573  -0.000060  -0.000011   0.000054   0.000001
    43  S   15.662933   0.263851  -0.039141  -0.042175  -0.057045   0.005391
    44  C    0.263851   5.184860   0.379944   0.368474   0.346814  -0.027626
    45  H   -0.039141   0.379944   0.542734  -0.028137  -0.036485  -0.002883
    46  H   -0.042175   0.368474  -0.028137   0.580061  -0.044947  -0.001551
    47  C   -0.057045   0.346814  -0.036485  -0.044947   5.091075   0.366697
    48  H    0.005391  -0.027626  -0.002883  -0.001551   0.366697   0.565638
    49  H   -0.005482  -0.037838   0.004410  -0.003184   0.385870  -0.030054
    50  H    0.002335  -0.037285  -0.003539   0.004655   0.385635  -0.028054
              49         50
     1  C    0.000000   0.000000
     2  H    0.000000   0.000000
     3  H    0.000000   0.000000
     4  H    0.000000   0.000000
     5  C    0.000000   0.000000
     6  H    0.000000   0.000000
     7  H    0.000000   0.000000
     8  O    0.000000   0.000000
     9  C    0.000000   0.000000
    10  H    0.000000   0.000000
    11  H   -0.000000   0.000000
    12  C   -0.000000   0.000000
    13  H    0.000000   0.000000
    14  H   -0.000000   0.000000
    15  O    0.000000   0.000000
    16  C   -0.000000  -0.000000
    17  H    0.000000   0.000000
    18  H   -0.000000  -0.000000
    19  C   -0.000000  -0.000000
    20  H   -0.000000  -0.000000
    21  H    0.000000   0.000000
    22  O   -0.000000  -0.000000
    23  C    0.000000   0.000000
    24  H   -0.000000  -0.000000
    25  H   -0.000000  -0.000000
    26  C   -0.000000  -0.000000
    27  H   -0.000000   0.000000
    28  H   -0.000000  -0.000000
    29  S    0.000033   0.000000
    30  C   -0.000001  -0.000000
    31  H    0.000000   0.000000
    32  H   -0.000003  -0.000000
    33  C   -0.000032   0.000000
    34  H   -0.000000  -0.000000
    35  H    0.000333   0.000001
    36  S   -0.000007  -0.000001
    37  C    0.000093   0.000012
    38  H   -0.000002   0.000001
    39  H   -0.000001   0.000000
    40  C    0.000892  -0.000254
    41  H    0.004896   0.000051
    42  H   -0.000096  -0.000013
    43  S   -0.005482   0.002335
    44  C   -0.037838  -0.037285
    45  H    0.004410  -0.003539
    46  H   -0.003184   0.004655
    47  C    0.385870   0.385635
    48  H   -0.030054  -0.028054
    49  H    0.556907  -0.028368
    50  H   -0.028368   0.537770
 Mulliken charges:
               1
     1  C   -0.452542
     2  H    0.159669
     3  H    0.161446
     4  H    0.141184
     5  C   -0.014153
     6  H    0.116976
     7  H    0.119921
     8  O   -0.460590
     9  C   -0.037058
    10  H    0.117255
    11  H    0.163201
    12  C   -0.025372
    13  H    0.121175
    14  H    0.120205
    15  O   -0.461179
    16  C   -0.017723
    17  H    0.118802
    18  H    0.133398
    19  C   -0.034422
    20  H    0.142687
    21  H    0.121570
    22  O   -0.470217
    23  C   -0.016522
    24  H    0.153227
    25  H    0.144209
    26  C   -0.445237
    27  H    0.179551
    28  H    0.176661
    29  S    0.083282
    30  C   -0.396433
    31  H    0.189775
    32  H    0.169607
    33  C   -0.442611
    34  H    0.198116
    35  H    0.183650
    36  S    0.098303
    37  C   -0.417963
    38  H    0.173962
    39  H    0.195877
    40  C   -0.416633
    41  H    0.176787
    42  H    0.194306
    43  S    0.087293
    44  C   -0.414912
    45  H    0.180521
    46  H    0.166017
    47  C   -0.436375
    48  H    0.152621
    49  H    0.151632
    50  H    0.167053
 Sum of Mulliken charges =  -0.00000
 Mulliken charges with hydrogens summed into heavy atoms:
               1
     1  C    0.009758
     5  C    0.222744
     8  O   -0.460590
     9  C    0.243398
    12  C    0.216009
    15  O   -0.461179
    16  C    0.234478
    19  C    0.229835
    22  O   -0.470217
    23  C    0.280915
    26  C   -0.089026
    29  S    0.083282
    30  C   -0.037052
    33  C   -0.060845
    36  S    0.098303
    37  C   -0.048123
    40  C   -0.045539
    43  S    0.087293
    44  C   -0.068375
    47  C    0.034932
 Electronic spatial extent (au):  <R**2>=          22320.8921
 Charge=             -0.0000 electrons
 Dipole moment (field-independent basis, Debye):
    X=             -2.3750    Y=              3.5472    Z=             -0.4784  Tot=              4.2956
 Quadrupole moment (field-independent basis, Debye-Ang):
   XX=           -148.6060   YY=           -145.7132   ZZ=           -148.9792
   XY=             -5.1377   XZ=              9.1962   YZ=             -0.2375
 Traceless Quadrupole moment (field-independent basis, Debye-Ang):
   XX=             -0.8399   YY=              2.0529   ZZ=             -1.2131
   XY=             -5.1377   XZ=              9.1962   YZ=             -0.2375
 Octapole moment (field-independent basis, Debye-Ang**2):
  XXX=           -403.9893  YYY=             33.4404  ZZZ=            -13.5477  XYY=            -18.5982
  XXY=             90.3776  XXZ=             -7.3995  XZZ=            -48.0068  YZZ=             -2.1638
  YYZ=             -1.5223  XYZ=             -5.4653
 Hexadecapole moment (field-independent basis, Debye-Ang**3):
 XXXX=         -26976.3891 YYYY=          -1771.4560 ZZZZ=          -1069.1138 XXXY=           -346.2359
 XXXZ=            620.7124 YYYX=            141.2959 YYYZ=            -19.1892 ZZZX=             56.6992
 ZZZY=              3.6271 XXYY=          -4705.8628 XXZZ=          -4622.1200 YYZZ=           -455.4819
 XXYZ=             36.4319 YYXZ=             -9.7679 ZZXY=            -13.5616
 N-N= 1.875012964221D+03 E-N=-8.394934955672D+03  KE= 1.960363464595D+03
 There are a total of     1160802 grid points.
 ElSum from          density=      185.9999836765
 ElSum from atomic densities=      185.9999847237
 Hirshfeld populations at iteration   1 (CA, CB, DipXYZ):
               1          2          3          4          5
     1  C    3.044777   3.044777  -0.002567   0.006481  -0.005403
     2  H    0.481791   0.481791  -0.029599  -0.140519  -0.002479
     3  H    0.481340   0.481340   0.092136   0.026259   0.107865
     4  H    0.482832   0.482832  -0.118188   0.068122   0.026773
     5  C    2.986922   2.986922   0.040481  -0.028721   0.003357
     6  H    0.488477   0.488477  -0.089689  -0.019752  -0.081499
     7  H    0.488664   0.488664   0.009568   0.121078   0.012679
     8  O    4.087836   4.087836  -0.053069   0.096872  -0.094406
     9  C    2.987070   2.987070  -0.021546  -0.006845   0.044868
    10  H    0.485749   0.485749  -0.075001  -0.001152  -0.097636
    11  H    0.477575   0.477575   0.087657  -0.111980  -0.030152
    12  C    2.989813   2.989813   0.044452  -0.011172   0.025622
    13  H    0.485633   0.485633   0.028865   0.012217  -0.121164
    14  H    0.487751   0.487751  -0.070646   0.094355   0.021450
    15  O    4.084731   4.084731  -0.028359   0.113095  -0.073104
    16  C    2.987758   2.987758  -0.029845  -0.038772   0.005789
    17  H    0.486039   0.486039  -0.055360   0.098068   0.052795
    18  H    0.484533   0.484533   0.042635   0.044137  -0.112393
    19  C    2.987624   2.987624   0.032915  -0.024660  -0.027653
    20  H    0.482286   0.482286  -0.045284  -0.043948   0.115220
    21  H    0.486229   0.486229   0.045464   0.114854   0.026778
    22  O    4.088032   4.088032   0.009046   0.020600   0.146460
    23  C    2.988431   2.988431  -0.049025   0.031627  -0.046653
    24  H    0.480610   0.480610   0.038335  -0.106272  -0.081368
    25  H    0.485151   0.485151  -0.060490  -0.056927   0.097325
    26  C    3.028545   3.028545  -0.009822  -0.008614  -0.004211
    27  H    0.479605   0.479605  -0.050217   0.107455   0.086843
    28  H    0.480803   0.480803   0.048891   0.066285  -0.121252
    29  S    8.027083   8.027083  -0.059163  -0.014521  -0.217903
    30  C    3.027943   3.027943  -0.006463   0.003161   0.007700
    31  H    0.482035   0.482035  -0.088209  -0.095509  -0.060769
    32  H    0.483442   0.483442   0.034041   0.090184  -0.101378
    33  C    3.025872   3.025872  -0.007975  -0.002234  -0.009843
    34  H    0.477183   0.477183  -0.043046  -0.105224   0.101819
    35  H    0.482117   0.482117   0.081521   0.083830   0.072177
    36  S    8.022130   8.022130   0.003244   0.214074   0.047779
    37  C    3.027343   3.027343   0.001844  -0.008814   0.011781
    38  H    0.483103   0.483103  -0.079114   0.107044  -0.029690
    39  H    0.478070   0.478070   0.042763  -0.055409  -0.135288
    40  C    3.027880   3.027880  -0.000763   0.008154  -0.011667
    41  H    0.482775   0.482775  -0.031510   0.028736   0.129981
    42  H    0.478271   0.478271   0.097750  -0.116031   0.010959
    43  S    8.027036   8.027036  -0.194338   0.014169   0.121681
    44  C    3.023908   3.023908  -0.001693   0.013397   0.020618
    45  H    0.478420   0.478420   0.049163   0.117989  -0.081792
    46  H    0.483472   0.483472  -0.135530  -0.004639  -0.032960
    47  C    3.045767   3.045767  -0.011719   0.016151  -0.003445
    48  H    0.482328   0.482328  -0.076042   0.116437   0.020707
    49  H    0.484366   0.484366  -0.049754  -0.088713   0.090650
    50  H    0.482840   0.482840   0.130059   0.039162   0.043720
       Tot  92.999992  92.999992  -0.613195   0.783566  -0.130713

 Dip from Atomic Chgs             -0.320907   0.611961  -0.057544
         Total Dipole             -0.934102   1.395527  -0.188257

 Hirshfeld charges, spin densities, dipoles, and CM5 charges using IRadAn=      5:
              Q-H        S-H        Dx         Dy         Dz        Q-CM5   
     1  C   -0.089553   0.000000  -0.002567   0.006481  -0.005403  -0.236402
     2  H    0.036419   0.000000  -0.029599  -0.140519  -0.002479   0.090036
     3  H    0.037320   0.000000   0.092136   0.026259   0.107865   0.090933
     4  H    0.034335   0.000000  -0.118188   0.068122   0.026773   0.085521
     5  C    0.026157   0.000000   0.040481  -0.028721   0.003357  -0.056827
     6  H    0.023047   0.000000  -0.089689  -0.019752  -0.081499   0.084822
     7  H    0.022672   0.000000   0.009568   0.121078   0.012679   0.084856
     8  O   -0.175672   0.000000  -0.053069   0.096872  -0.094406  -0.277224
     9  C    0.025861   0.000000  -0.021546  -0.006845   0.044868  -0.052370
    10  H    0.028502   0.000000  -0.075001  -0.001152  -0.097636   0.090930
    11  H    0.044850   0.000000   0.087657  -0.111980  -0.030152   0.111903
    12  C    0.020374   0.000000   0.044452  -0.011172   0.025622  -0.057983
    13  H    0.028734   0.000000   0.028865   0.012217  -0.121164   0.090813
    14  H    0.024499   0.000000  -0.070646   0.094355   0.021450   0.088897
    15  O   -0.169462   0.000000  -0.028359   0.113095  -0.073104  -0.269950
    16  C    0.024484   0.000000  -0.029845  -0.038772   0.005789  -0.053035
    17  H    0.027922   0.000000  -0.055360   0.098068   0.052795   0.090059
    18  H    0.030934   0.000000   0.042635   0.044137  -0.112393   0.096219
    19  C    0.024751   0.000000   0.032915  -0.024660  -0.027653  -0.053347
    20  H    0.035428   0.000000  -0.045284  -0.043948   0.115220   0.101314
    21  H    0.027542   0.000000   0.045464   0.114854   0.026778   0.089776
    22  O   -0.176064   0.000000   0.009046   0.020600   0.146460  -0.277462
    23  C    0.023137   0.000000  -0.049025   0.031627  -0.046653  -0.056696
    24  H    0.038779   0.000000   0.038335  -0.106272  -0.081368   0.103981
    25  H    0.029697   0.000000  -0.060490  -0.056927   0.097325   0.092866
    26  C   -0.057091   0.000000  -0.009822  -0.008614  -0.004211  -0.147240
    27  H    0.040791   0.000000  -0.050217   0.107455   0.086843   0.099302
    28  H    0.038393   0.000000   0.048891   0.066285  -0.121252   0.096771
    29  S   -0.054167   0.000000  -0.059163  -0.014521  -0.217903  -0.101704
    30  C   -0.055887   0.000000  -0.006463   0.003161   0.007700  -0.147152
    31  H    0.035931   0.000000  -0.088209  -0.095509  -0.060769   0.093201
    32  H    0.033115   0.000000   0.034041   0.090184  -0.101378   0.090371
    33  C   -0.051744   0.000000  -0.007975  -0.002234  -0.009843  -0.142260
    34  H    0.045635   0.000000  -0.043046  -0.105224   0.101819   0.102897
    35  H    0.035765   0.000000   0.081521   0.083830   0.072177   0.093418
    36  S   -0.044261   0.000000   0.003244   0.214074   0.047779  -0.091743
    37  C   -0.054686   0.000000   0.001844  -0.008814   0.011781  -0.145838
    38  H    0.033793   0.000000  -0.079114   0.107044  -0.029690   0.091451
    39  H    0.043860   0.000000   0.042763  -0.055409  -0.135288   0.101049
    40  C   -0.055759   0.000000  -0.000763   0.008154  -0.011667  -0.146839
    41  H    0.034450   0.000000  -0.031510   0.028736   0.129981   0.092140
    42  H    0.043459   0.000000   0.097750  -0.116031   0.010959   0.100669
    43  S   -0.054073   0.000000  -0.194338   0.014169   0.121681  -0.101593
    44  C   -0.047816   0.000000  -0.001693   0.013397   0.020618  -0.142504
    45  H    0.043160   0.000000   0.049163   0.117989  -0.081792   0.099310
    46  H    0.033056   0.000000  -0.135530  -0.004639  -0.032960   0.089068
    47  C   -0.091533   0.000000  -0.011719   0.016151  -0.003445  -0.239692
    48  H    0.035345   0.000000  -0.076042   0.116437   0.020707   0.086033
    49  H    0.031269   0.000000  -0.049754  -0.088713   0.090650   0.083133
    50  H    0.034319   0.000000   0.130059   0.039162   0.043720   0.086139
       Tot   0.000016   0.000000  -0.613195   0.783566  -0.130713   0.000016
 Hirshfeld charges with hydrogens summed into heavy atoms:
              Q-H       Q-CM5   
     1  C    0.018521   0.030088
     5  C    0.071876   0.112851
     8  O   -0.175672  -0.277224
     9  C    0.099212   0.150463
    12  C    0.073606   0.121727
    15  O   -0.169462  -0.269950
    16  C    0.083340   0.133244
    19  C    0.087721   0.137744
    22  O   -0.176064  -0.277462
    23  C    0.091614   0.140151
    26  C    0.022093   0.048833
    29  S   -0.054167  -0.101704
    30  C    0.013159   0.036419
    33  C    0.029656   0.054055
    36  S   -0.044261  -0.091743
    37  C    0.022967   0.046662
    40  C    0.022149   0.045969
    43  S   -0.054073  -0.101593
    44  C    0.028400   0.045874
    47  C    0.009400   0.015613
 
 EQQ= 0.000000000000E+00 EQD= 0.000000000000E+00 EDD=-0.595107576562E-02
 EQQ+QD+DD=-0.595107576562E-02
 
 No NMR shielding tensors so no spin-rotation constants.
 Leave Link  601 at Tue Jun 27 20:12:10 2023, MaxMem=   262144000 cpu:              14.5 elap:               1.8
 (Enter /dragofs/sw/campus/0.2/software/gaussian/16.gaussian/gaussian/g16_legacy/l9999.exe)
 1\1\GINC-DRAGO31030097\FOpt\RCAM-B3LYP\6-31G(d)\C14H30O3S3\JRAMOS\27-J
 un-2023\0\\#p opt cam-b3lyp/6-31G* pop=Hirshfeld\\Conformer number 000
 12. Energy MM = 138.715 kcal/mol\\0,1\C,-8.6637636538,0.9491257367,-1.
 6933034905\H,-8.8962957412,1.9635973354,-1.3589237644\H,-7.9193114596,
 1.0150243317,-2.4911233304\H,-9.5730439227,0.4967503832,-2.1002366738\
 C,-8.1267524949,0.125654127,-0.5411779696\H,-8.8753263116,0.0503132404
 ,0.2647247486\H,-7.9103784321,-0.8994605152,-0.8780256055\O,-6.9629867
 249,0.7592173163,-0.0577742302\C,-6.3982646168,0.1618514781,1.08392502
 1\H,-7.1810423996,-0.0952546064,1.815716372\H,-5.7441529271,0.91496841
 77,1.532087014\C,-5.5703076502,-1.0760614222,0.7914640929\H,-5.2772561
 179,-1.5433731442,1.7466045219\H,-6.1613612722,-1.8212656901,0.2345747
 879\O,-4.4354877546,-0.6964194403,0.0565378059\C,-3.6207997896,-1.7811
 462244,-0.3037907156\H,-4.1587648119,-2.4637911513,-0.9824592468\H,-3.
 3187955925,-2.3592630197,0.5834993705\C,-2.3862802184,-1.256212129,-0.
 9973916628\H,-2.688881782,-0.5384288104,-1.7736332883\H,-1.8682181062,
 -2.0936914836,-1.4892331395\O,-1.5617260941,-0.6327541305,-0.039278449
 4\C,-0.582325472,0.2296606411,-0.568755767\H,-0.2412178811,0.841972047
 ,0.2702458849\H,-1.018966526,0.9036847953,-1.3195166764\C,0.5953171771
 ,-0.5291942326,-1.1780904732\H,0.2746969266,-1.100351025,-2.0539503216
 \H,0.9955107489,-1.2437178991,-0.4519469323\S,1.9277286133,0.556740053
 7,-1.7742562845\C,2.7101621143,1.0292052014,-0.1914734623\H,2.00657328
 83,1.5780694266,0.4380156505\H,3.0030754656,0.1194276572,0.3415443657\
 C,3.9265528773,1.90134372,-0.4768576761\H,3.6191462062,2.8301284352,-0
 .9645439669\H,4.6166933712,1.3967670576,-1.1593083423\S,4.8151451012,2
 .4050889382,1.032744191\C,5.7926954388,0.9039081959,1.3835070248\H,5.1
 537421334,0.0229296651,1.2764626698\H,6.0678418486,0.9666832669,2.4388
 61308\C,7.0480344621,0.7879147636,0.525640071\H,6.8058560334,0.8113838
 744,-0.540265252\H,7.7070442948,1.637992701,0.7168884596\S,8.035589926
 1,-0.7007486886,0.891029989\C,7.0953777347,-1.9888866001,0.0023966504\
 H,7.4816983509,-2.9317305966,0.3997232353\H,6.0422430664,-1.936258157,
 0.29520779\C,7.245911803,-1.9502090245,-1.5127155129\H,6.6808423591,-2
 .7683700049,-1.972093073\H,6.8687538588,-1.0136985826,-1.9340565582\H,
 8.2951745531,-2.0493162286,-1.8020191591\\Version=EM64L-G16RevA.03\Sta
 te=1-A\HF=-1971.3172314\RMSD=4.764e-09\RMSF=8.153e-07\Dipole=-0.906651
 3,-1.4000154,-0.2721407\Quadrupole=-0.3043378,1.5514331,-1.2470952,5.6
 210938,-5.3852279,0.7143283\PG=C01 [X(C14H30O3S3)]\\@


 A FOOL CAN ASK MORE QUESTIONS THAN
 A WISE MAN CAN ANSWER.
 Job cpu time:       0 days  3 hours  9 minutes 42.6 seconds.
 Elapsed time:       0 days  0 hours 23 minutes 57.3 seconds.
 File lengths (MBytes):  RWF=     92 Int=      0 D2E=      0 Chk=     13 Scr=      1
 Normal termination of Gaussian 16 at Tue Jun 27 20:12:10 2023.
