 Entering Gaussian System, Link 0=g16
 Input=DVE-DMSD_1_00004_gaussian.com
 Output=DVE-DMSD_1_00004_gaussian.log
 Initial command:
 /dragofs/sw/campus/0.2/software/gaussian/16.gaussian/gaussian/g16_legacy/l1.exe "/lustre/scratch-global/iem/jramos/172750/Gau-1970528.inp" -scrdir="/lustre/scratch-global/iem/jramos/172750/"
 Entering Link 1 = /dragofs/sw/campus/0.2/software/gaussian/16.gaussian/gaussian/g16_legacy/l1.exe PID=   1970529.
  
 Copyright (c) 1988,1990,1992,1993,1995,1998,2003,2009,2016,
            Gaussian, Inc.  All Rights Reserved.
  
 This is part of the Gaussian(R) 16 program.  It is based on
 the Gaussian(R) 09 system (copyright 2009, Gaussian, Inc.),
 the Gaussian(R) 03 system (copyright 2003, Gaussian, Inc.),
 the Gaussian(R) 98 system (copyright 1998, Gaussian, Inc.),
 the Gaussian(R) 94 system (copyright 1995, Gaussian, Inc.),
 the Gaussian 92(TM) system (copyright 1992, Gaussian, Inc.),
 the Gaussian 90(TM) system (copyright 1990, Gaussian, Inc.),
 the Gaussian 88(TM) system (copyright 1988, Gaussian, Inc.),
 the Gaussian 86(TM) system (copyright 1986, Carnegie Mellon
 University), and the Gaussian 82(TM) system (copyright 1983,
 Carnegie Mellon University). Gaussian is a federally registered
 trademark of Gaussian, Inc.
  
 This software contains proprietary and confidential information,
 including trade secrets, belonging to Gaussian, Inc.
  
 This software is provided under written license and may be
 used, copied, transmitted, or stored only in accord with that
 written license.
  
 The following legend is applicable only to US Government
 contracts under FAR:
  
                    RESTRICTED RIGHTS LEGEND
  
 Use, reproduction and disclosure by the US Government is
 subject to restrictions as set forth in subparagraphs (a)
 and (c) of the Commercial Computer Software - Restricted
 Rights clause in FAR 52.227-19.
  
 Gaussian, Inc.
 340 Quinnipiac St., Bldg. 40, Wallingford CT 06492
  
  
 ---------------------------------------------------------------
 Warning -- This program may not be used in any manner that
 competes with the business of Gaussian, Inc. or will provide
 assistance to any competitor of Gaussian, Inc.  The licensee
 of this program is prohibited from giving any competitor of
 Gaussian, Inc. access to this program.  By using this program,
 the user acknowledges that Gaussian, Inc. is engaged in the
 business of creating and licensing software in the field of
 computational chemistry and represents and warrants to the
 licensee that it is not a competitor of Gaussian, Inc. and that
 it will not use this program in any manner prohibited above.
 ---------------------------------------------------------------
  

 Cite this work as:
 Gaussian 16, Revision A.03,
 M. J. Frisch, G. W. Trucks, H. B. Schlegel, G. E. Scuseria, 
 M. A. Robb, J. R. Cheeseman, G. Scalmani, V. Barone, 
 G. A. Petersson, H. Nakatsuji, X. Li, M. Caricato, A. V. Marenich, 
 J. Bloino, B. G. Janesko, R. Gomperts, B. Mennucci, H. P. Hratchian, 
 J. V. Ortiz, A. F. Izmaylov, J. L. Sonnenberg, D. Williams-Young, 
 F. Ding, F. Lipparini, F. Egidi, J. Goings, B. Peng, A. Petrone, 
 T. Henderson, D. Ranasinghe, V. G. Zakrzewski, J. Gao, N. Rega, 
 G. Zheng, W. Liang, M. Hada, M. Ehara, K. Toyota, R. Fukuda, 
 J. Hasegawa, M. Ishida, T. Nakajima, Y. Honda, O. Kitao, H. Nakai, 
 T. Vreven, K. Throssell, J. A. Montgomery, Jr., J. E. Peralta, 
 F. Ogliaro, M. J. Bearpark, J. J. Heyd, E. N. Brothers, K. N. Kudin, 
 V. N. Staroverov, T. A. Keith, R. Kobayashi, J. Normand, 
 K. Raghavachari, A. P. Rendell, J. C. Burant, S. S. Iyengar, 
 J. Tomasi, M. Cossi, J. M. Millam, M. Klene, C. Adamo, R. Cammi, 
 J. W. Ochterski, R. L. Martin, K. Morokuma, O. Farkas, 
 J. B. Foresman, and D. J. Fox, Gaussian, Inc., Wallingford CT, 2016.
 
 ******************************************
 Gaussian 16:  EM64L-G16RevA.03 25-Dec-2016
                27-Jun-2023 
 ******************************************
 %chk=DVE-DMSD_1_00004_gaussian.chk
 %nproc=8
 Will use up to    8 processors via shared memory.
 %mem=2000Mb
 -------------------------------------
 #p opt cam-b3lyp/6-31G* pop=Hirshfeld
 -------------------------------------
 1/18=20,19=15,26=3,38=1/1,3;
 2/9=110,12=2,17=6,18=5,40=1/2;
 3/5=1,6=6,7=1,11=2,25=1,30=1,71=1,74=-40/1,2,3;
 4//1;
 5/5=2,38=5/2;
 6/7=2,8=2,9=2,10=2,28=1,79=1/1;
 7//1,2,3,16;
 1/18=20,19=15,26=3/3(2);
 2/9=110/2;
 99//99;
 2/9=110/2;
 3/5=1,6=6,7=1,11=2,25=1,30=1,71=1,74=-40/1,2,3;
 4/5=5,16=3,69=1/1;
 5/5=2,38=5/2;
 7//1,2,3,16;
 1/18=20,19=15,26=3/3(-5);
 2/9=110/2;
 6/7=2,8=2,9=2,10=2,19=2,28=1,79=1/1;
 99/9=1/99;
 Leave Link    1 at Tue Jun 27 19:48:12 2023, MaxMem=   262144000 cpu:               0.2 elap:               0.0
 (Enter /dragofs/sw/campus/0.2/software/gaussian/16.gaussian/gaussian/g16_legacy/l101.exe)
 ----------------------------------------------------
 Conformer number 00004. Energy MM = 144.456 kcal/mol
 ----------------------------------------------------
 Symbolic Z-matrix:
 Charge =  0 Multiplicity = 1
 C                    -7.9152    0.2991    1.2389 
 H                    -6.9568   -0.0976    1.6064 
 H                    -7.9398    1.3771    1.5733 
 H                    -8.7518   -0.2851    1.632 
 C                    -7.8636    0.3165   -0.271 
 H                    -8.9342    0.4884   -0.6156 
 H                    -7.3249    1.199    -0.6017 
 O                    -7.4455   -0.8525   -0.8263 
 C                    -6.2189   -1.3276   -0.5021 
 H                    -6.0942   -2.3068   -1.0515 
 H                    -6.085    -1.6172    0.5719 
 C                    -5.0422   -0.4406   -0.8444 
 H                    -4.1434   -0.9789   -0.4079 
 H                    -4.8471   -0.3734   -1.9275 
 O                    -5.104     0.7806   -0.2132 
 C                    -4.1201    1.6785   -0.4708 
 H                    -4.3569    2.5943    0.1596 
 H                    -4.1625    2.0915   -1.5188 
 C                    -2.7222    1.3088   -0.1365 
 H                    -2.5512    1.2475    0.9644 
 H                    -2.068     2.1716   -0.4549 
 O                    -2.2758    0.1952   -0.8063 
 C                    -0.9622   -0.0617   -0.4097 
 H                    -0.9386   -0.1606    0.6758 
 H                    -0.3217    0.8113   -0.7273 
 C                    -0.4279   -1.2964   -1.1267 
 H                    -0.4546   -1.0999   -2.215 
 H                    -1.0698   -2.1307   -0.8531 
 S                     1.284    -1.5436   -0.5368 
 C                     2.3366   -0.1657   -1.0954 
 H                     2.2826   -0.0451   -2.2021 
 H                     1.9375    0.7754   -0.6587 
 C                     3.7418   -0.3726   -0.6072 
 H                     4.1434   -1.3018   -1.0354 
 H                     3.7007   -0.4007    0.5031 
 S                     4.7409    1.0242   -1.1958 
 C                     6.4549    0.7599   -0.5987 
 H                     7.1027    1.5158   -1.0775 
 H                     6.7049   -0.2757   -0.9391 
 C                     6.4209    0.8738    0.8997 
 H                     6.1021    1.9333    1.1179 
 H                     5.6599    0.1513    1.2831 
 S                     8.0208    0.659     1.6907 
 C                     8.7009   -0.9889    1.5326 
 H                     9.6478   -1.0388    2.1453 
 H                     8.0299   -1.7631    1.9613 
 C                     9.0756   -1.3762    0.1351 
 H                     10.1132  -1.7756    0.0743 
 H                     8.3732   -2.156    -0.2211 
 H                     9.0402   -0.5417   -0.5959 
 
 ITRead=  0  0  0  0  0  0  0  0  0  0  0  0  0  0  0  0  0  0  0  0
 ITRead=  0  0  0  0  0  0  0  0  0  0  0  0  0  0  0  0  0  0  0  0
 ITRead=  0  0  0  0  0  0  0  0  0  0
 MicOpt= -1 -1 -1 -1 -1 -1 -1 -1 -1 -1 -1 -1 -1 -1 -1 -1 -1 -1 -1 -1
 MicOpt= -1 -1 -1 -1 -1 -1 -1 -1 -1 -1 -1 -1 -1 -1 -1 -1 -1 -1 -1 -1
 MicOpt= -1 -1 -1 -1 -1 -1 -1 -1 -1 -1
 NAtoms=     50 NQM=       50 NQMF=       0 NMMI=      0 NMMIF=      0
                NMic=       0 NMicF=      0.
                    Isotopes and Nuclear Properties:
 (Nuclear quadrupole moments (NQMom) in fm**2, nuclear magnetic moments (NMagM)
  in nuclear magnetons)

  Atom         1           2           3           4           5           6           7           8           9          10
 IAtWgt=          12           1           1           1          12           1           1          16          12           1
 AtmWgt=  12.0000000   1.0078250   1.0078250   1.0078250  12.0000000   1.0078250   1.0078250  15.9949146  12.0000000   1.0078250
 NucSpn=           0           1           1           1           0           1           1           0           0           1
 AtZEff=  -0.0000000  -0.0000000  -0.0000000  -0.0000000  -0.0000000  -0.0000000  -0.0000000  -0.0000000  -0.0000000  -0.0000000
 NQMom=    0.0000000   0.0000000   0.0000000   0.0000000   0.0000000   0.0000000   0.0000000   0.0000000   0.0000000   0.0000000
 NMagM=    0.0000000   2.7928460   2.7928460   2.7928460   0.0000000   2.7928460   2.7928460   0.0000000   0.0000000   2.7928460
 AtZNuc=   6.0000000   1.0000000   1.0000000   1.0000000   6.0000000   1.0000000   1.0000000   8.0000000   6.0000000   1.0000000

  Atom        11          12          13          14          15          16          17          18          19          20
 IAtWgt=           1          12           1           1          16          12           1           1          12           1
 AtmWgt=   1.0078250  12.0000000   1.0078250   1.0078250  15.9949146  12.0000000   1.0078250   1.0078250  12.0000000   1.0078250
 NucSpn=           1           0           1           1           0           0           1           1           0           1
 AtZEff=  -0.0000000  -0.0000000  -0.0000000  -0.0000000  -0.0000000  -0.0000000  -0.0000000  -0.0000000  -0.0000000  -0.0000000
 NQMom=    0.0000000   0.0000000   0.0000000   0.0000000   0.0000000   0.0000000   0.0000000   0.0000000   0.0000000   0.0000000
 NMagM=    2.7928460   0.0000000   2.7928460   2.7928460   0.0000000   0.0000000   2.7928460   2.7928460   0.0000000   2.7928460
 AtZNuc=   1.0000000   6.0000000   1.0000000   1.0000000   8.0000000   6.0000000   1.0000000   1.0000000   6.0000000   1.0000000

  Atom        21          22          23          24          25          26          27          28          29          30
 IAtWgt=           1          16          12           1           1          12           1           1          32          12
 AtmWgt=   1.0078250  15.9949146  12.0000000   1.0078250   1.0078250  12.0000000   1.0078250   1.0078250  31.9720718  12.0000000
 NucSpn=           1           0           0           1           1           0           1           1           0           0
 AtZEff=  -0.0000000  -0.0000000  -0.0000000  -0.0000000  -0.0000000  -0.0000000  -0.0000000  -0.0000000  -0.0000000  -0.0000000
 NQMom=    0.0000000   0.0000000   0.0000000   0.0000000   0.0000000   0.0000000   0.0000000   0.0000000   0.0000000   0.0000000
 NMagM=    2.7928460   0.0000000   0.0000000   2.7928460   2.7928460   0.0000000   2.7928460   2.7928460   0.0000000   0.0000000
 AtZNuc=   1.0000000   8.0000000   6.0000000   1.0000000   1.0000000   6.0000000   1.0000000   1.0000000  16.0000000   6.0000000

  Atom        31          32          33          34          35          36          37          38          39          40
 IAtWgt=           1           1          12           1           1          32          12           1           1          12
 AtmWgt=   1.0078250   1.0078250  12.0000000   1.0078250   1.0078250  31.9720718  12.0000000   1.0078250   1.0078250  12.0000000
 NucSpn=           1           1           0           1           1           0           0           1           1           0
 AtZEff=  -0.0000000  -0.0000000  -0.0000000  -0.0000000  -0.0000000  -0.0000000  -0.0000000  -0.0000000  -0.0000000  -0.0000000
 NQMom=    0.0000000   0.0000000   0.0000000   0.0000000   0.0000000   0.0000000   0.0000000   0.0000000   0.0000000   0.0000000
 NMagM=    2.7928460   2.7928460   0.0000000   2.7928460   2.7928460   0.0000000   0.0000000   2.7928460   2.7928460   0.0000000
 AtZNuc=   1.0000000   1.0000000   6.0000000   1.0000000   1.0000000  16.0000000   6.0000000   1.0000000   1.0000000   6.0000000

  Atom        41          42          43          44          45          46          47          48          49          50
 IAtWgt=           1           1          32          12           1           1          12           1           1           1
 AtmWgt=   1.0078250   1.0078250  31.9720718  12.0000000   1.0078250   1.0078250  12.0000000   1.0078250   1.0078250   1.0078250
 NucSpn=           1           1           0           0           1           1           0           1           1           1
 AtZEff=  -0.0000000  -0.0000000  -0.0000000  -0.0000000  -0.0000000  -0.0000000  -0.0000000  -0.0000000  -0.0000000  -0.0000000
 NQMom=    0.0000000   0.0000000   0.0000000   0.0000000   0.0000000   0.0000000   0.0000000   0.0000000   0.0000000   0.0000000
 NMagM=    2.7928460   2.7928460   0.0000000   0.0000000   2.7928460   2.7928460   0.0000000   2.7928460   2.7928460   2.7928460
 AtZNuc=   1.0000000   1.0000000  16.0000000   6.0000000   1.0000000   1.0000000   6.0000000   1.0000000   1.0000000   1.0000000
 Leave Link  101 at Tue Jun 27 19:48:12 2023, MaxMem=   262144000 cpu:               1.0 elap:               0.1
 (Enter /dragofs/sw/campus/0.2/software/gaussian/16.gaussian/gaussian/g16_legacy/l103.exe)

 GradGradGradGradGradGradGradGradGradGradGradGradGradGradGradGradGradGrad
 Berny optimization.
 Initialization pass.
                           ----------------------------
                           !    Initial Parameters    !
                           ! (Angstroms and Degrees)  !
 --------------------------                            --------------------------
 ! Name  Definition              Value          Derivative Info.                !
 --------------------------------------------------------------------------------
 ! R1    R(1,2)                  1.1004         estimate D2E/DX2                !
 ! R2    R(1,3)                  1.1289         estimate D2E/DX2                !
 ! R3    R(1,4)                  1.0935         estimate D2E/DX2                !
 ! R4    R(1,5)                  1.5109         estimate D2E/DX2                !
 ! R5    R(5,6)                  1.1378         estimate D2E/DX2                !
 ! R6    R(5,7)                  1.0855         estimate D2E/DX2                !
 ! R7    R(5,8)                  1.36           estimate D2E/DX2                !
 ! R8    R(8,9)                  1.3548         estimate D2E/DX2                !
 ! R9    R(9,10)                 1.1297         estimate D2E/DX2                !
 ! R10   R(9,11)                 1.1204         estimate D2E/DX2                !
 ! R11   R(9,12)                 1.5128         estimate D2E/DX2                !
 ! R12   R(12,13)                1.135          estimate D2E/DX2                !
 ! R13   R(12,14)                1.1026         estimate D2E/DX2                !
 ! R14   R(12,15)                1.3761         estimate D2E/DX2                !
 ! R15   R(15,16)                1.3567         estimate D2E/DX2                !
 ! R16   R(16,17)                1.1367         estimate D2E/DX2                !
 ! R17   R(16,18)                1.1272         estimate D2E/DX2                !
 ! R18   R(16,19)                1.4841         estimate D2E/DX2                !
 ! R19   R(19,20)                1.1158         estimate D2E/DX2                !
 ! R20   R(19,21)                1.1286         estimate D2E/DX2                !
 ! R21   R(19,22)                1.374          estimate D2E/DX2                !
 ! R22   R(22,23)                1.396          estimate D2E/DX2                !
 ! R23   R(23,24)                1.0903         estimate D2E/DX2                !
 ! R24   R(23,25)                1.1284         estimate D2E/DX2                !
 ! R25   R(23,26)                1.5245         estimate D2E/DX2                !
 ! R26   R(26,27)                1.1062         estimate D2E/DX2                !
 ! R27   R(26,28)                1.0876         estimate D2E/DX2                !
 ! R28   R(26,29)                1.8275         estimate D2E/DX2                !
 ! R29   R(29,30)                1.8217         estimate D2E/DX2                !
 ! R30   R(30,31)                1.1146         estimate D2E/DX2                !
 ! R31   R(30,32)                1.1116         estimate D2E/DX2                !
 ! R32   R(30,33)                1.5019         estimate D2E/DX2                !
 ! R33   R(33,34)                1.0991         estimate D2E/DX2                !
 ! R34   R(33,35)                1.1114         estimate D2E/DX2                !
 ! R35   R(33,36)                1.8154         estimate D2E/DX2                !
 ! R36   R(36,37)                1.8342         estimate D2E/DX2                !
 ! R37   R(37,38)                1.1047         estimate D2E/DX2                !
 ! R38   R(37,39)                1.1184         estimate D2E/DX2                !
 ! R39   R(37,40)                1.5031         estimate D2E/DX2                !
 ! R40   R(40,41)                1.1277         estimate D2E/DX2                !
 ! R41   R(40,42)                1.1172         estimate D2E/DX2                !
 ! R42   R(40,43)                1.7976         estimate D2E/DX2                !
 ! R43   R(43,44)                1.7897         estimate D2E/DX2                !
 ! R44   R(44,45)                1.1289         estimate D2E/DX2                !
 ! R45   R(44,46)                1.1106         estimate D2E/DX2                !
 ! R46   R(44,47)                1.4978         estimate D2E/DX2                !
 ! R47   R(47,48)                1.1135         estimate D2E/DX2                !
 ! R48   R(47,49)                1.1083         estimate D2E/DX2                !
 ! R49   R(47,50)                1.11           estimate D2E/DX2                !
 ! A1    A(2,1,3)              105.3244         estimate D2E/DX2                !
 ! A2    A(2,1,4)              110.7122         estimate D2E/DX2                !
 ! A3    A(2,1,5)              107.9477         estimate D2E/DX2                !
 ! A4    A(3,1,4)              112.7674         estimate D2E/DX2                !
 ! A5    A(3,1,5)              106.6044         estimate D2E/DX2                !
 ! A6    A(4,1,5)              113.0503         estimate D2E/DX2                !
 ! A7    A(1,5,6)              105.8002         estimate D2E/DX2                !
 ! A8    A(1,5,7)              109.3148         estimate D2E/DX2                !
 ! A9    A(1,5,8)              114.1188         estimate D2E/DX2                !
 ! A10   A(6,5,7)              104.588          estimate D2E/DX2                !
 ! A11   A(6,5,8)              107.1858         estimate D2E/DX2                !
 ! A12   A(7,5,8)              114.9501         estimate D2E/DX2                !
 ! A13   A(5,8,9)              118.8198         estimate D2E/DX2                !
 ! A14   A(8,9,10)             106.7102         estimate D2E/DX2                !
 ! A15   A(8,9,11)             115.3565         estimate D2E/DX2                !
 ! A16   A(8,9,12)             116.3901         estimate D2E/DX2                !
 ! A17   A(10,9,11)            103.2352         estimate D2E/DX2                !
 ! A18   A(10,9,12)            108.199          estimate D2E/DX2                !
 ! A19   A(11,9,12)            105.9916         estimate D2E/DX2                !
 ! A20   A(9,12,13)            104.5288         estimate D2E/DX2                !
 ! A21   A(9,12,14)            113.3061         estimate D2E/DX2                !
 ! A22   A(9,12,15)            112.4341         estimate D2E/DX2                !
 ! A23   A(13,12,14)           105.4607         estimate D2E/DX2                !
 ! A24   A(13,12,15)           106.264          estimate D2E/DX2                !
 ! A25   A(14,12,15)           113.8568         estimate D2E/DX2                !
 ! A26   A(12,15,16)           117.8836         estimate D2E/DX2                !
 ! A27   A(15,16,17)           106.0706         estimate D2E/DX2                !
 ! A28   A(15,16,18)           113.062          estimate D2E/DX2                !
 ! A29   A(15,16,19)           118.3891         estimate D2E/DX2                !
 ! A30   A(17,16,18)           102.2735         estimate D2E/DX2                !
 ! A31   A(17,16,19)           105.7826         estimate D2E/DX2                !
 ! A32   A(18,16,19)           109.6405         estimate D2E/DX2                !
 ! A33   A(16,19,20)           112.3515         estimate D2E/DX2                !
 ! A34   A(16,19,21)           106.9775         estimate D2E/DX2                !
 ! A35   A(16,19,22)           113.4591         estimate D2E/DX2                !
 ! A36   A(20,19,21)           103.3864         estimate D2E/DX2                !
 ! A37   A(20,19,22)           112.746          estimate D2E/DX2                !
 ! A38   A(21,19,22)           107.0816         estimate D2E/DX2                !
 ! A39   A(19,22,23)           108.4428         estimate D2E/DX2                !
 ! A40   A(22,23,24)           108.6581         estimate D2E/DX2                !
 ! A41   A(22,23,25)           108.1667         estimate D2E/DX2                !
 ! A42   A(22,23,26)           110.1951         estimate D2E/DX2                !
 ! A43   A(24,23,25)           109.7633         estimate D2E/DX2                !
 ! A44   A(24,23,26)           112.7815         estimate D2E/DX2                !
 ! A45   A(25,23,26)           107.1749         estimate D2E/DX2                !
 ! A46   A(23,26,27)           108.0821         estimate D2E/DX2                !
 ! A47   A(23,26,28)           107.224          estimate D2E/DX2                !
 ! A48   A(23,26,29)           106.6217         estimate D2E/DX2                !
 ! A49   A(27,26,28)           111.6843         estimate D2E/DX2                !
 ! A50   A(27,26,29)           111.3585         estimate D2E/DX2                !
 ! A51   A(28,26,29)           111.5856         estimate D2E/DX2                !
 ! A52   A(26,29,30)           109.8751         estimate D2E/DX2                !
 ! A53   A(29,30,31)           110.9972         estimate D2E/DX2                !
 ! A54   A(29,30,32)           108.2068         estimate D2E/DX2                !
 ! A55   A(29,30,33)           109.678          estimate D2E/DX2                !
 ! A56   A(31,30,32)           106.3249         estimate D2E/DX2                !
 ! A57   A(31,30,33)           112.5194         estimate D2E/DX2                !
 ! A58   A(32,30,33)           108.956          estimate D2E/DX2                !
 ! A59   A(30,33,34)           109.371          estimate D2E/DX2                !
 ! A60   A(30,33,35)           107.0742         estimate D2E/DX2                !
 ! A61   A(30,33,36)           107.6694         estimate D2E/DX2                !
 ! A62   A(34,33,35)           112.4163         estimate D2E/DX2                !
 ! A63   A(34,33,36)           108.8486         estimate D2E/DX2                !
 ! A64   A(35,33,36)           111.3279         estimate D2E/DX2                !
 ! A65   A(33,36,37)           107.3296         estimate D2E/DX2                !
 ! A66   A(36,37,38)           107.9567         estimate D2E/DX2                !
 ! A67   A(36,37,39)           104.0774         estimate D2E/DX2                !
 ! A68   A(36,37,40)           107.0056         estimate D2E/DX2                !
 ! A69   A(38,37,39)           111.7533         estimate D2E/DX2                !
 ! A70   A(38,37,40)           113.1719         estimate D2E/DX2                !
 ! A71   A(39,37,40)           112.2488         estimate D2E/DX2                !
 ! A72   A(37,40,41)           105.6919         estimate D2E/DX2                !
 ! A73   A(37,40,42)           107.9694         estimate D2E/DX2                !
 ! A74   A(37,40,43)           114.1708         estimate D2E/DX2                !
 ! A75   A(41,40,42)           110.4028         estimate D2E/DX2                !
 ! A76   A(41,40,43)           106.1837         estimate D2E/DX2                !
 ! A77   A(42,40,43)           112.2074         estimate D2E/DX2                !
 ! A78   A(40,43,44)           114.1643         estimate D2E/DX2                !
 ! A79   A(43,44,45)           108.1486         estimate D2E/DX2                !
 ! A80   A(43,44,46)           112.2207         estimate D2E/DX2                !
 ! A81   A(43,44,47)           114.5555         estimate D2E/DX2                !
 ! A82   A(45,44,46)           105.4531         estimate D2E/DX2                !
 ! A83   A(45,44,47)           106.566          estimate D2E/DX2                !
 ! A84   A(46,44,47)           109.3326         estimate D2E/DX2                !
 ! A85   A(44,47,48)           112.1367         estimate D2E/DX2                !
 ! A86   A(44,47,49)           108.8602         estimate D2E/DX2                !
 ! A87   A(44,47,50)           114.3365         estimate D2E/DX2                !
 ! A88   A(48,47,49)           108.7021         estimate D2E/DX2                !
 ! A89   A(48,47,50)           105.2741         estimate D2E/DX2                !
 ! A90   A(49,47,50)           107.2842         estimate D2E/DX2                !
 ! D1    D(2,1,5,6)            166.8071         estimate D2E/DX2                !
 ! D2    D(2,1,5,7)            -81.0729         estimate D2E/DX2                !
 ! D3    D(2,1,5,8)             49.2173         estimate D2E/DX2                !
 ! D4    D(3,1,5,6)            -80.4573         estimate D2E/DX2                !
 ! D5    D(3,1,5,7)             31.6627         estimate D2E/DX2                !
 ! D6    D(3,1,5,8)            161.9529         estimate D2E/DX2                !
 ! D7    D(4,1,5,6)             43.9975         estimate D2E/DX2                !
 ! D8    D(4,1,5,7)            156.1174         estimate D2E/DX2                !
 ! D9    D(4,1,5,8)            -73.5924         estimate D2E/DX2                !
 ! D10   D(1,5,8,9)            -59.2174         estimate D2E/DX2                !
 ! D11   D(6,5,8,9)           -176.0086         estimate D2E/DX2                !
 ! D12   D(7,5,8,9)             68.2273         estimate D2E/DX2                !
 ! D13   D(5,8,9,10)           178.6588         estimate D2E/DX2                !
 ! D14   D(5,8,9,11)            64.6549         estimate D2E/DX2                !
 ! D15   D(5,8,9,12)           -60.4783         estimate D2E/DX2                !
 ! D16   D(8,9,12,13)          175.015          estimate D2E/DX2                !
 ! D17   D(8,9,12,14)          -70.6865         estimate D2E/DX2                !
 ! D18   D(8,9,12,15)           60.1804         estimate D2E/DX2                !
 ! D19   D(10,9,12,13)         -64.918          estimate D2E/DX2                !
 ! D20   D(10,9,12,14)          49.3806         estimate D2E/DX2                !
 ! D21   D(10,9,12,15)        -179.7526         estimate D2E/DX2                !
 ! D22   D(11,9,12,13)          45.2593         estimate D2E/DX2                !
 ! D23   D(11,9,12,14)         159.5578         estimate D2E/DX2                !
 ! D24   D(11,9,12,15)         -69.5753         estimate D2E/DX2                !
 ! D25   D(9,12,15,16)        -178.2604         estimate D2E/DX2                !
 ! D26   D(13,12,15,16)         67.963          estimate D2E/DX2                !
 ! D27   D(14,12,15,16)        -47.6728         estimate D2E/DX2                !
 ! D28   D(12,15,16,17)       -179.0602         estimate D2E/DX2                !
 ! D29   D(12,15,16,18)         69.6496         estimate D2E/DX2                !
 ! D30   D(12,15,16,19)        -60.5422         estimate D2E/DX2                !
 ! D31   D(15,16,19,20)        -68.8655         estimate D2E/DX2                !
 ! D32   D(15,16,19,21)        178.3502         estimate D2E/DX2                !
 ! D33   D(15,16,19,22)         60.4924         estimate D2E/DX2                !
 ! D34   D(17,16,19,20)         49.8033         estimate D2E/DX2                !
 ! D35   D(17,16,19,21)        -62.981          estimate D2E/DX2                !
 ! D36   D(17,16,19,22)        179.1612         estimate D2E/DX2                !
 ! D37   D(18,16,19,20)        159.4016         estimate D2E/DX2                !
 ! D38   D(18,16,19,21)         46.6173         estimate D2E/DX2                !
 ! D39   D(18,16,19,22)        -71.2406         estimate D2E/DX2                !
 ! D40   D(16,19,22,23)       -179.6182         estimate D2E/DX2                !
 ! D41   D(20,19,22,23)        -50.4608         estimate D2E/DX2                !
 ! D42   D(21,19,22,23)         62.5844         estimate D2E/DX2                !
 ! D43   D(19,22,23,24)         55.7378         estimate D2E/DX2                !
 ! D44   D(19,22,23,25)        -63.3675         estimate D2E/DX2                !
 ! D45   D(19,22,23,26)        179.7709         estimate D2E/DX2                !
 ! D46   D(22,23,26,27)         60.2994         estimate D2E/DX2                !
 ! D47   D(22,23,26,28)        -60.2418         estimate D2E/DX2                !
 ! D48   D(22,23,26,29)       -179.879          estimate D2E/DX2                !
 ! D49   D(24,23,26,27)       -178.0862         estimate D2E/DX2                !
 ! D50   D(24,23,26,28)         61.3726         estimate D2E/DX2                !
 ! D51   D(24,23,26,29)        -58.2646         estimate D2E/DX2                !
 ! D52   D(25,23,26,27)        -57.1779         estimate D2E/DX2                !
 ! D53   D(25,23,26,28)       -177.7191         estimate D2E/DX2                !
 ! D54   D(25,23,26,29)         62.6437         estimate D2E/DX2                !
 ! D55   D(23,26,29,30)        -66.2367         estimate D2E/DX2                !
 ! D56   D(27,26,29,30)         51.4439         estimate D2E/DX2                !
 ! D57   D(28,26,29,30)        176.9917         estimate D2E/DX2                !
 ! D58   D(26,29,30,31)        -55.0984         estimate D2E/DX2                !
 ! D59   D(26,29,30,32)         61.2088         estimate D2E/DX2                !
 ! D60   D(26,29,30,33)        179.9463         estimate D2E/DX2                !
 ! D61   D(29,30,33,34)         61.7423         estimate D2E/DX2                !
 ! D62   D(29,30,33,35)        -60.3201         estimate D2E/DX2                !
 ! D63   D(29,30,33,36)        179.868          estimate D2E/DX2                !
 ! D64   D(31,30,33,34)        -62.3295         estimate D2E/DX2                !
 ! D65   D(31,30,33,35)        175.6082         estimate D2E/DX2                !
 ! D66   D(31,30,33,36)         55.7963         estimate D2E/DX2                !
 ! D67   D(32,30,33,34)       -179.984          estimate D2E/DX2                !
 ! D68   D(32,30,33,35)         57.9537         estimate D2E/DX2                !
 ! D69   D(32,30,33,36)        -61.8583         estimate D2E/DX2                !
 ! D70   D(30,33,36,37)       -179.8465         estimate D2E/DX2                !
 ! D71   D(34,33,36,37)        -61.3845         estimate D2E/DX2                !
 ! D72   D(35,33,36,37)         63.077          estimate D2E/DX2                !
 ! D73   D(33,36,37,38)        171.4136         estimate D2E/DX2                !
 ! D74   D(33,36,37,39)         52.5374         estimate D2E/DX2                !
 ! D75   D(33,36,37,40)        -66.4681         estimate D2E/DX2                !
 ! D76   D(36,37,40,41)        -63.1603         estimate D2E/DX2                !
 ! D77   D(36,37,40,42)         54.9909         estimate D2E/DX2                !
 ! D78   D(36,37,40,43)       -179.4822         estimate D2E/DX2                !
 ! D79   D(38,37,40,41)         55.6289         estimate D2E/DX2                !
 ! D80   D(38,37,40,42)        173.7801         estimate D2E/DX2                !
 ! D81   D(38,37,40,43)        -60.693          estimate D2E/DX2                !
 ! D82   D(39,37,40,41)       -176.7341         estimate D2E/DX2                !
 ! D83   D(39,37,40,42)        -58.5829         estimate D2E/DX2                !
 ! D84   D(39,37,40,43)         66.9441         estimate D2E/DX2                !
 ! D85   D(37,40,43,44)        -66.3402         estimate D2E/DX2                !
 ! D86   D(41,40,43,44)        177.6236         estimate D2E/DX2                !
 ! D87   D(42,40,43,44)         56.922          estimate D2E/DX2                !
 ! D88   D(40,43,44,45)       -174.5534         estimate D2E/DX2                !
 ! D89   D(40,43,44,46)        -58.6534         estimate D2E/DX2                !
 ! D90   D(40,43,44,47)         66.7842         estimate D2E/DX2                !
 ! D91   D(43,44,47,48)        129.2101         estimate D2E/DX2                !
 ! D92   D(43,44,47,49)       -110.4739         estimate D2E/DX2                !
 ! D93   D(43,44,47,50)          9.4658         estimate D2E/DX2                !
 ! D94   D(45,44,47,48)          9.6592         estimate D2E/DX2                !
 ! D95   D(45,44,47,49)        129.9752         estimate D2E/DX2                !
 ! D96   D(45,44,47,50)       -110.0851         estimate D2E/DX2                !
 ! D97   D(46,44,47,48)       -103.8541         estimate D2E/DX2                !
 ! D98   D(46,44,47,49)         16.4619         estimate D2E/DX2                !
 ! D99   D(46,44,47,50)        136.4016         estimate D2E/DX2                !
 --------------------------------------------------------------------------------
 Trust Radius=3.00D-01 FncErr=1.00D-07 GrdErr=1.00D-06 EigMax=2.50D+02 EigMin=1.00D-04
 Number of steps in this run=    248 maximum allowed number of steps=    300.
 GradGradGradGradGradGradGradGradGradGradGradGradGradGradGradGradGradGrad

 Leave Link  103 at Tue Jun 27 19:48:12 2023, MaxMem=   262144000 cpu:               0.1 elap:               0.0
 (Enter /dragofs/sw/campus/0.2/software/gaussian/16.gaussian/gaussian/g16_legacy/l202.exe)
                          Input orientation:                          
 ---------------------------------------------------------------------
 Center     Atomic      Atomic             Coordinates (Angstroms)
 Number     Number       Type             X           Y           Z
 ---------------------------------------------------------------------
      1          6           0       -7.915200    0.299100    1.238900
      2          1           0       -6.956800   -0.097600    1.606400
      3          1           0       -7.939800    1.377100    1.573300
      4          1           0       -8.751800   -0.285100    1.632000
      5          6           0       -7.863600    0.316500   -0.271000
      6          1           0       -8.934200    0.488400   -0.615600
      7          1           0       -7.324900    1.199000   -0.601700
      8          8           0       -7.445500   -0.852500   -0.826300
      9          6           0       -6.218900   -1.327600   -0.502100
     10          1           0       -6.094200   -2.306800   -1.051500
     11          1           0       -6.085000   -1.617200    0.571900
     12          6           0       -5.042200   -0.440600   -0.844400
     13          1           0       -4.143400   -0.978900   -0.407900
     14          1           0       -4.847100   -0.373400   -1.927500
     15          8           0       -5.104000    0.780600   -0.213200
     16          6           0       -4.120100    1.678500   -0.470800
     17          1           0       -4.356900    2.594300    0.159600
     18          1           0       -4.162500    2.091500   -1.518800
     19          6           0       -2.722200    1.308800   -0.136500
     20          1           0       -2.551200    1.247500    0.964400
     21          1           0       -2.068000    2.171600   -0.454900
     22          8           0       -2.275800    0.195200   -0.806300
     23          6           0       -0.962200   -0.061700   -0.409700
     24          1           0       -0.938600   -0.160600    0.675800
     25          1           0       -0.321700    0.811300   -0.727300
     26          6           0       -0.427900   -1.296400   -1.126700
     27          1           0       -0.454600   -1.099900   -2.215000
     28          1           0       -1.069800   -2.130700   -0.853100
     29         16           0        1.284000   -1.543600   -0.536800
     30          6           0        2.336600   -0.165700   -1.095400
     31          1           0        2.282600   -0.045100   -2.202100
     32          1           0        1.937500    0.775400   -0.658700
     33          6           0        3.741800   -0.372600   -0.607200
     34          1           0        4.143400   -1.301800   -1.035400
     35          1           0        3.700700   -0.400700    0.503100
     36         16           0        4.740900    1.024200   -1.195800
     37          6           0        6.454900    0.759900   -0.598700
     38          1           0        7.102700    1.515800   -1.077500
     39          1           0        6.704900   -0.275700   -0.939100
     40          6           0        6.420900    0.873800    0.899700
     41          1           0        6.102100    1.933300    1.117900
     42          1           0        5.659900    0.151300    1.283100
     43         16           0        8.020800    0.659000    1.690700
     44          6           0        8.700900   -0.988900    1.532600
     45          1           0        9.647800   -1.038800    2.145300
     46          1           0        8.029900   -1.763100    1.961300
     47          6           0        9.075600   -1.376200    0.135100
     48          1           0       10.113200   -1.775600    0.074300
     49          1           0        8.373200   -2.156000   -0.221100
     50          1           0        9.040200   -0.541700   -0.595900
 ---------------------------------------------------------------------
                    Distance matrix (angstroms):
                    1          2          3          4          5
     1  C    0.000000
     2  H    1.100435   0.000000
     3  H    1.128943   1.772604   0.000000
     4  H    1.093488   1.804948   1.850864   0.000000
     5  C    1.510882   2.125652   2.128878   2.184544   0.000000
     6  H    2.124468   3.031632   2.563182   2.383963   1.137754
     7  H    2.132154   2.586962   2.267255   3.037764   1.085526
     8  O    2.410778   2.593594   3.312632   2.841056   1.360047
     9  C    2.924836   2.550131   3.818924   3.472286   2.336987
    10  H    3.918251   3.562173   4.885380   4.283840   3.259089
    11  H    2.732531   2.034554   3.661819   3.163878   2.759184
    12  C    3.625110   3.128860   4.188722   4.462944   2.976959
    13  H    4.309491   3.570618   4.887591   5.087229   3.941661
    14  H    4.459998   4.124967   4.988451   5.284366   3.509876
    15  O    3.200513   2.741359   3.404285   4.224562   2.798950
    16  C    4.385043   3.939055   4.342729   5.452535   3.988578
    17  H    4.369706   4.012360   4.039467   5.456560   4.203657
    18  H    4.990026   4.729392   4.933502   6.052887   4.290195
    19  C    5.466120   4.790355   5.491032   6.482606   5.238009
    20  H    5.454109   4.650889   5.424441   6.421993   5.533043
    21  H    6.369063   5.770493   6.262816   7.420492   6.088037
    22  O    5.999706   5.274335   6.256219   6.936467   5.614692
    23  C    7.154877   6.324648   7.395224   8.055825   6.913147
    24  H    7.014368   6.090051   7.224045   7.872478   7.005689
    25  H    7.860632   7.092024   7.977991   8.822413   7.571875
    26  C    8.012574   7.178683   8.418209   8.827257   7.656586
    27  H    8.339495   7.608305   8.747283   9.181875   7.789647
    28  H    7.559093   6.696223   8.086345   8.282215   7.244539
    29  S    9.548504   8.636840   9.902601  10.344312   9.338587
    30  C   10.524467   9.678411  10.728774  11.419526  10.244815
    31  H   10.768198   9.993695  10.989712  11.684002  10.334664
    32  H   10.045071   9.219619  10.144206  10.983310   9.819494
    33  C   11.821375  10.928664  12.011487  12.692979  11.630701
    34  H   12.375183  11.473606  12.648539  13.207380  12.139656
    35  H   11.660200  10.718743  11.824007  12.504101  11.612349
    36  S   12.908540  12.080850  12.984322  13.847876  12.658180
    37  C   14.494443  13.618791  14.570721  15.404927  14.329111
    38  H   15.244126  14.404024  15.274907  16.184863  15.035920
    39  H   14.792613  13.897962  14.950289  15.669085  14.595830
    40  C   14.351624  13.431526  14.385296  15.234505  14.343224
    41  H   14.112758  13.224903  14.060288  15.027440  14.127415
    42  H   13.575977  12.623296  13.657915  14.422527  13.613507
    43  S   15.946465  14.996935  15.977178  16.799252  16.008739
    44  C   16.668533  15.683221  16.808108  17.467168  16.713459
    45  H   17.637191  16.639982  17.761966  18.422183  17.729198
    46  H   16.094121  15.083137  16.280133  16.849878  16.183672
    47  C   17.108837  16.150461  17.296616  17.923376  17.028407
    48  H   18.184716  17.220567  18.387423  18.987792  18.101421
    49  H   16.536961  15.575162  16.787395  17.326277  16.424050
    50  H   17.075100  16.153989  17.225203  17.932781  16.928689
                    6          7          8          9         10
     6  H    0.000000
     7  H    1.759259   0.000000
     8  O    2.014605   2.067279   0.000000
     9  C    3.268577   2.759867   1.354759   0.000000
    10  H    4.008585   3.742670   1.997928   1.129700   0.000000
    11  H    3.736529   3.293277   2.095397   1.120390   1.763820
    12  C    4.007874   2.820977   2.438409   1.512799   2.152277
    13  H    5.014766   3.860408   3.330901   2.106695   2.446050
    14  H    4.378147   3.220199   2.862492   2.196383   2.461843
    15  O    3.862349   2.293117   2.919851   2.402285   3.348922
    16  C    4.961135   3.243115   4.194118   3.666412   4.485187
    17  H    5.097786   3.366818   4.732006   4.391605   5.339078
    18  H    5.114178   3.411510   4.463718   4.117366   4.826477
    19  C    6.284229   4.627452   5.239905   4.394449   5.027939
    20  H    6.619314   5.024264   5.618788   4.715272   5.408304
    21  H    7.071329   5.348130   6.180665   5.429236   6.051635
    22  O    6.667580   5.151979   5.274834   4.237864   4.571685
    23  C    7.993609   6.489236   6.544624   5.407766   5.638245
    24  H    8.125179   6.653221   6.713775   5.534519   5.845507
    25  H    8.619275   7.015048   7.316185   6.277147   6.568821
    26  C    8.706542   7.353316   7.038039   5.824670   5.756172
    27  H    8.774075   7.422176   7.131786   6.017726   5.883488
    28  H    8.292459   7.090584   6.502620   5.223160   5.031398
    29  S   10.418582   9.035443   8.761598   7.506089   7.435404
    30  C   11.299955   9.769889   9.809872   8.654398   8.698542
    31  H   11.340997   9.819018   9.858025   8.764149   8.752711
    32  H   10.875573   9.272256   9.524644   8.424606   8.611763
    33  C   12.705210  11.177737  11.199732  10.006928  10.034213
    34  H   13.206236  11.745808  11.599491  10.376046  10.286824
    35  H   12.715451  11.195690  11.234287  10.013393  10.099013
    36  S   13.697886  12.081682  12.335594  11.230735  11.336480
    37  C   15.391504  13.786795  13.995455  12.844929  12.926314
    38  H   16.076413  14.438919  14.741848  13.633820  13.739400
    39  H   15.661097  14.111126  14.162600  12.973900  12.959744
    40  C   15.434499  13.831376  14.079639  12.906423  13.059522
    41  H   15.204706  13.556569  13.967035  12.847759  13.093299
    42  H   14.720953  13.162643  13.311976  12.102891  12.233212
    43  S   17.111988  15.525373  15.742502  14.543865  14.681582
    44  C   17.826776  16.314669  16.318371  15.061712  15.076784
    45  H   18.847961  17.338578  17.350678  16.088639  16.113284
    46  H   17.305790  15.846542  15.750807  14.466731  14.452085
    47  C   18.121622  16.617790  16.557334  15.307845  15.244568
    48  H   19.193882  17.702897  17.605997  16.348408  16.255135
    49  H   17.512698  16.057124  15.883849  14.618296  14.491997
    50  H   18.003904  16.457417  16.490239  15.279613  15.243793
                   11         12         13         14         15
    11  H    0.000000
    12  C    2.116064   0.000000
    13  H    2.266549   1.134963   0.000000
    14  H    3.053921   1.102581   1.780732   0.000000
    15  O    2.707063   1.376068   2.014076   2.082436   0.000000
    16  C    3.976141   2.341032   2.658246   2.619312   1.356702
    17  H    4.570892   3.269292   3.624279   3.661083   1.996659
    18  H    4.671348   2.764094   3.265244   2.590646   2.075927
    19  C    4.513505   2.990639   2.706850   3.248489   2.440871
    20  H    4.565994   3.510914   3.061889   4.032562   2.849829
    21  H    5.616548   3.977583   3.772949   4.045859   3.348223
    22  O    4.437819   2.838778   2.241688   2.862163   2.948419
    23  C    5.442995   4.120550   3.310784   4.182502   4.231145
    24  H    5.349571   4.385082   3.480627   4.700939   4.361965
    25  H    6.387579   4.885088   4.232283   4.829414   4.809952
    26  C    5.915314   4.701473   3.797686   4.585034   5.197530
    27  H    6.303635   4.833145   4.109440   4.461448   5.400037
    28  H    5.238944   4.316998   3.312380   4.302375   5.015965
    29  S    7.452301   6.428999   5.458221   6.394826   6.805378
    30  C    8.706899   7.388184   6.566913   7.234713   7.552237
    31  H    8.954513   7.460058   6.736810   7.142535   7.694112
    32  H    8.461644   7.087267   6.333862   6.997170   7.055581
    33  C    9.975235   8.787465   7.910986   8.689787   8.929350
    34  H   10.358719   9.227860   8.316795   9.082228   9.514558
    35  H    9.861264   8.846222   7.917963   8.886701   8.912424
    36  S   11.282813   9.898392   9.141334   9.716914   9.896813
    37  C   12.816786  11.562218  10.741685  11.436139  11.565345
    38  H   13.654730  12.303676  11.538919  12.128038  12.259325
    39  H   12.948524  11.748639  10.884038  11.594619  11.878250
    40  C   12.755786  11.669284  10.804941  11.684023  11.578884
    41  H   12.705494  11.562069  10.760076  11.596564  11.343598
    42  H   11.898574  10.927559  10.012069  10.999105  10.885609
    43  S   14.332006  13.352072  12.452092  13.406717  13.262730
    44  C   14.830393  13.957921  12.990061  13.996408  14.026910
    45  H   15.821856  15.003075  14.025677  15.070918  15.049530
    46  H   14.183868  13.435057  12.426476  13.522986  13.553531
    47  C   15.168806  14.182632  13.236112  14.110333  14.346921
    48  H   16.206615  15.241797  14.286983  15.158626  15.433081
    49  H   14.489952  13.538983  12.573215  13.448635  13.793426
    50  H   15.208292  14.084955  13.192187  13.952010  14.211028
                   16         17         18         19         20
    16  C    0.000000
    17  H    1.136736   0.000000
    18  H    1.127240   1.762846   0.000000
    19  C    1.484102   2.100578   2.144257   0.000000
    20  H    2.169564   2.392097   3.078134   1.115786   0.000000
    21  H    2.110572   2.407353   2.350581   1.128619   1.761209
    22  O    2.390435   3.319581   2.768257   1.374049   2.078114
    23  C    3.606156   4.347692   4.013514   2.247334   2.475293
    24  H    3.849535   4.420488   4.503527   2.449530   2.160212
    25  H    3.904570   4.499836   4.125182   2.521696   2.832453
    26  C    4.786708   5.677073   5.057553   3.609900   3.918230
    27  H    4.919109   5.874843   4.941483   3.906918   4.473768
    28  H    4.894945   5.844332   5.275881   3.882538   4.112188
    29  S    6.292105   7.030430   6.621377   4.934173   4.975198
    30  C    6.743899   7.348168   6.892933   5.355847   5.489126
    31  H    6.852938   7.525093   6.824315   5.581019   5.921415
    32  H    6.127431   6.602839   6.299356   4.719111   4.796432
    33  C    8.126198   8.659066   8.329512   6.695667   6.685544
    34  H    8.802636   9.426703   8.985329   7.399981   7.437459
    35  H    8.150857   8.603077   8.492883   6.677209   6.481945
    36  S    8.914654   9.331253   8.972959   7.543274   7.608617
    37  C   10.615593  10.992500  10.740062   9.205112   9.153735
    38  H   11.240365  11.576528  11.288530   9.872031   9.871126
    39  H   11.009942  11.480743  11.137328   9.592967   9.571773
    40  C   10.660136  10.939325  10.924298   9.211906   8.980112
    41  H   10.348056  10.523590  10.599020   8.934864   8.681790
    42  H   10.052706  10.371441  10.396853   8.579899   8.290078
    43  S   12.373880  12.621296  12.680132  10.916636  10.613248
    44  C   13.247893  13.609945  13.574497  11.770834  11.486257
    45  H   14.275250  14.603905  14.626989  12.795888  12.467449
    46  H   12.860102  13.253900  13.252308  11.377389  11.046140
    47  C   13.558201  14.007053  13.784325  12.102524  11.947971
    48  H   14.656561  15.115790  14.875753  13.202479  13.050611
    49  H   13.070895  13.592856  13.299213  11.624108  11.503553
    50  H   13.346851  13.779970  13.494324  11.915933  11.832004
                   21         22         23         24         25
    21  H    0.000000
    22  O    2.018123   0.000000
    23  C    2.492482   1.396006   0.000000
    24  H    2.827222   2.027639   1.090252   0.000000
    25  H    2.230287   2.050446   1.128379   1.814895   0.000000
    26  C    3.894646   2.396302   1.524483   2.190859   2.147836
    27  H    4.050151   2.641683   2.143508   3.077867   2.425613
    28  H    4.434496   2.620389   2.118712   2.497207   3.038230
    29  S    5.004530   3.970923   2.693993   2.884968   2.856592
    30  C    5.027297   4.635522   3.370917   3.723454   2.855974
    31  H    5.185961   4.773365   3.706980   4.321085   3.113011
    32  H    4.246756   4.255622   3.028365   3.305894   2.260526
    33  C    6.344283   6.047607   4.718398   4.857693   4.234156
    34  H    7.140237   6.595425   5.291172   5.482451   4.949468
    35  H    6.388458   6.147209   4.763482   4.648718   4.377503
    36  S    6.944536   7.076230   5.858539   6.096176   5.088687
    37  C    8.640220   8.751406   7.464859   7.558804   6.778015
    38  H    9.215175   9.474903   8.244821   8.399219   7.465968
    39  H    9.120718   8.994018   7.688334   7.813081   7.113335
    40  C    8.693713   8.888393   7.556445   7.435210   6.936403
    41  H    8.323522   8.769991   7.497861   7.358758   6.777083
    42  H    8.174515   8.206269   6.838359   6.633724   6.344828
    43  S   10.424751  10.605192   9.253398   9.053873   8.687187
    44  C   11.397724  11.285410   9.899885   9.712886   9.473921
    45  H   12.422869  12.345320  10.956954  10.723923  10.538768
    46  H   11.103489  10.849055   9.453796   9.200788   9.143595
    47  C   11.709603  11.498253  10.138153  10.102190   9.687009
    48  H   12.815696  12.575644  11.217673  11.185361  10.780619
    49  H   11.304930  10.921163   9.569292   9.565337   9.201217
    50  H   11.435645  11.341920  10.015642  10.066723   9.460076
                   26         27         28         29         30
    26  C    0.000000
    27  H    1.106220   0.000000
    28  H    1.087635   1.815431   0.000000
    29  S    1.827482   2.456818   2.446448   0.000000
    30  C    2.986959   3.149132   3.939987   1.821705   0.000000
    31  H    3.173176   2.933434   4.172303   2.452739   1.114561
    32  H    3.179072   3.414815   4.186533   2.412402   1.111601
    33  C    4.302288   4.552336   5.128633   2.723413   1.501910
    34  H    4.572215   4.751192   5.281833   2.912600   2.135146
    35  H    4.528119   5.014326   5.252604   2.868458   2.114520
    36  S    5.666256   5.704716   6.620806   4.356379   2.684511
    37  C    7.202783   7.335698   8.064825   5.661109   4.250158
    38  H    8.038708   8.077659   8.951931   6.596177   5.054055
    39  H    7.207902   7.318857   7.993396   5.581718   4.372479
    40  C    7.464725   7.801881   8.258929   5.856202   4.662884
    41  H    7.622998   7.956057   8.475676   6.167735   4.845976
    42  H    6.705541   7.154671   7.420225   5.033212   4.099033
    43  S    9.118216   9.496348   9.843391   7.429514   6.383777
    44  C    9.513224   9.893433  10.122344   7.720137   6.934577
    45  H   10.596795  11.003383  11.182558   8.797820   8.044755
    46  H    9.015982   9.479876   9.532078   7.196933   6.656483
    47  C    9.587232   9.819574  10.221299   7.822308   6.956548
    48  H   10.620114  10.834014  11.227006   8.853363   8.027172
    49  H    8.889229   9.111588   9.464159   7.122602   6.416092
    50  H    9.512951   9.648020  10.237342   7.820865   6.732691
                   31         32         33         34         35
    31  H    0.000000
    32  H    1.781684   0.000000
    33  C    2.186373   2.139172   0.000000
    34  H    2.530427   3.053303   1.099113   0.000000
    35  H    3.074990   2.416995   1.111416   1.837103   0.000000
    36  S    2.863439   2.865210   1.815407   2.406867   2.449207
    37  C    4.541696   4.517825   2.939990   3.127994   3.185369
    38  H    5.189846   5.234776   3.883669   4.086331   4.212466
    39  H    4.604898   4.889943   2.983204   2.761057   3.334784
    40  C    5.252720   4.747543   3.316902   3.696600   3.030038
    41  H    5.433696   4.673428   3.723461   4.351905   3.404740
    42  H    4.857092   4.244567   2.743504   3.128372   2.179809
    43  S    6.969691   6.522252   4.965318   5.129385   4.603979
    44  C    7.485541   7.325171   5.436105   5.240547   5.138857
    45  H    8.610081   8.402527   6.549879   6.362738   6.202579
    46  H    7.301841   7.101107   5.188303   4.929289   4.767017
    47  C    7.306106   7.497464   5.477923   5.069734   5.475087
    48  H    8.336362   8.595752   6.559542   6.090520   6.572243
    49  H    6.743565   7.085396   4.977897   4.391349   5.043590
    50  H    6.963594   7.224060   5.301110   4.974893   5.453251
                   36         37         38         39         40
    36  S    0.000000
    37  C    1.834170   0.000000
    38  H    2.415319   1.104662   0.000000
    39  H    2.369162   1.118409   1.840346   0.000000
    40  C    2.690008   1.503107   2.187769   2.187051   0.000000
    41  H    2.834173   2.109040   2.448528   3.078035   1.127734
    42  H    2.784145   2.131570   3.084796   2.492494   1.117194
    43  S    4.384404   2.775532   3.039728   3.085629   1.797637
    44  C    5.213285   3.556017   3.954793   3.256067   3.011414
    45  H    6.284631   4.578151   4.836316   4.330878   3.952523
    46  H    5.343580   3.924252   4.565653   3.518566   3.266361
    47  C    5.130579   3.459690   3.704915   2.825814   3.562941
    48  H    6.189801   4.501649   4.606850   3.859169   4.618840
    49  H    4.925172   3.510688   3.978656   2.614245   3.774567
    50  H    4.614748   2.894468   2.866906   2.375325   3.331845
                   41         42         43         44         45
    41  H    0.000000
    42  H    1.843463   0.000000
    43  S    2.373468   2.449030   0.000000
    44  C    3.932555   3.257298   1.789722   0.000000
    45  H    4.739295   4.250067   2.395061   1.128942   0.000000
    46  H    4.253364   3.121183   2.437186   1.110590   1.782152
    47  C    4.556357   3.913843   2.770295   1.497801   2.117110
    48  H    5.561831   5.000602   3.594185   2.177183   2.246889
    49  H    4.865510   3.866296   3.421022   2.131894   2.910771
    50  H    4.206562   3.929035   2.776580   2.201278   2.851397
                   46         47         48         49         50
    46  H    0.000000
    47  C    2.139670   0.000000
    48  H    2.810883   1.113477   0.000000
    49  H    2.243902   1.108302   1.805427   0.000000
    50  H    3.008620   1.109957   1.767203   1.786429   0.000000
 Stoichiometry    C14H30O3S3
 Framework group  C1[X(C14H30O3S3)]
 Deg. of freedom   144
 Full point group                 C1      NOp   1
 Largest Abelian subgroup         C1      NOp   1
 Largest concise Abelian subgroup C1      NOp   1
                         Standard orientation:                         
 ---------------------------------------------------------------------
 Center     Atomic      Atomic             Coordinates (Angstroms)
 Number     Number       Type             X           Y           Z
 ---------------------------------------------------------------------
      1          6           0        8.478325   -0.967027    1.617925
      2          1           0        7.500746   -0.718938    2.058094
      3          1           0        8.488060   -2.092331    1.527879
      4          1           0        9.291361   -0.585364    2.241642
      5          6           0        8.506827   -0.420929    0.209476
      6          1           0        9.594634   -0.470815   -0.120176
      7          1           0        7.988763   -1.107795   -0.452484
      8          8           0        8.115604    0.877747    0.108920
      9          6           0        6.872286    1.219324    0.524683
     10          1           0        6.774245    2.334585    0.373674
     11          1           0        6.680907    1.091130    1.621139
     12          6           0        5.717747    0.543590   -0.181706
     13          1           0        4.795650    0.896425    0.378102
     14          1           0        5.580475    0.887261   -1.220326
     15          8           0        5.749291   -0.825613   -0.048105
     16          6           0        4.782823   -1.546277   -0.670379
     17          1           0        4.988346   -2.634740   -0.415080
     18          1           0        4.881783   -1.540707   -1.793253
     19          6           0        3.368193   -1.303331   -0.293075
     20          1           0        3.138953   -1.652785    0.741483
     21          1           0        2.734088   -1.974494   -0.942098
     22          8           0        2.954923   -0.013017   -0.521788
     23          6           0        1.621477    0.100618   -0.124497
     24          1           0        1.540144   -0.210753    0.917176
     25          1           0        1.001037   -0.580547   -0.775887
     26          6           0        1.122607    1.522394   -0.356294
     27          1           0        1.207444    1.744164   -1.436731
     28          1           0        1.746878    2.183973    0.239984
     29         16           0       -0.618793    1.562025    0.196560
     30          6           0       -1.636635    0.508936   -0.886773
     31          1           0       -1.523765    0.807524   -1.954645
     32          1           0       -1.258713   -0.533791   -0.812271
     33          6           0       -3.066272    0.543686   -0.427789
     34          1           0       -3.447109    1.572252   -0.498968
     35          1           0       -3.084120    0.156267    0.613763
     36         16           0       -4.029050   -0.516713   -1.543277
     37          6           0       -5.772974   -0.463851   -0.977491
     38          1           0       -6.392477   -0.976271   -1.735067
     39          1           0       -6.007360    0.628214   -0.920092
     40          6           0       -5.818090   -1.127237    0.370550
     41          1           0       -5.508464   -2.197240    0.194452
     42          1           0       -5.080404   -0.612301    1.032957
     43         16           0       -7.458214   -1.194375    1.103345
     44          6           0       -8.133390    0.405639    1.536008
     45          1           0       -9.111546    0.240483    2.074937
     46          1           0       -7.488114    0.953271    2.255126
     47          6           0       -8.434570    1.291143    0.366144
     48          1           0       -9.468557    1.702338    0.406394
     49          1           0       -7.716376    2.135245    0.361471
     50          1           0       -8.358265    0.787759   -0.620155
 ---------------------------------------------------------------------
 Rotational constants (GHZ):           0.7946310           0.0453003           0.0448688
 Leave Link  202 at Tue Jun 27 19:48:12 2023, MaxMem=   262144000 cpu:               0.0 elap:               0.0
 (Enter /dragofs/sw/campus/0.2/software/gaussian/16.gaussian/gaussian/g16_legacy/l301.exe)
 Standard basis: 6-31G(d) (6D, 7F)
 Ernie: Thresh=  0.10000D-02 Tol=  0.10000D-05 Strict=F.
 There are   372 symmetry adapted cartesian basis functions of A   symmetry.
 There are   372 symmetry adapted basis functions of A   symmetry.
   372 basis functions,   752 primitive gaussians,   372 cartesian basis functions
    93 alpha electrons       93 beta electrons
       nuclear repulsion energy      1893.8480941312 Hartrees.
 IExCor=20419 DFT=T Ex+Corr=CAM-B3LYP ExCW=0 ScaHFX=  1.000000
 ScaDFX=  1.000000  1.000000  1.000000  0.810000 ScalE2=  1.000000  1.000000
 IRadAn=      5 IRanWt=     -1 IRanGd=            0 ICorTp=0 IEmpDi=  4
 HFx  wShort=  0.000000 wLong=  0.330000 cFull=  0.190000 cShort=  0.000000 cLong=  0.460000
 DFx  wShort=  0.000000 wLong=  0.330000 cFull=  0.190000 cShort=  0.000000 cLong=  0.460000
 NAtoms=   50 NActive=   50 NUniq=   50 SFac= 1.00D+00 NAtFMM=   60 NAOKFM=F Big=F
 Integral buffers will be    131072 words long.
 Raffenetti 2 integral format.
 Two-electron integral symmetry is turned on.
 Leave Link  301 at Tue Jun 27 19:48:12 2023, MaxMem=   262144000 cpu:               0.4 elap:               0.1
 (Enter /dragofs/sw/campus/0.2/software/gaussian/16.gaussian/gaussian/g16_legacy/l302.exe)
 NPDir=0 NMtPBC=     1 NCelOv=     1 NCel=       1 NClECP=     1 NCelD=      1
         NCelK=      1 NCelE2=     1 NClLst=     1 CellRange=     0.0.
 One-electron integrals computed using PRISM.
 One-electron integral symmetry used in STVInt
 NBasis=   372 RedAO= T EigKep=  3.47D-03  NBF=   372
 NBsUse=   372 1.00D-06 EigRej= -1.00D+00 NBFU=   372
 Precomputing XC quadrature grid using
 IXCGrd= 4 IRadAn=           5 IRanWt=          -1 IRanGd=           0 AccXCQ= 0.00D+00.
 Generated NRdTot=       0 NPtTot=           0 NUsed=           0 NTot=          32
 NSgBfM=   348   348   348   348   348 MxSgAt=    50 MxSgA2=    50.
 Leave Link  302 at Tue Jun 27 19:48:13 2023, MaxMem=   262144000 cpu:               4.5 elap:               0.6
 (Enter /dragofs/sw/campus/0.2/software/gaussian/16.gaussian/gaussian/g16_legacy/l303.exe)
 DipDrv:  MaxL=1.
 Leave Link  303 at Tue Jun 27 19:48:13 2023, MaxMem=   262144000 cpu:               0.3 elap:               0.1
 (Enter /dragofs/sw/campus/0.2/software/gaussian/16.gaussian/gaussian/g16_legacy/l401.exe)
 ExpMin= 1.17D-01 ExpMax= 2.19D+04 ExpMxC= 3.30D+03 IAcc=3 IRadAn=         5 AccDes= 0.00D+00
 Harris functional with IExCor=20419 and IRadAn=       5 diagonalized for initial guess.
 HarFok:  IExCor=20419 AccDes= 0.00D+00 IRadAn=         5 IDoV= 1 UseB2=F ITyADJ=14
 ICtDFT=  3500011 ScaDFX=  1.000000  1.000000  1.000000  1.000000
 FoFCou: FMM=F IPFlag=           0 FMFlag=      100000 FMFlg1=           0
         NFxFlg=           0 DoJE=T BraDBF=F KetDBF=T FulRan=T
         wScrn=  0.000000 ICntrl=       500 IOpCl=  0 I1Cent=   200000004 NGrid=           0
         NMat0=    1 NMatS0=      1 NMatT0=    0 NMatD0=    1 NMtDS0=    0 NMtDT0=    0
 Petite list used in FoFCou.
 Harris En= -1921.25188637304    
 JPrj=0 DoOrth=F DoCkMO=F.
 Leave Link  401 at Tue Jun 27 19:48:16 2023, MaxMem=   262144000 cpu:              20.5 elap:               2.9
 (Enter /dragofs/sw/campus/0.2/software/gaussian/16.gaussian/gaussian/g16_legacy/l502.exe)
 Integral symmetry usage will be decided dynamically.
 Closed shell SCF:
 Using DIIS extrapolation, IDIIS=  1040.
 NGot=   262144000 LenX=   261859787 LenY=   261720962
 Requested convergence on RMS density matrix=1.00D-08 within 128 cycles.
 Requested convergence on MAX density matrix=1.00D-06.
 Requested convergence on             energy=1.00D-06.
 No special actions if energy rises.
 Fock matrices will be formed incrementally for  20 cycles.
 Integral accuracy reduced to 1.0D-05 until final iterations.

 Cycle   1  Pass 0  IDiag  1:
 FoFJK:  IHMeth= 1 ICntrl=       0 DoSepK=T KAlg= 0 I1Cent=           0 FoldK=F
 IRaf=         1 NMat=       1 IRICut=       1 DoRegI=T DoRafI=F ISym2E= 0 IDoP0=0 IntGTp=1.
 FoFCou: FMM=F IPFlag=           0 FMFlag=      100000 FMFlg1=           0
         NFxFlg=           0 DoJE=T BraDBF=F KetDBF=F FulRan=T
         wScrn=  0.000000 ICntrl=       500 IOpCl=  0 I1Cent=           0 NGrid=           0
         NMat0=    1 NMatS0=      1 NMatT0=    0 NMatD0=    1 NMtDS0=    0 NMtDT0=    0
 Symmetry not used in FoFCou.
 E= -1970.89099669327    
 DIIS: error= 7.22D-02 at cycle   1 NSaved=   1.
 NSaved= 1 IEnMin= 1 EnMin= -1970.89099669327     IErMin= 1 ErrMin= 7.22D-02
 ErrMax= 7.22D-02  0.00D+00 EMaxC= 1.00D-01 BMatC= 9.79D-01 BMatP= 9.79D-01
 IDIUse=3 WtCom= 2.78D-01 WtEn= 7.22D-01
 Coeff-Com:  0.100D+01
 Coeff-En:   0.100D+01
 Coeff:      0.100D+01
 Gap=     0.391 Goal=   None    Shift=    0.000
 GapD=    0.391 DampG=1.000 DampE=0.500 DampFc=0.5000 IDamp=-1.
 Damping current iteration by 5.00D-01
 RMSDP=3.52D-03 MaxDP=2.70D-01              OVMax= 1.13D-01

 Cycle   2  Pass 0  IDiag  1:
 RMSU=  1.76D-03    CP:  1.00D+00
 E= -1971.07376900047     Delta-E=       -0.182772307204 Rises=F Damp=T
 DIIS: error= 2.85D-02 at cycle   2 NSaved=   2.
 NSaved= 2 IEnMin= 2 EnMin= -1971.07376900047     IErMin= 2 ErrMin= 2.85D-02
 ErrMax= 2.85D-02  0.00D+00 EMaxC= 1.00D-01 BMatC= 1.68D-01 BMatP= 9.79D-01
 IDIUse=3 WtCom= 7.15D-01 WtEn= 2.85D-01
 Coeff-Com: -0.423D+00 0.142D+01
 Coeff-En:   0.000D+00 0.100D+01
 Coeff:     -0.303D+00 0.130D+01
 Gap=     0.375 Goal=   None    Shift=    0.000
 RMSDP=8.84D-04 MaxDP=4.46D-02 DE=-1.83D-01 OVMax= 6.27D-02

 Cycle   3  Pass 0  IDiag  1:
 RMSU=  8.28D-04    CP:  1.01D+00  1.17D+00
 E= -1971.22730807882     Delta-E=       -0.153539078342 Rises=F Damp=F
 DIIS: error= 5.05D-03 at cycle   3 NSaved=   3.
 NSaved= 3 IEnMin= 3 EnMin= -1971.22730807882     IErMin= 3 ErrMin= 5.05D-03
 ErrMax= 5.05D-03  0.00D+00 EMaxC= 1.00D-01 BMatC= 2.95D-02 BMatP= 1.68D-01
 IDIUse=3 WtCom= 9.49D-01 WtEn= 5.05D-02
 Coeff-Com: -0.235D+00 0.541D+00 0.694D+00
 Coeff-En:   0.000D+00 0.000D+00 0.100D+01
 Coeff:     -0.223D+00 0.513D+00 0.710D+00
 Gap=     0.351 Goal=   None    Shift=    0.000
 RMSDP=4.54D-04 MaxDP=2.20D-02 DE=-1.54D-01 OVMax= 2.05D-02

 Cycle   4  Pass 0  IDiag  1:
 RMSU=  3.21D-04    CP:  1.00D+00  1.29D+00  7.14D-01
 E= -1971.24875969871     Delta-E=       -0.021451619892 Rises=F Damp=F
 DIIS: error= 1.48D-03 at cycle   4 NSaved=   4.
 NSaved= 4 IEnMin= 4 EnMin= -1971.24875969871     IErMin= 4 ErrMin= 1.48D-03
 ErrMax= 1.48D-03  0.00D+00 EMaxC= 1.00D-01 BMatC= 2.17D-03 BMatP= 2.95D-02
 IDIUse=3 WtCom= 9.85D-01 WtEn= 1.48D-02
 Coeff-Com: -0.868D-01 0.187D+00 0.335D+00 0.565D+00
 Coeff-En:   0.000D+00 0.000D+00 0.000D+00 0.100D+01
 Coeff:     -0.855D-01 0.184D+00 0.330D+00 0.571D+00
 Gap=     0.349 Goal=   None    Shift=    0.000
 RMSDP=1.27D-04 MaxDP=9.35D-03 DE=-2.15D-02 OVMax= 4.77D-03

 Cycle   5  Pass 0  IDiag  1:
 RMSU=  5.87D-05    CP:  1.00D+00  1.32D+00  7.49D-01  6.96D-01
 E= -1971.25037732038     Delta-E=       -0.001617621674 Rises=F Damp=F
 DIIS: error= 2.33D-04 at cycle   5 NSaved=   5.
 NSaved= 5 IEnMin= 5 EnMin= -1971.25037732038     IErMin= 5 ErrMin= 2.33D-04
 ErrMax= 2.33D-04  0.00D+00 EMaxC= 1.00D-01 BMatC= 4.50D-05 BMatP= 2.17D-03
 IDIUse=3 WtCom= 9.98D-01 WtEn= 2.33D-03
 Coeff-Com: -0.184D-01 0.379D-01 0.886D-01 0.206D+00 0.686D+00
 Coeff-En:   0.000D+00 0.000D+00 0.000D+00 0.000D+00 0.100D+01
 Coeff:     -0.184D-01 0.378D-01 0.884D-01 0.205D+00 0.687D+00
 Gap=     0.349 Goal=   None    Shift=    0.000
 RMSDP=2.24D-05 MaxDP=8.43D-04 DE=-1.62D-03 OVMax= 9.68D-04

 Cycle   6  Pass 0  IDiag  1:
 RMSU=  1.81D-05    CP:  1.00D+00  1.32D+00  7.57D-01  7.27D-01  9.24D-01
 E= -1971.25041849327     Delta-E=       -0.000041172889 Rises=F Damp=F
 DIIS: error= 6.53D-05 at cycle   6 NSaved=   6.
 NSaved= 6 IEnMin= 6 EnMin= -1971.25041849327     IErMin= 6 ErrMin= 6.53D-05
 ErrMax= 6.53D-05  0.00D+00 EMaxC= 1.00D-01 BMatC= 3.77D-06 BMatP= 4.50D-05
 IDIUse=1 WtCom= 1.00D+00 WtEn= 0.00D+00
 Coeff-Com:  0.571D-02-0.124D-01-0.127D-01-0.469D-02 0.218D+00 0.806D+00
 Coeff:      0.571D-02-0.124D-01-0.127D-01-0.469D-02 0.218D+00 0.806D+00
 Gap=     0.349 Goal=   None    Shift=    0.000
 RMSDP=8.29D-06 MaxDP=6.20D-04 DE=-4.12D-05 OVMax= 3.58D-04

 Initial convergence to 1.0D-05 achieved.  Increase integral accuracy.
 Cycle   7  Pass 1  IDiag  1:
 E= -1971.25042235026     Delta-E=       -0.000003856987 Rises=F Damp=F
 DIIS: error= 1.83D-05 at cycle   1 NSaved=   1.
 NSaved= 1 IEnMin= 1 EnMin= -1971.25042235026     IErMin= 1 ErrMin= 1.83D-05
 ErrMax= 1.83D-05  0.00D+00 EMaxC= 1.00D-01 BMatC= 2.73D-07 BMatP= 2.73D-07
 IDIUse=1 WtCom= 1.00D+00 WtEn= 0.00D+00
 Coeff-Com:  0.100D+01
 Coeff:      0.100D+01
 Gap=     0.349 Goal=   None    Shift=    0.000
 RMSDP=8.29D-06 MaxDP=6.20D-04 DE=-3.86D-06 OVMax= 1.13D-04

 Cycle   8  Pass 1  IDiag  1:
 RMSU=  5.37D-06    CP:  1.00D+00
 E= -1971.25042246510     Delta-E=       -0.000000114846 Rises=F Damp=F
 DIIS: error= 1.99D-05 at cycle   2 NSaved=   2.
 NSaved= 2 IEnMin= 2 EnMin= -1971.25042246510     IErMin= 1 ErrMin= 1.83D-05
 ErrMax= 1.99D-05  0.00D+00 EMaxC= 1.00D-01 BMatC= 2.28D-07 BMatP= 2.73D-07
 IDIUse=1 WtCom= 1.00D+00 WtEn= 0.00D+00
 Coeff-Com:  0.474D+00 0.526D+00
 Coeff:      0.474D+00 0.526D+00
 Gap=     0.349 Goal=   None    Shift=    0.000
 RMSDP=1.18D-06 MaxDP=7.17D-05 DE=-1.15D-07 OVMax= 6.06D-05

 Cycle   9  Pass 1  IDiag  1:
 RMSU=  1.16D-06    CP:  1.00D+00  9.57D-01
 E= -1971.25042263403     Delta-E=       -0.000000168925 Rises=F Damp=F
 DIIS: error= 3.16D-06 at cycle   3 NSaved=   3.
 NSaved= 3 IEnMin= 3 EnMin= -1971.25042263403     IErMin= 3 ErrMin= 3.16D-06
 ErrMax= 3.16D-06  0.00D+00 EMaxC= 1.00D-01 BMatC= 6.82D-09 BMatP= 2.28D-07
 IDIUse=1 WtCom= 1.00D+00 WtEn= 0.00D+00
 Coeff-Com:  0.137D-01 0.139D+00 0.847D+00
 Coeff:      0.137D-01 0.139D+00 0.847D+00
 Gap=     0.349 Goal=   None    Shift=    0.000
 RMSDP=3.51D-07 MaxDP=1.63D-05 DE=-1.69D-07 OVMax= 1.81D-05

 Cycle  10  Pass 1  IDiag  1:
 RMSU=  2.72D-07    CP:  1.00D+00  9.98D-01  9.65D-01
 E= -1971.25042263927     Delta-E=       -0.000000005244 Rises=F Damp=F
 DIIS: error= 1.05D-06 at cycle   4 NSaved=   4.
 NSaved= 4 IEnMin= 4 EnMin= -1971.25042263927     IErMin= 4 ErrMin= 1.05D-06
 ErrMax= 1.05D-06  0.00D+00 EMaxC= 1.00D-01 BMatC= 9.68D-10 BMatP= 6.82D-09
 IDIUse=1 WtCom= 1.00D+00 WtEn= 0.00D+00
 Coeff-Com: -0.195D-01 0.323D-01 0.375D+00 0.612D+00
 Coeff:     -0.195D-01 0.323D-01 0.375D+00 0.612D+00
 Gap=     0.349 Goal=   None    Shift=    0.000
 RMSDP=1.06D-07 MaxDP=3.98D-06 DE=-5.24D-09 OVMax= 6.27D-06

 Cycle  11  Pass 1  IDiag  1:
 RMSU=  9.70D-08    CP:  1.00D+00  1.00D+00  9.82D-01  9.36D-01
 E= -1971.25042264019     Delta-E=       -0.000000000922 Rises=F Damp=F
 DIIS: error= 2.64D-07 at cycle   5 NSaved=   5.
 NSaved= 5 IEnMin= 5 EnMin= -1971.25042264019     IErMin= 5 ErrMin= 2.64D-07
 ErrMax= 2.64D-07  0.00D+00 EMaxC= 1.00D-01 BMatC= 3.18D-11 BMatP= 9.68D-10
 IDIUse=1 WtCom= 1.00D+00 WtEn= 0.00D+00
 Coeff-Com: -0.471D-02-0.528D-02 0.258D-02 0.122D+00 0.885D+00
 Coeff:     -0.471D-02-0.528D-02 0.258D-02 0.122D+00 0.885D+00
 Gap=     0.349 Goal=   None    Shift=    0.000
 RMSDP=4.64D-08 MaxDP=1.88D-06 DE=-9.22D-10 OVMax= 4.03D-06

 Cycle  12  Pass 1  IDiag  1:
 RMSU=  2.13D-08    CP:  1.00D+00  1.01D+00  9.94D-01  1.06D+00  1.18D+00
 E= -1971.25042264032     Delta-E=       -0.000000000129 Rises=F Damp=F
 DIIS: error= 8.93D-08 at cycle   6 NSaved=   6.
 NSaved= 6 IEnMin= 6 EnMin= -1971.25042264032     IErMin= 6 ErrMin= 8.93D-08
 ErrMax= 8.93D-08  0.00D+00 EMaxC= 1.00D-01 BMatC= 6.53D-12 BMatP= 3.18D-11
 IDIUse=1 WtCom= 1.00D+00 WtEn= 0.00D+00
 Coeff-Com:  0.512D-03-0.618D-02-0.462D-01-0.289D-01 0.325D+00 0.756D+00
 Coeff:      0.512D-03-0.618D-02-0.462D-01-0.289D-01 0.325D+00 0.756D+00
 Gap=     0.349 Goal=   None    Shift=    0.000
 RMSDP=1.57D-08 MaxDP=6.43D-07 DE=-1.29D-10 OVMax= 1.40D-06

 Cycle  13  Pass 1  IDiag  1:
 RMSU=  8.01D-09    CP:  1.00D+00  1.01D+00  9.96D-01  1.09D+00  1.28D+00
                    CP:  9.35D-01
 E= -1971.25042264030     Delta-E=        0.000000000019 Rises=F Damp=F
 DIIS: error= 3.11D-08 at cycle   7 NSaved=   7.
 NSaved= 7 IEnMin= 6 EnMin= -1971.25042264032     IErMin= 7 ErrMin= 3.11D-08
 ErrMax= 3.11D-08  0.00D+00 EMaxC= 1.00D-01 BMatC= 7.36D-13 BMatP= 6.53D-12
 IDIUse=1 WtCom= 1.00D+00 WtEn= 0.00D+00
 Coeff-Com:  0.687D-03-0.194D-02-0.188D-01-0.230D-01 0.507D-01 0.316D+00
 Coeff-Com:  0.676D+00
 Coeff:      0.687D-03-0.194D-02-0.188D-01-0.230D-01 0.507D-01 0.316D+00
 Coeff:      0.676D+00
 Gap=     0.349 Goal=   None    Shift=    0.000
 RMSDP=4.14D-09 MaxDP=1.95D-07 DE= 1.86D-11 OVMax= 3.91D-07

 SCF Done:  E(RCAM-B3LYP) =  -1971.25042264     A.U. after   13 cycles
            NFock= 13  Conv=0.41D-08     -V/T= 2.0055
 KE= 1.960531588635D+03 PE=-8.432042249545D+03 EE= 2.606412144139D+03
 Leave Link  502 at Tue Jun 27 19:49:01 2023, MaxMem=   262144000 cpu:             355.1 elap:              44.9
 (Enter /dragofs/sw/campus/0.2/software/gaussian/16.gaussian/gaussian/g16_legacy/l601.exe)
 Copying SCF densities to generalized density rwf, IOpCl= 0 IROHF=0.

 **********************************************************************

            Population analysis using the SCF density.

 **********************************************************************

 Orbital symmetries:
       Occupied  (A) (A) (A) (A) (A) (A) (A) (A) (A) (A) (A) (A)
                 (A) (A) (A) (A) (A) (A) (A) (A) (A) (A) (A) (A)
                 (A) (A) (A) (A) (A) (A) (A) (A) (A) (A) (A) (A)
                 (A) (A) (A) (A) (A) (A) (A) (A) (A) (A) (A) (A)
                 (A) (A) (A) (A) (A) (A) (A) (A) (A) (A) (A) (A)
                 (A) (A) (A) (A) (A) (A) (A) (A) (A) (A) (A) (A)
                 (A) (A) (A) (A) (A) (A) (A) (A) (A) (A) (A) (A)
                 (A) (A) (A) (A) (A) (A) (A) (A) (A)
       Virtual   (A) (A) (A) (A) (A) (A) (A) (A) (A) (A) (A) (A)
                 (A) (A) (A) (A) (A) (A) (A) (A) (A) (A) (A) (A)
                 (A) (A) (A) (A) (A) (A) (A) (A) (A) (A) (A) (A)
                 (A) (A) (A) (A) (A) (A) (A) (A) (A) (A) (A) (A)
                 (A) (A) (A) (A) (A) (A) (A) (A) (A) (A) (A) (A)
                 (A) (A) (A) (A) (A) (A) (A) (A) (A) (A) (A) (A)
                 (A) (A) (A) (A) (A) (A) (A) (A) (A) (A) (A) (A)
                 (A) (A) (A) (A) (A) (A) (A) (A) (A) (A) (A) (A)
                 (A) (A) (A) (A) (A) (A) (A) (A) (A) (A) (A) (A)
                 (A) (A) (A) (A) (A) (A) (A) (A) (A) (A) (A) (A)
                 (A) (A) (A) (A) (A) (A) (A) (A) (A) (A) (A) (A)
                 (A) (A) (A) (A) (A) (A) (A) (A) (A) (A) (A) (A)
                 (A) (A) (A) (A) (A) (A) (A) (A) (A) (A) (A) (A)
                 (A) (A) (A) (A) (A) (A) (A) (A) (A) (A) (A) (A)
                 (A) (A) (A) (A) (A) (A) (A) (A) (A) (A) (A) (A)
                 (A) (A) (A) (A) (A) (A) (A) (A) (A) (A) (A) (A)
                 (A) (A) (A) (A) (A) (A) (A) (A) (A) (A) (A) (A)
                 (A) (A) (A) (A) (A) (A) (A) (A) (A) (A) (A) (A)
                 (A) (A) (A) (A) (A) (A) (A) (A) (A) (A) (A) (A)
                 (A) (A) (A) (A) (A) (A) (A) (A) (A) (A) (A) (A)
                 (A) (A) (A) (A) (A) (A) (A) (A) (A) (A) (A) (A)
                 (A) (A) (A) (A) (A) (A) (A) (A) (A) (A) (A) (A)
                 (A) (A) (A) (A) (A) (A) (A) (A) (A) (A) (A) (A)
                 (A) (A) (A)
 The electronic state is 1-A.
 Alpha  occ. eigenvalues --  -88.94946 -88.94597 -88.93800 -19.23586 -19.22550
 Alpha  occ. eigenvalues --  -19.20869 -10.31837 -10.31363 -10.31263 -10.30668
 Alpha  occ. eigenvalues --  -10.30626 -10.30294 -10.30176 -10.30053 -10.29937
 Alpha  occ. eigenvalues --  -10.29495 -10.29483 -10.28359 -10.26057 -10.23497
 Alpha  occ. eigenvalues --   -8.01216  -8.00893  -8.00147  -5.97858  -5.97524
 Alpha  occ. eigenvalues --   -5.97420  -5.97100  -5.96787  -5.96726  -5.96409
 Alpha  occ. eigenvalues --   -5.96316  -5.95676  -1.15719  -1.14216  -1.12683
 Alpha  occ. eigenvalues --   -0.93143  -0.91339  -0.89029  -0.87055  -0.85741
 Alpha  occ. eigenvalues --   -0.83352  -0.81416  -0.79483  -0.77011  -0.73805
 Alpha  occ. eigenvalues --   -0.72212  -0.70760  -0.68174  -0.66760  -0.66214
 Alpha  occ. eigenvalues --   -0.65073  -0.63458  -0.60088  -0.58819  -0.57891
 Alpha  occ. eigenvalues --   -0.56903  -0.56246  -0.55832  -0.55234  -0.54187
 Alpha  occ. eigenvalues --   -0.53588  -0.51877  -0.50922  -0.50479  -0.50199
 Alpha  occ. eigenvalues --   -0.48788  -0.48379  -0.47958  -0.47157  -0.46928
 Alpha  occ. eigenvalues --   -0.46787  -0.45735  -0.44784  -0.44698  -0.44195
 Alpha  occ. eigenvalues --   -0.43279  -0.42656  -0.42196  -0.41969  -0.41060
 Alpha  occ. eigenvalues --   -0.40490  -0.40136  -0.37899  -0.36957  -0.36346
 Alpha  occ. eigenvalues --   -0.34577  -0.34230  -0.33502  -0.31414  -0.29561
 Alpha  occ. eigenvalues --   -0.29433  -0.28515  -0.27589
 Alpha virt. eigenvalues --    0.07324   0.07702   0.09804   0.10954   0.11583
 Alpha virt. eigenvalues --    0.12494   0.13285   0.13555   0.14151   0.14723
 Alpha virt. eigenvalues --    0.15020   0.15734   0.15882   0.16496   0.16783
 Alpha virt. eigenvalues --    0.17134   0.17570   0.17834   0.18496   0.18822
 Alpha virt. eigenvalues --    0.19794   0.19966   0.20315   0.20576   0.21535
 Alpha virt. eigenvalues --    0.21873   0.22152   0.22347   0.22898   0.23380
 Alpha virt. eigenvalues --    0.23593   0.23992   0.25022   0.25239   0.25580
 Alpha virt. eigenvalues --    0.26375   0.26675   0.27350   0.27373   0.28016
 Alpha virt. eigenvalues --    0.28546   0.29407   0.30502   0.31375   0.32409
 Alpha virt. eigenvalues --    0.34065   0.34696   0.36798   0.37492   0.40258
 Alpha virt. eigenvalues --    0.40585   0.41312   0.42880   0.43595   0.45048
 Alpha virt. eigenvalues --    0.46327   0.46837   0.48621   0.49620   0.50723
 Alpha virt. eigenvalues --    0.52170   0.53660   0.55570   0.56391   0.57458
 Alpha virt. eigenvalues --    0.57943   0.58514   0.59536   0.59602   0.60582
 Alpha virt. eigenvalues --    0.61261   0.61357   0.62767   0.62887   0.63531
 Alpha virt. eigenvalues --    0.63827   0.64488   0.64787   0.65418   0.66125
 Alpha virt. eigenvalues --    0.66302   0.66863   0.67477   0.69696   0.69960
 Alpha virt. eigenvalues --    0.71107   0.73128   0.73314   0.74297   0.75146
 Alpha virt. eigenvalues --    0.75445   0.76206   0.76293   0.76933   0.77994
 Alpha virt. eigenvalues --    0.79872   0.81600   0.83298   0.85380   0.85811
 Alpha virt. eigenvalues --    0.86946   0.87204   0.88126   0.88669   0.89293
 Alpha virt. eigenvalues --    0.89626   0.89864   0.90334   0.90828   0.91093
 Alpha virt. eigenvalues --    0.91715   0.91857   0.92147   0.92417   0.92929
 Alpha virt. eigenvalues --    0.93428   0.93878   0.94256   0.94865   0.95683
 Alpha virt. eigenvalues --    0.96036   0.96309   0.96521   0.97222   0.97407
 Alpha virt. eigenvalues --    0.97642   0.98094   0.98695   1.00075   1.00264
 Alpha virt. eigenvalues --    1.01120   1.01915   1.02054   1.03011   1.03532
 Alpha virt. eigenvalues --    1.03937   1.04725   1.05050   1.05831   1.06425
 Alpha virt. eigenvalues --    1.07402   1.08096   1.08467   1.09858   1.10392
 Alpha virt. eigenvalues --    1.12291   1.12840   1.14194   1.17520   1.18879
 Alpha virt. eigenvalues --    1.19804   1.21194   1.23060   1.23670   1.25944
 Alpha virt. eigenvalues --    1.26043   1.26586   1.29425   1.30600   1.31252
 Alpha virt. eigenvalues --    1.32086   1.32502   1.37271   1.42548   1.43739
 Alpha virt. eigenvalues --    1.48816   1.50190   1.50943   1.52233   1.54293
 Alpha virt. eigenvalues --    1.57254   1.57447   1.57705   1.58887   1.61073
 Alpha virt. eigenvalues --    1.62055   1.62661   1.63865   1.64554   1.66224
[...]
    13  H   -0.000000   0.000000   0.000000  -0.000000   0.000000  -0.000000
    14  H    0.000000   0.000000   0.000000   0.000000   0.000000   0.000000
    15  O    0.000000   0.000000   0.000000   0.000000   0.000000   0.000000
    16  C    0.000000   0.000000   0.000000   0.000000  -0.000000   0.000000
    17  H   -0.000000   0.000000   0.000000   0.000000   0.000000   0.000000
    18  H   -0.000000   0.000000   0.000000   0.000000  -0.000000   0.000000
    19  C   -0.000000   0.000000  -0.000000  -0.000000  -0.000000  -0.000000
    20  H   -0.000000   0.000000  -0.000000   0.000000  -0.000000   0.000000
    21  H    0.000000  -0.000000   0.000000   0.000000   0.000000   0.000000
    22  O    0.000000  -0.000000   0.000000   0.000000  -0.000000   0.000000
    23  C    0.000000   0.000000   0.000000   0.000000  -0.000000   0.000000
    24  H    0.000000   0.000000   0.000000   0.000000  -0.000000   0.000000
    25  H   -0.000000   0.000000  -0.000000  -0.000000   0.000000  -0.000000
    26  C    0.000000  -0.000000   0.000000   0.000000   0.000000   0.000000
    27  H    0.000000   0.000000   0.000000   0.000000  -0.000000   0.000000
    28  H   -0.000000  -0.000000  -0.000000  -0.000000   0.000000  -0.000000
    29  S   -0.000000   0.000000  -0.000000  -0.000000  -0.000000  -0.000000
    30  C    0.000001  -0.000000   0.000000   0.000000   0.000001  -0.000000
    31  H    0.000000   0.000000  -0.000000  -0.000000  -0.000000   0.000000
    32  H    0.000000   0.000000   0.000000  -0.000000  -0.000000   0.000000
    33  C    0.000021   0.000004   0.000000  -0.000006  -0.000068  -0.000000
    34  H    0.000028  -0.000005   0.000000  -0.000001  -0.000099   0.000001
    35  H   -0.000198  -0.000005  -0.000000   0.000003   0.000012  -0.000000
    36  S    0.007024  -0.000092   0.000004   0.000024  -0.000025   0.000002
    37  C   -0.050979  -0.000341  -0.000068  -0.000241  -0.000482   0.000015
    38  H   -0.000759  -0.000096   0.000003   0.000006   0.000044  -0.000002
    39  H    0.001032   0.000153  -0.000022   0.000041   0.000598   0.000027
    40  C    0.235347  -0.017381   0.002809  -0.007017  -0.001895  -0.000033
    41  H   -0.039757   0.001949  -0.000068   0.000245  -0.000040   0.000003
    42  H   -0.035016  -0.008332   0.000155   0.006360  -0.000091  -0.000089
    43  S   15.663952   0.272438  -0.040049  -0.042298  -0.059933   0.005405
    44  C    0.272438   5.170073   0.379154   0.371312   0.344633  -0.026905
    45  H   -0.040049   0.379154   0.543011  -0.028159  -0.035191  -0.003699
    46  H   -0.042298   0.371312  -0.028159   0.574942  -0.046288  -0.001193
    47  C   -0.059933   0.344633  -0.035191  -0.046288   5.102403   0.366616
    48  H    0.005405  -0.026905  -0.003699  -0.001193   0.366616   0.562695
    49  H   -0.006747  -0.037917   0.004483  -0.004007   0.385476  -0.030207
    50  H    0.003821  -0.036954  -0.003107   0.004767   0.383642  -0.027455
              49         50
     1  C    0.000000   0.000000
     2  H    0.000000   0.000000
     3  H    0.000000   0.000000
     4  H    0.000000   0.000000
     5  C    0.000000   0.000000
     6  H    0.000000   0.000000
     7  H    0.000000   0.000000
     8  O    0.000000   0.000000
     9  C    0.000000   0.000000
    10  H    0.000000   0.000000
    11  H    0.000000   0.000000
    12  C    0.000000   0.000000
    13  H   -0.000000  -0.000000
    14  H   -0.000000   0.000000
    15  O    0.000000   0.000000
    16  C    0.000000   0.000000
    17  H    0.000000   0.000000
    18  H   -0.000000   0.000000
    19  C    0.000000   0.000000
    20  H    0.000000   0.000000
    21  H   -0.000000  -0.000000
    22  O    0.000000  -0.000000
    23  C    0.000000   0.000000
    24  H    0.000000   0.000000
    25  H    0.000000  -0.000000
    26  C   -0.000000  -0.000000
    27  H    0.000000   0.000000
    28  H    0.000000  -0.000000
    29  S    0.000001   0.000000
    30  C   -0.000001  -0.000000
    31  H    0.000000   0.000000
    32  H    0.000000   0.000000
    33  C    0.000239   0.000000
    34  H    0.000933  -0.000003
    35  H    0.000013   0.000000
    36  S   -0.000116   0.000008
    37  C   -0.001182   0.000004
    38  H    0.000037   0.000013
    39  H    0.002906   0.000521
    40  C    0.002924  -0.000720
    41  H   -0.000023  -0.000001
    42  H    0.001374   0.000147
    43  S   -0.006747   0.003821
    44  C   -0.037917  -0.036954
    45  H    0.004483  -0.003107
    46  H   -0.004007   0.004767
    47  C    0.385476   0.383642
    48  H   -0.030207  -0.027455
    49  H    0.564911  -0.030199
    50  H   -0.030199   0.539172
 Mulliken charges:
               1
     1  C   -0.472550
     2  H    0.161903
     3  H    0.140867
     4  H    0.150992
     5  C   -0.013732
     6  H    0.137554
     7  H    0.136487
     8  O   -0.477076
     9  C   -0.044106
    10  H    0.144805
    11  H    0.135503
    12  C   -0.043583
    13  H    0.145430
    14  H    0.132965
    15  O   -0.479147
    16  C   -0.041739
    17  H    0.148797
    18  H    0.138150
    19  C   -0.025524
    20  H    0.137309
    21  H    0.121994
    22  O   -0.479703
    23  C   -0.003776
    24  H    0.142096
    25  H    0.127109
    26  C   -0.440966
    27  H    0.182950
    28  H    0.190051
    29  S    0.092366
    30  C   -0.420908
    31  H    0.187697
    32  H    0.187483
    33  C   -0.422886
    34  H    0.184073
    35  H    0.184749
    36  S    0.090506
    37  C   -0.413193
    38  H    0.193486
    39  H    0.180779
    40  C   -0.420711
    41  H    0.194718
    42  H    0.172593
    43  S    0.086668
    44  C   -0.411689
    45  H    0.180745
    46  H    0.171510
    47  C   -0.439312
    48  H    0.154817
    49  H    0.147103
    50  H    0.166345
 Sum of Mulliken charges =  -0.00000
 Mulliken charges with hydrogens summed into heavy atoms:
               1
     1  C   -0.018788
     5  C    0.260310
     8  O   -0.477076
     9  C    0.236202
    12  C    0.234812
    15  O   -0.479147
    16  C    0.245208
    19  C    0.233780
    22  O   -0.479703
    23  C    0.265429
    26  C   -0.067966
    29  S    0.092366
    30  C   -0.045728
    33  C   -0.054064
    36  S    0.090506
    37  C   -0.038927
    40  C   -0.053400
    43  S    0.086668
    44  C   -0.059434
    47  C    0.028954
 Electronic spatial extent (au):  <R**2>=          23777.9258
 Charge=             -0.0000 electrons
 Dipole moment (field-independent basis, Debye):
    X=             -0.9744    Y=             -0.0368    Z=              0.8644  Tot=              1.3031
 Quadrupole moment (field-independent basis, Debye-Ang):
   XX=           -173.5164   YY=           -145.3315   ZZ=           -149.8316
   XY=            -22.2876   XZ=              5.6024   YZ=              0.4304
 Traceless Quadrupole moment (field-independent basis, Debye-Ang):
   XX=            -17.2899   YY=             10.8950   ZZ=              6.3949
   XY=            -22.2876   XZ=              5.6024   YZ=              0.4304
 Octapole moment (field-independent basis, Debye-Ang**2):
  XXX=              3.0908  YYY=             -1.1666  ZZZ=             -1.4696  XYY=             18.3433
  XXY=             29.0938  XXZ=             36.8526  XZZ=             18.3099  YZZ=              0.8090
  YYZ=              7.1144  XYZ=              0.9201
 Hexadecapole moment (field-independent basis, Debye-Ang**3):
 XXXX=         -32177.5196 YYYY=          -1346.0038 ZZZZ=           -619.9419 XXXY=          -1497.3084
 XXXZ=            501.8783 YYYX=            -41.0693 YYYZ=             -5.6874 ZZZX=             -9.9340
 ZZZY=             -5.0115 XXYY=          -4987.1550 XXZZ=          -5204.3098 YYZZ=           -332.7863
 XXYZ=            185.2432 YYXZ=             -1.9131 ZZXY=            -33.9495
 N-N= 1.871852877344D+03 E-N=-8.388478818234D+03  KE= 1.960344162417D+03
 There are a total of     1162312 grid points.
 ElSum from          density=      186.0000077971
 ElSum from atomic densities=      186.0000156153
 Hirshfeld populations at iteration   1 (CA, CB, DipXYZ):
               1          2          3          4          5
     1  C    3.048284   3.048284   0.005340  -0.009551  -0.009542
     2  H    0.484776   0.484776  -0.099731  -0.006811   0.088707
     3  H    0.482939   0.482939   0.082144  -0.105908   0.036811
     4  H    0.484096   0.484096   0.069585   0.119761   0.023323
     5  C    2.987958   2.987958  -0.016648   0.048002  -0.010038
     6  H    0.482967   0.482967   0.117974  -0.014523  -0.070069
     7  H    0.488814   0.488814  -0.038913  -0.112627  -0.025859
     8  O    4.095097   4.095097  -0.063838  -0.087475   0.121199
     9  C    2.988372   2.988372   0.044640  -0.017030  -0.026465
    10  H    0.479695   0.479695  -0.039341   0.120296  -0.062101
    11  H    0.484823   0.484823  -0.003493   0.037227   0.122138
    12  C    2.990684   2.990684   0.008577  -0.033209   0.038063
    13  H    0.486665   0.486665  -0.089182   0.080198   0.007857
    14  H    0.484487   0.484487   0.007177  -0.030707  -0.125295
    15  O    4.085181   4.085181  -0.087932   0.000695  -0.107668
    16  C    2.986393   2.986393   0.031364   0.039086   0.016098
    17  H    0.478807   0.478807   0.055755  -0.113310   0.063721
    18  H    0.482856   0.482856  -0.010535  -0.041134  -0.122879
    19  C    2.988916   2.988916  -0.027741   0.028630  -0.031783
    20  H    0.483873   0.483873   0.016399   0.034348   0.124580
    21  H    0.485201   0.485201  -0.049004  -0.115359   0.005743
    22  O    4.084019   4.084019  -0.044005  -0.050435   0.115386
    23  C    2.989343   2.989343   0.065053  -0.014283  -0.026299
    24  H    0.485984   0.485984   0.011890   0.049404   0.117094
    25  H    0.486787   0.486787  -0.064528  -0.105729   0.006949
    26  C    3.025146   3.025146   0.006162  -0.007777   0.007052
    27  H    0.478885   0.478885   0.007280  -0.053496  -0.138593
    28  H    0.476372   0.476372   0.084110   0.128223  -0.002819
    29  S    8.023800   8.023800   0.084474  -0.185011  -0.091383
    30  C    3.026150   3.026150  -0.000435   0.004018   0.002576
    31  H    0.480902   0.480902   0.033875  -0.027969  -0.138367
    32  H    0.482423   0.482423   0.037612  -0.114496   0.073718
    33  C    3.026772   3.026772   0.002416  -0.006249  -0.001082
    34  H    0.481659   0.481659  -0.042695   0.108684  -0.082083
    35  H    0.482873   0.482873  -0.026235   0.035263   0.134240
    36  S    8.025910   8.025910  -0.085901   0.196559   0.057399
    37  C    3.026923   3.026923   0.010518  -0.006695   0.009859
    38  H    0.477643   0.477643  -0.080142  -0.108016  -0.072381
    39  H    0.482327   0.482327  -0.008300   0.111489  -0.083855
    40  C    3.027415   3.027415  -0.010092   0.003203  -0.010438
    41  H    0.480180   0.480180   0.003913  -0.127232   0.077487
    42  H    0.481154   0.481154   0.076599   0.090518   0.076332
    43  S    8.027207   8.027207   0.195225   0.125564   0.001356
    44  C    3.023407   3.023407   0.005963   0.020297  -0.013682
    45  H    0.478076   0.478076  -0.138957   0.056580   0.022688
    46  H    0.482330   0.482330   0.071898   0.038572   0.120702
    47  C    3.045499   3.045499  -0.004789   0.018719   0.011530
    48  H    0.481864   0.481864  -0.005317   0.138401   0.028030
    49  H    0.485168   0.485168   0.128867  -0.020656  -0.019364
    50  H    0.482901   0.482901  -0.071198  -0.009674  -0.122718
       Tot  93.000004  93.000004   0.155856   0.108375   0.115876

 Dip from Atomic Chgs             -0.538547  -0.122874   0.224262
         Total Dipole             -0.382691  -0.014499   0.340138

 Hirshfeld charges, spin densities, dipoles, and CM5 charges using IRadAn=      5:
              Q-H        S-H        Dx         Dy         Dz        Q-CM5   
     1  C   -0.096569   0.000000   0.005340  -0.009551  -0.009542  -0.244502
     2  H    0.030448   0.000000  -0.099731  -0.006811   0.088707   0.085041
     3  H    0.034121   0.000000   0.082144  -0.105908   0.036811   0.085301
     4  H    0.031808   0.000000   0.069585   0.119761   0.023323   0.085005
     5  C    0.024084   0.000000  -0.016648   0.048002  -0.010038  -0.059588
     6  H    0.034067   0.000000   0.117974  -0.014523  -0.070069   0.098092
     7  H    0.022373   0.000000  -0.038913  -0.112627  -0.025859   0.089166
     8  O   -0.190194   0.000000  -0.063838  -0.087475   0.121199  -0.291832
     9  C    0.023256   0.000000   0.044640  -0.017030  -0.026465  -0.055343
    10  H    0.040611   0.000000  -0.039341   0.120296  -0.062101   0.105235
    11  H    0.030354   0.000000  -0.003493   0.037227   0.122138   0.096208
    12  C    0.018631   0.000000   0.008577  -0.033209   0.038063  -0.061060
    13  H    0.026670   0.000000  -0.089182   0.080198   0.007857   0.094018
    14  H    0.031026   0.000000   0.007177  -0.030707  -0.125295   0.096224
    15  O   -0.170363   0.000000  -0.087932   0.000695  -0.107668  -0.275791
    16  C    0.027215   0.000000   0.031364   0.039086   0.016098  -0.051562
    17  H    0.042385   0.000000   0.055755  -0.113310   0.063721   0.106426
    18  H    0.034288   0.000000  -0.010535  -0.041134  -0.122879   0.099536
    19  C    0.022168   0.000000  -0.027741   0.028630  -0.031783  -0.056738
    20  H    0.032253   0.000000   0.016399   0.034348   0.124580   0.096930
    21  H    0.029597   0.000000  -0.049004  -0.115359   0.005743   0.091709
    22  O   -0.168039   0.000000  -0.044005  -0.050435   0.115386  -0.273947
    23  C    0.021314   0.000000   0.065053  -0.014283  -0.026299  -0.058086
    24  H    0.028033   0.000000   0.011890   0.049404   0.117094   0.090914
    25  H    0.026426   0.000000  -0.064528  -0.105729   0.006949   0.089646
    26  C   -0.050292   0.000000   0.006162  -0.007777   0.007052  -0.139584
    27  H    0.042231   0.000000   0.007280  -0.053496  -0.138593   0.101164
    28  H    0.047256   0.000000   0.084110   0.128223  -0.002819   0.106184
    29  S   -0.047600   0.000000   0.084474  -0.185011  -0.091383  -0.095162
    30  C   -0.052300   0.000000  -0.000435   0.004018   0.002576  -0.142969
    31  H    0.038196   0.000000   0.033875  -0.027969  -0.138367   0.095420
    32  H    0.035153   0.000000   0.037612  -0.114496   0.073718   0.092508
    33  C   -0.053544   0.000000   0.002416  -0.006249  -0.001082  -0.144127
    34  H    0.036682   0.000000  -0.042695   0.108684  -0.082083   0.093905
    35  H    0.034254   0.000000  -0.026235   0.035263   0.134240   0.091600
    36  S   -0.051820   0.000000  -0.085901   0.196559   0.057399  -0.099401
    37  C   -0.053845   0.000000   0.010518  -0.006695   0.009859  -0.144823
    38  H    0.044714   0.000000  -0.080142  -0.108016  -0.072381   0.102012
    39  H    0.035346   0.000000  -0.008300   0.111489  -0.083855   0.092698
    40  C   -0.054830   0.000000  -0.010092   0.003203  -0.010438  -0.145940
    41  H    0.039640   0.000000   0.003913  -0.127232   0.077487   0.096736
    42  H    0.037691   0.000000   0.076599   0.090518   0.076332   0.095426
    43  S   -0.054413   0.000000   0.195225   0.125564   0.001356  -0.101801
    44  C   -0.046814   0.000000   0.005963   0.020297  -0.013682  -0.141437
    45  H    0.043849   0.000000  -0.138957   0.056580   0.022688   0.100064
    46  H    0.035340   0.000000   0.071898   0.038572   0.120702   0.091014
    47  C   -0.090997   0.000000  -0.004789   0.018719   0.011530  -0.239352
    48  H    0.036273   0.000000  -0.005317   0.138401   0.028030   0.086965
    49  H    0.029664   0.000000   0.128867  -0.020656  -0.019364   0.081857
    50  H    0.034198   0.000000  -0.071198  -0.009674  -0.122718   0.086031
       Tot  -0.000008   0.000000   0.155856   0.108375   0.115876  -0.000008
 Hirshfeld charges with hydrogens summed into heavy atoms:
              Q-H       Q-CM5   
     1  C   -0.000191   0.010845
     5  C    0.080523   0.127670
     8  O   -0.190194  -0.291832
     9  C    0.094220   0.146100
    12  C    0.076327   0.129182
    15  O   -0.170363  -0.275791
    16  C    0.103888   0.154400
    19  C    0.084018   0.131902
    22  O   -0.168039  -0.273947
    23  C    0.075772   0.122474
    26  C    0.039195   0.067765
    29  S   -0.047600  -0.095162
    30  C    0.021049   0.044959
    33  C    0.017392   0.041378
    36  S   -0.051820  -0.099401
    37  C    0.026215   0.049887
    40  C    0.022501   0.046223
    43  S   -0.054413  -0.101801
    44  C    0.032374   0.049641
    47  C    0.009137   0.015501
 
 EQQ= 0.000000000000E+00 EQD= 0.000000000000E+00 EDD=-0.665350485331E-02
 EQQ+QD+DD=-0.665350485331E-02
 
 No NMR shielding tensors so no spin-rotation constants.
 Leave Link  601 at Tue Jun 27 20:06:02 2023, MaxMem=   262144000 cpu:              14.7 elap:               1.9
 (Enter /dragofs/sw/campus/0.2/software/gaussian/16.gaussian/gaussian/g16_legacy/l9999.exe)
 1\1\GINC-DRAGO31010010\FOpt\RCAM-B3LYP\6-31G(d)\C14H30O3S3\JRAMOS\27-J
 un-2023\0\\#p opt cam-b3lyp/6-31G* pop=Hirshfeld\\Conformer number 000
 04. Energy MM = 144.456 kcal/mol\\0,1\C,-8.3503375834,-0.0544457278,0.
 7510823169\H,-7.4743988903,0.0854147226,1.3895589467\H,-9.0195770851,0
 .7960623232,0.9166306361\H,-8.8712110013,-0.9666934906,1.0578069782\C,
 -7.9640673293,-0.1259066953,-0.7184638257\H,-8.8641426028,-0.141431275
 3,-1.3401219392\H,-7.3797588515,0.7596229897,-0.9930151972\O,-7.271935
 3336,-1.3118366239,-1.0791711586\C,-6.0290233851,-1.5487136328,-0.4590
 90983\H,-5.7330289565,-2.547038734,-0.7961920567\H,-6.1181023195,-1.58
 15651371,0.6355868782\C,-4.9245197866,-0.5767344152,-0.8281925286\H,-3
 .9487634926,-1.0269319537,-0.6114823375\H,-4.9675520121,-0.3640891517,
 -1.9069085319\O,-5.0888642436,0.6213247679,-0.0846305732\C,-4.21412206
 91,1.6698752704,-0.4296948764\H,-4.6929945077,2.5925748093,-0.08598104
 25\H,-4.0899631664,1.7340867642,-1.5205646841\C,-2.8496750975,1.571447
 4781,0.2244153641\H,-2.9759454355,1.3579815606,1.2965348586\H,-2.33214
 23555,2.5408139574,0.1317273385\O,-2.0920555445,0.55661758,-0.39749309
 44\C,-0.8152826087,0.3889740292,0.1748593286\H,-0.8945808826,0.1212890
 741,1.2386841399\H,-0.2462122304,1.3298126532,0.1140902761\C,-0.110556
 2687,-0.7171522559,-0.591276784\H,-0.0764893191,-0.474166866,-1.657175
 2997\H,-0.6742672171,-1.6479299081,-0.4876609717\S,1.5656144232,-1.071
 0932657,0.0142980823\C,2.4864574216,0.3310981273,-0.7070600015\H,2.291
 3808167,0.3728611336,-1.7824347284\H,2.1543127724,1.2720171629,-0.2603
 962799\C,3.9745887528,0.130494055,-0.4518230162\H,4.317498315,-0.78822
 76543,-0.9373878724\H,4.1594200065,0.0418473375,0.6223220127\S,4.89439
 57409,1.5500011673,-1.1369222121\C,6.6080928447,0.961333875,-0.9397369
 448\H,7.2169585815,1.6378090139,-1.544763912\H,6.7016701278,-0.0330400
 686,-1.3841962381\C,7.1020053662,0.9729758778,0.5040402099\H,7.0113520
 251,1.9819478857,0.912906463\H,6.500156295,0.3157400355,1.1384543354\S
 ,8.8545845953,0.4828781664,0.6708801131\C,8.7129501181,-1.2661611408,1
 .1700474457\H,9.7372383352,-1.551592532,1.4271917653\H,8.1288090106,-1
 .3191579601,2.0942029899\C,8.1509561439,-2.2107366636,0.1164406221\H,8
 .1792280433,-3.2435241176,0.4803660511\H,7.1086864484,-1.9758468905,-0
 .1194658865\H,8.7296133921,-2.1552856572,-0.809424176\\Version=EM64L-G
 16RevA.03\State=1-A\HF=-1971.3181888\RMSD=3.290e-09\RMSF=2.305e-06\Dip
 ole=0.3714913,0.0693523,0.3464252\Quadrupole=-12.3700072,7.5706185,4.7
 993887,-17.1858692,-2.191872,-1.3831217\PG=C01 [X(C14H30O3S3)]\\@


 ... A MOLECULAR SYSTEM ... (PASSES) ... FROM ONE STATE OF EQUILIBRIUM 
 TO ANOTHER ... BY MEANS OF ALL POSSIBLE INTERMEDIATE PATHS, 
 BUT THE PATH MOST ECONOMICAL OF ENERGY WILL BE THE MORE OFTEN TRAVELED.

                      -- HENRY EYRING, 1945
 Job cpu time:       0 days  2 hours 21 minutes 22.2 seconds.
 Elapsed time:       0 days  0 hours 17 minutes 49.2 seconds.
 File lengths (MBytes):  RWF=     92 Int=      0 D2E=      0 Chk=     13 Scr=      1
 Normal termination of Gaussian 16 at Tue Jun 27 20:06:02 2023.
