 Entering Gaussian System, Link 0=g16
 Input=DVE-DMSD_1_00105_gaussian.com
 Output=DVE-DMSD_1_00105_gaussian.log
 Initial command:
 /dragofs/sw/campus/0.2/software/gaussian/16.gaussian/gaussian/g16_legacy/l1.exe "/lustre/scratch-global/iem/jramos/172856/Gau-386855.inp" -scrdir="/lustre/scratch-global/iem/jramos/172856/"
 Entering Link 1 = /dragofs/sw/campus/0.2/software/gaussian/16.gaussian/gaussian/g16_legacy/l1.exe PID=    386856.
  
 Copyright (c) 1988,1990,1992,1993,1995,1998,2003,2009,2016,
            Gaussian, Inc.  All Rights Reserved.
  
 This is part of the Gaussian(R) 16 program.  It is based on
 the Gaussian(R) 09 system (copyright 2009, Gaussian, Inc.),
 the Gaussian(R) 03 system (copyright 2003, Gaussian, Inc.),
 the Gaussian(R) 98 system (copyright 1998, Gaussian, Inc.),
 the Gaussian(R) 94 system (copyright 1995, Gaussian, Inc.),
 the Gaussian 92(TM) system (copyright 1992, Gaussian, Inc.),
 the Gaussian 90(TM) system (copyright 1990, Gaussian, Inc.),
 the Gaussian 88(TM) system (copyright 1988, Gaussian, Inc.),
 the Gaussian 86(TM) system (copyright 1986, Carnegie Mellon
 University), and the Gaussian 82(TM) system (copyright 1983,
 Carnegie Mellon University). Gaussian is a federally registered
 trademark of Gaussian, Inc.
  
 This software contains proprietary and confidential information,
 including trade secrets, belonging to Gaussian, Inc.
  
 This software is provided under written license and may be
 used, copied, transmitted, or stored only in accord with that
 written license.
  
 The following legend is applicable only to US Government
 contracts under FAR:
  
                    RESTRICTED RIGHTS LEGEND
  
 Use, reproduction and disclosure by the US Government is
 subject to restrictions as set forth in subparagraphs (a)
 and (c) of the Commercial Computer Software - Restricted
 Rights clause in FAR 52.227-19.
  
 Gaussian, Inc.
 340 Quinnipiac St., Bldg. 40, Wallingford CT 06492
  
  
 ---------------------------------------------------------------
 Warning -- This program may not be used in any manner that
 competes with the business of Gaussian, Inc. or will provide
 assistance to any competitor of Gaussian, Inc.  The licensee
 of this program is prohibited from giving any competitor of
 Gaussian, Inc. access to this program.  By using this program,
 the user acknowledges that Gaussian, Inc. is engaged in the
 business of creating and licensing software in the field of
 computational chemistry and represents and warrants to the
 licensee that it is not a competitor of Gaussian, Inc. and that
 it will not use this program in any manner prohibited above.
 ---------------------------------------------------------------
  

 Cite this work as:
 Gaussian 16, Revision A.03,
 M. J. Frisch, G. W. Trucks, H. B. Schlegel, G. E. Scuseria, 
 M. A. Robb, J. R. Cheeseman, G. Scalmani, V. Barone, 
 G. A. Petersson, H. Nakatsuji, X. Li, M. Caricato, A. V. Marenich, 
 J. Bloino, B. G. Janesko, R. Gomperts, B. Mennucci, H. P. Hratchian, 
 J. V. Ortiz, A. F. Izmaylov, J. L. Sonnenberg, D. Williams-Young, 
 F. Ding, F. Lipparini, F. Egidi, J. Goings, B. Peng, A. Petrone, 
 T. Henderson, D. Ranasinghe, V. G. Zakrzewski, J. Gao, N. Rega, 
 G. Zheng, W. Liang, M. Hada, M. Ehara, K. Toyota, R. Fukuda, 
 J. Hasegawa, M. Ishida, T. Nakajima, Y. Honda, O. Kitao, H. Nakai, 
 T. Vreven, K. Throssell, J. A. Montgomery, Jr., J. E. Peralta, 
 F. Ogliaro, M. J. Bearpark, J. J. Heyd, E. N. Brothers, K. N. Kudin, 
 V. N. Staroverov, T. A. Keith, R. Kobayashi, J. Normand, 
 K. Raghavachari, A. P. Rendell, J. C. Burant, S. S. Iyengar, 
 J. Tomasi, M. Cossi, J. M. Millam, M. Klene, C. Adamo, R. Cammi, 
 J. W. Ochterski, R. L. Martin, K. Morokuma, O. Farkas, 
 J. B. Foresman, and D. J. Fox, Gaussian, Inc., Wallingford CT, 2016.
 
 ******************************************
 Gaussian 16:  EM64L-G16RevA.03 25-Dec-2016
                27-Jun-2023 
 ******************************************
 %chk=DVE-DMSD_1_00105_gaussian.chk
 %nproc=8
 Will use up to    8 processors via shared memory.
 %mem=2000Mb
 -------------------------------------
 #p opt cam-b3lyp/6-31G* pop=Hirshfeld
 -------------------------------------
 1/18=20,19=15,26=3,38=1/1,3;
 2/9=110,12=2,17=6,18=5,40=1/2;
 3/5=1,6=6,7=1,11=2,25=1,30=1,71=1,74=-40/1,2,3;
 4//1;
 5/5=2,38=5/2;
 6/7=2,8=2,9=2,10=2,28=1,79=1/1;
 7//1,2,3,16;
 1/18=20,19=15,26=3/3(2);
 2/9=110/2;
 99//99;
 2/9=110/2;
 3/5=1,6=6,7=1,11=2,25=1,30=1,71=1,74=-40/1,2,3;
 4/5=5,16=3,69=1/1;
 5/5=2,38=5/2;
 7//1,2,3,16;
 1/18=20,19=15,26=3/3(-5);
 2/9=110/2;
 6/7=2,8=2,9=2,10=2,19=2,28=1,79=1/1;
 99/9=1/99;
 Leave Link    1 at Tue Jun 27 21:46:37 2023, MaxMem=   262144000 cpu:               0.4 elap:               0.1
 (Enter /dragofs/sw/campus/0.2/software/gaussian/16.gaussian/gaussian/g16_legacy/l101.exe)
 ----------------------------------------------------
 Conformer number 00105. Energy MM = 180.056 kcal/mol
 ----------------------------------------------------
 Symbolic Z-matrix:
 Charge =  0 Multiplicity = 1
 C                    -5.3445    1.7187   -0.2531 
 H                    -5.9382    1.8154   -1.1992 
 H                    -5.315     2.7529    0.202 
 H                    -4.3069    1.4308   -0.3923 
 C                    -6.0485    0.8276    0.7203 
 H                    -5.8668    1.3063    1.7454 
 H                    -7.1709    0.9348    0.6037 
 O                    -5.6517   -0.4498    0.8401 
 C                    -5.7044   -1.3369   -0.1632 
 H                    -6.7716   -1.4978   -0.53 
 H                    -5.3954   -2.3567    0.2322 
 C                    -4.8085   -1.0557   -1.3288 
 H                    -4.8897   -1.9685   -2.0106 
 H                    -5.0869   -0.2018   -1.9484 
 O                    -3.4534   -1.029    -0.9543 
 C                    -2.719    -0.7561   -2.0928 
 H                    -3.1145    0.2264   -2.4924 
 H                    -2.9667   -1.5193   -2.8778 
 C                    -1.2504   -0.6948   -1.8925 
 H                    -0.7429   -0.4837   -2.8749 
 H                    -0.8505   -1.7028   -1.5456 
 O                    -0.8255    0.2589   -1.0209 
 C                    -1.208     0.2357    0.2612 
 H                    -0.8513   -0.7164    0.7574 
 H                    -2.3351    0.2905    0.4039 
 C                    -0.5731    1.3455    1.0619 
 H                    -1.0066    1.3136    2.1276 
 H                    -0.9673    2.3372    0.6365 
 S                     1.1597    1.2808    1.1674 
 C                     2.1606    1.7269   -0.1825 
 H                     1.9167    2.7972   -0.5704 
 H                     3.2153    1.9175    0.1874 
 C                     2.1786    0.8288   -1.3824 
 H                     2.9888    1.2567   -2.1139 
 H                     1.298     0.8857   -2.0246 
 S                     2.59     -0.8332   -0.9508 
 C                     4.2118   -1.1978   -0.3759 
 H                     4.9435   -0.8235   -1.165 
 H                     4.3577   -2.3258   -0.3417 
 C                     4.6326   -0.6971    0.9527 
 H                     4.5804    0.3617    1.1502 
 H                     4.0594   -1.2018    1.7869 
 S                     6.3619   -1.2802    1.2178 
 C                     7.447    -0.4496   -0.0054 
 H                     8.4643   -0.9037    0.1346 
 H                     7.1303   -0.7217   -1.0312 
 C                     7.5235    1.0274    0.2374 
 H                     8.5045    1.2982    0.6577 
 H                     7.3612    1.6117   -0.7033 
 H                     6.7361    1.3901    0.953 
 
 ITRead=  0  0  0  0  0  0  0  0  0  0  0  0  0  0  0  0  0  0  0  0
 ITRead=  0  0  0  0  0  0  0  0  0  0  0  0  0  0  0  0  0  0  0  0
 ITRead=  0  0  0  0  0  0  0  0  0  0
 MicOpt= -1 -1 -1 -1 -1 -1 -1 -1 -1 -1 -1 -1 -1 -1 -1 -1 -1 -1 -1 -1
 MicOpt= -1 -1 -1 -1 -1 -1 -1 -1 -1 -1 -1 -1 -1 -1 -1 -1 -1 -1 -1 -1
 MicOpt= -1 -1 -1 -1 -1 -1 -1 -1 -1 -1
 NAtoms=     50 NQM=       50 NQMF=       0 NMMI=      0 NMMIF=      0
                NMic=       0 NMicF=      0.
                    Isotopes and Nuclear Properties:
 (Nuclear quadrupole moments (NQMom) in fm**2, nuclear magnetic moments (NMagM)
  in nuclear magnetons)

  Atom         1           2           3           4           5           6           7           8           9          10
 IAtWgt=          12           1           1           1          12           1           1          16          12           1
 AtmWgt=  12.0000000   1.0078250   1.0078250   1.0078250  12.0000000   1.0078250   1.0078250  15.9949146  12.0000000   1.0078250
 NucSpn=           0           1           1           1           0           1           1           0           0           1
 AtZEff=  -0.0000000  -0.0000000  -0.0000000  -0.0000000  -0.0000000  -0.0000000  -0.0000000  -0.0000000  -0.0000000  -0.0000000
 NQMom=    0.0000000   0.0000000   0.0000000   0.0000000   0.0000000   0.0000000   0.0000000   0.0000000   0.0000000   0.0000000
 NMagM=    0.0000000   2.7928460   2.7928460   2.7928460   0.0000000   2.7928460   2.7928460   0.0000000   0.0000000   2.7928460
 AtZNuc=   6.0000000   1.0000000   1.0000000   1.0000000   6.0000000   1.0000000   1.0000000   8.0000000   6.0000000   1.0000000

  Atom        11          12          13          14          15          16          17          18          19          20
 IAtWgt=           1          12           1           1          16          12           1           1          12           1
 AtmWgt=   1.0078250  12.0000000   1.0078250   1.0078250  15.9949146  12.0000000   1.0078250   1.0078250  12.0000000   1.0078250
 NucSpn=           1           0           1           1           0           0           1           1           0           1
 AtZEff=  -0.0000000  -0.0000000  -0.0000000  -0.0000000  -0.0000000  -0.0000000  -0.0000000  -0.0000000  -0.0000000  -0.0000000
 NQMom=    0.0000000   0.0000000   0.0000000   0.0000000   0.0000000   0.0000000   0.0000000   0.0000000   0.0000000   0.0000000
 NMagM=    2.7928460   0.0000000   2.7928460   2.7928460   0.0000000   0.0000000   2.7928460   2.7928460   0.0000000   2.7928460
 AtZNuc=   1.0000000   6.0000000   1.0000000   1.0000000   8.0000000   6.0000000   1.0000000   1.0000000   6.0000000   1.0000000

  Atom        21          22          23          24          25          26          27          28          29          30
 IAtWgt=           1          16          12           1           1          12           1           1          32          12
 AtmWgt=   1.0078250  15.9949146  12.0000000   1.0078250   1.0078250  12.0000000   1.0078250   1.0078250  31.9720718  12.0000000
 NucSpn=           1           0           0           1           1           0           1           1           0           0
 AtZEff=  -0.0000000  -0.0000000  -0.0000000  -0.0000000  -0.0000000  -0.0000000  -0.0000000  -0.0000000  -0.0000000  -0.0000000
 NQMom=    0.0000000   0.0000000   0.0000000   0.0000000   0.0000000   0.0000000   0.0000000   0.0000000   0.0000000   0.0000000
 NMagM=    2.7928460   0.0000000   0.0000000   2.7928460   2.7928460   0.0000000   2.7928460   2.7928460   0.0000000   0.0000000
 AtZNuc=   1.0000000   8.0000000   6.0000000   1.0000000   1.0000000   6.0000000   1.0000000   1.0000000  16.0000000   6.0000000

  Atom        31          32          33          34          35          36          37          38          39          40
 IAtWgt=           1           1          12           1           1          32          12           1           1          12
 AtmWgt=   1.0078250   1.0078250  12.0000000   1.0078250   1.0078250  31.9720718  12.0000000   1.0078250   1.0078250  12.0000000
 NucSpn=           1           1           0           1           1           0           0           1           1           0
 AtZEff=  -0.0000000  -0.0000000  -0.0000000  -0.0000000  -0.0000000  -0.0000000  -0.0000000  -0.0000000  -0.0000000  -0.0000000
 NQMom=    0.0000000   0.0000000   0.0000000   0.0000000   0.0000000   0.0000000   0.0000000   0.0000000   0.0000000   0.0000000
 NMagM=    2.7928460   2.7928460   0.0000000   2.7928460   2.7928460   0.0000000   0.0000000   2.7928460   2.7928460   0.0000000
 AtZNuc=   1.0000000   1.0000000   6.0000000   1.0000000   1.0000000  16.0000000   6.0000000   1.0000000   1.0000000   6.0000000

  Atom        41          42          43          44          45          46          47          48          49          50
 IAtWgt=           1           1          32          12           1           1          12           1           1           1
 AtmWgt=   1.0078250   1.0078250  31.9720718  12.0000000   1.0078250   1.0078250  12.0000000   1.0078250   1.0078250   1.0078250
 NucSpn=           1           1           0           0           1           1           0           1           1           1
 AtZEff=  -0.0000000  -0.0000000  -0.0000000  -0.0000000  -0.0000000  -0.0000000  -0.0000000  -0.0000000  -0.0000000  -0.0000000
 NQMom=    0.0000000   0.0000000   0.0000000   0.0000000   0.0000000   0.0000000   0.0000000   0.0000000   0.0000000   0.0000000
 NMagM=    2.7928460   2.7928460   0.0000000   0.0000000   2.7928460   2.7928460   0.0000000   2.7928460   2.7928460   2.7928460
 AtZNuc=   1.0000000   1.0000000  16.0000000   6.0000000   1.0000000   1.0000000   6.0000000   1.0000000   1.0000000   1.0000000
 Leave Link  101 at Tue Jun 27 21:46:37 2023, MaxMem=   262144000 cpu:               1.1 elap:               0.2
 (Enter /dragofs/sw/campus/0.2/software/gaussian/16.gaussian/gaussian/g16_legacy/l103.exe)

 GradGradGradGradGradGradGradGradGradGradGradGradGradGradGradGradGradGrad
 Berny optimization.
 Initialization pass.
                           ----------------------------
                           !    Initial Parameters    !
                           ! (Angstroms and Degrees)  !
 --------------------------                            --------------------------
 ! Name  Definition              Value          Derivative Info.                !
 --------------------------------------------------------------------------------
 ! R1    R(1,2)                  1.1211         estimate D2E/DX2                !
 ! R2    R(1,3)                  1.1303         estimate D2E/DX2                !
 ! R3    R(1,4)                  1.0858         estimate D2E/DX2                !
 ! R4    R(1,5)                  1.4957         estimate D2E/DX2                !
 ! R5    R(5,6)                  1.1459         estimate D2E/DX2                !
 ! R6    R(5,7)                  1.1335         estimate D2E/DX2                !
 ! R7    R(5,8)                  1.343          estimate D2E/DX2                !
 ! R8    R(8,9)                  1.3403         estimate D2E/DX2                !
 ! R9    R(9,10)                 1.1399         estimate D2E/DX2                !
 ! R10   R(9,11)                 1.1366         estimate D2E/DX2                !
 ! R11   R(9,12)                 1.4968         estimate D2E/DX2                !
 ! R12   R(12,13)                1.1422         estimate D2E/DX2                !
 ! R13   R(12,14)                1.0911         estimate D2E/DX2                !
 ! R14   R(12,15)                1.4062         estimate D2E/DX2                !
 ! R15   R(15,16)                1.382          estimate D2E/DX2                !
 ! R16   R(16,17)                1.132          estimate D2E/DX2                !
 ! R17   R(16,18)                1.1225         estimate D2E/DX2                !
 ! R18   R(16,19)                1.4835         estimate D2E/DX2                !
 ! R19   R(19,20)                1.1257         estimate D2E/DX2                !
 ! R20   R(19,21)                1.1386         estimate D2E/DX2                !
 ! R21   R(19,22)                1.3601         estimate D2E/DX2                !
 ! R22   R(22,23)                1.3381         estimate D2E/DX2                !
 ! R23   R(23,24)                1.1313         estimate D2E/DX2                !
 ! R24   R(23,25)                1.1374         estimate D2E/DX2                !
 ! R25   R(23,26)                1.5086         estimate D2E/DX2                !
 ! R26   R(26,27)                1.1509         estimate D2E/DX2                !
 ! R27   R(26,28)                1.1488         estimate D2E/DX2                !
 ! R28   R(26,29)                1.7372         estimate D2E/DX2                !
 ! R29   R(29,30)                1.7387         estimate D2E/DX2                !
 ! R30   R(30,31)                1.1643         estimate D2E/DX2                !
 ! R31   R(30,32)                1.1338         estimate D2E/DX2                !
 ! R32   R(30,33)                1.4989         estimate D2E/DX2                !
 ! R33   R(33,34)                1.1724         estimate D2E/DX2                !
 ! R34   R(33,35)                1.0914         estimate D2E/DX2                !
 ! R35   R(33,36)                1.7657         estimate D2E/DX2                !
 ! R36   R(36,37)                1.7589         estimate D2E/DX2                !
 ! R37   R(37,38)                1.1394         estimate D2E/DX2                !
 ! R38   R(37,39)                1.1379         estimate D2E/DX2                !
 ! R39   R(37,40)                1.4809         estimate D2E/DX2                !
 ! R40   R(40,41)                1.0783         estimate D2E/DX2                !
 ! R41   R(40,42)                1.131          estimate D2E/DX2                !
 ! R42   R(40,43)                1.8441         estimate D2E/DX2                !
 ! R43   R(43,44)                1.834          estimate D2E/DX2                !
 ! R44   R(44,45)                1.1228         estimate D2E/DX2                !
 ! R45   R(44,46)                1.1075         estimate D2E/DX2                !
 ! R46   R(44,47)                1.4988         estimate D2E/DX2                !
 ! R47   R(47,48)                1.1011         estimate D2E/DX2                !
 ! R48   R(47,49)                1.1192         estimate D2E/DX2                !
 ! R49   R(47,50)                1.1241         estimate D2E/DX2                !
 ! A1    A(2,1,3)              105.943          estimate D2E/DX2                !
 ! A2    A(2,1,4)              114.8817         estimate D2E/DX2                !
 ! A3    A(2,1,5)              110.5684         estimate D2E/DX2                !
 ! A4    A(3,1,4)              105.6224         estimate D2E/DX2                !
 ! A5    A(3,1,5)              107.1796         estimate D2E/DX2                !
 ! A6    A(4,1,5)              112.0404         estimate D2E/DX2                !
 ! A7    A(1,5,6)              104.9916         estimate D2E/DX2                !
 ! A8    A(1,5,7)              110.0458         estimate D2E/DX2                !
 ! A9    A(1,5,8)              119.0561         estimate D2E/DX2                !
 ! A10   A(6,5,7)              102.0948         estimate D2E/DX2                !
 ! A11   A(6,5,8)              105.7067         estimate D2E/DX2                !
 ! A12   A(7,5,8)              113.0602         estimate D2E/DX2                !
 ! A13   A(5,8,9)              123.4474         estimate D2E/DX2                !
 ! A14   A(8,9,10)             111.7848         estimate D2E/DX2                !
 ! A15   A(8,9,11)             108.8302         estimate D2E/DX2                !
 ! A16   A(8,9,12)             115.7895         estimate D2E/DX2                !
 ! A17   A(10,9,11)            103.8762         estimate D2E/DX2                !
 ! A18   A(10,9,12)            109.6526         estimate D2E/DX2                !
 ! A19   A(11,9,12)            106.0665         estimate D2E/DX2                !
 ! A20   A(9,12,13)            105.7923         estimate D2E/DX2                !
 ! A21   A(9,12,14)            115.8818         estimate D2E/DX2                !
 ! A22   A(9,12,15)            111.9            estimate D2E/DX2                !
 ! A23   A(13,12,14)           105.5636         estimate D2E/DX2                !
 ! A24   A(13,12,15)           104.0435         estimate D2E/DX2                !
 ! A25   A(14,12,15)           112.4739         estimate D2E/DX2                !
 ! A26   A(12,15,16)           107.2445         estimate D2E/DX2                !
 ! A27   A(15,16,17)           106.0531         estimate D2E/DX2                !
 ! A28   A(15,16,18)           108.9399         estimate D2E/DX2                !
 ! A29   A(15,16,19)           115.0241         estimate D2E/DX2                !
 ! A30   A(17,16,18)           105.4353         estimate D2E/DX2                !
 ! A31   A(17,16,19)           110.9579         estimate D2E/DX2                !
 ! A32   A(18,16,19)           109.9361         estimate D2E/DX2                !
 ! A33   A(16,19,20)           109.647          estimate D2E/DX2                !
 ! A34   A(16,19,21)           110.6261         estimate D2E/DX2                !
 ! A35   A(16,19,22)           115.1372         estimate D2E/DX2                !
 ! A36   A(20,19,21)           105.8769         estimate D2E/DX2                !
 ! A37   A(20,19,22)           106.6741         estimate D2E/DX2                !
 ! A38   A(21,19,22)           108.4104         estimate D2E/DX2                !
 ! A39   A(19,22,23)           120.8342         estimate D2E/DX2                !
 ! A40   A(22,23,24)           110.163          estimate D2E/DX2                !
 ! A41   A(22,23,25)           113.7421         estimate D2E/DX2                !
 ! A42   A(22,23,26)           112.0537         estimate D2E/DX2                !
 ! A43   A(24,23,25)           107.3344         estimate D2E/DX2                !
 ! A44   A(24,23,26)           104.6918         estimate D2E/DX2                !
 ! A45   A(25,23,26)           108.3611         estimate D2E/DX2                !
 ! A46   A(23,26,27)           108.2127         estimate D2E/DX2                !
 ! A47   A(23,26,28)           107.1028         estimate D2E/DX2                !
 ! A48   A(23,26,29)           115.1265         estimate D2E/DX2                !
 ! A49   A(27,26,28)           103.742          estimate D2E/DX2                !
 ! A50   A(27,26,29)           108.5679         estimate D2E/DX2                !
 ! A51   A(28,26,29)           113.3842         estimate D2E/DX2                !
 ! A52   A(26,29,30)           121.1644         estimate D2E/DX2                !
 ! A53   A(29,30,31)           111.9591         estimate D2E/DX2                !
 ! A54   A(29,30,32)           108.9858         estimate D2E/DX2                !
 ! A55   A(29,30,33)           118.3399         estimate D2E/DX2                !
 ! A56   A(31,30,32)            98.5706         estimate D2E/DX2                !
 ! A57   A(31,30,33)           106.6559         estimate D2E/DX2                !
 ! A58   A(32,30,33)           110.5313         estimate D2E/DX2                !
 ! A59   A(30,33,34)           106.8028         estimate D2E/DX2                !
 ! A60   A(30,33,35)           115.4754         estimate D2E/DX2                !
 ! A61   A(30,33,36)           111.7837         estimate D2E/DX2                !
 ! A62   A(34,33,35)            99.8704         estimate D2E/DX2                !
 ! A63   A(34,33,36)           109.574          estimate D2E/DX2                !
 ! A64   A(35,33,36)           112.3893         estimate D2E/DX2                !
 ! A65   A(33,36,37)           119.3301         estimate D2E/DX2                !
 ! A66   A(36,37,38)           107.318          estimate D2E/DX2                !
 ! A67   A(36,37,39)           109.4834         estimate D2E/DX2                !
 ! A68   A(36,37,40)           119.0237         estimate D2E/DX2                !
 ! A69   A(38,37,39)           105.3152         estimate D2E/DX2                !
 ! A70   A(38,37,40)           109.1355         estimate D2E/DX2                !
 ! A71   A(39,37,40)           105.7696         estimate D2E/DX2                !
 ! A72   A(37,40,41)           118.8526         estimate D2E/DX2                !
 ! A73   A(37,40,42)           111.5211         estimate D2E/DX2                !
 ! A74   A(37,40,43)           106.77           estimate D2E/DX2                !
 ! A75   A(41,40,42)           106.1729         estimate D2E/DX2                !
 ! A76   A(41,40,43)           109.2405         estimate D2E/DX2                !
 ! A77   A(42,40,43)           103.1866         estimate D2E/DX2                !
 ! A78   A(40,43,44)           108.4056         estimate D2E/DX2                !
 ! A79   A(43,44,45)           105.6485         estimate D2E/DX2                !
 ! A80   A(43,44,46)           109.7118         estimate D2E/DX2                !
 ! A81   A(43,44,47)           111.6208         estimate D2E/DX2                !
 ! A82   A(45,44,46)           105.9744         estimate D2E/DX2                !
 ! A83   A(45,44,47)           109.3969         estimate D2E/DX2                !
 ! A84   A(46,44,47)           114.0011         estimate D2E/DX2                !
 ! A85   A(44,47,48)           110.468          estimate D2E/DX2                !
 ! A86   A(44,47,49)           111.7719         estimate D2E/DX2                !
 ! A87   A(44,47,50)           112.6648         estimate D2E/DX2                !
 ! A88   A(48,47,49)           108.7618         estimate D2E/DX2                !
 ! A89   A(48,47,50)           107.5613         estimate D2E/DX2                !
 ! A90   A(49,47,50)           105.3687         estimate D2E/DX2                !
 ! D1    D(2,1,5,6)           -141.9317         estimate D2E/DX2                !
 ! D2    D(2,1,5,7)            -32.7471         estimate D2E/DX2                !
 ! D3    D(2,1,5,8)            100.074          estimate D2E/DX2                !
 ! D4    D(3,1,5,6)            -26.9015         estimate D2E/DX2                !
 ! D5    D(3,1,5,7)             82.2831         estimate D2E/DX2                !
 ! D6    D(3,1,5,8)           -144.8958         estimate D2E/DX2                !
 ! D7    D(4,1,5,6)             88.519          estimate D2E/DX2                !
 ! D8    D(4,1,5,7)           -162.2964         estimate D2E/DX2                !
 ! D9    D(4,1,5,8)            -29.4752         estimate D2E/DX2                !
 ! D10   D(1,5,8,9)            -62.0359         estimate D2E/DX2                !
 ! D11   D(6,5,8,9)           -179.658          estimate D2E/DX2                !
 ! D12   D(7,5,8,9)             69.4702         estimate D2E/DX2                !
 ! D13   D(5,8,9,10)           -61.0012         estimate D2E/DX2                !
 ! D14   D(5,8,9,11)          -175.1536         estimate D2E/DX2                !
 ! D15   D(5,8,9,12)            65.5371         estimate D2E/DX2                !
 ! D16   D(8,9,12,13)          173.1171         estimate D2E/DX2                !
 ! D17   D(8,9,12,14)          -70.3226         estimate D2E/DX2                !
 ! D18   D(8,9,12,15)           60.4431         estimate D2E/DX2                !
 ! D19   D(10,9,12,13)         -59.2771         estimate D2E/DX2                !
 ! D20   D(10,9,12,14)          57.2833         estimate D2E/DX2                !
 ! D21   D(10,9,12,15)        -171.9511         estimate D2E/DX2                !
 ! D22   D(11,9,12,13)          52.3067         estimate D2E/DX2                !
 ! D23   D(11,9,12,14)         168.867          estimate D2E/DX2                !
 ! D24   D(11,9,12,15)         -60.3673         estimate D2E/DX2                !
 ! D25   D(9,12,15,16)        -179.6484         estimate D2E/DX2                !
 ! D26   D(13,12,15,16)         66.5914         estimate D2E/DX2                !
 ! D27   D(14,12,15,16)        -47.1607         estimate D2E/DX2                !
 ! D28   D(12,15,16,17)         57.2721         estimate D2E/DX2                !
 ! D29   D(12,15,16,18)        -55.7785         estimate D2E/DX2                !
 ! D30   D(12,15,16,19)       -179.6978         estimate D2E/DX2                !
 ! D31   D(15,16,19,20)        179.1666         estimate D2E/DX2                !
 ! D32   D(15,16,19,21)         62.7589         estimate D2E/DX2                !
 ! D33   D(15,16,19,22)        -60.5648         estimate D2E/DX2                !
 ! D34   D(17,16,19,20)        -60.4625         estimate D2E/DX2                !
 ! D35   D(17,16,19,21)       -176.8701         estimate D2E/DX2                !
 ! D36   D(17,16,19,22)         59.8061         estimate D2E/DX2                !
 ! D37   D(18,16,19,20)         55.7753         estimate D2E/DX2                !
 ! D38   D(18,16,19,21)        -60.6324         estimate D2E/DX2                !
 ! D39   D(18,16,19,22)        176.0439         estimate D2E/DX2                !
 ! D40   D(16,19,22,23)         61.404          estimate D2E/DX2                !
 ! D41   D(20,19,22,23)       -176.7091         estimate D2E/DX2                !
 ! D42   D(21,19,22,23)        -63.0884         estimate D2E/DX2                !
 ! D43   D(19,22,23,24)         61.2883         estimate D2E/DX2                !
 ! D44   D(19,22,23,25)        -59.2593         estimate D2E/DX2                !
 ! D45   D(19,22,23,26)        177.409          estimate D2E/DX2                !
 ! D46   D(22,23,26,27)        175.7261         estimate D2E/DX2                !
 ! D47   D(22,23,26,28)         64.4484         estimate D2E/DX2                !
 ! D48   D(22,23,26,29)        -62.6343         estimate D2E/DX2                !
 ! D49   D(24,23,26,27)        -64.8878         estimate D2E/DX2                !
 ! D50   D(24,23,26,28)       -176.1655         estimate D2E/DX2                !
 ! D51   D(24,23,26,29)         56.7517         estimate D2E/DX2                !
 ! D52   D(25,23,26,27)         49.4153         estimate D2E/DX2                !
 ! D53   D(25,23,26,28)        -61.8625         estimate D2E/DX2                !
 ! D54   D(25,23,26,29)        171.0548         estimate D2E/DX2                !
 ! D55   D(23,26,29,30)         74.9782         estimate D2E/DX2                !
 ! D56   D(27,26,29,30)       -163.5746         estimate D2E/DX2                !
 ! D57   D(28,26,29,30)        -48.8491         estimate D2E/DX2                !
 ! D58   D(26,29,30,31)         54.8457         estimate D2E/DX2                !
 ! D59   D(26,29,30,32)        162.8236         estimate D2E/DX2                !
 ! D60   D(26,29,30,33)        -69.8062         estimate D2E/DX2                !
 ! D61   D(29,30,33,34)       -174.4498         estimate D2E/DX2                !
 ! D62   D(29,30,33,35)         75.5377         estimate D2E/DX2                !
 ! D63   D(29,30,33,36)        -54.6112         estimate D2E/DX2                !
 ! D64   D(31,30,33,34)         58.3335         estimate D2E/DX2                !
 ! D65   D(31,30,33,35)        -51.679          estimate D2E/DX2                !
 ! D66   D(31,30,33,36)        178.1721         estimate D2E/DX2                !
 ! D67   D(32,30,33,34)        -47.8163         estimate D2E/DX2                !
 ! D68   D(32,30,33,35)       -157.8288         estimate D2E/DX2                !
 ! D69   D(32,30,33,36)         72.0223         estimate D2E/DX2                !
 ! D70   D(30,33,36,37)        -67.6258         estimate D2E/DX2                !
 ! D71   D(34,33,36,37)         50.5712         estimate D2E/DX2                !
 ! D72   D(35,33,36,37)        160.646          estimate D2E/DX2                !
 ! D73   D(33,36,37,38)        -55.2258         estimate D2E/DX2                !
 ! D74   D(33,36,37,39)       -169.0412         estimate D2E/DX2                !
 ! D75   D(33,36,37,40)         69.2246         estimate D2E/DX2                !
 ! D76   D(36,37,40,41)        -56.5253         estimate D2E/DX2                !
 ! D77   D(36,37,40,42)         67.4686         estimate D2E/DX2                !
 ! D78   D(36,37,40,43)        179.4895         estimate D2E/DX2                !
 ! D79   D(38,37,40,41)         67.0379         estimate D2E/DX2                !
 ! D80   D(38,37,40,42)       -168.9682         estimate D2E/DX2                !
 ! D81   D(38,37,40,43)        -56.9473         estimate D2E/DX2                !
 ! D82   D(39,37,40,41)        179.8988         estimate D2E/DX2                !
 ! D83   D(39,37,40,42)        -56.1072         estimate D2E/DX2                !
 ! D84   D(39,37,40,43)         55.9136         estimate D2E/DX2                !
 ! D85   D(37,40,43,44)         66.0889         estimate D2E/DX2                !
 ! D86   D(41,40,43,44)        -63.6275         estimate D2E/DX2                !
 ! D87   D(42,40,43,44)       -176.2578         estimate D2E/DX2                !
 ! D88   D(40,43,44,45)       -175.0411         estimate D2E/DX2                !
 ! D89   D(40,43,44,46)        -61.2156         estimate D2E/DX2                !
 ! D90   D(40,43,44,47)         66.1414         estimate D2E/DX2                !
 ! D91   D(43,44,47,48)        107.0307         estimate D2E/DX2                !
 ! D92   D(43,44,47,49)       -131.7205         estimate D2E/DX2                !
 ! D93   D(43,44,47,50)        -13.2923         estimate D2E/DX2                !
 ! D94   D(45,44,47,48)         -9.531          estimate D2E/DX2                !
 ! D95   D(45,44,47,49)        111.7178         estimate D2E/DX2                !
 ! D96   D(45,44,47,50)       -129.854          estimate D2E/DX2                !
 ! D97   D(46,44,47,48)       -127.9655         estimate D2E/DX2                !
 ! D98   D(46,44,47,49)         -6.7167         estimate D2E/DX2                !
 ! D99   D(46,44,47,50)        111.7115         estimate D2E/DX2                !
 --------------------------------------------------------------------------------
 Trust Radius=3.00D-01 FncErr=1.00D-07 GrdErr=1.00D-06 EigMax=2.50D+02 EigMin=1.00D-04
 Number of steps in this run=    248 maximum allowed number of steps=    300.
 GradGradGradGradGradGradGradGradGradGradGradGradGradGradGradGradGradGrad

 Leave Link  103 at Tue Jun 27 21:46:37 2023, MaxMem=   262144000 cpu:               0.1 elap:               0.0
 (Enter /dragofs/sw/campus/0.2/software/gaussian/16.gaussian/gaussian/g16_legacy/l202.exe)
                          Input orientation:                          
 ---------------------------------------------------------------------
 Center     Atomic      Atomic             Coordinates (Angstroms)
 Number     Number       Type             X           Y           Z
 ---------------------------------------------------------------------
      1          6           0       -5.344500    1.718700   -0.253100
      2          1           0       -5.938200    1.815400   -1.199200
      3          1           0       -5.315000    2.752900    0.202000
      4          1           0       -4.306900    1.430800   -0.392300
      5          6           0       -6.048500    0.827600    0.720300
      6          1           0       -5.866800    1.306300    1.745400
      7          1           0       -7.170900    0.934800    0.603700
      8          8           0       -5.651700   -0.449800    0.840100
      9          6           0       -5.704400   -1.336900   -0.163200
     10          1           0       -6.771600   -1.497800   -0.530000
     11          1           0       -5.395400   -2.356700    0.232200
     12          6           0       -4.808500   -1.055700   -1.328800
     13          1           0       -4.889700   -1.968500   -2.010600
     14          1           0       -5.086900   -0.201800   -1.948400
     15          8           0       -3.453400   -1.029000   -0.954300
     16          6           0       -2.719000   -0.756100   -2.092800
     17          1           0       -3.114500    0.226400   -2.492400
     18          1           0       -2.966700   -1.519300   -2.877800
     19          6           0       -1.250400   -0.694800   -1.892500
     20          1           0       -0.742900   -0.483700   -2.874900
     21          1           0       -0.850500   -1.702800   -1.545600
     22          8           0       -0.825500    0.258900   -1.020900
     23          6           0       -1.208000    0.235700    0.261200
     24          1           0       -0.851300   -0.716400    0.757400
     25          1           0       -2.335100    0.290500    0.403900
     26          6           0       -0.573100    1.345500    1.061900
     27          1           0       -1.006600    1.313600    2.127600
     28          1           0       -0.967300    2.337200    0.636500
     29         16           0        1.159700    1.280800    1.167400
     30          6           0        2.160600    1.726900   -0.182500
     31          1           0        1.916700    2.797200   -0.570400
     32          1           0        3.215300    1.917500    0.187400
     33          6           0        2.178600    0.828800   -1.382400
     34          1           0        2.988800    1.256700   -2.113900
     35          1           0        1.298000    0.885700   -2.024600
     36         16           0        2.590000   -0.833200   -0.950800
     37          6           0        4.211800   -1.197800   -0.375900
     38          1           0        4.943500   -0.823500   -1.165000
     39          1           0        4.357700   -2.325800   -0.341700
     40          6           0        4.632600   -0.697100    0.952700
     41          1           0        4.580400    0.361700    1.150200
     42          1           0        4.059400   -1.201800    1.786900
     43         16           0        6.361900   -1.280200    1.217800
     44          6           0        7.447000   -0.449600   -0.005400
     45          1           0        8.464300   -0.903700    0.134600
     46          1           0        7.130300   -0.721700   -1.031200
     47          6           0        7.523500    1.027400    0.237400
     48          1           0        8.504500    1.298200    0.657700
     49          1           0        7.361200    1.611700   -0.703300
     50          1           0        6.736100    1.390100    0.953000
 ---------------------------------------------------------------------
                    Distance matrix (angstroms):
                    1          2          3          4          5
     1  C    0.000000
     2  H    1.121131   0.000000
     3  H    1.130290   1.797400   0.000000
     4  H    1.085761   1.860146   1.765618   0.000000
     5  C    1.495721   2.161572   2.124485   2.152882   0.000000
     6  H    2.106389   2.989139   2.186142   2.649255   1.145862
     7  H    2.164334   2.354879   2.628919   3.072544   1.133521
     8  O    2.447826   3.061365   3.282960   2.619915   1.342964
     9  C    3.078035   3.326403   4.124496   3.108964   2.363057
    10  H    3.529754   3.481333   4.552577   3.830197   2.737446
    11  H    4.104509   4.444092   5.110322   3.989986   3.287027
    12  C    3.023528   3.088079   4.135858   2.703945   3.046839
    13  H    4.109878   4.009442   5.231453   3.809697   4.076617
    14  H    2.574630   2.314111   3.661489   2.386468   3.017664
    15  O    3.408489   3.784814   4.370967   2.663630   3.603581
    16  C    4.049985   4.215967   4.931369   3.193064   4.637586
    17  H    3.494900   3.488634   4.299441   2.698670   4.392179
    18  H    4.798711   4.771555   5.766400   4.083740   5.286942
    19  C    5.027352   5.362578   5.726652   4.013847   5.671524
    20  H    5.735776   5.923257   6.391165   4.746652   6.541740
    21  H    5.794243   6.195354   6.545161   4.805856   6.209382
    22  O    4.810602   5.347353   5.279312   3.726746   5.534883
    23  C    4.424299   5.196442   4.817390   3.385042   4.898118
    24  H    5.209575   6.009563   5.680592   4.227700   5.421826
    25  H    3.395275   4.228189   3.870915   2.412926   3.765359
    26  C    4.963342   5.841034   5.020540   4.007897   5.510437
    27  H    4.964798   5.969931   4.933744   4.153987   5.257133
    28  H    4.509303   5.324652   4.389088   3.610113   5.301369
    29  S    6.671896   7.501118   6.709755   5.686728   7.236258
    30  C    7.505437   8.162847   7.555469   6.477673   8.307413
    31  H    7.347712   7.940956   7.272967   6.374321   8.306000
    32  H    8.573432   9.258490   8.571122   7.560187   9.342904
    33  C    7.659261   8.178593   7.897248   6.588203   8.491556
    34  H    8.551018   8.991115   8.749577   7.498097   9.481013
    35  H    6.924948   7.342222   7.223292   5.863143   7.842762
    36  S    8.363927   8.933475   8.756602   7.280443   8.954022
    37  C    9.992193  10.619779  10.329662   8.915047  10.515591
    38  H   10.636601  11.197158  10.949710   9.552426  11.274065
    39  H   10.511827  11.130606  10.938461   9.444040  10.925236
    40  C   10.335984  11.076333  10.555605   9.287176  10.791877
    41  H   10.115055  10.875379  10.224278   9.083302  10.647788
    42  H   10.056056  10.861505  10.297132   9.037393  10.364639
    43  S   12.173609  12.911897  12.395473  11.124983  12.597950
    44  C   12.976338  13.627874  13.159319  11.909650  13.575213
    45  H   14.060948  14.717491  14.256380  12.993501  14.627433
    46  H   12.735055  13.313557  12.979951  11.655513  13.384650
    47  C   12.895887  13.561052  12.953983  11.854013  13.582058
    48  H   13.885286  14.570764  13.903323  12.855040  14.560741
    49  H   12.714124  13.310201  12.759622  11.673646  13.507831
    50  H   12.145104  12.862765  12.151141  11.124717  12.799084
                    6          7          8          9         10
     6  H    0.000000
     7  H    1.772616   0.000000
     8  O    1.987391   2.069051   0.000000
     9  C    3.264297   2.810583   1.340274   0.000000
    10  H    3.722779   2.713348   2.056612   1.139889   0.000000
    11  H    3.991185   3.758242   2.017796   1.136580   1.792368
    12  C    4.018675   3.643841   2.404626   1.496774   2.165016
    13  H    5.078048   4.524112   3.318672   2.115548   2.440345
    14  H    4.065313   3.485417   2.855912   2.203792   2.555326
    15  O    4.308887   4.483713   2.896181   2.405752   3.377907
    16  C    5.375306   5.472629   4.158900   3.601846   4.406362
    17  H    5.167232   5.151897   4.242663   3.817939   4.494247
    18  H    6.145614   5.984876   4.709123   3.859705   4.471006
    19  C    6.208854   6.628645   5.186383   4.820880   5.743245
    20  H    7.127806   7.445266   6.156191   5.718195   6.547685
    21  H    6.711828   7.178014   5.505733   5.060164   6.011064
    22  O    5.845012   6.584851   5.220899   5.204411   6.219573
    23  C    5.005342   6.013503   4.533377   4.782342   5.880873
    24  H    5.497518   6.533562   4.808509   4.978464   6.108841
    25  H    3.912081   4.882623   3.426098   3.784470   4.873676
    26  C    5.337787   6.626431   5.391148   5.918309   7.002850
    27  H    4.875210   6.361160   5.132659   5.860225   6.942768
    28  H    5.128110   6.360224   5.454578   6.048028   7.053924
    29  S    7.050279   8.356816   7.035430   7.465837   8.573640
    30  C    8.266369   9.398001   8.174091   8.440703   9.502823
    31  H    8.256427   9.350482   8.355429   8.679733   9.692018
    32  H    9.235013  10.440889   9.200751   9.501320  10.579088
    33  C    8.645207   9.558712   8.239413   8.265494   9.286858
    34  H    9.660140  10.521809   9.289591   9.279209  10.264571
    35  H    8.107044   8.867505   7.634684   7.578810   8.545955
    36  S    9.130412  10.040790   8.442745   8.346922   9.394590
    37  C   10.599463  11.622111   9.966283   9.919456  10.988577
    38  H   11.396011  12.368452  10.789733  10.707239  11.751658
    39  H   11.049368  12.018066  10.252030  10.112153  11.161647
    40  C   10.718180  11.920885  10.287889  10.416724  11.528022
    41  H   10.506689  11.777952  10.268913  10.506540  11.625348
    42  H   10.238249  11.492809   9.786082   9.957557  11.079991
    43  S   12.510374  13.726617  12.048187  12.145204  13.251075
    44  C   13.542738  14.695937  13.125959  13.182243  14.266833
    45  H   14.589695  15.749908  14.140906  14.178449  15.261956
    46  H   13.444214  14.489348  12.921115  12.878720  13.932565
    47  C   13.477833  14.699257  13.271445  13.443502  14.536692
    48  H   14.412405  15.679705  14.264879  14.474476  15.575220
    49  H   13.456202  14.606450  13.265272  13.405068  14.471871
    50  H   12.628064  13.918835  12.524199  12.784697  13.892344
                   11         12         13         14         15
    11  H    0.000000
    12  C    2.115130   0.000000
    13  H    2.331648   1.142212   0.000000
    14  H    3.081198   1.091126   1.778760   0.000000
    15  O    2.634755   1.406150   2.015288   2.083463   0.000000
    16  C    3.889815   2.244876   2.487692   2.436196   1.382028
    17  H    4.392989   2.422268   2.863748   2.090371   2.014109
    18  H    4.033847   2.450827   2.156791   2.663614   2.043801
    19  C    4.945431   3.620509   3.857559   3.868450   2.417668
    20  H    5.899827   4.387108   4.488607   4.450641   3.366432
    21  H    4.923847   4.016404   4.074550   4.512464   2.752949
    22  O    5.412542   4.205623   4.739044   4.385434   2.927282
    23  C    4.925007   4.142392   4.855357   4.485488   2.849338
    24  H    4.859554   4.486289   5.053539   5.052373   3.130265
    25  H    4.050010   3.306389   4.178382   3.653502   2.199178
    26  C    6.135900   5.424004   6.249471   5.641847   4.242575
    27  H    6.027040   5.658156   6.555558   5.963142   4.579597
    28  H    6.465619   5.488988   6.397766   5.486286   4.476901
    29  S    7.554822   6.878202   7.566563   7.136268   5.578304
    30  C    8.598890   7.591128   8.167292   7.704839   6.301401
    31  H    8.981852   7.787703   8.432862   7.742306   6.604934
    32  H    9.613269   8.690233   9.253282   8.830606   7.379492
    33  C    8.373758   7.236973   7.627607   7.360026   5.945933
    34  H    9.426328   8.170769   8.513715   8.208017   6.933328
    35  H    7.772252   6.445348   6.814271   6.477300   5.233299
    36  S    8.215057   7.411491   7.639240   7.767153   6.046572
    37  C    9.695934   9.071605   9.279199   9.483174   7.688845
    38  H   10.544938   9.756139   9.935688  10.080136   8.402057
    39  H    9.770019   9.306274   9.403579   9.812916   7.941678
    40  C   10.189906   9.719476  10.053447  10.155313   8.314457
    41  H   10.380222   9.813557  10.251989  10.167376   8.420505
    42  H    9.651121   9.400456   9.751678   9.930119   7.999138
    43  S   11.847547  11.459206  11.725819  11.927397  10.055905
    44  C   12.985404  12.341638  12.590554  12.686028  10.956954
    45  H   13.935997  13.354095  13.567056  13.728313  11.967998
    46  H   12.694982  11.947178  12.124114  12.262607  10.588440
    47  C   13.354780  12.604385  12.965973  12.857326  11.231263
    48  H   14.378684  13.664662  14.042640  13.920054  12.288441
    49  H   13.392319  12.474288  12.830098  12.640975  11.135164
    50  H   12.717364  12.019415  12.458826  12.277443  10.644987
                   16         17         18         19         20
    16  C    0.000000
    17  H    1.131992   0.000000
    18  H    1.122522   1.793836   0.000000
    19  C    1.483463   2.164107   2.143899   0.000000
    20  H    2.142628   2.505002   2.453113   1.125713   0.000000
    21  H    2.164939   3.121528   2.507336   1.138562   1.806882
    22  O    2.400945   2.721376   3.345865   1.360063   1.998898
    23  C    2.967845   3.349200   4.003295   2.346498   3.250996
    24  H    3.407861   4.070890   4.281851   2.679873   3.641360
    25  H    2.734275   3.000021   3.800506   2.724122   3.726260
    26  C    4.355886   4.510449   5.427489   3.653770   4.344330
    27  H    5.002774   5.193231   6.076294   4.500479   5.322108
    28  H    4.481745   4.342345   5.587531   3.958410   4.509741
    29  S    5.460969   5.724918   6.421167   4.367444   4.803492
    30  C    5.798709   5.950951   6.640155   4.519253   4.534984
    31  H    6.036005   5.967920   6.914034   4.896176   4.811289
    32  H    6.896620   7.078666   7.708707   5.576071   5.550747
    33  C    5.196447   5.441681   5.850120   3.786766   3.533465
    34  H    6.052338   6.201214   6.614960   4.672065   4.187326
    35  H    4.340098   4.485941   4.969873   3.001628   2.600681
    36  S    5.430984   6.003383   5.921231   3.956593   3.864264
    37  C    7.153938   7.757744   7.608793   5.691108   5.594997
    38  H    7.718760   8.233811   8.123367   6.237805   5.947635
    39  H    7.457211   8.183704   7.792887   6.042841   5.985529
    40  C    7.957674   8.528724   8.549743   6.534895   6.602428
    41  H    8.065220   8.514595   8.759090   6.661264   6.727084
    42  H    7.822878   8.474491   8.439568   6.479893   6.731280
    43  S    9.679747  10.287740  10.190873   8.244014   8.237887
    44  C   10.382617  10.871404  10.855417   8.903148   8.678114
    45  H   11.403916  11.926729  11.837283   9.926136   9.695670
    46  H    9.906406  10.391820  10.295412   8.424885   8.089694
    47  C   10.654554  11.011832  11.235410   9.191505   8.961205
    48  H   11.736795  12.086068  12.329903  10.277823  10.058272
    49  H   10.447374  10.717286  11.008957   8.994098   8.647716
    50  H   10.162775  10.500443  10.829772   8.730857   8.608100
                   21         22         23         24         25
    21  H    0.000000
    22  O    2.030813   0.000000
    23  C    2.673970   1.338142   0.000000
    24  H    2.505353   2.028356   1.131346   0.000000
    25  H    3.158771   2.076041   1.137418   1.827696   0.000000
    26  C    4.020963   2.362723   1.508600   2.102748   2.156533
    27  H    4.755569   3.325393   2.164689   2.454071   2.404743
    28  H    4.593126   2.662032   2.148276   3.058193   2.472642
    29  S    4.505901   3.126333   2.742159   2.863744   3.711772
    30  C    4.763151   3.431433   3.710527   3.990572   4.755884
    31  H    5.372003   3.763719   4.125117   4.665861   5.030965
    32  H    5.713194   4.531998   4.732809   4.878480   5.788000
    33  C    3.951086   3.078975   3.810807   4.018293   4.884068
    34  H    4.880761   4.091349   4.929165   5.184964   5.967979
    35  H    3.397915   2.430955   3.453609   3.863384   4.410362
    36  S    3.598198   3.586535   4.127505   3.843714   5.230155
    37  C    5.220163   5.283218   5.642256   5.210671   6.759070
    38  H    5.872688   5.871432   6.402882   6.106292   7.528643
    39  H    5.381715   5.831599   6.156443   5.561643   7.224577
    40  C    6.108790   5.882167   5.954905   5.487410   7.058709
    41  H    6.405012   5.826491   5.857625   5.551572   6.956017
    42  H    5.955139   5.820621   5.669186   5.040879   6.710386
    43  S    7.735224   7.683705   7.779230   7.249834   8.875097
    44  C    8.531778   8.364656   8.686181   8.337555   9.818592
    45  H    9.498796   9.433303   9.740002   9.338274  10.868564
    46  H    8.057316   8.016011   8.492006   8.179551   9.626934
    47  C    8.986487   8.478190   8.767351   8.570211   9.887504
    48  H   10.068593   9.536600   9.778485   9.570765  10.889298
    49  H    8.895358   8.303794   8.732401   8.660188   9.848335
    50  H    8.565368   7.896435   8.057292   7.876817   9.154087
                   26         27         28         29         30
    26  C    0.000000
    27  H    1.150937   0.000000
    28  H    1.148838   1.809055   0.000000
    29  S    1.737214   2.369792   2.433509   0.000000
    30  C    3.027724   3.941895   3.290438   1.738688   0.000000
    31  H    3.312241   4.245699   3.160010   2.427440   1.164258
    32  H    3.929874   4.685457   4.227527   2.364588   1.133819
    33  C    3.716643   4.764518   4.030870   2.782794   1.498889
    34  H    4.772916   5.827245   4.937905   3.756743   2.153441
    35  H    3.638532   4.768128   3.784163   3.219331   2.201143
    36  S    4.336231   5.198156   5.022484   3.316855   2.707172
    37  C    5.606328   6.309227   6.351713   4.223807   3.577526
    38  H    6.332181   7.128261   6.940676   4.917856   3.900561
    39  H    6.305658   6.936742   7.145353   5.050955   4.612697
    40  C    5.593161   6.101138   6.376977   4.002402   3.643520
    41  H    5.247306   5.751173   5.911300   3.542066   3.081443
    42  H    5.336143   5.666363   6.254251   3.867214   4.007650
    43  S    7.417063   7.864498   8.193941   5.798633   5.352982
    44  C    8.287552   8.895050   8.886998   6.625699   5.719663
    45  H    9.359134   9.929069   9.985510   7.693887   6.837927
    46  H    8.246014   8.962678   8.815283   6.670226   5.604806
    47  C    8.144687   8.741703   8.600497   6.436386   5.424603
    48  H    9.086718   9.624025   9.528639   7.362485   6.413641
    49  H    8.132645   8.838718   8.466719   6.485955   5.227881
    50  H    7.310147   7.831663   7.767853   5.581590   4.726309
                   31         32         33         34         35
    31  H    0.000000
    32  H    1.741980   0.000000
    33  C    2.145352   2.173542   0.000000
    34  H    2.430006   2.404982   1.172440   0.000000
    35  H    2.480185   3.103803   1.091382   1.733326   0.000000
    36  S    3.711851   3.041850   1.765722   2.424773   2.403524
    37  C    4.611436   3.318948   3.042047   3.246682   3.943275
    38  H    4.756526   3.511231   3.228317   3.008072   4.117031
    39  H    5.679429   4.426129   3.972787   4.224794   4.744223
    40  C    4.680393   3.070921   3.715263   3.990420   4.742270
    41  H    3.998427   2.282760   3.521490   3.740129   4.596529
    42  H    5.112732   3.605681   4.207756   4.733566   5.148837
    43  S    6.291475   4.603053   5.358071   5.377164   6.391194
    44  C    6.437791   4.852589   5.593431   5.218504   6.608358
    45  H    7.554121   5.959359   6.694242   6.301125   7.695450
    46  H    6.306871   4.876227   5.200647   4.715753   6.130767
    47  C    5.934723   4.399473   5.588484   5.113188   6.625222
    48  H    6.866902   5.346059   6.663284   6.173041   7.700554
    49  H    5.573657   4.251511   5.285211   4.608004   6.247824
    50  H    5.246646   3.641473   5.151695   4.844164   6.220406
                   36         37         38         39         40
    36  S    0.000000
    37  C    1.758886   0.000000
    38  H    2.363247   1.139370   0.000000
    39  H    2.392409   1.137911   1.810494   0.000000
    40  C    2.795362   1.480862   2.144129   2.098501   0.000000
    41  H    3.131083   2.212891   2.626155   3.081885   1.078327
    42  H    3.128898   2.168166   3.104586   2.425551   1.131004
    43  S    4.373770   2.677611   2.810368   2.746295   1.844116
    44  C    4.963001   3.341196   2.784239   3.630014   2.983297
    45  H    5.974150   4.293118   3.753855   4.371887   3.923506
    46  H    4.542380   3.028817   2.193253   3.276562   3.189823
    47  C    5.404912   4.036708   3.471161   4.647752   3.441345
    48  H    6.489333   5.072043   4.528197   5.597153   4.365760
    49  H    5.366856   4.233108   3.462461   4.965448   3.939308
    50  H    5.075201   3.851661   3.549558   4.597929   2.963295
                   41         42         43         44         45
    41  H    0.000000
    42  H    1.766737   0.000000
    43  S    2.423664   2.373084   0.000000
    44  C    3.195468   3.905634   1.834000   0.000000
    45  H    4.209199   4.714033   2.394819   1.122812   0.000000
    46  H    3.526223   4.195546   2.441385   1.107521   1.780946
    47  C    3.152491   4.401167   2.763244   1.498777   2.150539
    48  H    4.064253   5.223409   3.398911   2.147746   2.263540
    49  H    3.568026   5.001876   3.612798   2.177931   2.871610
    50  H    2.396568   3.818122   2.709363   2.192808   2.986297
                   46         47         48         49         50
    46  H    0.000000
    47  C    2.196202   0.000000
    48  H    2.969984   1.101066   0.000000
    49  H    2.367612   1.119225   1.804921   0.000000
    50  H    2.924405   1.124115   1.795240   1.784149   0.000000
 Stoichiometry    C14H30O3S3
 Framework group  C1[X(C14H30O3S3)]
 Deg. of freedom   144
 Full point group                 C1      NOp   1
 Largest Abelian subgroup         C1      NOp   1
 Largest concise Abelian subgroup C1      NOp   1
                         Standard orientation:                         
 ---------------------------------------------------------------------
 Center     Atomic      Atomic             Coordinates (Angstroms)
 Number     Number       Type             X           Y           Z
 ---------------------------------------------------------------------
      1          6           0        5.843673    1.435858    0.824237
      2          1           0        6.498449    0.934985    1.584061
      3          1           0        5.805958    2.526727    1.117732
      4          1           0        4.811509    1.099004    0.817590
      5          6           0        6.465956    1.365060   -0.534046
      6          1           0        6.228781    2.374475   -1.021721
      7          1           0        7.595442    1.403169   -0.446423
      8          8           0        6.036695    0.432964   -1.400352
      9          6           0        6.135552   -0.884809   -1.176665
     10          1           0        7.220559   -1.213578   -1.058270
     11          1           0        5.781462   -1.441573   -2.102110
     12          6           0        5.321814   -1.414834   -0.037702
     13          1           0        5.428043   -2.551228   -0.082124
     14          1           0        5.656364   -1.128328    0.960570
     15          8           0        3.946362   -1.193012   -0.227928
     16          6           0        3.291863   -1.708677    0.874669
     17          1           0        3.731776   -1.181558    1.774684
     18          1           0        3.573822   -2.788679    0.993622
     19          6           0        1.814995   -1.571370    0.848750
     20          1           0        1.375666   -2.032307    1.777059
     21          1           0        1.373546   -2.151411   -0.025892
     22          8           0        1.354531   -0.292866    0.792431
     23          6           0        1.653767    0.498874   -0.244020
     24          1           0        1.247004    0.056749   -1.202672
     25          1           0        2.770317    0.658101   -0.391274
     26          6           0        0.991447    1.849880   -0.134536
     27          1           0        1.355223    2.500940   -1.011145
     28          1           0        1.431897    2.368041    0.791392
     29         16           0       -0.745504    1.823215   -0.148851
     30          6           0       -1.648910    1.304300    1.243134
     31          1           0       -1.359237    1.903594    2.198347
     32          1           0       -2.721046    1.658495    1.140095
     33          6           0       -1.608251   -0.146538    1.617412
     34          1           0       -2.361273   -0.288891    2.504716
     35          1           0       -0.687443   -0.481761    2.097883
     36         16           0       -2.079743   -1.184552    0.269082
     37          6           0       -3.741975   -1.149556   -0.304886
     38          1           0       -4.414070   -1.367818    0.588877
     39          1           0       -3.912424   -2.012378   -1.026914
     40          6           0       -4.236667    0.060749   -1.000152
     41          1           0       -4.175907    1.011953   -0.495863
     42          1           0       -3.728220    0.201524   -2.000570
     43         16           0       -5.990753   -0.270893   -1.462707
     44          6           0       -6.978532   -0.412553    0.076052
     45          1           0       -8.011629   -0.704329   -0.253015
     46          1           0       -6.602460   -1.257837    0.684877
     47          6           0       -7.040666    0.890308    0.814311
     48          1           0       -8.040875    1.340374    0.717524
     49          1           0       -6.806857    0.763016    1.901415
     50          1           0       -6.293472    1.639408    0.434595
 ---------------------------------------------------------------------
 Rotational constants (GHZ):           0.6489812           0.0751899           0.0728545
 Leave Link  202 at Tue Jun 27 21:46:37 2023, MaxMem=   262144000 cpu:               0.1 elap:               0.0
 (Enter /dragofs/sw/campus/0.2/software/gaussian/16.gaussian/gaussian/g16_legacy/l301.exe)
 Standard basis: 6-31G(d) (6D, 7F)
 Ernie: Thresh=  0.10000D-02 Tol=  0.10000D-05 Strict=F.
 There are   372 symmetry adapted cartesian basis functions of A   symmetry.
 There are   372 symmetry adapted basis functions of A   symmetry.
   372 basis functions,   752 primitive gaussians,   372 cartesian basis functions
    93 alpha electrons       93 beta electrons
       nuclear repulsion energy      2082.5875318069 Hartrees.
 IExCor=20419 DFT=T Ex+Corr=CAM-B3LYP ExCW=0 ScaHFX=  1.000000
 ScaDFX=  1.000000  1.000000  1.000000  0.810000 ScalE2=  1.000000  1.000000
 IRadAn=      5 IRanWt=     -1 IRanGd=            0 ICorTp=0 IEmpDi=  4
 HFx  wShort=  0.000000 wLong=  0.330000 cFull=  0.190000 cShort=  0.000000 cLong=  0.460000
 DFx  wShort=  0.000000 wLong=  0.330000 cFull=  0.190000 cShort=  0.000000 cLong=  0.460000
 NAtoms=   50 NActive=   50 NUniq=   50 SFac= 1.00D+00 NAtFMM=   60 NAOKFM=F Big=F
 Integral buffers will be    131072 words long.
 Raffenetti 2 integral format.
 Two-electron integral symmetry is turned on.
 Leave Link  301 at Tue Jun 27 21:46:37 2023, MaxMem=   262144000 cpu:               0.4 elap:               0.1
 (Enter /dragofs/sw/campus/0.2/software/gaussian/16.gaussian/gaussian/g16_legacy/l302.exe)
 NPDir=0 NMtPBC=     1 NCelOv=     1 NCel=       1 NClECP=     1 NCelD=      1
         NCelK=      1 NCelE2=     1 NClLst=     1 CellRange=     0.0.
 One-electron integrals computed using PRISM.
 One-electron integral symmetry used in STVInt
 NBasis=   372 RedAO= T EigKep=  3.54D-03  NBF=   372
 NBsUse=   372 1.00D-06 EigRej= -1.00D+00 NBFU=   372
 Precomputing XC quadrature grid using
 IXCGrd= 4 IRadAn=           5 IRanWt=          -1 IRanGd=           0 AccXCQ= 0.00D+00.
 Generated NRdTot=       0 NPtTot=           0 NUsed=           0 NTot=          32
 NSgBfM=   361   360   361   361   361 MxSgAt=    50 MxSgA2=    50.
 Leave Link  302 at Tue Jun 27 21:46:38 2023, MaxMem=   262144000 cpu:               4.7 elap:               0.6
 (Enter /dragofs/sw/campus/0.2/software/gaussian/16.gaussian/gaussian/g16_legacy/l303.exe)
 DipDrv:  MaxL=1.
 Leave Link  303 at Tue Jun 27 21:46:38 2023, MaxMem=   262144000 cpu:               0.3 elap:               0.1
 (Enter /dragofs/sw/campus/0.2/software/gaussian/16.gaussian/gaussian/g16_legacy/l401.exe)
 ExpMin= 1.17D-01 ExpMax= 2.19D+04 ExpMxC= 3.30D+03 IAcc=3 IRadAn=         5 AccDes= 0.00D+00
 Harris functional with IExCor=20419 and IRadAn=       5 diagonalized for initial guess.
 HarFok:  IExCor=20419 AccDes= 0.00D+00 IRadAn=         5 IDoV= 1 UseB2=F ITyADJ=14
 ICtDFT=  3500011 ScaDFX=  1.000000  1.000000  1.000000  1.000000
 FoFCou: FMM=F IPFlag=           0 FMFlag=      100000 FMFlg1=           0
         NFxFlg=           0 DoJE=T BraDBF=F KetDBF=T FulRan=T
         wScrn=  0.000000 ICntrl=       500 IOpCl=  0 I1Cent=   200000004 NGrid=           0
         NMat0=    1 NMatS0=      1 NMatT0=    0 NMatD0=    1 NMtDS0=    0 NMtDT0=    0
 Petite list used in FoFCou.
 Harris En= -1921.19552961239    
 JPrj=0 DoOrth=F DoCkMO=F.
 Leave Link  401 at Tue Jun 27 21:46:41 2023, MaxMem=   262144000 cpu:              23.0 elap:               2.9
 (Enter /dragofs/sw/campus/0.2/software/gaussian/16.gaussian/gaussian/g16_legacy/l502.exe)
 Integral symmetry usage will be decided dynamically.
 Closed shell SCF:
 Using DIIS extrapolation, IDIIS=  1040.
 NGot=   262144000 LenX=   261859787 LenY=   261720962
 Requested convergence on RMS density matrix=1.00D-08 within 128 cycles.
 Requested convergence on MAX density matrix=1.00D-06.
 Requested convergence on             energy=1.00D-06.
 No special actions if energy rises.
 Fock matrices will be formed incrementally for  20 cycles.
 Integral accuracy reduced to 1.0D-05 until final iterations.

 Cycle   1  Pass 0  IDiag  1:
 FoFJK:  IHMeth= 1 ICntrl=       0 DoSepK=T KAlg= 0 I1Cent=           0 FoldK=F
 IRaf=         1 NMat=       1 IRICut=       1 DoRegI=T DoRafI=F ISym2E= 0 IDoP0=0 IntGTp=1.
 FoFCou: FMM=F IPFlag=           0 FMFlag=      100000 FMFlg1=           0
         NFxFlg=           0 DoJE=T BraDBF=F KetDBF=F FulRan=T
         wScrn=  0.000000 ICntrl=       500 IOpCl=  0 I1Cent=           0 NGrid=           0
         NMat0=    1 NMatS0=      1 NMatT0=    0 NMatD0=    1 NMtDS0=    0 NMtDT0=    0
 Symmetry not used in FoFCou.
 E= -1970.86129605740    
 DIIS: error= 5.79D-02 at cycle   1 NSaved=   1.
 NSaved= 1 IEnMin= 1 EnMin= -1970.86129605740     IErMin= 1 ErrMin= 5.79D-02
 ErrMax= 5.79D-02  0.00D+00 EMaxC= 1.00D-01 BMatC= 9.63D-01 BMatP= 9.63D-01
 IDIUse=3 WtCom= 4.21D-01 WtEn= 5.79D-01
 Coeff-Com:  0.100D+01
 Coeff-En:   0.100D+01
 Coeff:      0.100D+01
 Gap=     0.395 Goal=   None    Shift=    0.000
 GapD=    0.395 DampG=1.000 DampE=0.500 DampFc=0.5000 IDamp=-1.
 Damping current iteration by 5.00D-01
 RMSDP=3.46D-03 MaxDP=2.70D-01              OVMax= 1.08D-01

 Cycle   2  Pass 0  IDiag  1:
 RMSU=  1.73D-03    CP:  1.00D+00
 E= -1971.03408075579     Delta-E=       -0.172784698385 Rises=F Damp=T
 DIIS: error= 2.33D-02 at cycle   2 NSaved=   2.
 NSaved= 2 IEnMin= 2 EnMin= -1971.03408075579     IErMin= 2 ErrMin= 2.33D-02
 ErrMax= 2.33D-02  0.00D+00 EMaxC= 1.00D-01 BMatC= 1.69D-01 BMatP= 9.63D-01
 IDIUse=3 WtCom= 7.67D-01 WtEn= 2.33D-01
 Coeff-Com: -0.437D+00 0.144D+01
 Coeff-En:   0.000D+00 0.100D+01
 Coeff:     -0.335D+00 0.133D+01
 Gap=     0.368 Goal=   None    Shift=    0.000
 RMSDP=9.40D-04 MaxDP=4.59D-02 DE=-1.73D-01 OVMax= 6.90D-02

 Cycle   3  Pass 0  IDiag  1:
 RMSU=  8.86D-04    CP:  1.01D+00  1.17D+00
 E= -1971.17527723572     Delta-E=       -0.141196479935 Rises=F Damp=F
 DIIS: error= 6.12D-03 at cycle   3 NSaved=   3.
 NSaved= 3 IEnMin= 3 EnMin= -1971.17527723572     IErMin= 3 ErrMin= 6.12D-03
 ErrMax= 6.12D-03  0.00D+00 EMaxC= 1.00D-01 BMatC= 3.51D-02 BMatP= 1.69D-01
 IDIUse=3 WtCom= 9.39D-01 WtEn= 6.12D-02
 Coeff-Com: -0.258D+00 0.586D+00 0.672D+00
 Coeff-En:   0.000D+00 0.000D+00 0.100D+01
 Coeff:     -0.242D+00 0.550D+00 0.692D+00
 Gap=     0.344 Goal=   None    Shift=    0.000
 RMSDP=5.25D-04 MaxDP=2.81D-02 DE=-1.41D-01 OVMax= 2.50D-02

 Cycle   4  Pass 0  IDiag  1:
 RMSU=  3.44D-04    CP:  1.00D+00  1.32D+00  6.70D-01
 E= -1971.20113619107     Delta-E=       -0.025858955350 Rises=F Damp=F
 DIIS: error= 1.64D-03 at cycle   4 NSaved=   4.
 NSaved= 4 IEnMin= 4 EnMin= -1971.20113619107     IErMin= 4 ErrMin= 1.64D-03
 ErrMax= 1.64D-03  0.00D+00 EMaxC= 1.00D-01 BMatC= 2.47D-03 BMatP= 3.51D-02
 IDIUse=3 WtCom= 9.84D-01 WtEn= 1.64D-02
 Coeff-Com: -0.965D-01 0.207D+00 0.333D+00 0.556D+00
 Coeff-En:   0.000D+00 0.000D+00 0.000D+00 0.100D+01
 Coeff:     -0.949D-01 0.204D+00 0.328D+00 0.563D+00
 Gap=     0.347 Goal=   None    Shift=    0.000
 RMSDP=1.32D-04 MaxDP=7.50D-03 DE=-2.59D-02 OVMax= 5.97D-03

 Cycle   5  Pass 0  IDiag  1:
 RMSU=  6.78D-05    CP:  1.00D+00  1.35D+00  7.11D-01  7.10D-01
 E= -1971.20294254760     Delta-E=       -0.001806356525 Rises=F Damp=F
 DIIS: error= 1.88D-04 at cycle   5 NSaved=   5.
 NSaved= 5 IEnMin= 5 EnMin= -1971.20294254760     IErMin= 5 ErrMin= 1.88D-04
 ErrMax= 1.88D-04  0.00D+00 EMaxC= 1.00D-01 BMatC= 4.79D-05 BMatP= 2.47D-03
 IDIUse=3 WtCom= 9.98D-01 WtEn= 1.88D-03
 Coeff-Com: -0.177D-01 0.363D-01 0.807D-01 0.195D+00 0.705D+00
 Coeff-En:   0.000D+00 0.000D+00 0.000D+00 0.000D+00 0.100D+01
 Coeff:     -0.177D-01 0.362D-01 0.805D-01 0.195D+00 0.706D+00
 Gap=     0.347 Goal=   None    Shift=    0.000
 RMSDP=2.40D-05 MaxDP=1.11D-03 DE=-1.81D-03 OVMax= 1.03D-03

 Cycle   6  Pass 0  IDiag  1:
 RMSU=  1.89D-05    CP:  1.00D+00  1.35D+00  7.20D-01  7.42D-01  9.25D-01
 E= -1971.20298500588     Delta-E=       -0.000042458284 Rises=F Damp=F
 DIIS: error= 7.40D-05 at cycle   6 NSaved=   6.
 NSaved= 6 IEnMin= 6 EnMin= -1971.20298500588     IErMin= 6 ErrMin= 7.40D-05
 ErrMax= 7.40D-05  0.00D+00 EMaxC= 1.00D-01 BMatC= 4.94D-06 BMatP= 4.79D-05
 IDIUse=1 WtCom= 1.00D+00 WtEn= 0.00D+00
 Coeff-Com:  0.529D-02-0.116D-01-0.820D-02 0.671D-02 0.257D+00 0.751D+00
 Coeff:      0.529D-02-0.116D-01-0.820D-02 0.671D-02 0.257D+00 0.751D+00
 Gap=     0.347 Goal=   None    Shift=    0.000
 RMSDP=8.89D-06 MaxDP=6.12D-04 DE=-4.25D-05 OVMax= 2.74D-04

 Initial convergence to 1.0D-05 achieved.  Increase integral accuracy.
 Cycle   7  Pass 1  IDiag  1:
 E= -1971.20299340255     Delta-E=       -0.000008396671 Rises=F Damp=F
 DIIS: error= 1.56D-05 at cycle   1 NSaved=   1.
 NSaved= 1 IEnMin= 1 EnMin= -1971.20299340255     IErMin= 1 ErrMin= 1.56D-05
 ErrMax= 1.56D-05  0.00D+00 EMaxC= 1.00D-01 BMatC= 4.25D-07 BMatP= 4.25D-07
 IDIUse=1 WtCom= 1.00D+00 WtEn= 0.00D+00
 Coeff-Com:  0.100D+01
 Coeff:      0.100D+01
 Gap=     0.347 Goal=   None    Shift=    0.000
 RMSDP=8.89D-06 MaxDP=6.12D-04 DE=-8.40D-06 OVMax= 1.51D-04

 Cycle   8  Pass 1  IDiag  1:
 RMSU=  5.90D-06    CP:  1.00D+00
 E= -1971.20299356887     Delta-E=       -0.000000166317 Rises=F Damp=F
 DIIS: error= 1.89D-05 at cycle   2 NSaved=   2.
 NSaved= 2 IEnMin= 2 EnMin= -1971.20299356887     IErMin= 1 ErrMin= 1.56D-05
 ErrMax= 1.89D-05  0.00D+00 EMaxC= 1.00D-01 BMatC= 3.29D-07 BMatP= 4.25D-07
 IDIUse=1 WtCom= 1.00D+00 WtEn= 0.00D+00
 Coeff-Com:  0.464D+00 0.536D+00
 Coeff:      0.464D+00 0.536D+00
 Gap=     0.347 Goal=   None    Shift=    0.000
 RMSDP=1.68D-06 MaxDP=8.03D-05 DE=-1.66D-07 OVMax= 7.44D-05

 Cycle   9  Pass 1  IDiag  1:
 RMSU=  1.58D-06    CP:  1.00D+00  9.02D-01
 E= -1971.20299382366     Delta-E=       -0.000000254792 Rises=F Damp=F
 DIIS: error= 4.30D-06 at cycle   3 NSaved=   3.
 NSaved= 3 IEnMin= 3 EnMin= -1971.20299382366     IErMin= 3 ErrMin= 4.30D-06
 ErrMax= 4.30D-06  0.00D+00 EMaxC= 1.00D-01 BMatC= 1.17D-08 BMatP= 3.29D-07
 IDIUse=1 WtCom= 1.00D+00 WtEn= 0.00D+00
 Coeff-Com:  0.276D-01 0.158D+00 0.814D+00
 Coeff:      0.276D-01 0.158D+00 0.814D+00
 Gap=     0.347 Goal=   None    Shift=    0.000
 RMSDP=4.22D-07 MaxDP=2.25D-05 DE=-2.55D-07 OVMax= 2.17D-05

 Cycle  10  Pass 1  IDiag  1:
 RMSU=  3.65D-07    CP:  1.00D+00  9.37D-01  1.01D+00
 E= -1971.20299383220     Delta-E=       -0.000000008542 Rises=F Damp=F
 DIIS: error= 1.21D-06 at cycle   4 NSaved=   4.
 NSaved= 4 IEnMin= 4 EnMin= -1971.20299383220     IErMin= 4 ErrMin= 1.21D-06
 ErrMax= 1.21D-06  0.00D+00 EMaxC= 1.00D-01 BMatC= 1.52D-09 BMatP= 1.17D-08
 IDIUse=1 WtCom= 1.00D+00 WtEn= 0.00D+00
 Coeff-Com: -0.177D-01 0.355D-01 0.356D+00 0.626D+00
 Coeff:     -0.177D-01 0.355D-01 0.356D+00 0.626D+00
 Gap=     0.347 Goal=   None    Shift=    0.000
 RMSDP=1.50D-07 MaxDP=7.63D-06 DE=-8.54D-09 OVMax= 7.17D-06

 Cycle  11  Pass 1  IDiag  1:
 RMSU=  1.26D-07    CP:  1.00D+00  9.48D-01  1.01D+00  8.59D-01
 E= -1971.20299383363     Delta-E=       -0.000000001430 Rises=F Damp=F
 DIIS: error= 2.79D-07 at cycle   5 NSaved=   5.
 NSaved= 5 IEnMin= 5 EnMin= -1971.20299383363     IErMin= 5 ErrMin= 2.79D-07
 ErrMax= 2.79D-07  0.00D+00 EMaxC= 1.00D-01 BMatC= 4.63D-11 BMatP= 1.52D-09
 IDIUse=1 WtCom= 1.00D+00 WtEn= 0.00D+00
 Coeff-Com: -0.563D-02-0.128D-02 0.311D-01 0.141D+00 0.835D+00
 Coeff:     -0.563D-02-0.128D-02 0.311D-01 0.141D+00 0.835D+00
 Gap=     0.347 Goal=   None    Shift=    0.000
 RMSDP=5.27D-08 MaxDP=2.29D-06 DE=-1.43D-09 OVMax= 2.91D-06

 Cycle  12  Pass 1  IDiag  1:
 RMSU=  3.25D-08    CP:  1.00D+00  9.51D-01  1.02D+00  9.32D-01  1.19D+00
 E= -1971.20299383377     Delta-E=       -0.000000000141 Rises=F Damp=F
 DIIS: error= 1.17D-07 at cycle   6 NSaved=   6.
 NSaved= 6 IEnMin= 6 EnMin= -1971.20299383377     IErMin= 6 ErrMin= 1.17D-07
 ErrMax= 1.17D-07  0.00D+00 EMaxC= 1.00D-01 BMatC= 1.34D-11 BMatP= 4.63D-11
 IDIUse=1 WtCom= 1.00D+00 WtEn= 0.00D+00
 Coeff-Com:  0.940D-04-0.614D-02-0.417D-01-0.391D-01 0.356D+00 0.731D+00
 Coeff:      0.940D-04-0.614D-02-0.417D-01-0.391D-01 0.356D+00 0.731D+00
 Gap=     0.347 Goal=   None    Shift=    0.000
 RMSDP=2.10D-08 MaxDP=8.82D-07 DE=-1.41D-10 OVMax= 1.37D-06

 Cycle  13  Pass 1  IDiag  1:
 RMSU=  1.09D-08    CP:  1.00D+00  9.51D-01  1.02D+00  9.65D-01  1.27D+00
                    CP:  8.73D-01
 E= -1971.20299383375     Delta-E=        0.000000000025 Rises=F Damp=F
 DIIS: error= 3.08D-08 at cycle   7 NSaved=   7.
 NSaved= 7 IEnMin= 6 EnMin= -1971.20299383377     IErMin= 7 ErrMin= 3.08D-08
 ErrMax= 3.08D-08  0.00D+00 EMaxC= 1.00D-01 BMatC= 1.04D-12 BMatP= 1.34D-11
 IDIUse=1 WtCom= 1.00D+00 WtEn= 0.00D+00
 Coeff-Com:  0.570D-03-0.211D-02-0.182D-01-0.272D-01 0.703D-01 0.291D+00
 Coeff-Com:  0.685D+00
 Coeff:      0.570D-03-0.211D-02-0.182D-01-0.272D-01 0.703D-01 0.291D+00
 Coeff:      0.685D+00
 Gap=     0.347 Goal=   None    Shift=    0.000
 RMSDP=5.35D-09 MaxDP=2.97D-07 DE= 2.55D-11 OVMax= 3.91D-07

 SCF Done:  E(RCAM-B3LYP) =  -1971.20299383     A.U. after   13 cycles
            NFock= 13  Conv=0.53D-08     -V/T= 2.0055
 KE= 1.960516105246D+03 PE=-8.810493914077D+03 EE= 2.796187283191D+03
 Leave Link  502 at Tue Jun 27 21:47:34 2023, MaxMem=   262144000 cpu:             424.7 elap:              53.3
 (Enter /dragofs/sw/campus/0.2/software/gaussian/16.gaussian/gaussian/g16_legacy/l601.exe)
 Copying SCF densities to generalized density rwf, IOpCl= 0 IROHF=0.

 **********************************************************************

            Population analysis using the SCF density.

 **********************************************************************

 Orbital symmetries:
       Occupied  (A) (A) (A) (A) (A) (A) (A) (A) (A) (A) (A) (A)
                 (A) (A) (A) (A) (A) (A) (A) (A) (A) (A) (A) (A)
                 (A) (A) (A) (A) (A) (A) (A) (A) (A) (A) (A) (A)
                 (A) (A) (A) (A) (A) (A) (A) (A) (A) (A) (A) (A)
                 (A) (A) (A) (A) (A) (A) (A) (A) (A) (A) (A) (A)
                 (A) (A) (A) (A) (A) (A) (A) (A) (A) (A) (A) (A)
                 (A) (A) (A) (A) (A) (A) (A) (A) (A) (A) (A) (A)
                 (A) (A) (A) (A) (A) (A) (A) (A) (A)
       Virtual   (A) (A) (A) (A) (A) (A) (A) (A) (A) (A) (A) (A)
                 (A) (A) (A) (A) (A) (A) (A) (A) (A) (A) (A) (A)
                 (A) (A) (A) (A) (A) (A) (A) (A) (A) (A) (A) (A)
                 (A) (A) (A) (A) (A) (A) (A) (A) (A) (A) (A) (A)
                 (A) (A) (A) (A) (A) (A) (A) (A) (A) (A) (A) (A)
                 (A) (A) (A) (A) (A) (A) (A) (A) (A) (A) (A) (A)
                 (A) (A) (A) (A) (A) (A) (A) (A) (A) (A) (A) (A)
                 (A) (A) (A) (A) (A) (A) (A) (A) (A) (A) (A) (A)
                 (A) (A) (A) (A) (A) (A) (A) (A) (A) (A) (A) (A)
                 (A) (A) (A) (A) (A) (A) (A) (A) (A) (A) (A) (A)
                 (A) (A) (A) (A) (A) (A) (A) (A) (A) (A) (A) (A)
                 (A) (A) (A) (A) (A) (A) (A) (A) (A) (A) (A) (A)
                 (A) (A) (A) (A) (A) (A) (A) (A) (A) (A) (A) (A)
                 (A) (A) (A) (A) (A) (A) (A) (A) (A) (A) (A) (A)
                 (A) (A) (A) (A) (A) (A) (A) (A) (A) (A) (A) (A)
                 (A) (A) (A) (A) (A) (A) (A) (A) (A) (A) (A) (A)
                 (A) (A) (A) (A) (A) (A) (A) (A) (A) (A) (A) (A)
                 (A) (A) (A) (A) (A) (A) (A) (A) (A) (A) (A) (A)
                 (A) (A) (A) (A) (A) (A) (A) (A) (A) (A) (A) (A)
                 (A) (A) (A) (A) (A) (A) (A) (A) (A) (A) (A) (A)
                 (A) (A) (A) (A) (A) (A) (A) (A) (A) (A) (A) (A)
                 (A) (A) (A) (A) (A) (A) (A) (A) (A) (A) (A) (A)
                 (A) (A) (A) (A) (A) (A) (A) (A) (A) (A) (A) (A)
                 (A) (A) (A)
 The electronic state is 1-A.
 Alpha  occ. eigenvalues --  -88.93021 -88.92230 -88.92161 -19.23268 -19.22336
 Alpha  occ. eigenvalues --  -19.22230 -10.31516 -10.31322 -10.31137 -10.31018
 Alpha  occ. eigenvalues --  -10.30991 -10.29500 -10.29489 -10.29237 -10.29009
 Alpha  occ. eigenvalues --  -10.28983 -10.28728 -10.28712 -10.25893 -10.25546
 Alpha  occ. eigenvalues --   -7.99273  -7.98754  -7.98627  -5.95904  -5.95474
 Alpha  occ. eigenvalues --   -5.95412  -5.95272  -5.94871  -5.94802  -5.94763
 Alpha  occ. eigenvalues --   -5.94278  -5.94153  -1.15966  -1.15281  -1.13435
 Alpha  occ. eigenvalues --   -0.92233  -0.90358  -0.88169  -0.86958  -0.85758
 Alpha  occ. eigenvalues --   -0.83922  -0.81637  -0.79787  -0.76538  -0.73872
 Alpha  occ. eigenvalues --   -0.72386  -0.71117  -0.68156  -0.66138  -0.65410
 Alpha  occ. eigenvalues --   -0.64011  -0.62237  -0.59922  -0.58160  -0.57920
 Alpha  occ. eigenvalues --   -0.56879  -0.55210  -0.54750  -0.53918  -0.53165
 Alpha  occ. eigenvalues --   -0.52910  -0.52301  -0.51783  -0.50366  -0.50296
 Alpha  occ. eigenvalues --   -0.49186  -0.48434  -0.47717  -0.47318  -0.46717
 Alpha  occ. eigenvalues --   -0.46205  -0.45643  -0.45007  -0.44550  -0.43863
 Alpha  occ. eigenvalues --   -0.43089  -0.42986  -0.41952  -0.40815  -0.40580
 Alpha  occ. eigenvalues --   -0.39580  -0.39547  -0.36566  -0.35249  -0.35129
 Alpha  occ. eigenvalues --   -0.33482  -0.32813  -0.32094  -0.31955  -0.30669
 Alpha  occ. eigenvalues --   -0.27669  -0.26906  -0.25472
 Alpha virt. eigenvalues --    0.09220   0.10522   0.11210   0.11286   0.11526
 Alpha virt. eigenvalues --    0.12502   0.13346   0.13807   0.14128   0.14677
 Alpha virt. eigenvalues --    0.15125   0.15197   0.15711   0.16216   0.16479
 Alpha virt. eigenvalues --    0.16658   0.17462   0.17690   0.18696   0.18927
 Alpha virt. eigenvalues --    0.19507   0.19955   0.20566   0.21210   0.21660
 Alpha virt. eigenvalues --    0.22044   0.22074   0.22911   0.23455   0.24038
 Alpha virt. eigenvalues --    0.24555   0.24880   0.25651   0.25937   0.27073
 Alpha virt. eigenvalues --    0.27176   0.27834   0.28673   0.29160   0.30190
 Alpha virt. eigenvalues --    0.30734   0.31300   0.32014   0.32487   0.32633
 Alpha virt. eigenvalues --    0.33673   0.34842   0.37928   0.37991   0.39484
 Alpha virt. eigenvalues --    0.41813   0.42852   0.44537   0.46093   0.46789
 Alpha virt. eigenvalues --    0.48396   0.48762   0.49826   0.50020   0.50979
 Alpha virt. eigenvalues --    0.53726   0.54896   0.55924   0.56620   0.57629
 Alpha virt. eigenvalues --    0.58122   0.58969   0.59777   0.60120   0.61022
 Alpha virt. eigenvalues --    0.61481   0.62172   0.63280   0.63915   0.64199
 Alpha virt. eigenvalues --    0.65485   0.66217   0.67197   0.68088   0.68486
 Alpha virt. eigenvalues --    0.69847   0.70652   0.71281   0.71668   0.72403
 Alpha virt. eigenvalues --    0.72979   0.73096   0.73802   0.74188   0.76251
 Alpha virt. eigenvalues --    0.76679   0.77256   0.78719   0.80576   0.81663
 Alpha virt. eigenvalues --    0.82383   0.83337   0.84262   0.86061   0.86184
 Alpha virt. eigenvalues --    0.87155   0.87261   0.87440   0.88273   0.88719
 Alpha virt. eigenvalues --    0.89099   0.89914   0.90110   0.90704   0.90950
 Alpha virt. eigenvalues --    0.91686   0.91757   0.92175   0.92723   0.93239
 Alpha virt. eigenvalues --    0.93681   0.94237   0.94620   0.94899   0.95876
 Alpha virt. eigenvalues --    0.96621   0.97057   0.97108   0.97762   0.98737
 Alpha virt. eigenvalues --    0.99045   0.99175   0.99825   1.00480   1.00841
 Alpha virt. eigenvalues --    1.01613   1.01953   1.02603   1.03623   1.04152
 Alpha virt. eigenvalues --    1.04794   1.05713   1.06685   1.07202   1.07382
 Alpha virt. eigenvalues --    1.08018   1.09089   1.09974   1.10864   1.12744
 Alpha virt. eigenvalues --    1.13816   1.13969   1.15720   1.16497   1.17872
 Alpha virt. eigenvalues --    1.20514   1.20982   1.22473   1.24232   1.25900
 Alpha virt. eigenvalues --    1.27220   1.28686   1.33445   1.33594   1.34364
 Alpha virt. eigenvalues --    1.35634   1.39516   1.40608   1.45560   1.48269
 Alpha virt. eigenvalues --    1.50610   1.52876   1.53263   1.54409   1.55445
 Alpha virt. eigenvalues --    1.55710   1.58867   1.59745   1.60061   1.61001
 Alpha virt. eigenvalues --    1.61270   1.62393   1.63944   1.65803   1.66753
[...]
    10  H   -0.000000   0.000000   0.000000   0.000000   0.000000   0.000000
    11  H   -0.000000   0.000000   0.000000  -0.000000  -0.000000   0.000000
    12  C   -0.000000  -0.000000   0.000000   0.000000   0.000000   0.000000
    13  H   -0.000000   0.000000   0.000000  -0.000000  -0.000000   0.000000
    14  H   -0.000000   0.000000   0.000000  -0.000000   0.000000   0.000000
    15  O    0.000000   0.000000  -0.000000  -0.000000  -0.000000  -0.000000
    16  C   -0.000000  -0.000000   0.000000   0.000000   0.000000   0.000000
    17  H   -0.000000   0.000000  -0.000000   0.000000   0.000000   0.000000
    18  H    0.000000   0.000000   0.000000  -0.000000  -0.000000  -0.000000
    19  C    0.000000  -0.000000   0.000000  -0.000000  -0.000000   0.000000
    20  H   -0.000000   0.000000  -0.000000   0.000000  -0.000000   0.000000
    21  H   -0.000000  -0.000000  -0.000000   0.000000   0.000000  -0.000000
    22  O   -0.000000  -0.000000  -0.000000   0.000000   0.000000  -0.000000
    23  C    0.000000   0.000000  -0.000000  -0.000000  -0.000000  -0.000000
    24  H   -0.000000   0.000000  -0.000000   0.000000  -0.000000  -0.000000
    25  H    0.000000  -0.000000   0.000000   0.000000   0.000000   0.000000
    26  C   -0.000000  -0.000000   0.000000  -0.000000   0.000000   0.000000
    27  H    0.000000  -0.000000   0.000000  -0.000000   0.000000  -0.000000
    28  H    0.000000   0.000000  -0.000000   0.000000  -0.000000   0.000000
    29  S   -0.000005  -0.000006   0.000000  -0.000001  -0.000056  -0.000002
    30  C   -0.000028  -0.000021   0.000000   0.000051  -0.000306   0.000005
    31  H    0.000003   0.000001  -0.000000  -0.000002   0.000002  -0.000000
    32  H   -0.000165   0.000028   0.000003   0.000415   0.000636  -0.000011
    33  C   -0.000102   0.000007  -0.000000  -0.000028   0.000004  -0.000000
    34  H    0.000025  -0.000006   0.000000   0.000003   0.000000  -0.000000
    35  H    0.000004   0.000000   0.000000  -0.000000  -0.000000   0.000000
    36  S    0.007300   0.000059   0.000003  -0.000350  -0.000014  -0.000001
    37  C   -0.051246  -0.004765   0.000067   0.002870  -0.000071   0.000014
    38  H   -0.004839   0.001177  -0.000100   0.004824   0.000007   0.000002
    39  H    0.003901  -0.000286  -0.000006   0.000017   0.000010   0.000000
    40  C    0.242883  -0.019362   0.002628  -0.005722  -0.004979  -0.000285
    41  H   -0.038269  -0.006627   0.000030  -0.000774   0.003757   0.000078
    42  H   -0.038270   0.002602  -0.000060  -0.000005   0.000053  -0.000012
    43  S   15.670933   0.264783  -0.039346  -0.042451  -0.057297   0.002507
    44  C    0.264783   5.184912   0.379700   0.368506   0.345750  -0.037102
    45  H   -0.039346   0.379700   0.546149  -0.028614  -0.036417  -0.003532
    46  H   -0.042451   0.368506  -0.028614   0.583086  -0.045542   0.004675
    47  C   -0.057297   0.345750  -0.036417  -0.045542   5.099050   0.384998
    48  H    0.002507  -0.037102  -0.003532   0.004675   0.384998   0.537372
    49  H    0.005409  -0.027881  -0.002946  -0.001489   0.365785  -0.028269
    50  H   -0.005521  -0.037889   0.004425  -0.003426   0.385975  -0.027569
              49         50
     1  C   -0.000000   0.000000
     2  H    0.000000   0.000000
     3  H    0.000000  -0.000000
     4  H    0.000000  -0.000000
     5  C   -0.000000  -0.000000
     6  H   -0.000000  -0.000000
     7  H    0.000000   0.000000
     8  O    0.000000   0.000000
     9  C   -0.000000   0.000000
    10  H    0.000000   0.000000
    11  H    0.000000   0.000000
    12  C    0.000000  -0.000000
    13  H    0.000000   0.000000
    14  H   -0.000000  -0.000000
    15  O   -0.000000   0.000000
    16  C    0.000000  -0.000000
    17  H    0.000000  -0.000000
    18  H    0.000000   0.000000
    19  C    0.000000   0.000000
    20  H    0.000000  -0.000000
    21  H    0.000000  -0.000000
    22  O   -0.000000  -0.000000
    23  C    0.000000   0.000000
    24  H    0.000000   0.000000
    25  H   -0.000000  -0.000000
    26  C   -0.000000  -0.000000
    27  H   -0.000000  -0.000000
    28  H    0.000000   0.000000
    29  S   -0.000001   0.000584
    30  C    0.000005  -0.000240
    31  H   -0.000000  -0.000007
    32  H   -0.000010   0.001945
    33  C    0.000000   0.000008
    34  H    0.000000  -0.000000
    35  H   -0.000000   0.000000
    36  S   -0.000002   0.000026
    37  C   -0.000004   0.000032
    38  H    0.000001  -0.000032
    39  H   -0.000000   0.000001
    40  C    0.000133   0.001212
    41  H   -0.000288   0.004007
    42  H    0.000001  -0.000090
    43  S    0.005409  -0.005521
    44  C   -0.027881  -0.037889
    45  H   -0.002946   0.004425
    46  H   -0.001489  -0.003426
    47  C    0.365785   0.385975
    48  H   -0.028269  -0.027569
    49  H    0.571348  -0.030377
    50  H   -0.030377   0.548700
 Mulliken charges:
               1
     1  C   -0.461041
     2  H    0.145676
     3  H    0.147527
     4  H    0.160559
     5  C   -0.027297
     6  H    0.149933
     7  H    0.125712
     8  O   -0.461170
     9  C   -0.045109
    10  H    0.126021
    11  H    0.156870
    12  C   -0.014045
    13  H    0.118008
    14  H    0.127397
    15  O   -0.469761
    16  C   -0.021572
    17  H    0.130173
    18  H    0.120497
    19  C   -0.045865
    20  H    0.156081
    21  H    0.147817
    22  O   -0.479455
    23  C   -0.012624
    24  H    0.138696
    25  H    0.169468
    26  C   -0.444447
    27  H    0.178487
    28  H    0.170862
    29  S    0.098891
    30  C   -0.418274
    31  H    0.169837
    32  H    0.169473
    33  C   -0.422123
    34  H    0.160731
    35  H    0.218043
    36  S    0.096805
    37  C   -0.421151
    38  H    0.165471
    39  H    0.189897
    40  C   -0.415109
    41  H    0.187819
    42  H    0.191494
    43  S    0.079791
    44  C   -0.413578
    45  H    0.178016
    46  H    0.163958
    47  C   -0.441345
    48  H    0.167131
    49  H    0.148584
    50  H    0.158236
 Sum of Mulliken charges =  -0.00000
 Mulliken charges with hydrogens summed into heavy atoms:
               1
     1  C   -0.007278
     5  C    0.248348
     8  O   -0.461170
     9  C    0.237782
    12  C    0.231360
    15  O   -0.469761
    16  C    0.229099
    19  C    0.258034
    22  O   -0.479455
    23  C    0.295540
    26  C   -0.095097
    29  S    0.098891
    30  C   -0.078964
    33  C   -0.043348
    36  S    0.096805
    37  C   -0.065782
    40  C   -0.035796
    43  S    0.079791
    44  C   -0.071604
    47  C    0.032607
 Electronic spatial extent (au):  <R**2>=          14665.6615
 Charge=             -0.0000 electrons
 Dipole moment (field-independent basis, Debye):
    X=              4.6377    Y=              0.8923    Z=              2.9696  Tot=              5.5788
 Quadrupole moment (field-independent basis, Debye-Ang):
   XX=           -127.5410   YY=           -144.3128   ZZ=           -147.1656
   XY=             -9.1091   XZ=             -6.5669   YZ=              4.2979
 Traceless Quadrupole moment (field-independent basis, Debye-Ang):
   XX=             12.1321   YY=             -4.6396   ZZ=             -7.4925
   XY=             -9.1091   XZ=             -6.5669   YZ=              4.2979
 Octapole moment (field-independent basis, Debye-Ang**2):
  XXX=            293.9605  YYY=             -8.4511  ZZZ=              0.3095  XYY=             42.1858
  XXY=             52.4507  XXZ=             60.4670  XZZ=             17.6765  YZZ=             -0.0022
  YYZ=              0.2000  XYZ=             -2.9115
 Hexadecapole moment (field-independent basis, Debye-Ang**3):
 XXXX=         -15962.8442 YYYY=          -1994.7675 ZZZZ=           -722.4574 XXXY=           -356.2559
 XXXZ=           -341.6746 YYYX=             21.2967 YYYZ=             22.1881 ZZZX=            -60.0331
 ZZZY=              8.8272 XXYY=          -3007.8309 XXZZ=          -2984.8064 YYZZ=           -457.3100
 XXYZ=             58.6998 YYXZ=             16.0118 ZZXY=             -0.3584
 N-N= 2.059858751023D+03 E-N=-8.765756951776D+03  KE= 1.960310151312D+03
 There are a total of     1150836 grid points.
 ElSum from          density=      186.0000344120
 ElSum from atomic densities=      186.0000394589
 Hirshfeld populations at iteration   1 (CA, CB, DipXYZ):
               1          2          3          4          5
     1  C    3.047505   3.047505   0.004429   0.015103  -0.003497
     2  H    0.485128   0.485128   0.068022  -0.116509   0.015133
     3  H    0.481755   0.481755   0.081047   0.096535   0.062112
     4  H    0.482178   0.482178  -0.123771  -0.002315   0.071939
     5  C    2.985243   2.985243  -0.036133  -0.027434  -0.014075
     6  H    0.480230   0.480230  -0.054292   0.131002  -0.001491
     7  H    0.486574   0.486574   0.111420   0.017461  -0.058334
     8  O    4.087905   4.087905   0.135952  -0.048646   0.038251
     9  C    2.986703   2.986703  -0.016000   0.046456   0.013548
    10  H    0.483049   0.483049   0.126207  -0.018354   0.008655
    11  H    0.480107   0.480107  -0.021336  -0.021409  -0.137911
    12  C    2.989443   2.989443  -0.048059  -0.012674  -0.022627
    13  H    0.486057   0.486057   0.062665  -0.103831  -0.029363
    14  H    0.486077   0.486077   0.021393   0.012935   0.118898
    15  O    4.081261   4.081261   0.043908  -0.057720   0.107249
    16  C    2.989340   2.989340   0.029733   0.020247  -0.037456
    17  H    0.485072   0.485072   0.014695   0.015054   0.125409
    18  H    0.485613   0.485613   0.013174  -0.123574  -0.018354
    19  C    2.986136   2.986136  -0.006858   0.041701   0.023724
    20  H    0.479578   0.479578  -0.064116  -0.097500   0.064566
    21  H    0.481530   0.481530  -0.023993  -0.026224  -0.127923
    22  O    4.081389   4.081389   0.059659  -0.014547  -0.112369
    23  C    2.989992   2.989992  -0.004629  -0.030559   0.038881
    24  H    0.484657   0.484657  -0.003751  -0.015631  -0.128180
    25  H    0.486212   0.486212   0.093166   0.053693   0.019380
    26  C    3.025545   3.025545   0.016823  -0.007239  -0.008873
    27  H    0.478369   0.478369   0.066742   0.115085  -0.069725
    28  H    0.479740   0.479740   0.023023   0.029471   0.139773
    29  S    8.028557   8.028557   0.116850  -0.064086   0.186287
    30  C    3.026672   3.026672   0.009590  -0.011528   0.016925
    31  H    0.481780   0.481780   0.037270   0.084948   0.110714
    32  H    0.482632   0.482632  -0.130651   0.029564  -0.005171
    33  C    3.030046   3.030046  -0.011944   0.017301   0.008745
    34  H    0.484058   0.484058  -0.052704   0.000632   0.131714
    35  H    0.483253   0.483253   0.107771  -0.021194   0.049502
    36  S    8.025098   8.025098  -0.111018   0.164255   0.074421
    37  C    3.028535   3.028535   0.011956   0.001208  -0.012094
    38  H    0.482858   0.482858  -0.033436   0.066510   0.116182
    39  H    0.481114   0.481114  -0.061483  -0.133998   0.015050
    40  C    3.028019   3.028019  -0.014113  -0.006205   0.007409
    41  H    0.483620   0.483620   0.056357   0.111739  -0.030027
    42  H    0.477984   0.477984   0.026627  -0.089107  -0.121123
    43  S    8.029434   8.029434   0.170700   0.122116   0.107433
    44  C    3.024575   3.024575   0.003513   0.023788  -0.004412
    45  H    0.478982   0.478982  -0.145723   0.017489   0.035510
    46  H    0.484186   0.484186   0.058475  -0.011122   0.125205
    47  C    3.046031   3.046031  -0.005921   0.009279   0.014365
    48  H    0.482778   0.482778  -0.073017   0.042627  -0.114875
    49  H    0.483190   0.483190  -0.021708   0.103580   0.090708
    50  H    0.484228   0.484228   0.127383   0.009168  -0.032048
       Tot  93.000017  93.000017   0.633896   0.337542   0.847763

 Dip from Atomic Chgs              1.190860   0.013469   0.320520
         Total Dipole              1.824756   0.351011   1.168283

 Hirshfeld charges, spin densities, dipoles, and CM5 charges using IRadAn=      5:
              Q-H        S-H        Dx         Dy         Dz        Q-CM5   
     1  C   -0.095010   0.000000   0.004429   0.015103  -0.003497  -0.242823
     2  H    0.029744   0.000000   0.068022  -0.116509   0.015133   0.082826
     3  H    0.036491   0.000000   0.081047   0.096535   0.062112   0.087518
     4  H    0.035645   0.000000  -0.123771  -0.002315   0.071939   0.088886
     5  C    0.029514   0.000000  -0.036133  -0.027434  -0.014075  -0.054483
     6  H    0.039539   0.000000  -0.054292   0.131002  -0.001491   0.103217
     7  H    0.026853   0.000000   0.111420   0.017461  -0.058334   0.088731
     8  O   -0.175810   0.000000   0.135952  -0.048646   0.038251  -0.278413
     9  C    0.026595   0.000000  -0.016000   0.046456   0.013548  -0.052072
    10  H    0.033902   0.000000   0.126207  -0.018354   0.008655   0.097253
    11  H    0.039787   0.000000  -0.021336  -0.021409  -0.137911   0.105790
    12  C    0.021114   0.000000  -0.048059  -0.012674  -0.022627  -0.057188
    13  H    0.027886   0.000000   0.062665  -0.103831  -0.029363   0.089503
    14  H    0.027846   0.000000   0.021393   0.012935   0.118898   0.093204
    15  O   -0.162522   0.000000   0.043908  -0.057720   0.107249  -0.267298
    16  C    0.021320   0.000000   0.029733   0.020247  -0.037456  -0.057050
    17  H    0.029855   0.000000   0.014695   0.015054   0.125409   0.094913
    18  H    0.028774   0.000000   0.013174  -0.123574  -0.018354   0.090338
    19  C    0.027728   0.000000  -0.006858   0.041701   0.023724  -0.051221
    20  H    0.040845   0.000000  -0.064116  -0.097500   0.064566   0.105224
    21  H    0.036941   0.000000  -0.023993  -0.026224  -0.127923   0.102477
    22  O   -0.162778   0.000000   0.059659  -0.014547  -0.112369  -0.270298
    23  C    0.020016   0.000000  -0.004629  -0.030559   0.038881  -0.059517
    24  H    0.030687   0.000000  -0.003751  -0.015631  -0.128180   0.095455
    25  H    0.027576   0.000000   0.093166   0.053693   0.019380   0.095845
    26  C   -0.051090   0.000000   0.016823  -0.007239  -0.008873  -0.140727
    27  H    0.043262   0.000000   0.066742   0.115085  -0.069725   0.099832
    28  H    0.040520   0.000000   0.023023   0.029471   0.139773   0.099681
    29  S   -0.057114   0.000000   0.116850  -0.064086   0.186287  -0.103087
    30  C   -0.053345   0.000000   0.009590  -0.011528   0.016925  -0.144315
    31  H    0.036441   0.000000   0.037270   0.084948   0.110714   0.092590
    32  H    0.034736   0.000000  -0.130651   0.029564  -0.005171   0.092714
    33  C   -0.060093   0.000000  -0.011944   0.017301   0.008745  -0.150794
    34  H    0.031885   0.000000  -0.052704   0.000632   0.131714   0.087888
    35  H    0.033494   0.000000   0.107771  -0.021194   0.049502   0.099314
    36  S   -0.050195   0.000000  -0.111018   0.164255   0.074421  -0.097214
    37  C   -0.057069   0.000000   0.011956   0.001208  -0.012094  -0.148133
    38  H    0.034284   0.000000  -0.033436   0.066510   0.116182   0.092044
    39  H    0.037772   0.000000  -0.061483  -0.133998   0.015050   0.094768
    40  C   -0.056039   0.000000  -0.014113  -0.006205   0.007409  -0.147111
    41  H    0.032759   0.000000   0.056357   0.111739  -0.030027   0.090971
    42  H    0.044032   0.000000   0.026627  -0.089107  -0.121123   0.101295
    43  S   -0.058868   0.000000   0.170700   0.122116   0.107433  -0.106372
    44  C   -0.049151   0.000000   0.003513   0.023788  -0.004412  -0.143804
    45  H    0.042037   0.000000  -0.145723   0.017489   0.035510   0.098184
    46  H    0.031627   0.000000   0.058475  -0.011122   0.125205   0.087620
    47  C   -0.092063   0.000000  -0.005921   0.009279   0.014365  -0.240261
    48  H    0.034445   0.000000  -0.073017   0.042627  -0.114875   0.086264
    49  H    0.033619   0.000000  -0.021708   0.103580   0.090708   0.084279
    50  H    0.031544   0.000000   0.127383   0.009168  -0.032048   0.083521
       Tot  -0.000034   0.000000   0.633896   0.337542   0.847763  -0.000034
 Hirshfeld charges with hydrogens summed into heavy atoms:
              Q-H       Q-CM5   
     1  C    0.006870   0.016407
     5  C    0.095905   0.137465
     8  O   -0.175810  -0.278413
     9  C    0.100283   0.150971
    12  C    0.076847   0.125518
    15  O   -0.162522  -0.267298
    16  C    0.079949   0.128200
    19  C    0.105514   0.156480
    22  O   -0.162778  -0.270298
    23  C    0.078279   0.131783
    26  C    0.032691   0.058787
    29  S   -0.057114  -0.103087
    30  C    0.017832   0.040989
    33  C    0.005286   0.036409
    36  S   -0.050195  -0.097214
    37  C    0.014986   0.038679
    40  C    0.020752   0.045155
    43  S   -0.058868  -0.106372
    44  C    0.024514   0.041999
    47  C    0.007546   0.013804
 
 EQQ= 0.000000000000E+00 EQD= 0.000000000000E+00 EDD=-0.416365835188E-02
 EQQ+QD+DD=-0.416365835188E-02
 
 No NMR shielding tensors so no spin-rotation constants.
 Leave Link  601 at Tue Jun 27 22:21:02 2023, MaxMem=   262144000 cpu:              17.3 elap:               2.2
 (Enter /dragofs/sw/campus/0.2/software/gaussian/16.gaussian/gaussian/g16_legacy/l9999.exe)
 1\1\GINC-DRAGO31070239\FOpt\RCAM-B3LYP\6-31G(d)\C14H30O3S3\JRAMOS\27-J
 un-2023\0\\#p opt cam-b3lyp/6-31G* pop=Hirshfeld\\Conformer number 001
 05. Energy MM = 180.056 kcal/mol\\0,1\C,-5.9043209584,2.2804714555,-0.
 7540397861\H,-6.4150928981,1.5907545335,-1.433508348\H,-6.4899727314,3
 .2048406157,-0.7174637201\H,-4.9206029407,2.5097147886,-1.1735866627\C
 ,-5.7595508678,1.6920549275,0.6419486367\H,-5.2965438322,2.4247673715,
 1.3090985971\H,-6.7496002779,1.4505041272,1.0576538554\O,-4.9212370828
 ,0.5548547307,0.6979378275\C,-5.4720340485,-0.643026125,0.1912285063\H
 ,-6.5512393005,-0.5383714766,0.0137739869\H,-5.3281309717,-1.423986839
 8,0.9467095989\C,-4.7906547224,-1.0820875251,-1.0896912842\H,-5.315221
 3039,-1.9577874442,-1.5080089709\H,-4.8345887185,-0.2756377969,-1.8364
 300093\O,-3.4561232102,-1.3961694731,-0.7843486979\C,-2.6184831051,-1.
 5598051857,-1.9038067286\H,-2.7587791376,-0.7312204976,-2.6143864455\H
 ,-2.8467000563,-2.5010443364,-2.4313444445\C,-1.1783772081,-1.56923144
 9,-1.4322912694\H,-0.5292480756,-1.8563369851,-2.2655025289\H,-1.05730
 39651,-2.3131884711,-0.6329278177\O,-0.7312601658,-0.303207422,-1.0009
 005307\C,-1.1133593849,0.0747927575,0.3099335532\H,-1.0382334961,-0.78
 82334309,0.9848969329\H,-2.1551191376,0.4157507132,0.3260360139\C,-0.2
 024179634,1.1895596183,0.790882469\H,-0.6076317717,1.5874557672,1.7257
 595221\H,-0.1941025903,2.0102069671,0.0667415349\S,1.5212638382,0.6978
 595482,1.1478314426\C,2.418468794,1.2756446619,-0.3264538352\H,2.14575
 30066,2.3215356943,-0.5082556986\H,3.4706729276,1.2816631451,-0.025679
 7479\C,2.2321054111,0.4906388468,-1.6217110637\H,2.7595548043,1.012607
 7422,-2.4284682674\H,1.1714481652,0.4525067359,-1.8755165324\S,2.75292
 08946,-1.2522467642,-1.6204093922\C,4.5611500637,-1.1078319705,-1.3936
 55147\H,4.8725234132,-0.1120334328,-1.723463736\H,5.0333288936,-1.8257
 264431,-2.0682662619\C,5.0071113293,-1.3858221381,0.0394464105\H,4.502
 3893412,-0.7268975364,0.7498343484\H,4.7331599529,-2.4057223288,0.3202
 595491\S,6.8135467771,-1.2860933328,0.2700091178\C,7.0787585885,0.5193
 796354,0.303351164\H,8.1600697519,0.6388874916,0.1905494709\H,6.622717
 4121,0.9699548415,-0.5837598784\C,6.600410164,1.2068415106,1.575846038
 \H,7.094866604,0.7851768465,2.4546238662\H,6.8214209708,2.2791010661,1
 .5358555413\H,5.5208888187,1.0974822657,1.7170688218\\Version=EM64L-G1
 6RevA.03\State=1-A\HF=-1971.3174675\RMSD=4.013e-09\RMSF=1.044e-06\Dipo
 le=-1.7380254,1.0970669,-0.7701366\Quadrupole=9.8496871,-2.0403178,-7.
 8093693,7.7159937,1.0596272,0.5612254\PG=C01 [X(C14H30O3S3)]\\@


 REALITY IS FOR PEOPLE WHO CAN'T FACE SCIENCE FICTION.
 Job cpu time:       0 days  4 hours 32 minutes 58.4 seconds.
 Elapsed time:       0 days  0 hours 34 minutes 22.7 seconds.
 File lengths (MBytes):  RWF=     92 Int=      0 D2E=      0 Chk=     13 Scr=      1
 Normal termination of Gaussian 16 at Tue Jun 27 22:21:02 2023.
