 Entering Gaussian System, Link 0=g16
 Input=DVE-DMSD_1_00042_gaussian.com
 Output=DVE-DMSD_1_00042_gaussian.log
 Initial command:
 /dragofs/sw/campus/0.2/software/gaussian/16.gaussian/gaussian/g16_legacy/l1.exe "/lustre/scratch-global/iem/jramos/172790/Gau-578452.inp" -scrdir="/lustre/scratch-global/iem/jramos/172790/"
 Entering Link 1 = /dragofs/sw/campus/0.2/software/gaussian/16.gaussian/gaussian/g16_legacy/l1.exe PID=    578453.
  
 Copyright (c) 1988,1990,1992,1993,1995,1998,2003,2009,2016,
            Gaussian, Inc.  All Rights Reserved.
  
 This is part of the Gaussian(R) 16 program.  It is based on
 the Gaussian(R) 09 system (copyright 2009, Gaussian, Inc.),
 the Gaussian(R) 03 system (copyright 2003, Gaussian, Inc.),
 the Gaussian(R) 98 system (copyright 1998, Gaussian, Inc.),
 the Gaussian(R) 94 system (copyright 1995, Gaussian, Inc.),
 the Gaussian 92(TM) system (copyright 1992, Gaussian, Inc.),
 the Gaussian 90(TM) system (copyright 1990, Gaussian, Inc.),
 the Gaussian 88(TM) system (copyright 1988, Gaussian, Inc.),
 the Gaussian 86(TM) system (copyright 1986, Carnegie Mellon
 University), and the Gaussian 82(TM) system (copyright 1983,
 Carnegie Mellon University). Gaussian is a federally registered
 trademark of Gaussian, Inc.
  
 This software contains proprietary and confidential information,
 including trade secrets, belonging to Gaussian, Inc.
  
 This software is provided under written license and may be
 used, copied, transmitted, or stored only in accord with that
 written license.
  
 The following legend is applicable only to US Government
 contracts under FAR:
  
                    RESTRICTED RIGHTS LEGEND
  
 Use, reproduction and disclosure by the US Government is
 subject to restrictions as set forth in subparagraphs (a)
 and (c) of the Commercial Computer Software - Restricted
 Rights clause in FAR 52.227-19.
  
 Gaussian, Inc.
 340 Quinnipiac St., Bldg. 40, Wallingford CT 06492
  
  
 ---------------------------------------------------------------
 Warning -- This program may not be used in any manner that
 competes with the business of Gaussian, Inc. or will provide
 assistance to any competitor of Gaussian, Inc.  The licensee
 of this program is prohibited from giving any competitor of
 Gaussian, Inc. access to this program.  By using this program,
 the user acknowledges that Gaussian, Inc. is engaged in the
 business of creating and licensing software in the field of
 computational chemistry and represents and warrants to the
 licensee that it is not a competitor of Gaussian, Inc. and that
 it will not use this program in any manner prohibited above.
 ---------------------------------------------------------------
  

 Cite this work as:
 Gaussian 16, Revision A.03,
 M. J. Frisch, G. W. Trucks, H. B. Schlegel, G. E. Scuseria, 
 M. A. Robb, J. R. Cheeseman, G. Scalmani, V. Barone, 
 G. A. Petersson, H. Nakatsuji, X. Li, M. Caricato, A. V. Marenich, 
 J. Bloino, B. G. Janesko, R. Gomperts, B. Mennucci, H. P. Hratchian, 
 J. V. Ortiz, A. F. Izmaylov, J. L. Sonnenberg, D. Williams-Young, 
 F. Ding, F. Lipparini, F. Egidi, J. Goings, B. Peng, A. Petrone, 
 T. Henderson, D. Ranasinghe, V. G. Zakrzewski, J. Gao, N. Rega, 
 G. Zheng, W. Liang, M. Hada, M. Ehara, K. Toyota, R. Fukuda, 
 J. Hasegawa, M. Ishida, T. Nakajima, Y. Honda, O. Kitao, H. Nakai, 
 T. Vreven, K. Throssell, J. A. Montgomery, Jr., J. E. Peralta, 
 F. Ogliaro, M. J. Bearpark, J. J. Heyd, E. N. Brothers, K. N. Kudin, 
 V. N. Staroverov, T. A. Keith, R. Kobayashi, J. Normand, 
 K. Raghavachari, A. P. Rendell, J. C. Burant, S. S. Iyengar, 
 J. Tomasi, M. Cossi, J. M. Millam, M. Klene, C. Adamo, R. Cammi, 
 J. W. Ochterski, R. L. Martin, K. Morokuma, O. Farkas, 
 J. B. Foresman, and D. J. Fox, Gaussian, Inc., Wallingford CT, 2016.
 
 ******************************************
 Gaussian 16:  EM64L-G16RevA.03 25-Dec-2016
                27-Jun-2023 
 ******************************************
 %chk=DVE-DMSD_1_00042_gaussian.chk
 %nproc=8
 Will use up to    8 processors via shared memory.
 %mem=2000Mb
 -------------------------------------
 #p opt cam-b3lyp/6-31G* pop=Hirshfeld
 -------------------------------------
 1/18=20,19=15,26=3,38=1/1,3;
 2/9=110,12=2,17=6,18=5,40=1/2;
 3/5=1,6=6,7=1,11=2,25=1,30=1,71=1,74=-40/1,2,3;
 4//1;
 5/5=2,38=5/2;
 6/7=2,8=2,9=2,10=2,28=1,79=1/1;
 7//1,2,3,16;
 1/18=20,19=15,26=3/3(2);
 2/9=110/2;
 99//99;
 2/9=110/2;
 3/5=1,6=6,7=1,11=2,25=1,30=1,71=1,74=-40/1,2,3;
 4/5=5,16=3,69=1/1;
 5/5=2,38=5/2;
 7//1,2,3,16;
 1/18=20,19=15,26=3/3(-5);
 2/9=110/2;
 6/7=2,8=2,9=2,10=2,19=2,28=1,79=1/1;
 99/9=1/99;
 Leave Link    1 at Tue Jun 27 20:18:18 2023, MaxMem=   262144000 cpu:               0.4 elap:               0.1
 (Enter /dragofs/sw/campus/0.2/software/gaussian/16.gaussian/gaussian/g16_legacy/l101.exe)
 ----------------------------------------------------
 Conformer number 00042. Energy MM = 139.091 kcal/mol
 ----------------------------------------------------
 Symbolic Z-matrix:
 Charge =  0 Multiplicity = 1
 C                    -6.8685    0.3066    2.3052 
 H                    -5.9217    0.6829    2.7674 
 H                    -7.7162    1.0022    2.4675 
 H                    -7.1287   -0.7083    2.6548 
 C                    -6.5957    0.2897    0.7836 
 H                    -6.7237    1.297     0.3516 
 H                    -5.4979    0.0335    0.6498 
 O                    -7.3221   -0.6954    0.1727 
 C                    -7.1755   -0.7126   -1.1753 
 H                    -7.6605    0.2062   -1.6453 
 H                    -7.8437   -1.5489   -1.5677 
 C                    -5.8349   -0.9319   -1.7632 
 H                    -5.432    -1.9319   -1.4635 
 H                    -5.9561   -0.8837   -2.8811 
 O                    -4.8592   -0.0065   -1.4521 
 C                    -3.6822   -0.3977   -2.1046 
 H                    -3.9047   -0.4098   -3.1909 
 H                    -3.4402   -1.4053   -1.7721 
 C                    -2.5552    0.5927   -1.7938 
 H                    -2.8376    1.5435   -2.2611 
 H                    -1.651     0.202    -2.3043 
 O                    -2.3217    0.6327   -0.4533 
 C                    -1.3491    1.4656   -0.0172 
 H                    -1.3045    1.413     1.0974 
 H                    -1.6264    2.5119   -0.2545 
 C                     0.0226    1.2265   -0.5332 
 H                     0.7078    1.9547   -0.0328 
 H                     0.129     1.4414   -1.6277 
 S                     0.6548   -0.4212   -0.1221 
 C                     2.3472   -0.5372   -0.8175 
 H                     2.7303   -1.5557   -0.6051 
 H                     2.3604   -0.3901   -1.8981 
 C                     3.2175    0.4447   -0.0616 
 H                     3.2236    0.1392    1.0039 
 H                     2.7881    1.44     -0.1738 
 S                     4.9213    0.431    -0.6508 
 C                     5.6243   -1.1955   -0.249 
 H                     5.0554   -1.9448   -0.8704 
 H                     5.4611   -1.4636    0.7951 
 C                     7.0625   -1.2999   -0.7009 
 H                     7.4333   -2.2918   -0.3733 
 H                     7.0885   -1.1464   -1.7887 
 S                     8.1026   -0.0482    0.1001 
 C                     8.207    -0.3725    1.8944 
 H                     7.2038   -0.3133    2.369 
 H                     8.6923   -1.3503    2.0884 
 C                     9.083     0.6992    2.4947 
 H                     8.757     0.9006    3.5375 
 H                     10.1215   0.3425    2.5276 
 H                     9.0684    1.6398    1.9121 
 
 ITRead=  0  0  0  0  0  0  0  0  0  0  0  0  0  0  0  0  0  0  0  0
 ITRead=  0  0  0  0  0  0  0  0  0  0  0  0  0  0  0  0  0  0  0  0
 ITRead=  0  0  0  0  0  0  0  0  0  0
 MicOpt= -1 -1 -1 -1 -1 -1 -1 -1 -1 -1 -1 -1 -1 -1 -1 -1 -1 -1 -1 -1
 MicOpt= -1 -1 -1 -1 -1 -1 -1 -1 -1 -1 -1 -1 -1 -1 -1 -1 -1 -1 -1 -1
 MicOpt= -1 -1 -1 -1 -1 -1 -1 -1 -1 -1
 NAtoms=     50 NQM=       50 NQMF=       0 NMMI=      0 NMMIF=      0
                NMic=       0 NMicF=      0.
                    Isotopes and Nuclear Properties:
 (Nuclear quadrupole moments (NQMom) in fm**2, nuclear magnetic moments (NMagM)
  in nuclear magnetons)

  Atom         1           2           3           4           5           6           7           8           9          10
 IAtWgt=          12           1           1           1          12           1           1          16          12           1
 AtmWgt=  12.0000000   1.0078250   1.0078250   1.0078250  12.0000000   1.0078250   1.0078250  15.9949146  12.0000000   1.0078250
 NucSpn=           0           1           1           1           0           1           1           0           0           1
 AtZEff=  -0.0000000  -0.0000000  -0.0000000  -0.0000000  -0.0000000  -0.0000000  -0.0000000  -0.0000000  -0.0000000  -0.0000000
 NQMom=    0.0000000   0.0000000   0.0000000   0.0000000   0.0000000   0.0000000   0.0000000   0.0000000   0.0000000   0.0000000
 NMagM=    0.0000000   2.7928460   2.7928460   2.7928460   0.0000000   2.7928460   2.7928460   0.0000000   0.0000000   2.7928460
 AtZNuc=   6.0000000   1.0000000   1.0000000   1.0000000   6.0000000   1.0000000   1.0000000   8.0000000   6.0000000   1.0000000

  Atom        11          12          13          14          15          16          17          18          19          20
 IAtWgt=           1          12           1           1          16          12           1           1          12           1
 AtmWgt=   1.0078250  12.0000000   1.0078250   1.0078250  15.9949146  12.0000000   1.0078250   1.0078250  12.0000000   1.0078250
 NucSpn=           1           0           1           1           0           0           1           1           0           1
 AtZEff=  -0.0000000  -0.0000000  -0.0000000  -0.0000000  -0.0000000  -0.0000000  -0.0000000  -0.0000000  -0.0000000  -0.0000000
 NQMom=    0.0000000   0.0000000   0.0000000   0.0000000   0.0000000   0.0000000   0.0000000   0.0000000   0.0000000   0.0000000
 NMagM=    2.7928460   0.0000000   2.7928460   2.7928460   0.0000000   0.0000000   2.7928460   2.7928460   0.0000000   2.7928460
 AtZNuc=   1.0000000   6.0000000   1.0000000   1.0000000   8.0000000   6.0000000   1.0000000   1.0000000   6.0000000   1.0000000

  Atom        21          22          23          24          25          26          27          28          29          30
 IAtWgt=           1          16          12           1           1          12           1           1          32          12
 AtmWgt=   1.0078250  15.9949146  12.0000000   1.0078250   1.0078250  12.0000000   1.0078250   1.0078250  31.9720718  12.0000000
 NucSpn=           1           0           0           1           1           0           1           1           0           0
 AtZEff=  -0.0000000  -0.0000000  -0.0000000  -0.0000000  -0.0000000  -0.0000000  -0.0000000  -0.0000000  -0.0000000  -0.0000000
 NQMom=    0.0000000   0.0000000   0.0000000   0.0000000   0.0000000   0.0000000   0.0000000   0.0000000   0.0000000   0.0000000
 NMagM=    2.7928460   0.0000000   0.0000000   2.7928460   2.7928460   0.0000000   2.7928460   2.7928460   0.0000000   0.0000000
 AtZNuc=   1.0000000   8.0000000   6.0000000   1.0000000   1.0000000   6.0000000   1.0000000   1.0000000  16.0000000   6.0000000

  Atom        31          32          33          34          35          36          37          38          39          40
 IAtWgt=           1           1          12           1           1          32          12           1           1          12
 AtmWgt=   1.0078250   1.0078250  12.0000000   1.0078250   1.0078250  31.9720718  12.0000000   1.0078250   1.0078250  12.0000000
 NucSpn=           1           1           0           1           1           0           0           1           1           0
 AtZEff=  -0.0000000  -0.0000000  -0.0000000  -0.0000000  -0.0000000  -0.0000000  -0.0000000  -0.0000000  -0.0000000  -0.0000000
 NQMom=    0.0000000   0.0000000   0.0000000   0.0000000   0.0000000   0.0000000   0.0000000   0.0000000   0.0000000   0.0000000
 NMagM=    2.7928460   2.7928460   0.0000000   2.7928460   2.7928460   0.0000000   0.0000000   2.7928460   2.7928460   0.0000000
 AtZNuc=   1.0000000   1.0000000   6.0000000   1.0000000   1.0000000  16.0000000   6.0000000   1.0000000   1.0000000   6.0000000

  Atom        41          42          43          44          45          46          47          48          49          50
 IAtWgt=           1           1          32          12           1           1          12           1           1           1
 AtmWgt=   1.0078250   1.0078250  31.9720718  12.0000000   1.0078250   1.0078250  12.0000000   1.0078250   1.0078250   1.0078250
 NucSpn=           1           1           0           0           1           1           0           1           1           1
 AtZEff=  -0.0000000  -0.0000000  -0.0000000  -0.0000000  -0.0000000  -0.0000000  -0.0000000  -0.0000000  -0.0000000  -0.0000000
 NQMom=    0.0000000   0.0000000   0.0000000   0.0000000   0.0000000   0.0000000   0.0000000   0.0000000   0.0000000   0.0000000
 NMagM=    2.7928460   2.7928460   0.0000000   0.0000000   2.7928460   2.7928460   0.0000000   2.7928460   2.7928460   2.7928460
 AtZNuc=   1.0000000   1.0000000  16.0000000   6.0000000   1.0000000   1.0000000   6.0000000   1.0000000   1.0000000   1.0000000
 Leave Link  101 at Tue Jun 27 20:18:18 2023, MaxMem=   262144000 cpu:               1.2 elap:               0.2
 (Enter /dragofs/sw/campus/0.2/software/gaussian/16.gaussian/gaussian/g16_legacy/l103.exe)

 GradGradGradGradGradGradGradGradGradGradGradGradGradGradGradGradGradGrad
 Berny optimization.
 Initialization pass.
                           ----------------------------
                           !    Initial Parameters    !
                           ! (Angstroms and Degrees)  !
 --------------------------                            --------------------------
 ! Name  Definition              Value          Derivative Info.                !
 --------------------------------------------------------------------------------
 ! R1    R(1,2)                  1.1188         estimate D2E/DX2                !
 ! R2    R(1,3)                  1.1085         estimate D2E/DX2                !
 ! R3    R(1,4)                  1.1045         estimate D2E/DX2                !
 ! R4    R(1,5)                  1.546          estimate D2E/DX2                !
 ! R5    R(5,6)                  1.1035         estimate D2E/DX2                !
 ! R6    R(5,7)                  1.1352         estimate D2E/DX2                !
 ! R7    R(5,8)                  1.3679         estimate D2E/DX2                !
 ! R8    R(8,9)                  1.3561         estimate D2E/DX2                !
 ! R9    R(9,10)                 1.1403         estimate D2E/DX2                !
 ! R10   R(9,11)                 1.1401         estimate D2E/DX2                !
 ! R11   R(9,12)                 1.4802         estimate D2E/DX2                !
 ! R12   R(12,13)                1.119          estimate D2E/DX2                !
 ! R13   R(12,14)                1.1255         estimate D2E/DX2                !
 ! R14   R(12,15)                1.3803         estimate D2E/DX2                !
 ! R15   R(15,16)                1.4015         estimate D2E/DX2                !
 ! R16   R(16,17)                1.1089         estimate D2E/DX2                !
 ! R17   R(16,18)                1.0883         estimate D2E/DX2                !
 ! R18   R(16,19)                1.5322         estimate D2E/DX2                !
 ! R19   R(19,20)                1.0964         estimate D2E/DX2                !
 ! R20   R(19,21)                1.1094         estimate D2E/DX2                !
 ! R21   R(19,22)                1.3613         estimate D2E/DX2                !
 ! R22   R(22,23)                1.3527         estimate D2E/DX2                !
 ! R23   R(23,24)                1.1167         estimate D2E/DX2                !
 ! R24   R(23,25)                1.1081         estimate D2E/DX2                !
 ! R25   R(23,26)                1.4849         estimate D2E/DX2                !
 ! R26   R(26,27)                1.1181         estimate D2E/DX2                !
 ! R27   R(26,28)                1.1205         estimate D2E/DX2                !
 ! R28   R(26,29)                1.8121         estimate D2E/DX2                !
 ! R29   R(29,30)                1.8334         estimate D2E/DX2                !
 ! R30   R(30,31)                1.1087         estimate D2E/DX2                !
 ! R31   R(30,32)                1.0906         estimate D2E/DX2                !
 ! R32   R(30,33)                1.5142         estimate D2E/DX2                !
 ! R33   R(33,34)                1.1084         estimate D2E/DX2                !
 ! R34   R(33,35)                1.0898         estimate D2E/DX2                !
 ! R35   R(33,36)                1.8029         estimate D2E/DX2                !
 ! R36   R(36,37)                1.8169         estimate D2E/DX2                !
 ! R37   R(37,38)                1.1275         estimate D2E/DX2                !
 ! R38   R(37,39)                1.0903         estimate D2E/DX2                !
 ! R39   R(37,40)                1.5111         estimate D2E/DX2                !
 ! R40   R(40,41)                1.1085         estimate D2E/DX2                !
 ! R41   R(40,42)                1.0989         estimate D2E/DX2                !
 ! R42   R(40,43)                1.8139         estimate D2E/DX2                !
 ! R43   R(43,44)                1.8264         estimate D2E/DX2                !
 ! R44   R(44,45)                1.1114         estimate D2E/DX2                !
 ! R45   R(44,46)                1.1087         estimate D2E/DX2                !
 ! R46   R(44,47)                1.5087         estimate D2E/DX2                !
 ! R47   R(47,48)                1.111          estimate D2E/DX2                !
 ! R48   R(47,49)                1.0985         estimate D2E/DX2                !
 ! R49   R(47,50)                1.1065         estimate D2E/DX2                !
 ! A1    A(2,1,3)              112.0625         estimate D2E/DX2                !
 ! A2    A(2,1,4)              112.189          estimate D2E/DX2                !
 ! A3    A(2,1,5)              105.1272         estimate D2E/DX2                !
 ! A4    A(3,1,4)              110.4936         estimate D2E/DX2                !
 ! A5    A(3,1,5)              106.6132         estimate D2E/DX2                !
 ! A6    A(4,1,5)              110.0634         estimate D2E/DX2                !
 ! A7    A(1,5,6)              110.7858         estimate D2E/DX2                !
 ! A8    A(1,5,7)              106.8052         estimate D2E/DX2                !
 ! A9    A(1,5,8)              110.7148         estimate D2E/DX2                !
 ! A10   A(6,5,7)              105.7861         estimate D2E/DX2                !
 ! A11   A(6,5,8)              114.8938         estimate D2E/DX2                !
 ! A12   A(7,5,8)              107.3589         estimate D2E/DX2                !
 ! A13   A(5,8,9)              113.3069         estimate D2E/DX2                !
 ! A14   A(8,9,10)             110.7026         estimate D2E/DX2                !
 ! A15   A(8,9,11)             106.7427         estimate D2E/DX2                !
 ! A16   A(8,9,12)             119.6443         estimate D2E/DX2                !
 ! A17   A(10,9,11)            101.5311         estimate D2E/DX2                !
 ! A18   A(10,9,12)            109.9309         estimate D2E/DX2                !
 ! A19   A(11,9,12)            106.585          estimate D2E/DX2                !
 ! A20   A(9,12,13)            110.6176         estimate D2E/DX2                !
 ! A21   A(9,12,14)            106.8956         estimate D2E/DX2                !
 ! A22   A(9,12,15)            116.8322         estimate D2E/DX2                !
 ! A23   A(13,12,14)           110.064          estimate D2E/DX2                !
 ! A24   A(13,12,15)           106.515          estimate D2E/DX2                !
 ! A25   A(14,12,15)           105.7406         estimate D2E/DX2                !
 ! A26   A(12,15,16)           107.5529         estimate D2E/DX2                !
 ! A27   A(15,16,17)           106.8952         estimate D2E/DX2                !
 ! A28   A(15,16,18)           107.6344         estimate D2E/DX2                !
 ! A29   A(15,16,19)           110.0514         estimate D2E/DX2                !
 ! A30   A(17,16,18)           109.5            estimate D2E/DX2                !
 ! A31   A(17,16,19)           110.6921         estimate D2E/DX2                !
 ! A32   A(18,16,19)           111.8965         estimate D2E/DX2                !
 ! A33   A(16,19,20)           106.5372         estimate D2E/DX2                !
 ! A34   A(16,19,21)           106.171          estimate D2E/DX2                !
 ! A35   A(16,19,22)           110.1765         estimate D2E/DX2                !
 ! A36   A(20,19,21)           108.6141         estimate D2E/DX2                !
 ! A37   A(20,19,22)           116.0018         estimate D2E/DX2                !
 ! A38   A(21,19,22)           108.8852         estimate D2E/DX2                !
 ! A39   A(19,22,23)           117.3155         estimate D2E/DX2                !
 ! A40   A(22,23,24)           108.7528         estimate D2E/DX2                !
 ! A41   A(22,23,25)           109.4149         estimate D2E/DX2                !
 ! A42   A(22,23,26)           116.9366         estimate D2E/DX2                !
 ! A43   A(24,23,25)           105.5574         estimate D2E/DX2                !
 ! A44   A(24,23,26)           107.599          estimate D2E/DX2                !
 ! A45   A(25,23,26)           107.9859         estimate D2E/DX2                !
 ! A46   A(23,26,27)           107.8008         estimate D2E/DX2                !
 ! A47   A(23,26,28)           113.3458         estimate D2E/DX2                !
 ! A48   A(23,26,29)           112.9458         estimate D2E/DX2                !
 ! A49   A(27,26,28)           104.7182         estimate D2E/DX2                !
 ! A50   A(27,26,29)           106.0732         estimate D2E/DX2                !
 ! A51   A(28,26,29)           111.2771         estimate D2E/DX2                !
 ! A52   A(26,29,30)           107.0699         estimate D2E/DX2                !
 ! A53   A(29,30,31)           107.7238         estimate D2E/DX2                !
 ! A54   A(29,30,32)           112.2374         estimate D2E/DX2                !
 ! A55   A(29,30,33)           107.4682         estimate D2E/DX2                !
 ! A56   A(31,30,32)           108.0309         estimate D2E/DX2                !
 ! A57   A(31,30,33)           107.5451         estimate D2E/DX2                !
 ! A58   A(32,30,33)           113.5895         estimate D2E/DX2                !
 ! A59   A(30,33,34)           107.7158         estimate D2E/DX2                !
 ! A60   A(30,33,35)           108.3228         estimate D2E/DX2                !
 ! A61   A(30,33,36)           112.0301         estimate D2E/DX2                !
 ! A62   A(34,33,35)           110.6621         estimate D2E/DX2                !
 ! A63   A(34,33,36)           107.8699         estimate D2E/DX2                !
 ! A64   A(35,33,36)           110.2228         estimate D2E/DX2                !
 ! A65   A(33,36,37)           107.4691         estimate D2E/DX2                !
 ! A66   A(36,37,38)           106.13           estimate D2E/DX2                !
 ! A67   A(36,37,39)           111.9625         estimate D2E/DX2                !
 ! A68   A(36,37,40)           111.3436         estimate D2E/DX2                !
 ! A69   A(38,37,39)           106.7892         estimate D2E/DX2                !
 ! A70   A(38,37,40)           105.6339         estimate D2E/DX2                !
 ! A71   A(39,37,40)           114.3219         estimate D2E/DX2                !
 ! A72   A(37,40,41)           106.9665         estimate D2E/DX2                !
 ! A73   A(37,40,42)           107.9928         estimate D2E/DX2                !
 ! A74   A(37,40,43)           111.4693         estimate D2E/DX2                !
 ! A75   A(41,40,42)           114.1827         estimate D2E/DX2                !
 ! A76   A(41,40,43)           107.1681         estimate D2E/DX2                !
 ! A77   A(42,40,43)           109.0977         estimate D2E/DX2                !
 ! A78   A(40,43,44)           110.1262         estimate D2E/DX2                !
 ! A79   A(43,44,45)           111.0072         estimate D2E/DX2                !
 ! A80   A(43,44,46)           110.7032         estimate D2E/DX2                !
 ! A81   A(43,44,47)           107.335          estimate D2E/DX2                !
 ! A82   A(45,44,46)           111.5532         estimate D2E/DX2                !
 ! A83   A(45,44,47)           108.4427         estimate D2E/DX2                !
 ! A84   A(46,44,47)           107.6193         estimate D2E/DX2                !
 ! A85   A(44,47,48)           109.3819         estimate D2E/DX2                !
 ! A86   A(44,47,49)           109.2781         estimate D2E/DX2                !
 ! A87   A(44,47,50)           112.7474         estimate D2E/DX2                !
 ! A88   A(48,47,49)           107.9477         estimate D2E/DX2                !
 ! A89   A(48,47,50)           109.6478         estimate D2E/DX2                !
 ! A90   A(49,47,50)           107.7136         estimate D2E/DX2                !
 ! D1    D(2,1,5,6)            -81.0928         estimate D2E/DX2                !
 ! D2    D(2,1,5,7)             33.6539         estimate D2E/DX2                !
 ! D3    D(2,1,5,8)            150.2321         estimate D2E/DX2                !
 ! D4    D(3,1,5,6)             38.0317         estimate D2E/DX2                !
 ! D5    D(3,1,5,7)            152.7783         estimate D2E/DX2                !
 ! D6    D(3,1,5,8)            -90.6434         estimate D2E/DX2                !
 ! D7    D(4,1,5,6)            157.8946         estimate D2E/DX2                !
 ! D8    D(4,1,5,7)            -87.3587         estimate D2E/DX2                !
 ! D9    D(4,1,5,8)             29.2196         estimate D2E/DX2                !
 ! D10   D(1,5,8,9)            176.7725         estimate D2E/DX2                !
 ! D11   D(6,5,8,9)             50.3489         estimate D2E/DX2                !
 ! D12   D(7,5,8,9)            -66.9919         estimate D2E/DX2                !
 ! D13   D(5,8,9,10)           -68.8342         estimate D2E/DX2                !
 ! D14   D(5,8,9,11)          -178.519          estimate D2E/DX2                !
 ! D15   D(5,8,9,12)            60.5394         estimate D2E/DX2                !
 ! D16   D(8,9,12,13)           61.3394         estimate D2E/DX2                !
 ! D17   D(8,9,12,14)         -178.8354         estimate D2E/DX2                !
 ! D18   D(8,9,12,15)          -60.7119         estimate D2E/DX2                !
 ! D19   D(10,9,12,13)        -168.9411         estimate D2E/DX2                !
 ! D20   D(10,9,12,14)         -49.1158         estimate D2E/DX2                !
 ! D21   D(10,9,12,15)          69.0077         estimate D2E/DX2                !
 ! D22   D(11,9,12,13)         -59.6809         estimate D2E/DX2                !
 ! D23   D(11,9,12,14)          60.1444         estimate D2E/DX2                !
 ! D24   D(11,9,12,15)         178.2679         estimate D2E/DX2                !
 ! D25   D(9,12,15,16)        -179.9644         estimate D2E/DX2                !
 ! D26   D(13,12,15,16)         55.8706         estimate D2E/DX2                !
 ! D27   D(14,12,15,16)        -61.2165         estimate D2E/DX2                !
 ! D28   D(12,15,16,17)         59.8949         estimate D2E/DX2                !
 ! D29   D(12,15,16,18)        -57.6613         estimate D2E/DX2                !
 ! D30   D(12,15,16,19)       -179.842          estimate D2E/DX2                !
 ! D31   D(15,16,19,20)        -66.6077         estimate D2E/DX2                !
 ! D32   D(15,16,19,21)        177.748          estimate D2E/DX2                !
 ! D33   D(15,16,19,22)         59.9992         estimate D2E/DX2                !
 ! D34   D(17,16,19,20)         51.3336         estimate D2E/DX2                !
 ! D35   D(17,16,19,21)        -64.3107         estimate D2E/DX2                !
 ! D36   D(17,16,19,22)        177.9406         estimate D2E/DX2                !
 ! D37   D(18,16,19,20)        173.7712         estimate D2E/DX2                !
 ! D38   D(18,16,19,21)         58.1269         estimate D2E/DX2                !
 ! D39   D(18,16,19,22)        -59.6218         estimate D2E/DX2                !
 ! D40   D(16,19,22,23)        179.9971         estimate D2E/DX2                !
 ! D41   D(20,19,22,23)        -58.896          estimate D2E/DX2                !
 ! D42   D(21,19,22,23)         63.938          estimate D2E/DX2                !
 ! D43   D(19,22,23,24)        177.9739         estimate D2E/DX2                !
 ! D44   D(19,22,23,25)         63.1408         estimate D2E/DX2                !
 ! D45   D(19,22,23,26)        -59.975          estimate D2E/DX2                !
 ! D46   D(22,23,26,27)       -176.691          estimate D2E/DX2                !
 ! D47   D(22,23,26,28)         67.8912         estimate D2E/DX2                !
 ! D48   D(22,23,26,29)        -59.8378         estimate D2E/DX2                !
 ! D49   D(24,23,26,27)        -54.0417         estimate D2E/DX2                !
 ! D50   D(24,23,26,28)       -169.4596         estimate D2E/DX2                !
 ! D51   D(24,23,26,29)         62.8114         estimate D2E/DX2                !
 ! D52   D(25,23,26,27)         59.4619         estimate D2E/DX2                !
 ! D53   D(25,23,26,28)        -55.956          estimate D2E/DX2                !
 ! D54   D(25,23,26,29)        176.3151         estimate D2E/DX2                !
 ! D55   D(23,26,29,30)       -179.5329         estimate D2E/DX2                !
 ! D56   D(27,26,29,30)        -61.6631         estimate D2E/DX2                !
 ! D57   D(28,26,29,30)         51.6619         estimate D2E/DX2                !
 ! D58   D(26,29,30,31)       -177.9079         estimate D2E/DX2                !
 ! D59   D(26,29,30,32)        -59.1092         estimate D2E/DX2                !
 ! D60   D(26,29,30,33)         66.4751         estimate D2E/DX2                !
 ! D61   D(29,30,33,34)         61.5101         estimate D2E/DX2                !
 ! D62   D(29,30,33,35)        -58.2252         estimate D2E/DX2                !
 ! D63   D(29,30,33,36)        179.9844         estimate D2E/DX2                !
 ! D64   D(31,30,33,34)        -54.225          estimate D2E/DX2                !
 ! D65   D(31,30,33,35)       -173.9603         estimate D2E/DX2                !
 ! D66   D(31,30,33,36)         64.2493         estimate D2E/DX2                !
 ! D67   D(32,30,33,34)       -173.7164         estimate D2E/DX2                !
 ! D68   D(32,30,33,35)         66.5483         estimate D2E/DX2                !
 ! D69   D(32,30,33,36)        -55.2421         estimate D2E/DX2                !
 ! D70   D(30,33,36,37)        -65.953          estimate D2E/DX2                !
 ! D71   D(34,33,36,37)         52.43           estimate D2E/DX2                !
 ! D72   D(35,33,36,37)        173.3518         estimate D2E/DX2                !
 ! D73   D(33,36,37,38)         65.8374         estimate D2E/DX2                !
 ! D74   D(33,36,37,39)        -50.3202         estimate D2E/DX2                !
 ! D75   D(33,36,37,40)       -179.6937         estimate D2E/DX2                !
 ! D76   D(36,37,40,41)        176.996          estimate D2E/DX2                !
 ! D77   D(36,37,40,42)        -59.6782         estimate D2E/DX2                !
 ! D78   D(36,37,40,43)         60.149          estimate D2E/DX2                !
 ! D79   D(38,37,40,41)        -68.2272         estimate D2E/DX2                !
 ! D80   D(38,37,40,42)         55.0987         estimate D2E/DX2                !
 ! D81   D(38,37,40,43)        174.9259         estimate D2E/DX2                !
 ! D82   D(39,37,40,41)         48.8793         estimate D2E/DX2                !
 ! D83   D(39,37,40,42)        172.2052         estimate D2E/DX2                !
 ! D84   D(39,37,40,43)        -67.9676         estimate D2E/DX2                !
 ! D85   D(37,40,43,44)         66.1677         estimate D2E/DX2                !
 ! D86   D(41,40,43,44)        -50.5567         estimate D2E/DX2                !
 ! D87   D(42,40,43,44)       -174.6602         estimate D2E/DX2                !
 ! D88   D(40,43,44,45)        -61.6956         estimate D2E/DX2                !
 ! D89   D(40,43,44,46)         62.7633         estimate D2E/DX2                !
 ! D90   D(40,43,44,47)        179.9538         estimate D2E/DX2                !
 ! D91   D(43,44,47,48)        149.3041         estimate D2E/DX2                !
 ! D92   D(43,44,47,49)        -92.7191         estimate D2E/DX2                !
 ! D93   D(43,44,47,50)         27.0278         estimate D2E/DX2                !
 ! D94   D(45,44,47,48)         29.3064         estimate D2E/DX2                !
 ! D95   D(45,44,47,49)        147.2831         estimate D2E/DX2                !
 ! D96   D(45,44,47,50)        -92.97           estimate D2E/DX2                !
 ! D97   D(46,44,47,48)        -91.5058         estimate D2E/DX2                !
 ! D98   D(46,44,47,49)         26.471          estimate D2E/DX2                !
 ! D99   D(46,44,47,50)        146.2179         estimate D2E/DX2                !
 --------------------------------------------------------------------------------
 Trust Radius=3.00D-01 FncErr=1.00D-07 GrdErr=1.00D-06 EigMax=2.50D+02 EigMin=1.00D-04
 Number of steps in this run=    248 maximum allowed number of steps=    300.
 GradGradGradGradGradGradGradGradGradGradGradGradGradGradGradGradGradGrad

 Leave Link  103 at Tue Jun 27 20:18:18 2023, MaxMem=   262144000 cpu:               0.2 elap:               0.0
 (Enter /dragofs/sw/campus/0.2/software/gaussian/16.gaussian/gaussian/g16_legacy/l202.exe)
                          Input orientation:                          
 ---------------------------------------------------------------------
 Center     Atomic      Atomic             Coordinates (Angstroms)
 Number     Number       Type             X           Y           Z
 ---------------------------------------------------------------------
      1          6           0       -6.868500    0.306600    2.305200
      2          1           0       -5.921700    0.682900    2.767400
      3          1           0       -7.716200    1.002200    2.467500
      4          1           0       -7.128700   -0.708300    2.654800
      5          6           0       -6.595700    0.289700    0.783600
      6          1           0       -6.723700    1.297000    0.351600
      7          1           0       -5.497900    0.033500    0.649800
      8          8           0       -7.322100   -0.695400    0.172700
      9          6           0       -7.175500   -0.712600   -1.175300
     10          1           0       -7.660500    0.206200   -1.645300
     11          1           0       -7.843700   -1.548900   -1.567700
     12          6           0       -5.834900   -0.931900   -1.763200
     13          1           0       -5.432000   -1.931900   -1.463500
     14          1           0       -5.956100   -0.883700   -2.881100
     15          8           0       -4.859200   -0.006500   -1.452100
     16          6           0       -3.682200   -0.397700   -2.104600
     17          1           0       -3.904700   -0.409800   -3.190900
     18          1           0       -3.440200   -1.405300   -1.772100
     19          6           0       -2.555200    0.592700   -1.793800
     20          1           0       -2.837600    1.543500   -2.261100
     21          1           0       -1.651000    0.202000   -2.304300
     22          8           0       -2.321700    0.632700   -0.453300
     23          6           0       -1.349100    1.465600   -0.017200
     24          1           0       -1.304500    1.413000    1.097400
     25          1           0       -1.626400    2.511900   -0.254500
     26          6           0        0.022600    1.226500   -0.533200
     27          1           0        0.707800    1.954700   -0.032800
     28          1           0        0.129000    1.441400   -1.627700
     29         16           0        0.654800   -0.421200   -0.122100
     30          6           0        2.347200   -0.537200   -0.817500
     31          1           0        2.730300   -1.555700   -0.605100
     32          1           0        2.360400   -0.390100   -1.898100
     33          6           0        3.217500    0.444700   -0.061600
     34          1           0        3.223600    0.139200    1.003900
     35          1           0        2.788100    1.440000   -0.173800
     36         16           0        4.921300    0.431000   -0.650800
     37          6           0        5.624300   -1.195500   -0.249000
     38          1           0        5.055400   -1.944800   -0.870400
     39          1           0        5.461100   -1.463600    0.795100
     40          6           0        7.062500   -1.299900   -0.700900
     41          1           0        7.433300   -2.291800   -0.373300
     42          1           0        7.088500   -1.146400   -1.788700
     43         16           0        8.102600   -0.048200    0.100100
     44          6           0        8.207000   -0.372500    1.894400
     45          1           0        7.203800   -0.313300    2.369000
     46          1           0        8.692300   -1.350300    2.088400
     47          6           0        9.083000    0.699200    2.494700
     48          1           0        8.757000    0.900600    3.537500
     49          1           0       10.121500    0.342500    2.527600
     50          1           0        9.068400    1.639800    1.912100
 ---------------------------------------------------------------------
                    Distance matrix (angstroms):
                    1          2          3          4          5
     1  C    0.000000
     2  H    1.118776   0.000000
     3  H    1.108511   1.847193   0.000000
     4  H    1.104512   1.845255   1.818254   0.000000
     5  C    1.545953   2.131747   2.144457   2.186660   0.000000
     6  H    2.195088   2.618475   2.355631   3.080582   1.103477
     7  H    2.166443   2.255118   3.027089   2.688829   1.135212
     8  O    2.399440   3.254735   2.881539   2.489657   1.367947
     9  C    3.639629   4.366270   4.062375   3.830388   2.275536
    10  H    4.030359   4.766822   4.189492   4.428316   2.653361
    11  H    4.403777   5.241003   4.775689   4.364326   3.235207
    12  C    4.376539   4.810556   5.017854   4.608974   2.925289
    13  H    4.612756   4.997749   5.411033   4.619132   3.367367
    14  H    5.398796   5.861823   5.938189   5.661444   3.900767
    15  O    4.272309   4.405492   4.954108   4.744447   2.846317
    16  C    5.485880   5.469867   6.255955   5.884448   4.159651
    17  H    6.285257   6.384639   6.966977   6.682476   4.850508
    18  H    5.595375   5.579022   6.484940   5.804161   4.400205
    19  C    5.957198   5.669745   6.705393   6.511493   4.802129
    20  H    6.215237   5.961386   6.815673   6.902914   4.996552
    21  H    6.962811   6.647728   7.758676   7.444899   5.830341
    22  O    5.328138   4.830676   6.145586   5.879270   4.462583
    23  C    6.099229   5.410664   6.850433   6.728239   5.436068
    24  H    5.800086   4.963918   6.569310   6.391143   5.418217
    25  H    6.236588   5.561180   6.839162   7.007783   5.541639
    26  C    7.509327   6.820862   8.303224   8.065227   6.812742
    27  H    8.098321   7.308137   8.838695   8.702040   7.535240
    28  H    8.106817   7.516861   8.860628   8.696851   7.236185
    29  S    7.938610   7.267641   8.877260   8.269007   7.341350
    30  C    9.766902   9.094771  10.697336  10.093504   9.122650
    31  H   10.201714   9.552078  11.185396  10.418489   9.607719
    32  H   10.164926   9.566159  11.069545  10.529633   9.373653
    33  C   10.360898   9.570003  11.236234  10.758815   9.850750
    34  H   10.177027   9.329633  11.070958  10.517312   9.822924
    35  H   10.033940   9.224125  10.840132  10.533712   9.502395
    36  S   12.155361  11.371816  13.029063  12.547011  11.606841
    37  C   12.839404  12.080446  13.790511  13.088485  12.353157
    38  H   12.543230  11.858968  13.525537  12.743950  11.978182
    39  H   12.547233  11.750130  13.509934  12.748805  12.183621
    40  C   14.341905  13.584920  15.288832  14.594549  13.830293
    41  H   14.780647  14.038122  15.761597  14.957564  14.311373
    42  H   14.617424  13.905743  15.553484  14.901859  13.997730
    43  S   15.136782  14.294404  16.029422  15.458160  14.718063
    44  C   15.096378  14.194934  15.992703  15.358212  14.859082
    45  H   14.086091  13.169278  14.978206  14.340790  13.903356
    46  H   15.650266  14.770374  16.580617  15.844148  15.430977
    47  C   15.957456  15.007187  16.801954  16.273472  15.777110
    48  H   15.685269  14.700499  16.508226  15.991347  15.609694
    49  H   16.991493  16.048603  17.849996  17.282643  16.808007
    50  H   15.997398  15.044942  16.805886  16.383261  15.762624
                    6          7          8          9         10
     6  H    0.000000
     7  H    1.785481   0.000000
     8  O    2.088000   2.021540   0.000000
     9  C    2.563989   2.588822   1.356057   0.000000
    10  H    2.460701   3.158187   2.057309   1.140315   0.000000
    11  H    3.610715   3.595007   2.007367   1.140117   1.766341
    12  C    3.198490   2.620713   2.452632   1.480178   2.154527
    13  H    3.922865   2.886724   2.789007   2.146985   3.093660
    14  H    3.974294   3.676746   3.350688   2.103798   2.370667
    15  O    2.903241   2.197162   3.029923   2.437302   2.815999
    16  C    4.260945   3.327074   4.303904   3.628485   4.050003
    17  H    4.838309   4.181600   4.803540   3.853889   4.107842
    18  H    4.753304   3.488535   4.399472   3.845578   4.519286
    19  C    4.740799   3.865665   5.315041   4.840818   5.122062
    20  H    4.689215   4.222634   5.571965   5.008625   5.042613
    21  H    5.829675   4.853219   6.253178   5.712376   6.045526
    22  O    4.524021   3.415277   5.211499   5.088270   5.486853
    23  C    5.389876   4.439408   6.354739   6.327139   6.638567
    24  H    5.471508   4.437113   6.442975   6.644696   7.026913
    25  H    5.275017   4.684948   6.550593   6.483655   6.607643
    26  C    6.804440   5.770499   7.624737   7.482315   7.829930
    27  H    7.470443   6.532049   8.458401   8.400370   8.699762
    28  H    7.134282   6.231468   7.957779   7.628899   7.886846
    29  S    7.590709   6.217580   7.987054   7.906184   8.476909
    30  C    9.328039   8.001516   9.721157   9.531034  10.069357
    31  H    9.921254   8.473701  10.119083   9.957953  10.590327
    32  H    9.509381   8.271887   9.906171   9.568690  10.041809
    33  C    9.986221   8.754049  10.603674  10.516374  10.995266
    34  H   10.035675   8.729325  10.611279  10.659069  11.202070
    35  H    9.527373   8.444783  10.339059  10.242559  10.623597
    36  S   11.720102  10.507583  12.322653  12.162051  12.623045
    37  C   12.611359  11.225935  12.962916  12.842356  13.431319
    38  H   12.278019  10.844207  12.484052  12.296593  12.919806
    39  H   12.501478  11.061740  12.821377  12.811328  13.450657
    40  C   14.068083  12.702992  14.423776  14.258002  14.829935
    41  H   14.622777  13.178380  14.851547  14.715778  15.351898
    42  H   14.189008  12.874623  14.550460  14.283772  14.811586
    43  S   14.889325  13.611849  15.438443  15.345632  15.861477
    44  C   15.102757  13.767285  15.627587  15.689488  16.267819
    45  H   14.164682  12.822211  14.695969  14.815052  15.405580
    46  H   15.737780  14.329907  16.141865  16.212510  16.845690
    47  C   15.962519  14.712221  16.627204  16.727250  17.254780
    48  H   15.810097  14.570273  16.504743  16.693036  17.230145
    49  H   17.011961  15.734906  17.632413  17.720353  18.265574
    50  H   15.872715  14.708865  16.647137  16.701201  17.162937
                   11         12         13         14         15
    11  H    0.000000
    12  C    2.110494   0.000000
    13  H    2.444145   1.118994   0.000000
    14  H    2.393856   1.125483   1.839292   0.000000
    15  O    3.361488   1.380268   2.008829   2.003674   0.000000
    16  C    4.351046   2.244112   2.413831   2.451483   1.401472
    17  H    4.409994   2.456947   2.762851   2.128098   2.024141
    18  H    4.410580   2.441060   2.083221   2.798518   2.018069
    19  C    5.710149   3.616873   3.841703   3.863690   2.405040
    20  H    5.924929   3.919096   4.409703   4.000093   2.672798
    21  H    6.477481   4.368471   4.422266   4.477201   3.325998
    22  O    6.041006   4.062805   4.155917   4.626288   2.800908
    23  C    7.326056   5.377632   5.504985   5.911479   4.067778
    24  H    7.657463   5.848599   5.897696   6.537635   4.599002
    25  H    7.541181   5.643351   5.974247   6.097166   4.269377
    26  C    8.405457   6.362539   6.371311   6.760949   5.118265
    27  H    9.367992   7.357558   7.406059   7.783116   6.070602
    28  H    8.515247   6.420204   6.506215   6.633667   5.197056
    29  S    8.694019   6.713437   6.413322   7.178439   5.687273
    30  C   10.268436   8.246023   7.929594   8.562902   7.253727
    31  H   10.617727   8.665620   8.215931   9.004738   7.792172
    32  H   10.275001   8.214298   7.955346   8.388927   7.243527
    33  C   11.339882   9.313239   9.078954   9.688610   8.207932
    34  H   11.486859   9.532078   9.235634  10.020301   8.448954
    35  H   11.131561   9.083404   8.977922   9.444050   7.887180
    36  S   12.950133  10.899118  10.650568  11.181257   9.823017
    37  C   13.537019  11.561814  11.147155  11.879850  10.619084
    38  H   12.923999  10.973682  10.504165  11.243753  10.119025
    39  H   13.513245  11.594275  11.134640  12.008463  10.662159
    40  C   14.933457  12.946306  12.533695  13.206454  12.015162
    41  H   15.341617  13.409932  12.916424  13.694811  12.549580
    42  H   14.939258  12.925205  12.549330  13.092896  12.006673
    43  S   16.103358  14.089241  13.754220  14.395578  13.054475
    44  C   16.461926  14.521223  14.132570  14.955271  13.492909
    45  H   15.602935  13.691802  13.303058  14.179981  12.657444
    46  H   16.936523  15.034940  14.575668  15.475441  14.070682
    47  C   17.551929  15.599165  15.273351  16.049278  14.507246
    48  H   17.539851  15.632627  15.308846  16.151082  14.529964
    49  H   18.522885  16.572319  16.217680  17.007258  15.504231
    50  H   17.558358  15.563734  15.310562  15.971175  14.422420
                   16         17         18         19         20
    16  C    0.000000
    17  H    1.108919   0.000000
    18  H    1.088291   1.794373   0.000000
    19  C    1.532194   2.185874   2.185337   0.000000
    20  H    2.122757   2.412180   3.049208   1.096421   0.000000
    21  H    2.127274   2.497904   2.463308   1.109430   1.791510
    22  O    2.374758   3.329737   2.672774   1.361272   2.088983
    23  C    3.643142   4.485598   3.961621   2.317960   2.693843
    24  H    4.380057   5.336024   4.553906   3.255177   3.694178
    25  H    4.014344   4.727518   4.575744   2.629723   2.535990
    26  C    4.339685   5.016426   4.522414   2.938685   3.356616
    27  H    5.394279   6.069564   5.614327   3.950106   4.207644
    28  H    4.258517   4.705451   4.567684   2.820073   3.035183
    29  S    4.768692   5.496063   4.523271   3.758547   4.542271
    30  C    6.166827   6.688461   5.929490   5.124779   5.770220
    31  H    6.686525   7.212675   6.281686   5.827962   6.583987
    32  H    6.046132   6.397124   5.890116   5.013970   5.557858
    33  C    7.244953   7.826137   7.118517   6.028805   6.535243
    34  H    7.592174   8.289174   7.382268   6.436406   7.026409
    35  H    6.997851   7.570880   7.031502   5.647404   6.001336
    36  S    8.764730   9.222653   8.633886   7.565094   8.001953
    37  C    9.523165  10.003696   9.193966   8.514005   9.118904
    38  H    8.958930   9.382129   8.560335   8.075445   8.740808
    39  H    9.651131  10.233128   9.264289   8.671323   9.340847
    40  C   10.873496  11.281483  10.557712   9.862886  10.417827
    41  H   11.407864  11.833471  10.998887  10.493250  11.124959
    42  H   10.801311  11.106718  10.531896   9.799257  10.294959
    43  S   11.994347  12.455388  11.772132  10.843722  11.304722
    44  C   12.543752  13.136017  12.254271  11.417503  11.955017
    45  H   11.769674  12.422583  11.473269  10.648372  11.212281
    46  H   13.100265  13.690871  12.732009  12.056242  12.658231
    47  C   13.612754  14.220980  13.396456  12.403640  12.862005
    48  H   13.720516  14.398165  13.501138  12.509334  12.979670
    49  H   14.579002  15.165800  14.333943  13.395366  13.867672
    50  H   13.522688  14.090521  13.390707  12.244925  12.616565
                   21         22         23         24         25
    21  H    0.000000
    22  O    2.015327   0.000000
    23  C    2.630334   1.352722   0.000000
    24  H    3.627416   2.012022   1.116731   0.000000
    25  H    3.088353   2.013543   1.108129   1.771676   0.000000
    26  C    2.643356   2.419654   1.484919   2.110648   2.109296
    27  H    3.714244   3.332023   2.114308   2.370684   2.410003
    28  H    2.272070   2.835338   2.186110   3.079269   2.472464
    29  S    3.235288   3.174894   2.754384   2.947936   3.718128
    30  C    4.329272   4.827001   4.279524   4.561254   5.040186
    31  H    5.017228   5.507707   5.110321   5.290680   5.970689
    32  H    4.075158   5.005560   4.554316   5.065144   5.197846
    33  C    5.365715   5.556214   4.679535   4.767533   5.270094
    34  H    5.891507   5.754766   4.869452   4.704785   5.543986
    35  H    5.077133   5.180725   4.140242   4.285563   4.543489
    36  S    6.780976   7.248499   6.386686   6.540727   6.881829
    37  C    7.688124   8.156161   7.467496   7.524981   8.143555
    38  H    7.186141   7.825540   7.305915   7.456231   8.055306
    39  H    7.934889   8.156283   7.457806   7.357959   8.193834
    40  C    8.986194   9.584334   8.880904   8.977772   9.498741
    41  H    9.616252  10.184259   9.559049   9.604043  10.255136
    42  H    8.857928   9.669558   9.008543   9.237021   9.575302
    43  S   10.048704  10.461162   9.572877   9.572003  10.066444
    44  C   10.730298  10.834004   9.917251   9.710399  10.470592
    45  H   10.025605   9.979752   9.055967   8.774295   9.635193
    46  H   11.344131  11.476094  10.639199  10.418921  11.264162
    47  C   11.768448  11.779741  10.757589  10.505337  11.204251
    48  H   11.955799  11.778618  10.727925  10.365830  11.170969
    49  H   12.726302  12.798563  11.803052  11.564814  12.266195
    50  H   11.608223  11.676632  10.596077  10.407316  10.946847
                   26         27         28         29         30
    26  C    0.000000
    27  H    1.118112   0.000000
    28  H    1.120461   1.772623   0.000000
    29  S    1.812069   2.378168   2.452055   0.000000
    30  C    2.931762   3.084307   3.080859   1.833373   0.000000
    31  H    3.882969   4.091570   4.098180   2.414142   1.108703
    32  H    3.153039   3.421771   2.899423   2.462563   1.090646
    33  C    3.322801   2.929082   3.603458   2.705711   1.514244
    34  H    3.713664   3.271091   4.265864   2.860185   2.131453
    35  H    2.796916   2.147660   3.030617   2.831556   2.125573
    36  S    4.964263   4.522960   4.994135   4.382783   2.755212
    37  C    6.109492   5.843156   6.249190   5.031061   3.390566
    38  H    5.958181   5.899941   6.025717   4.716629   3.052619
    39  H    6.211143   5.913041   6.537605   5.002837   3.626992
    40  C    7.481378   7.170843   7.513129   6.493515   4.778008
    41  H    8.205028   7.961222   8.298379   7.036356   5.398551
    42  H    7.558695   7.308443   7.426794   6.685504   4.877938
    43  S    8.204409   7.662398   8.293521   7.460444   5.848567
    44  C    8.685301   8.085045   8.997194   7.816928   6.459008
    45  H    7.897049   7.287694   8.312964   7.007612   5.812958
    46  H    9.416814   8.898020   9.743362   8.387547   7.026071
    47  C    9.567501   8.837902   9.885300   8.895926   7.607257
    48  H    9.641916   8.868359  10.070459   8.988074   7.881550
    49  H   10.589511   9.888002  10.877691   9.860150   8.509013
    50  H    9.379595   8.589612   9.616778   8.897997   7.573940
                   31         32         33         34         35
    31  H    0.000000
    32  H    1.779691   0.000000
    33  C    2.129403   2.191859   0.000000
    34  H    2.388496   3.073577   1.108448   0.000000
    35  H    3.027140   2.550569   1.089768   1.807960   0.000000
    36  S    2.957963   2.964485   1.802853   2.388591   2.407520
    37  C    2.937990   3.744495   2.918572   3.019030   3.872408
    38  H    2.372314   3.276627   3.121177   3.348365   4.133131
    39  H    3.070230   4.245005   3.067456   2.760248   4.063815
    40  C    4.340803   4.936676   4.270405   4.440102   5.104447
    41  H    4.765898   5.628125   5.035728   5.052526   5.961880
    42  H    4.534572   4.789456   4.527595   4.938505   5.271699
    43  S    5.624186   6.089545   4.912565   4.965543   5.525728
    44  C    6.135284   6.968938   5.421150   5.088134   6.076766
    45  H    5.513713   6.455429   4.730007   4.232050   5.388720
    46  H    6.545424   7.543681   6.149631   5.770739   6.911071
    47  C    7.419578   8.104111   6.403400   6.071956   6.877168
    48  H    7.714639   8.492829   6.621739   6.133300   7.049288
    49  H    8.249049   8.964273   7.374254   7.067108   7.891820
    50  H    7.531204   7.977179   6.289419   6.102320   6.620655
                   36         37         38         39         40
    36  S    0.000000
    37  C    1.816908   0.000000
    38  H    2.389693   1.127491   0.000000
    39  H    2.443669   1.090255   1.780460   0.000000
    40  C    2.753772   1.511136   2.114965   2.197566   0.000000
    41  H    3.714941   2.118916   2.453961   2.437344   1.108458
    42  H    2.912003   2.125316   2.369433   3.070028   1.098884
    43  S    3.303658   2.753205   3.718116   3.076346   1.813880
    44  C    4.233141   3.455696   4.477592   3.152606   2.984214
    45  H    3.857847   3.182298   4.215581   2.614834   3.227636
    46  H    4.989658   3.860055   4.725989   3.482257   3.230941
    47  C    5.223586   4.804205   5.876750   4.548022   4.276761
    48  H    5.698682   5.342755   6.420882   4.896239   5.067304
    49  H    6.095255   5.504522   6.514869   5.289885   4.741115
    50  H    5.022757   4.956925   6.057709   4.887882   4.415115
                   41         42         43         44         45
    41  H    0.000000
    42  H    1.853156   0.000000
    43  S    2.388684   2.408736   0.000000
    44  C    3.069982   3.926218   1.826358   0.000000
    45  H    3.389298   4.241912   2.454797   1.111378   0.000000
    46  H    2.920868   4.200673   2.448785   1.108713   1.835685
    47  C    4.460159   5.072651   2.693307   1.508734   2.138305
    48  H    5.219000   5.944956   3.625490   2.150131   2.291588
    49  H    4.751966   5.481456   3.181408   2.139504   2.994695
    50  H    4.832606   5.037741   2.658093   2.188989   2.738629
                   46         47         48         49         50
    46  H    0.000000
    47  C    2.125600   0.000000
    48  H    2.677803   1.110977   0.000000
    49  H    2.258557   1.098544   1.786962   0.000000
    50  H    3.018813   1.106510   1.812543   1.780687   0.000000
 Stoichiometry    C14H30O3S3
 Framework group  C1[X(C14H30O3S3)]
 Deg. of freedom   144
 Full point group                 C1      NOp   1
 Largest Abelian subgroup         C1      NOp   1
 Largest concise Abelian subgroup C1      NOp   1
                         Standard orientation:                         
 ---------------------------------------------------------------------
 Center     Atomic      Atomic             Coordinates (Angstroms)
 Number     Number       Type             X           Y           Z
 ---------------------------------------------------------------------
      1          6           0        7.310087    2.999348   -0.450246
      2          1           0        6.334035    3.475993   -0.182306
      3          1           0        8.145873    3.387001    0.166181
      4          1           0        7.542819    3.101082   -1.525156
      5          6           0        7.144714    1.506945   -0.082339
      6          1           0        7.304989    1.349881    0.998079
      7          1           0        6.058436    1.239718   -0.275463
      8          8           0        7.909973    0.719743   -0.898409
      9          6           0        7.858303   -0.596541   -0.576508
     10          1           0        8.377165   -0.788355    0.420642
     11          1           0        8.550507   -1.139437   -1.301756
     12          6           0        6.561779   -1.309554   -0.616040
     13          1           0        6.136583   -1.296990   -1.651028
     14          1           0        6.761246   -2.369187   -0.293388
     15          8           0        5.568741   -0.843659    0.221788
     16          6           0        4.439558   -1.650984    0.028667
     17          1           0        4.737722   -2.688327    0.283065
     18          1           0        4.172547   -1.597792   -1.025019
     19          6           0        3.295762   -1.179341    0.932492
     20          1           0        3.612406   -1.374208    1.963948
     21          1           0        2.428741   -1.830989    0.699118
     22          8           0        2.968847    0.109775    0.642028
     23          6           0        1.969920    0.673519    1.359101
     24          1           0        1.847085    1.734028    1.031501
     25          1           0        2.265551    0.724331    2.425858
     26          6           0        0.637282    0.022916    1.283105
     27          1           0       -0.079704    0.641988    1.877122
     28          1           0        0.608445   -0.987815    1.765832
     29         16           0       -0.025928   -0.034149   -0.402271
     30          6           0       -1.665606   -0.848911   -0.308075
     31          1           0       -2.064965   -0.923962   -1.339628
     32          1           0       -1.602601   -1.856868    0.103703
     33          6           0       -2.584594    0.067857    0.471625
     34          1           0       -2.666149    1.020363   -0.089391
     35          1           0       -2.146134    0.237022    1.454850
     36         16           0       -4.242867   -0.619536    0.638658
     37          6           0       -4.976001   -0.685061   -1.022479
     38          1           0       -4.366584   -1.434123   -1.604504
     39          1           0       -4.887088    0.267525   -1.545289
     40          6           0       -6.379171   -1.244583   -0.982696
     41          1           0       -6.774285   -1.200883   -2.017420
     42          1           0       -6.328415   -2.258760   -0.562676
     43         16           0       -7.470096   -0.228305    0.050369
     44          6           0       -7.700900    1.416868   -0.708393
     45          1           0       -6.733352    1.957709   -0.789022
     46          1           0       -8.200824    1.327321   -1.693940
     47          6           0       -8.614451    2.205379    0.197119
     48          1           0       -8.361989    3.284953    0.126042
     49          1           0       -9.653502    2.078071   -0.135997
     50          1           0       -8.556876    1.878540    1.252688
 ---------------------------------------------------------------------
 Rotational constants (GHZ):           0.7763031           0.0473971           0.0461564
 Leave Link  202 at Tue Jun 27 20:18:19 2023, MaxMem=   262144000 cpu:               0.4 elap:               0.1
 (Enter /dragofs/sw/campus/0.2/software/gaussian/16.gaussian/gaussian/g16_legacy/l301.exe)
 Standard basis: 6-31G(d) (6D, 7F)
 Ernie: Thresh=  0.10000D-02 Tol=  0.10000D-05 Strict=F.
 There are   372 symmetry adapted cartesian basis functions of A   symmetry.
 There are   372 symmetry adapted basis functions of A   symmetry.
   372 basis functions,   752 primitive gaussians,   372 cartesian basis functions
    93 alpha electrons       93 beta electrons
       nuclear repulsion energy      1907.7074056257 Hartrees.
 IExCor=20419 DFT=T Ex+Corr=CAM-B3LYP ExCW=0 ScaHFX=  1.000000
 ScaDFX=  1.000000  1.000000  1.000000  0.810000 ScalE2=  1.000000  1.000000
 IRadAn=      5 IRanWt=     -1 IRanGd=            0 ICorTp=0 IEmpDi=  4
 HFx  wShort=  0.000000 wLong=  0.330000 cFull=  0.190000 cShort=  0.000000 cLong=  0.460000
 DFx  wShort=  0.000000 wLong=  0.330000 cFull=  0.190000 cShort=  0.000000 cLong=  0.460000
 NAtoms=   50 NActive=   50 NUniq=   50 SFac= 1.00D+00 NAtFMM=   60 NAOKFM=F Big=F
 Integral buffers will be    131072 words long.
 Raffenetti 2 integral format.
 Two-electron integral symmetry is turned on.
 Leave Link  301 at Tue Jun 27 20:18:19 2023, MaxMem=   262144000 cpu:               0.5 elap:               0.1
 (Enter /dragofs/sw/campus/0.2/software/gaussian/16.gaussian/gaussian/g16_legacy/l302.exe)
 NPDir=0 NMtPBC=     1 NCelOv=     1 NCel=       1 NClECP=     1 NCelD=      1
         NCelK=      1 NCelE2=     1 NClLst=     1 CellRange=     0.0.
 One-electron integrals computed using PRISM.
 One-electron integral symmetry used in STVInt
 NBasis=   372 RedAO= T EigKep=  3.52D-03  NBF=   372
 NBsUse=   372 1.00D-06 EigRej= -1.00D+00 NBFU=   372
 Precomputing XC quadrature grid using
 IXCGrd= 4 IRadAn=           5 IRanWt=          -1 IRanGd=           0 AccXCQ= 0.00D+00.
 Generated NRdTot=       0 NPtTot=           0 NUsed=           0 NTot=          32
 NSgBfM=   348   348   348   348   348 MxSgAt=    50 MxSgA2=    50.
 Leave Link  302 at Tue Jun 27 20:18:19 2023, MaxMem=   262144000 cpu:               5.2 elap:               0.7
 (Enter /dragofs/sw/campus/0.2/software/gaussian/16.gaussian/gaussian/g16_legacy/l303.exe)
 DipDrv:  MaxL=1.
 Leave Link  303 at Tue Jun 27 20:18:19 2023, MaxMem=   262144000 cpu:               0.4 elap:               0.1
 (Enter /dragofs/sw/campus/0.2/software/gaussian/16.gaussian/gaussian/g16_legacy/l401.exe)
 ExpMin= 1.17D-01 ExpMax= 2.19D+04 ExpMxC= 3.30D+03 IAcc=3 IRadAn=         5 AccDes= 0.00D+00
 Harris functional with IExCor=20419 and IRadAn=       5 diagonalized for initial guess.
 HarFok:  IExCor=20419 AccDes= 0.00D+00 IRadAn=         5 IDoV= 1 UseB2=F ITyADJ=14
 ICtDFT=  3500011 ScaDFX=  1.000000  1.000000  1.000000  1.000000
 FoFCou: FMM=F IPFlag=           0 FMFlag=      100000 FMFlg1=           0
         NFxFlg=           0 DoJE=T BraDBF=F KetDBF=T FulRan=T
         wScrn=  0.000000 ICntrl=       500 IOpCl=  0 I1Cent=   200000004 NGrid=           0
         NMat0=    1 NMatS0=      1 NMatT0=    0 NMatD0=    1 NMtDS0=    0 NMtDT0=    0
 Petite list used in FoFCou.
 Harris En= -1921.25762608665    
 JPrj=0 DoOrth=F DoCkMO=F.
 Leave Link  401 at Tue Jun 27 20:18:22 2023, MaxMem=   262144000 cpu:              21.6 elap:               2.7
 (Enter /dragofs/sw/campus/0.2/software/gaussian/16.gaussian/gaussian/g16_legacy/l502.exe)
 Integral symmetry usage will be decided dynamically.
 Closed shell SCF:
 Using DIIS extrapolation, IDIIS=  1040.
 NGot=   262144000 LenX=   261859787 LenY=   261720962
 Requested convergence on RMS density matrix=1.00D-08 within 128 cycles.
 Requested convergence on MAX density matrix=1.00D-06.
 Requested convergence on             energy=1.00D-06.
 No special actions if energy rises.
 Fock matrices will be formed incrementally for  20 cycles.
 Integral accuracy reduced to 1.0D-05 until final iterations.

 Cycle   1  Pass 0  IDiag  1:
 FoFJK:  IHMeth= 1 ICntrl=       0 DoSepK=T KAlg= 0 I1Cent=           0 FoldK=F
 IRaf=         1 NMat=       1 IRICut=       1 DoRegI=T DoRafI=F ISym2E= 0 IDoP0=0 IntGTp=1.
 FoFCou: FMM=F IPFlag=           0 FMFlag=      100000 FMFlg1=           0
         NFxFlg=           0 DoJE=T BraDBF=F KetDBF=F FulRan=T
         wScrn=  0.000000 ICntrl=       500 IOpCl=  0 I1Cent=           0 NGrid=           0
         NMat0=    1 NMatS0=      1 NMatT0=    0 NMatD0=    1 NMtDS0=    0 NMtDT0=    0
 Symmetry not used in FoFCou.
 E= -1970.90686744129    
 DIIS: error= 6.52D-02 at cycle   1 NSaved=   1.
 NSaved= 1 IEnMin= 1 EnMin= -1970.90686744129     IErMin= 1 ErrMin= 6.52D-02
 ErrMax= 6.52D-02  0.00D+00 EMaxC= 1.00D-01 BMatC= 9.72D-01 BMatP= 9.72D-01
 IDIUse=3 WtCom= 3.48D-01 WtEn= 6.52D-01
 Coeff-Com:  0.100D+01
 Coeff-En:   0.100D+01
 Coeff:      0.100D+01
 Gap=     0.397 Goal=   None    Shift=    0.000
 GapD=    0.397 DampG=1.000 DampE=0.500 DampFc=0.5000 IDamp=-1.
 Damping current iteration by 5.00D-01
 RMSDP=3.48D-03 MaxDP=2.67D-01              OVMax= 1.09D-01

 Cycle   2  Pass 0  IDiag  1:
 RMSU=  1.74D-03    CP:  1.00D+00
 E= -1971.08444257086     Delta-E=       -0.177575129565 Rises=F Damp=T
 DIIS: error= 2.68D-02 at cycle   2 NSaved=   2.
 NSaved= 2 IEnMin= 2 EnMin= -1971.08444257086     IErMin= 2 ErrMin= 2.68D-02
 ErrMax= 2.68D-02  0.00D+00 EMaxC= 1.00D-01 BMatC= 1.68D-01 BMatP= 9.72D-01
 IDIUse=3 WtCom= 7.32D-01 WtEn= 2.68D-01
 Coeff-Com: -0.427D+00 0.143D+01
 Coeff-En:   0.000D+00 0.100D+01
 Coeff:     -0.313D+00 0.131D+01
 Gap=     0.390 Goal=   None    Shift=    0.000
 RMSDP=9.36D-04 MaxDP=4.47D-02 DE=-1.78D-01 OVMax= 6.65D-02

 Cycle   3  Pass 0  IDiag  1:
 RMSU=  8.92D-04    CP:  1.01D+00  1.15D+00
 E= -1971.23230962953     Delta-E=       -0.147867058668 Rises=F Damp=F
 DIIS: error= 7.93D-03 at cycle   3 NSaved=   3.
 NSaved= 3 IEnMin= 3 EnMin= -1971.23230962953     IErMin= 3 ErrMin= 7.93D-03
 ErrMax= 7.93D-03  0.00D+00 EMaxC= 1.00D-01 BMatC= 3.21D-02 BMatP= 1.68D-01
 IDIUse=3 WtCom= 9.21D-01 WtEn= 7.93D-02
 Coeff-Com: -0.246D+00 0.561D+00 0.685D+00
 Coeff-En:   0.000D+00 0.000D+00 0.100D+01
 Coeff:     -0.226D+00 0.516D+00 0.710D+00
 Gap=     0.352 Goal=   None    Shift=    0.000
 RMSDP=5.23D-04 MaxDP=2.44D-02 DE=-1.48D-01 OVMax= 2.28D-02

 Cycle   4  Pass 0  IDiag  1:
 RMSU=  3.37D-04    CP:  1.00D+00  1.30D+00  6.65D-01
 E= -1971.25617347465     Delta-E=       -0.023863845120 Rises=F Damp=F
 DIIS: error= 2.38D-03 at cycle   4 NSaved=   4.
 NSaved= 4 IEnMin= 4 EnMin= -1971.25617347465     IErMin= 4 ErrMin= 2.38D-03
 ErrMax= 2.38D-03  0.00D+00 EMaxC= 1.00D-01 BMatC= 2.64D-03 BMatP= 3.21D-02
 IDIUse=3 WtCom= 9.76D-01 WtEn= 2.38D-02
 Coeff-Com: -0.908D-01 0.196D+00 0.346D+00 0.549D+00
 Coeff-En:   0.000D+00 0.000D+00 0.000D+00 0.100D+01
 Coeff:     -0.887D-01 0.191D+00 0.337D+00 0.560D+00
 Gap=     0.352 Goal=   None    Shift=    0.000
 RMSDP=1.31D-04 MaxDP=7.69D-03 DE=-2.39D-02 OVMax= 5.93D-03

 Cycle   5  Pass 0  IDiag  1:
 RMSU=  6.49D-05    CP:  1.01D+00  1.32D+00  7.10D-01  6.99D-01
 E= -1971.25809011404     Delta-E=       -0.001916639393 Rises=F Damp=F
 DIIS: error= 3.16D-04 at cycle   5 NSaved=   5.
 NSaved= 5 IEnMin= 5 EnMin= -1971.25809011404     IErMin= 5 ErrMin= 3.16D-04
 ErrMax= 3.16D-04  0.00D+00 EMaxC= 1.00D-01 BMatC= 4.75D-05 BMatP= 2.64D-03
 IDIUse=3 WtCom= 9.97D-01 WtEn= 3.16D-03
 Coeff-Com: -0.162D-01 0.333D-01 0.823D-01 0.195D+00 0.705D+00
 Coeff-En:   0.000D+00 0.000D+00 0.000D+00 0.000D+00 0.100D+01
 Coeff:     -0.162D-01 0.332D-01 0.820D-01 0.195D+00 0.706D+00
 Gap=     0.352 Goal=   None    Shift=    0.000
 RMSDP=2.32D-05 MaxDP=9.66D-04 DE=-1.92D-03 OVMax= 8.89D-04

 Cycle   6  Pass 0  IDiag  1:
 RMSU=  1.80D-05    CP:  1.01D+00  1.32D+00  7.19D-01  7.32D-01  9.13D-01
 E= -1971.25813261329     Delta-E=       -0.000042499252 Rises=F Damp=F
 DIIS: error= 6.74D-05 at cycle   6 NSaved=   6.
 NSaved= 6 IEnMin= 6 EnMin= -1971.25813261329     IErMin= 6 ErrMin= 6.74D-05
 ErrMax= 6.74D-05  0.00D+00 EMaxC= 1.00D-01 BMatC= 3.99D-06 BMatP= 4.75D-05
 IDIUse=1 WtCom= 1.00D+00 WtEn= 0.00D+00
 Coeff-Com:  0.476D-02-0.105D-01-0.823D-02 0.686D-02 0.237D+00 0.770D+00
 Coeff:      0.476D-02-0.105D-01-0.823D-02 0.686D-02 0.237D+00 0.770D+00
 Gap=     0.352 Goal=   None    Shift=    0.000
 RMSDP=8.30D-06 MaxDP=6.41D-04 DE=-4.25D-05 OVMax= 3.20D-04

 Initial convergence to 1.0D-05 achieved.  Increase integral accuracy.
 Cycle   7  Pass 1  IDiag  1:
 E= -1971.25815311811     Delta-E=       -0.000020504815 Rises=F Damp=F
 DIIS: error= 1.95D-05 at cycle   1 NSaved=   1.
 NSaved= 1 IEnMin= 1 EnMin= -1971.25815311811     IErMin= 1 ErrMin= 1.95D-05
 ErrMax= 1.95D-05  0.00D+00 EMaxC= 1.00D-01 BMatC= 3.42D-07 BMatP= 3.42D-07
 IDIUse=1 WtCom= 1.00D+00 WtEn= 0.00D+00
 Coeff-Com:  0.100D+01
 Coeff:      0.100D+01
 Gap=     0.352 Goal=   None    Shift=    0.000
 RMSDP=8.30D-06 MaxDP=6.41D-04 DE=-2.05D-05 OVMax= 1.41D-04

 Cycle   8  Pass 1  IDiag  1:
 RMSU=  5.59D-06    CP:  1.00D+00
 E= -1971.25815326040     Delta-E=       -0.000000142296 Rises=F Damp=F
 DIIS: error= 1.97D-05 at cycle   2 NSaved=   2.
 NSaved= 2 IEnMin= 2 EnMin= -1971.25815326040     IErMin= 1 ErrMin= 1.95D-05
 ErrMax= 1.97D-05  0.00D+00 EMaxC= 1.00D-01 BMatC= 2.81D-07 BMatP= 3.42D-07
 IDIUse=1 WtCom= 1.00D+00 WtEn= 0.00D+00
 Coeff-Com:  0.473D+00 0.527D+00
 Coeff:      0.473D+00 0.527D+00
 Gap=     0.352 Goal=   None    Shift=    0.000
 RMSDP=1.37D-06 MaxDP=7.43D-05 DE=-1.42D-07 OVMax= 7.21D-05

 Cycle   9  Pass 1  IDiag  1:
 RMSU=  1.32D-06    CP:  1.00D+00  9.35D-01
 E= -1971.25815348007     Delta-E=       -0.000000219663 Rises=F Damp=F
 DIIS: error= 4.38D-06 at cycle   3 NSaved=   3.
 NSaved= 3 IEnMin= 3 EnMin= -1971.25815348007     IErMin= 3 ErrMin= 4.38D-06
 ErrMax= 4.38D-06  0.00D+00 EMaxC= 1.00D-01 BMatC= 8.32D-09 BMatP= 2.81D-07
 IDIUse=1 WtCom= 1.00D+00 WtEn= 0.00D+00
 Coeff-Com:  0.389D-01 0.150D+00 0.811D+00
 Coeff:      0.389D-01 0.150D+00 0.811D+00
 Gap=     0.352 Goal=   None    Shift=    0.000
 RMSDP=3.77D-07 MaxDP=1.79D-05 DE=-2.20D-07 OVMax= 1.98D-05

 Cycle  10  Pass 1  IDiag  1:
 RMSU=  3.21D-07    CP:  1.00D+00  9.69D-01  9.68D-01
 E= -1971.25815348655     Delta-E=       -0.000000006478 Rises=F Damp=F
 DIIS: error= 1.34D-06 at cycle   4 NSaved=   4.
 NSaved= 4 IEnMin= 4 EnMin= -1971.25815348655     IErMin= 4 ErrMin= 1.34D-06
 ErrMax= 1.34D-06  0.00D+00 EMaxC= 1.00D-01 BMatC= 1.25D-09 BMatP= 8.32D-09
 IDIUse=1 WtCom= 1.00D+00 WtEn= 0.00D+00
 Coeff-Com: -0.197D-01 0.235D-01 0.348D+00 0.649D+00
 Coeff:     -0.197D-01 0.235D-01 0.348D+00 0.649D+00
 Gap=     0.352 Goal=   None    Shift=    0.000
 RMSDP=1.30D-07 MaxDP=4.74D-06 DE=-6.48D-09 OVMax= 7.38D-06

 Cycle  11  Pass 1  IDiag  1:
 RMSU=  1.13D-07    CP:  1.00D+00  9.78D-01  9.90D-01  9.26D-01
 E= -1971.25815348782     Delta-E=       -0.000000001270 Rises=F Damp=F
 DIIS: error= 3.31D-07 at cycle   5 NSaved=   5.
 NSaved= 5 IEnMin= 5 EnMin= -1971.25815348782     IErMin= 5 ErrMin= 3.31D-07
 ErrMax= 3.31D-07  0.00D+00 EMaxC= 1.00D-01 BMatC= 4.63D-11 BMatP= 1.25D-09
 IDIUse=1 WtCom= 1.00D+00 WtEn= 0.00D+00
 Coeff-Com: -0.731D-02-0.392D-02 0.333D-01 0.165D+00 0.813D+00
 Coeff:     -0.731D-02-0.392D-02 0.333D-01 0.165D+00 0.813D+00
 Gap=     0.352 Goal=   None    Shift=    0.000
 RMSDP=4.98D-08 MaxDP=2.27D-06 DE=-1.27D-09 OVMax= 3.38D-06

 Cycle  12  Pass 1  IDiag  1:
 RMSU=  3.18D-08    CP:  1.00D+00  9.80D-01  1.00D+00  1.00D+00  1.18D+00
 E= -1971.25815348782     Delta-E=       -0.000000000005 Rises=F Damp=F
 DIIS: error= 1.08D-07 at cycle   6 NSaved=   6.
 NSaved= 6 IEnMin= 6 EnMin= -1971.25815348782     IErMin= 6 ErrMin= 1.08D-07
 ErrMax= 1.08D-07  0.00D+00 EMaxC= 1.00D-01 BMatC= 8.66D-12 BMatP= 4.63D-11
 IDIUse=1 WtCom= 1.00D+00 WtEn= 0.00D+00
 Coeff-Com: -0.289D-04-0.487D-02-0.378D-01-0.348D-01 0.288D+00 0.789D+00
 Coeff:     -0.289D-04-0.487D-02-0.378D-01-0.348D-01 0.288D+00 0.789D+00
 Gap=     0.352 Goal=   None    Shift=    0.000
 RMSDP=1.98D-08 MaxDP=9.53D-07 DE=-5.46D-12 OVMax= 1.49D-06

 Cycle  13  Pass 1  IDiag  1:
 RMSU=  9.73D-09    CP:  1.00D+00  9.81D-01  1.00D+00  1.04D+00  1.28D+00
                    CP:  9.17D-01
 E= -1971.25815348783     Delta-E=       -0.000000000004 Rises=F Damp=F
 DIIS: error= 3.00D-08 at cycle   7 NSaved=   7.
 NSaved= 7 IEnMin= 7 EnMin= -1971.25815348783     IErMin= 7 ErrMin= 3.00D-08
 ErrMax= 3.00D-08  0.00D+00 EMaxC= 1.00D-01 BMatC= 9.61D-13 BMatP= 8.66D-12
 IDIUse=1 WtCom= 1.00D+00 WtEn= 0.00D+00
 Coeff-Com:  0.685D-03-0.154D-02-0.181D-01-0.284D-01 0.517D-01 0.327D+00
 Coeff-Com:  0.668D+00
 Coeff:      0.685D-03-0.154D-02-0.181D-01-0.284D-01 0.517D-01 0.327D+00
 Coeff:      0.668D+00
 Gap=     0.352 Goal=   None    Shift=    0.000
 RMSDP=4.78D-09 MaxDP=2.61D-07 DE=-3.64D-12 OVMax= 3.86D-07

 SCF Done:  E(RCAM-B3LYP) =  -1971.25815349     A.U. after   13 cycles
            NFock= 13  Conv=0.48D-08     -V/T= 2.0055
 KE= 1.960547560416D+03 PE=-8.460552050246D+03 EE= 2.621038930716D+03
 Leave Link  502 at Tue Jun 27 20:19:10 2023, MaxMem=   262144000 cpu:             383.6 elap:              48.2
 (Enter /dragofs/sw/campus/0.2/software/gaussian/16.gaussian/gaussian/g16_legacy/l601.exe)
 Copying SCF densities to generalized density rwf, IOpCl= 0 IROHF=0.

 **********************************************************************

            Population analysis using the SCF density.

 **********************************************************************

 Orbital symmetries:
       Occupied  (A) (A) (A) (A) (A) (A) (A) (A) (A) (A) (A) (A)
                 (A) (A) (A) (A) (A) (A) (A) (A) (A) (A) (A) (A)
                 (A) (A) (A) (A) (A) (A) (A) (A) (A) (A) (A) (A)
                 (A) (A) (A) (A) (A) (A) (A) (A) (A) (A) (A) (A)
                 (A) (A) (A) (A) (A) (A) (A) (A) (A) (A) (A) (A)
                 (A) (A) (A) (A) (A) (A) (A) (A) (A) (A) (A) (A)
                 (A) (A) (A) (A) (A) (A) (A) (A) (A) (A) (A) (A)
                 (A) (A) (A) (A) (A) (A) (A) (A) (A)
       Virtual   (A) (A) (A) (A) (A) (A) (A) (A) (A) (A) (A) (A)
                 (A) (A) (A) (A) (A) (A) (A) (A) (A) (A) (A) (A)
                 (A) (A) (A) (A) (A) (A) (A) (A) (A) (A) (A) (A)
                 (A) (A) (A) (A) (A) (A) (A) (A) (A) (A) (A) (A)
                 (A) (A) (A) (A) (A) (A) (A) (A) (A) (A) (A) (A)
                 (A) (A) (A) (A) (A) (A) (A) (A) (A) (A) (A) (A)
                 (A) (A) (A) (A) (A) (A) (A) (A) (A) (A) (A) (A)
                 (A) (A) (A) (A) (A) (A) (A) (A) (A) (A) (A) (A)
                 (A) (A) (A) (A) (A) (A) (A) (A) (A) (A) (A) (A)
                 (A) (A) (A) (A) (A) (A) (A) (A) (A) (A) (A) (A)
                 (A) (A) (A) (A) (A) (A) (A) (A) (A) (A) (A) (A)
                 (A) (A) (A) (A) (A) (A) (A) (A) (A) (A) (A) (A)
                 (A) (A) (A) (A) (A) (A) (A) (A) (A) (A) (A) (A)
                 (A) (A) (A) (A) (A) (A) (A) (A) (A) (A) (A) (A)
                 (A) (A) (A) (A) (A) (A) (A) (A) (A) (A) (A) (A)
                 (A) (A) (A) (A) (A) (A) (A) (A) (A) (A) (A) (A)
                 (A) (A) (A) (A) (A) (A) (A) (A) (A) (A) (A) (A)
                 (A) (A) (A) (A) (A) (A) (A) (A) (A) (A) (A) (A)
                 (A) (A) (A) (A) (A) (A) (A) (A) (A) (A) (A) (A)
                 (A) (A) (A) (A) (A) (A) (A) (A) (A) (A) (A) (A)
                 (A) (A) (A) (A) (A) (A) (A) (A) (A) (A) (A) (A)
                 (A) (A) (A) (A) (A) (A) (A) (A) (A) (A) (A) (A)
                 (A) (A) (A) (A) (A) (A) (A) (A) (A) (A) (A) (A)
                 (A) (A) (A)
 The electronic state is 1-A.
 Alpha  occ. eigenvalues --  -88.94076 -88.93663 -88.93232 -19.22753 -19.21877
 Alpha  occ. eigenvalues --  -19.21096 -10.31771 -10.30984 -10.30556 -10.30263
 Alpha  occ. eigenvalues --  -10.30208 -10.30086 -10.29833 -10.29679 -10.29590
 Alpha  occ. eigenvalues --  -10.29438 -10.29089 -10.28191 -10.25865 -10.23915
 Alpha  occ. eigenvalues --   -8.00337  -7.99952  -7.99511  -5.96969  -5.96586
 Alpha  occ. eigenvalues --   -5.96543  -5.96156  -5.96155  -5.95861  -5.95713
 Alpha  occ. eigenvalues --   -5.95468  -5.95015  -1.15565  -1.13979  -1.12409
 Alpha  occ. eigenvalues --   -0.92535  -0.90786  -0.88392  -0.86659  -0.85308
 Alpha  occ. eigenvalues --   -0.83211  -0.80892  -0.78825  -0.76743  -0.73495
 Alpha  occ. eigenvalues --   -0.71329  -0.69796  -0.68821  -0.67001  -0.65206
 Alpha  occ. eigenvalues --   -0.64510  -0.63503  -0.59310  -0.58875  -0.57042
 Alpha  occ. eigenvalues --   -0.56440  -0.55804  -0.54927  -0.54504  -0.54083
 Alpha  occ. eigenvalues --   -0.53642  -0.52549  -0.52230  -0.50839  -0.49863
 Alpha  occ. eigenvalues --   -0.49208  -0.47947  -0.47695  -0.47392  -0.46742
 Alpha  occ. eigenvalues --   -0.45224  -0.45045  -0.44661  -0.44382  -0.43280
 Alpha  occ. eigenvalues --   -0.43078  -0.41950  -0.41496  -0.40685  -0.40507
 Alpha  occ. eigenvalues --   -0.40119  -0.38971  -0.38346  -0.36976  -0.35914
 Alpha  occ. eigenvalues --   -0.35215  -0.34122  -0.32710  -0.32019  -0.29452
 Alpha  occ. eigenvalues --   -0.28625  -0.28040  -0.26269
 Alpha virt. eigenvalues --    0.08901   0.09395   0.10255   0.11306   0.11820
 Alpha virt. eigenvalues --    0.12364   0.13062   0.13465   0.14426   0.14709
 Alpha virt. eigenvalues --    0.15823   0.16013   0.16388   0.17143   0.17488
 Alpha virt. eigenvalues --    0.17538   0.18095   0.19429   0.19581   0.19597
 Alpha virt. eigenvalues --    0.20227   0.20442   0.20879   0.21226   0.21523
 Alpha virt. eigenvalues --    0.21630   0.21884   0.22441   0.23247   0.23531
 Alpha virt. eigenvalues --    0.24356   0.24622   0.24873   0.25138   0.25561
 Alpha virt. eigenvalues --    0.25620   0.26206   0.27053   0.27787   0.28064
 Alpha virt. eigenvalues --    0.28437   0.28590   0.29299   0.30507   0.32202
 Alpha virt. eigenvalues --    0.32564   0.33879   0.36400   0.38697   0.39501
 Alpha virt. eigenvalues --    0.42580   0.43189   0.43801   0.44987   0.45587
 Alpha virt. eigenvalues --    0.47082   0.47950   0.48114   0.49749   0.50204
 Alpha virt. eigenvalues --    0.51073   0.54258   0.56277   0.57513   0.57825
 Alpha virt. eigenvalues --    0.59015   0.59540   0.60353   0.61608   0.61807
 Alpha virt. eigenvalues --    0.62089   0.62426   0.63062   0.64292   0.64589
 Alpha virt. eigenvalues --    0.65055   0.65634   0.65961   0.66683   0.66970
 Alpha virt. eigenvalues --    0.68495   0.68922   0.69423   0.69458   0.70307
 Alpha virt. eigenvalues --    0.70477   0.70825   0.71610   0.72436   0.73883
 Alpha virt. eigenvalues --    0.75097   0.75647   0.76595   0.78755   0.79562
 Alpha virt. eigenvalues --    0.80686   0.82273   0.82939   0.85454   0.86143
 Alpha virt. eigenvalues --    0.87102   0.87656   0.88106   0.88567   0.89470
 Alpha virt. eigenvalues --    0.90318   0.90732   0.90945   0.91442   0.91795
 Alpha virt. eigenvalues --    0.92063   0.92511   0.93029   0.93283   0.93743
 Alpha virt. eigenvalues --    0.94066   0.95368   0.95691   0.96109   0.96275
 Alpha virt. eigenvalues --    0.96680   0.97258   0.97489   0.98036   0.98217
 Alpha virt. eigenvalues --    0.98482   0.98981   0.99271   0.99670   0.99737
 Alpha virt. eigenvalues --    1.01288   1.01506   1.02103   1.02351   1.02970
 Alpha virt. eigenvalues --    1.03459   1.04224   1.04492   1.05407   1.06011
 Alpha virt. eigenvalues --    1.06271   1.07352   1.08296   1.08912   1.09102
 Alpha virt. eigenvalues --    1.10802   1.11500   1.14368   1.15861   1.17067
 Alpha virt. eigenvalues --    1.18575   1.19536   1.20679   1.22401   1.24257
 Alpha virt. eigenvalues --    1.25138   1.26393   1.29299   1.31603   1.32871
 Alpha virt. eigenvalues --    1.33042   1.33860   1.37311   1.45018   1.45874
 Alpha virt. eigenvalues --    1.48291   1.48971   1.51144   1.54179   1.55387
 Alpha virt. eigenvalues --    1.57458   1.58741   1.59908   1.60769   1.61256
 Alpha virt. eigenvalues --    1.61504   1.62086   1.63314   1.63944   1.65219
[...]
    11  H    0.000000   0.000000   0.000000   0.000000   0.000000   0.000000
    12  C    0.000000   0.000000   0.000000   0.000000   0.000000   0.000000
    13  H    0.000000   0.000000   0.000000   0.000000   0.000000   0.000000
    14  H    0.000000   0.000000   0.000000   0.000000   0.000000   0.000000
    15  O    0.000000   0.000000   0.000000   0.000000   0.000000   0.000000
    16  C    0.000000   0.000000  -0.000000   0.000000   0.000000   0.000000
    17  H    0.000000   0.000000  -0.000000   0.000000   0.000000   0.000000
    18  H    0.000000  -0.000000   0.000000  -0.000000   0.000000   0.000000
    19  C    0.000000   0.000000  -0.000000   0.000000   0.000000   0.000000
    20  H    0.000000  -0.000000   0.000000  -0.000000   0.000000   0.000000
    21  H   -0.000000  -0.000000   0.000000  -0.000000  -0.000000  -0.000000
    22  O   -0.000000   0.000000   0.000000  -0.000000   0.000000   0.000000
    23  C    0.000000   0.000000  -0.000000   0.000000  -0.000000  -0.000000
    24  H    0.000000   0.000000  -0.000000   0.000000  -0.000000   0.000000
    25  H   -0.000000  -0.000000   0.000000  -0.000000   0.000000   0.000000
    26  C   -0.000000   0.000000   0.000000  -0.000000  -0.000000   0.000000
    27  H   -0.000000  -0.000000   0.000000  -0.000000  -0.000000   0.000000
    28  H    0.000000   0.000000  -0.000000   0.000000  -0.000000   0.000000
    29  S    0.000000   0.000000  -0.000000   0.000000   0.000000  -0.000000
    30  C   -0.000003  -0.000000   0.000000  -0.000000  -0.000000   0.000000
    31  H    0.000001  -0.000000  -0.000000   0.000000   0.000000  -0.000000
    32  H    0.000001  -0.000000  -0.000000  -0.000000   0.000000  -0.000000
    33  C    0.000195   0.000004  -0.000039   0.000001   0.000000  -0.000000
    34  H   -0.000021   0.000001  -0.000006  -0.000000   0.000000   0.000000
    35  H    0.000014   0.000000  -0.000001   0.000000  -0.000000  -0.000000
    36  S    0.008554  -0.002443   0.001838   0.000143  -0.000046  -0.000004
    37  C   -0.055432  -0.004703   0.003313  -0.001359   0.000079   0.000003
    38  H    0.005585   0.000029  -0.000075  -0.000004  -0.000000  -0.000000
    39  H   -0.008122   0.004116   0.001600   0.000393  -0.000043   0.000008
    40  C    0.267956  -0.020114  -0.003666  -0.003119   0.002068  -0.000088
    41  H   -0.046924  -0.005234  -0.000975   0.007178   0.000068  -0.000003
    42  H   -0.037280   0.002735  -0.000058   0.000013  -0.000046   0.000001
    43  S   15.635215   0.263200  -0.049443  -0.050688  -0.046385   0.004198
    44  C    0.263200   5.163546   0.372265   0.368187   0.362797  -0.029079
    45  H   -0.049443   0.372265   0.576796  -0.043230  -0.032781  -0.002904
    46  H   -0.050688   0.368187  -0.043230   0.594292  -0.030379  -0.003611
    47  C   -0.046385   0.362797  -0.032781  -0.030379   5.056079   0.376055
    48  H    0.004198  -0.029079  -0.002904  -0.003611   0.376055   0.558188
    49  H    0.001646  -0.037563   0.004800  -0.004637   0.384562  -0.028405
    50  H    0.000376  -0.036936  -0.004429   0.004930   0.385372  -0.028637
              49         50
     1  C    0.000000   0.000000
     2  H    0.000000   0.000000
     3  H    0.000000   0.000000
     4  H    0.000000   0.000000
     5  C    0.000000   0.000000
     6  H    0.000000   0.000000
     7  H    0.000000   0.000000
     8  O    0.000000   0.000000
     9  C    0.000000   0.000000
    10  H    0.000000   0.000000
    11  H    0.000000   0.000000
    12  C    0.000000   0.000000
    13  H    0.000000   0.000000
    14  H    0.000000   0.000000
    15  O    0.000000   0.000000
    16  C    0.000000   0.000000
    17  H    0.000000   0.000000
    18  H    0.000000   0.000000
    19  C    0.000000   0.000000
    20  H    0.000000  -0.000000
    21  H    0.000000  -0.000000
    22  O    0.000000   0.000000
    23  C   -0.000000   0.000000
    24  H   -0.000000  -0.000000
    25  H    0.000000  -0.000000
    26  C   -0.000000  -0.000000
    27  H    0.000000  -0.000000
    28  H   -0.000000   0.000000
    29  S   -0.000000   0.000000
    30  C    0.000000   0.000000
    31  H   -0.000000   0.000000
    32  H    0.000000  -0.000000
    33  C   -0.000000   0.000000
    34  H   -0.000000  -0.000000
    35  H   -0.000000   0.000000
    36  S    0.000001   0.000022
    37  C    0.000004  -0.000013
    38  H    0.000000   0.000000
    39  H    0.000001   0.000002
    40  C    0.000012   0.000028
    41  H   -0.000015   0.000008
    42  H   -0.000002   0.000001
    43  S    0.001646   0.000376
    44  C   -0.037563  -0.036936
    45  H    0.004800  -0.004429
    46  H   -0.004637   0.004930
    47  C    0.384562   0.385372
    48  H   -0.028405  -0.028637
    49  H    0.542679  -0.028982
    50  H   -0.028982   0.539596
 Mulliken charges:
               1
     1  C   -0.451974
     2  H    0.137138
     3  H    0.150619
     4  H    0.155667
     5  C   -0.024344
     6  H    0.110475
     7  H    0.162769
     8  O   -0.476266
     9  C   -0.037094
    10  H    0.130068
    11  H    0.142420
    12  C   -0.024628
    13  H    0.136341
    14  H    0.115412
    15  O   -0.471720
    16  C   -0.023832
    17  H    0.121094
    18  H    0.145187
    19  C   -0.035327
    20  H    0.133929
    21  H    0.137607
    22  O   -0.455372
    23  C   -0.031316
    24  H    0.167012
    25  H    0.136802
    26  C   -0.439058
    27  H    0.170873
    28  H    0.171948
    29  S    0.103450
    30  C   -0.418669
    31  H    0.177678
    32  H    0.182401
    33  C   -0.423609
    34  H    0.182877
    35  H    0.178379
    36  S    0.113452
    37  C   -0.408782
    38  H    0.171480
    39  H    0.174722
    40  C   -0.430980
    41  H    0.174572
    42  H    0.191719
    43  S    0.107358
    44  C   -0.400806
    45  H    0.176995
    46  H    0.161891
    47  C   -0.457397
    48  H    0.154279
    49  H    0.165900
    50  H    0.168662
 Sum of Mulliken charges =  -0.00000
 Mulliken charges with hydrogens summed into heavy atoms:
               1
     1  C   -0.008550
     5  C    0.248900
     8  O   -0.476266
     9  C    0.235394
    12  C    0.227125
    15  O   -0.471720
    16  C    0.242450
    19  C    0.236209
    22  O   -0.455372
    23  C    0.272497
    26  C   -0.096238
    29  S    0.103450
    30  C   -0.058590
    33  C   -0.062353
    36  S    0.113452
    37  C   -0.062580
    40  C   -0.064689
    43  S    0.107358
    44  C   -0.061920
    47  C    0.031444
 Electronic spatial extent (au):  <R**2>=          22005.9022
 Charge=             -0.0000 electrons
 Dipole moment (field-independent basis, Debye):
    X=             -0.6640    Y=             -0.8419    Z=             -0.2167  Tot=              1.0939
 Quadrupole moment (field-independent basis, Debye-Ang):
   XX=           -163.9732   YY=           -141.6446   ZZ=           -144.6167
   XY=            -21.1260   XZ=             19.6108   YZ=              3.5002
 Traceless Quadrupole moment (field-independent basis, Debye-Ang):
   XX=            -13.8951   YY=              8.4335   ZZ=              5.4615
   XY=            -21.1260   XZ=             19.6108   YZ=              3.5002
 Octapole moment (field-independent basis, Debye-Ang**2):
  XXX=             60.9104  YYY=             -6.4240  ZZZ=             -1.2807  XYY=             16.9637
  XXY=             -4.2960  XXZ=            -66.3753  XZZ=             14.8314  YZZ=             -2.3742
  YYZ=              0.4893  XYZ=             16.1351
 Hexadecapole moment (field-independent basis, Debye-Ang**3):
 XXXX=         -27944.4307 YYYY=          -1578.4227 ZZZZ=           -613.4992 XXXY=          -1408.6339
 XXXZ=            631.8051 YYYX=            -31.5913 YYYZ=             -3.1478 ZZZX=             24.8330
 ZZZY=              1.9884 XXYY=          -4648.1004 XXZZ=          -4614.5254 YYZZ=           -372.5180
 XXYZ=            156.8017 YYXZ=             23.3982 ZZXY=            -15.2926
 N-N= 1.908928154442D+03 E-N=-8.463263004820D+03  KE= 1.960326256894D+03
 There are a total of     1162010 grid points.
 ElSum from          density=      186.0000059982
 ElSum from atomic densities=      185.9999970400
 Hirshfeld populations at iteration   1 (CA, CB, DipXYZ):
               1          2          3          4          5
     1  C    3.046194   3.046194  -0.008542  -0.007464   0.006701
     2  H    0.483688   0.483688  -0.092480   0.064831   0.078706
     3  H    0.484025   0.484025   0.123890   0.064368   0.014838
     4  H    0.482681   0.482681  -0.043537   0.009945  -0.135139
     5  C    2.988542   2.988542   0.033680  -0.006574  -0.036369
     6  H    0.488761   0.488761   0.027630   0.003544   0.119103
     7  H    0.488001   0.488001  -0.106711  -0.018716  -0.012747
     8  O    4.091886   4.091886  -0.067937  -0.067456   0.119471
     9  C    2.987602   2.987602  -0.014631   0.045291  -0.022251
    10  H    0.484837   0.484837   0.032993  -0.015965   0.120990
    11  H    0.480167   0.480167   0.119201  -0.030671  -0.065657
    12  C    2.989277   2.989277  -0.038439  -0.000706   0.036029
    13  H    0.483884   0.483884  -0.025555   0.020054  -0.125172
    14  H    0.486881   0.486881   0.059938  -0.107982   0.002901
    15  O    4.082308   4.082308  -0.002578  -0.060992  -0.118832
    16  C    2.987065   2.987065   0.040696   0.017653   0.017361
    17  H    0.485333   0.485333   0.014474  -0.124699   0.010220
    18  H    0.482327   0.482327  -0.038301   0.016577  -0.124286
    19  C    2.988394   2.988394  -0.012411   0.041006  -0.014693
    20  H    0.484078   0.484078   0.036783  -0.021702   0.121887
    21  H    0.485730   0.485730  -0.074456  -0.096056  -0.016604
    22  O    4.083296   4.083296  -0.042712  -0.072128   0.118129
    23  C    2.986252   2.986252   0.035757  -0.020761  -0.019763
    24  H    0.478825   0.478825  -0.006384   0.141764  -0.026386
    25  H    0.483772   0.483772   0.043177   0.007308   0.122215
    26  C    3.028954   3.028954   0.003837   0.007283   0.014463
    27  H    0.480329   0.480329  -0.072244   0.079039   0.094067
    28  H    0.483483   0.483483   0.003466  -0.124577   0.069514
    29  S    8.022801   8.022801  -0.093544  -0.034969   0.183714
    30  C    3.028636   3.028636   0.006607   0.012801   0.000185
    31  H    0.480574   0.480574  -0.049340  -0.055984  -0.124665
    32  H    0.482030   0.482030   0.004913  -0.110682   0.092991
    33  C    3.028583   3.028583  -0.006023  -0.012483   0.000734
    34  H    0.481870   0.481870  -0.004995   0.111545  -0.092134
    35  H    0.480467   0.480467   0.049427   0.054744   0.125470
    36  S    8.025907   8.025907   0.118470   0.041503  -0.186440
    37  C    3.026814   3.026814  -0.001351  -0.005360  -0.015266
    38  H    0.481245   0.481245   0.080897  -0.062034  -0.097292
    39  H    0.483428   0.483428  -0.011960   0.127880  -0.060594
    40  C    3.025941   3.025941   0.011526   0.008137  -0.015116
    41  H    0.481036   0.481036  -0.034077  -0.004031  -0.142189
    42  H    0.478124   0.478124   0.021825  -0.147872   0.024073
    43  S    8.024241   8.024241   0.101709   0.113142  -0.145377
    44  C    3.024841   3.024841  -0.013323   0.016364   0.002207
    45  H    0.483537   0.483537   0.099495   0.095008   0.023158
    46  H    0.483383   0.483383  -0.020982   0.006260  -0.140890
    47  C    3.043735   3.043735   0.005859   0.013684  -0.007500
    48  H    0.481633   0.481633  -0.018820   0.132591  -0.047766
    49  H    0.482863   0.482863  -0.122556  -0.064028  -0.029893
    50  H    0.481741   0.481741   0.010129   0.015166   0.141817
       Tot  93.000003  93.000003   0.062490  -0.006406  -0.162078

 Dip from Atomic Chgs             -0.323742  -0.324870   0.076780
         Total Dipole             -0.261253  -0.331276  -0.085298

 Hirshfeld charges, spin densities, dipoles, and CM5 charges using IRadAn=      5:
              Q-H        S-H        Dx         Dy         Dz        Q-CM5   
     1  C   -0.092388   0.000000  -0.008542  -0.007464   0.006701  -0.239001
     2  H    0.032623   0.000000  -0.092480   0.064831   0.078706   0.083812
     3  H    0.031949   0.000000   0.123890   0.064368   0.014838   0.085478
     4  H    0.034638   0.000000  -0.043537   0.009945  -0.135139   0.088180
     5  C    0.022916   0.000000   0.033680  -0.006574  -0.036369  -0.060384
     6  H    0.022479   0.000000   0.027630   0.003544   0.119103   0.085009
     7  H    0.023998   0.000000  -0.106711  -0.018716  -0.012747   0.092387
     8  O   -0.183772   0.000000  -0.067937  -0.067456   0.119471  -0.285520
     9  C    0.024795   0.000000  -0.014631   0.045291  -0.022251  -0.053360
    10  H    0.030327   0.000000   0.032993  -0.015965   0.120990   0.095518
    11  H    0.039666   0.000000   0.119201  -0.030671  -0.065657   0.103719
    12  C    0.021445   0.000000  -0.038439  -0.000706   0.036029  -0.057194
    13  H    0.032233   0.000000  -0.025555   0.020054  -0.125172   0.097370
    14  H    0.026238   0.000000   0.059938  -0.107982   0.002901   0.087906
    15  O   -0.164616   0.000000  -0.002578  -0.060992  -0.118832  -0.269610
    16  C    0.025870   0.000000   0.040696   0.017653   0.017361  -0.051910
    17  H    0.029334   0.000000   0.014474  -0.124699   0.010220   0.091225
    18  H    0.035345   0.000000  -0.038301   0.016577  -0.124286   0.100975
    19  C    0.023213   0.000000  -0.012411   0.041006  -0.014693  -0.054831
    20  H    0.031845   0.000000   0.036783  -0.021702   0.121887   0.097449
    21  H    0.028541   0.000000  -0.074456  -0.096056  -0.016604   0.091909
    22  O   -0.166592   0.000000  -0.042712  -0.072128   0.118129  -0.268070
    23  C    0.027495   0.000000   0.035757  -0.020761  -0.019763  -0.051750
    24  H    0.042351   0.000000  -0.006384   0.141764  -0.026386   0.107417
    25  H    0.032456   0.000000   0.043177   0.007308   0.122215   0.094529
    26  C   -0.057908   0.000000   0.003837   0.007283   0.014463  -0.148790
    27  H    0.039343   0.000000  -0.072244   0.079039   0.094067   0.096131
    28  H    0.033033   0.000000   0.003466  -0.124577   0.069514   0.090769
    29  S   -0.045601   0.000000  -0.093544  -0.034969   0.183714  -0.091564
    30  C   -0.057273   0.000000   0.006607   0.012801   0.000185  -0.148295
    31  H    0.038852   0.000000  -0.049340  -0.055984  -0.124665   0.096304
    32  H    0.035939   0.000000   0.004913  -0.110682   0.092991   0.092916
    33  C   -0.057166   0.000000  -0.006023  -0.012483   0.000734  -0.148298
    34  H    0.036260   0.000000  -0.004995   0.111545  -0.092134   0.093277
    35  H    0.039066   0.000000   0.049427   0.054744   0.125470   0.096515
    36  S   -0.051815   0.000000   0.118470   0.041503  -0.186440  -0.098078
    37  C   -0.053628   0.000000  -0.001351  -0.005360  -0.015266  -0.145097
    38  H    0.037509   0.000000   0.080897  -0.062034  -0.097292   0.094313
    39  H    0.033144   0.000000  -0.011960   0.127880  -0.060594   0.090010
    40  C   -0.051882   0.000000   0.011526   0.008137  -0.015116  -0.142275
    41  H    0.037928   0.000000  -0.034077  -0.004031  -0.142189   0.093816
    42  H    0.043751   0.000000   0.021825  -0.147872   0.024073   0.101080
    43  S   -0.048482   0.000000   0.101709   0.113142  -0.145377  -0.095235
    44  C   -0.049681   0.000000  -0.013323   0.016364   0.002207  -0.144181
    45  H    0.032926   0.000000   0.099495   0.095008   0.023158   0.089292
    46  H    0.033233   0.000000  -0.020982   0.006260  -0.140890   0.089063
    47  C   -0.087469   0.000000   0.005859   0.013684  -0.007500  -0.235099
    48  H    0.036734   0.000000  -0.018820   0.132591  -0.047766   0.087596
    49  H    0.034274   0.000000  -0.122556  -0.064028  -0.029893   0.086155
    50  H    0.036518   0.000000   0.010129   0.015166   0.141817   0.088415
       Tot  -0.000006   0.000000   0.062490  -0.006406  -0.162078  -0.000006
 Hirshfeld charges with hydrogens summed into heavy atoms:
              Q-H       Q-CM5   
     1  C    0.006822   0.018470
     5  C    0.069392   0.117012
     8  O   -0.183772  -0.285520
     9  C    0.094788   0.145878
    12  C    0.079916   0.128081
    15  O   -0.164616  -0.269610
    16  C    0.090550   0.140290
    19  C    0.083599   0.134527
    22  O   -0.166592  -0.268070
    23  C    0.102302   0.150196
    26  C    0.014468   0.038111
    29  S   -0.045601  -0.091564
    30  C    0.017519   0.040926
    33  C    0.018160   0.041495
    36  S   -0.051815  -0.098078
    37  C    0.017026   0.039226
    40  C    0.029797   0.052621
    43  S   -0.048482  -0.095235
    44  C    0.016478   0.034173
    47  C    0.020056   0.027066
 
 EQQ= 0.000000000000E+00 EQD= 0.000000000000E+00 EDD=-0.274304537598E-02
 EQQ+QD+DD=-0.274304537598E-02
 
 No NMR shielding tensors so no spin-rotation constants.
 Leave Link  601 at Tue Jun 27 20:36:04 2023, MaxMem=   262144000 cpu:              16.4 elap:               2.1
 (Enter /dragofs/sw/campus/0.2/software/gaussian/16.gaussian/gaussian/g16_legacy/l9999.exe)
 1\1\GINC-DRAGO31010002\FOpt\RCAM-B3LYP\6-31G(d)\C14H30O3S3\JRAMOS\27-J
 un-2023\0\\#p opt cam-b3lyp/6-31G* pop=Hirshfeld\\Conformer number 000
 42. Energy MM = 139.091 kcal/mol\\0,1\C,-6.1483867971,0.2668592572,2.3
 803056077\H,-5.4701266969,0.979187813,2.8600953248\H,-7.1635468968,0.4
 514633833,2.7428011833\H,-5.856918495,-0.7432690033,2.6814705393\C,-6.
 0858978445,0.4069984632,0.8735936071\H,-6.3833346686,1.4223654751,0.56
 61652191\H,-5.0699901902,0.2401139251,0.5004176275\O,-6.9897061814,-0.
 537642317,0.3187839467\C,-7.2126128509,-0.4227761172,-1.0635919964\H,-
 7.3764621289,0.6274879475,-1.3510211537\H,-8.1327257062,-0.9797740856,
 -1.2701838795\C,-6.0989465785,-0.9998115404,-1.9174093225\H,-5.8141445
 518,-1.9835751643,-1.5155233483\H,-6.4584942711,-1.1463567674,-2.95017
 6185\O,-4.998724748,-0.1200382565,-1.89905588\C,-3.823763121,-0.657165
 8611,-2.4502824845\H,-3.9216112711,-0.7819214166,-3.5411158526\H,-3.60
 34274101,-1.6430542493,-2.0153024975\C,-2.6798610752,0.2810926471,-2.1
 50319745\H,-2.9555615231,1.3020784835,-2.4543946577\H,-1.7980467757,-0
 .0295633855,-2.7283766614\O,-2.4192370745,0.2326112296,-0.7647291519\C
 ,-1.5706901765,1.2478560549,-0.2884949478\H,-1.5853073297,1.1534700591
 ,0.8001044655\H,-1.9707771385,2.2395015282,-0.5538103372\C,-0.13414613
 55,1.1500607058,-0.7935316672\H,0.467373009,1.8893559016,-0.2562035278
 \H,-0.0737776928,1.3846215941,-1.8610171392\S,0.5213779589,-0.52769413
 75,-0.5059480727\C,2.2837021654,-0.2453924251,-0.8802941272\H,2.700067
 3095,-1.2412308815,-1.0544161489\H,2.3768856404,0.3057391516,-1.820349
 806\C,3.0454886224,0.4657355502,0.2335870437\H,2.9478388626,-0.0811710
 558,1.1755884909\H,2.633194626,1.4638891458,0.4030407521\S,4.810955605
 5,0.7375131767,-0.1385878162\C,5.4530942707,-0.9356247201,0.2126588061
 \H,4.7698284563,-1.6786491145,-0.2102785488\H,5.4791695777,-1.09302064
 81,1.2950885037\C,6.8321980489,-1.1602547313,-0.3975573202\H,7.1604155
 894,-2.1788273034,-0.1637861943\H,6.7751051511,-1.0759329795,-1.486174
 564\S,8.1342030274,0.0129681826,0.0922184987\C,8.21314486,-0.289343401
 3,1.8879362511\H,7.2781824857,0.0341735019,2.3541867172\H,8.3296166258
 ,-1.3640183424,2.0634914912\C,9.3865863132,0.4778599123,2.4846717786\H
 ,9.4344731404,0.3142541326,3.5653726852\H,10.3346829867,0.152704452,2.
 0474925104\H,9.2829409964,1.5527462308,2.3106619835\\Version=EM64L-G16
 RevA.03\State=1-A\HF=-1971.3184268\RMSD=9.608e-09\RMSF=4.646e-06\Dipol
 e=0.2914354,-0.144662,-0.2817169\Quadrupole=-13.5944713,4.9547836,8.63
 96877,-11.6808308,16.2976836,1.8043978\PG=C01 [X(C14H30O3S3)]\\@


 THERE'S NOTHING SO GREAT AS THE GREAT OUTDOORS.

                                       -- ZIGGY
 Job cpu time:       0 days  2 hours 20 minutes 37.8 seconds.
 Elapsed time:       0 days  0 hours 17 minutes 45.0 seconds.
 File lengths (MBytes):  RWF=     92 Int=      0 D2E=      0 Chk=     13 Scr=      1
 Normal termination of Gaussian 16 at Tue Jun 27 20:36:04 2023.
