 Entering Gaussian System, Link 0=g16
 Input=DVE-DMSD_1_00181_gaussian.com
 Output=DVE-DMSD_1_00181_gaussian.log
 Initial command:
 /dragofs/sw/campus/0.2/software/gaussian/16.gaussian/gaussian/g16_legacy/l1.exe "/lustre/scratch-global/iem/jramos/172937/Gau-1431479.inp" -scrdir="/lustre/scratch-global/iem/jramos/172937/"
 Entering Link 1 = /dragofs/sw/campus/0.2/software/gaussian/16.gaussian/gaussian/g16_legacy/l1.exe PID=   1431480.
  
 Copyright (c) 1988,1990,1992,1993,1995,1998,2003,2009,2016,
            Gaussian, Inc.  All Rights Reserved.
  
 This is part of the Gaussian(R) 16 program.  It is based on
 the Gaussian(R) 09 system (copyright 2009, Gaussian, Inc.),
 the Gaussian(R) 03 system (copyright 2003, Gaussian, Inc.),
 the Gaussian(R) 98 system (copyright 1998, Gaussian, Inc.),
 the Gaussian(R) 94 system (copyright 1995, Gaussian, Inc.),
 the Gaussian 92(TM) system (copyright 1992, Gaussian, Inc.),
 the Gaussian 90(TM) system (copyright 1990, Gaussian, Inc.),
 the Gaussian 88(TM) system (copyright 1988, Gaussian, Inc.),
 the Gaussian 86(TM) system (copyright 1986, Carnegie Mellon
 University), and the Gaussian 82(TM) system (copyright 1983,
 Carnegie Mellon University). Gaussian is a federally registered
 trademark of Gaussian, Inc.
  
 This software contains proprietary and confidential information,
 including trade secrets, belonging to Gaussian, Inc.
  
 This software is provided under written license and may be
 used, copied, transmitted, or stored only in accord with that
 written license.
  
 The following legend is applicable only to US Government
 contracts under FAR:
  
                    RESTRICTED RIGHTS LEGEND
  
 Use, reproduction and disclosure by the US Government is
 subject to restrictions as set forth in subparagraphs (a)
 and (c) of the Commercial Computer Software - Restricted
 Rights clause in FAR 52.227-19.
  
 Gaussian, Inc.
 340 Quinnipiac St., Bldg. 40, Wallingford CT 06492
  
  
 ---------------------------------------------------------------
 Warning -- This program may not be used in any manner that
 competes with the business of Gaussian, Inc. or will provide
 assistance to any competitor of Gaussian, Inc.  The licensee
 of this program is prohibited from giving any competitor of
 Gaussian, Inc. access to this program.  By using this program,
 the user acknowledges that Gaussian, Inc. is engaged in the
 business of creating and licensing software in the field of
 computational chemistry and represents and warrants to the
 licensee that it is not a competitor of Gaussian, Inc. and that
 it will not use this program in any manner prohibited above.
 ---------------------------------------------------------------
  

 Cite this work as:
 Gaussian 16, Revision A.03,
 M. J. Frisch, G. W. Trucks, H. B. Schlegel, G. E. Scuseria, 
 M. A. Robb, J. R. Cheeseman, G. Scalmani, V. Barone, 
 G. A. Petersson, H. Nakatsuji, X. Li, M. Caricato, A. V. Marenich, 
 J. Bloino, B. G. Janesko, R. Gomperts, B. Mennucci, H. P. Hratchian, 
 J. V. Ortiz, A. F. Izmaylov, J. L. Sonnenberg, D. Williams-Young, 
 F. Ding, F. Lipparini, F. Egidi, J. Goings, B. Peng, A. Petrone, 
 T. Henderson, D. Ranasinghe, V. G. Zakrzewski, J. Gao, N. Rega, 
 G. Zheng, W. Liang, M. Hada, M. Ehara, K. Toyota, R. Fukuda, 
 J. Hasegawa, M. Ishida, T. Nakajima, Y. Honda, O. Kitao, H. Nakai, 
 T. Vreven, K. Throssell, J. A. Montgomery, Jr., J. E. Peralta, 
 F. Ogliaro, M. J. Bearpark, J. J. Heyd, E. N. Brothers, K. N. Kudin, 
 V. N. Staroverov, T. A. Keith, R. Kobayashi, J. Normand, 
 K. Raghavachari, A. P. Rendell, J. C. Burant, S. S. Iyengar, 
 J. Tomasi, M. Cossi, J. M. Millam, M. Klene, C. Adamo, R. Cammi, 
 J. W. Ochterski, R. L. Martin, K. Morokuma, O. Farkas, 
 J. B. Foresman, and D. J. Fox, Gaussian, Inc., Wallingford CT, 2016.
 
 ******************************************
 Gaussian 16:  EM64L-G16RevA.03 25-Dec-2016
                27-Jun-2023 
 ******************************************
 %chk=DVE-DMSD_1_00181_gaussian.chk
 %nproc=8
 Will use up to    8 processors via shared memory.
 %mem=2000Mb
 -------------------------------------
 #p opt cam-b3lyp/6-31G* pop=Hirshfeld
 -------------------------------------
 1/18=20,19=15,26=3,38=1/1,3;
 2/9=110,12=2,17=6,18=5,40=1/2;
 3/5=1,6=6,7=1,11=2,25=1,30=1,71=1,74=-40/1,2,3;
 4//1;
 5/5=2,38=5/2;
 6/7=2,8=2,9=2,10=2,28=1,79=1/1;
 7//1,2,3,16;
 1/18=20,19=15,26=3/3(2);
 2/9=110/2;
 99//99;
 2/9=110/2;
 3/5=1,6=6,7=1,11=2,25=1,30=1,71=1,74=-40/1,2,3;
 4/5=5,16=3,69=1/1;
 5/5=2,38=5/2;
 7//1,2,3,16;
 1/18=20,19=15,26=3/3(-5);
 2/9=110/2;
 6/7=2,8=2,9=2,10=2,19=2,28=1,79=1/1;
 99/9=1/99;
 Leave Link    1 at Tue Jun 27 23:16:26 2023, MaxMem=   262144000 cpu:               0.5 elap:               0.1
 (Enter /dragofs/sw/campus/0.2/software/gaussian/16.gaussian/gaussian/g16_legacy/l101.exe)
 ----------------------------------------------------
 Conformer number 00181. Energy MM = 159.254 kcal/mol
 ----------------------------------------------------
 Symbolic Z-matrix:
 Charge =  0 Multiplicity = 1
 C                    -7.861     1.7422    1.1476 
 H                    -7.8741    2.2889    0.1727 
 H                    -8.8804    1.6603    1.5709 
 H                    -7.2532    2.322     1.8674 
 C                    -7.2292    0.3719    0.9248 
 H                    -6.1632    0.4141    1.1609 
 H                    -7.7174   -0.3208    1.6592 
 O                    -7.4432   -0.048    -0.3614 
 C                    -6.9212   -1.2817   -0.671 
 H                    -7.2226   -1.5554   -1.7015 
 H                    -7.3596   -2.0895   -0.0227 
 C                    -5.4201   -1.3307   -0.5025 
 H                    -5.1342   -1.21      0.5516 
 H                    -5.0895   -2.3716   -0.7796 
 O                    -4.8652   -0.3856   -1.3402 
 C                    -3.4468   -0.4804   -1.1631 
 H                    -3.1696   -1.5118   -1.2904 
 H                    -3.3404   -0.1759   -0.0897 
 C                    -2.7617    0.5271   -2.0275 
 H                    -3.1807    1.5709   -1.7415 
 H                    -3.1293    0.3878   -3.1104 
 O                    -1.4564    0.5575   -2.0129 
 C                    -0.6079    0.747    -1.0319 
 H                    -0.8677    1.7404   -0.5102 
 H                     0.446     0.9404   -1.4768 
 C                    -0.4445   -0.2546    0.0751 
 H                     0.0238   -1.2027   -0.3124 
 H                    -1.3295   -0.4316    0.6668 
 S                     0.875     0.4469    1.1703 
 C                     2.389     0.4743    0.2065 
 H                     2.3258    1.0493   -0.7304 
 H                     3.1728    0.953     0.8383 
 C                     2.8612   -0.918    -0.1316 
 H                     2.1019   -1.4879   -0.6919 
 H                     3.1694   -1.4187    0.8185 
 S                     4.3924   -0.693    -1.1169 
 C                     5.6281    0.0356   -0.0065 
 H                     5.8237   -0.7423    0.7731 
 H                     5.2591    0.9247    0.5023 
 C                     6.9326    0.2947   -0.7303 
 H                     7.3282   -0.5955   -1.2237 
 H                     6.7092    1.0537   -1.5067 
 S                     8.0907    1.0228    0.4539 
 C                     8.5793   -0.1022    1.7589 
 H                     9.1919    0.4708    2.4896 
 H                     7.6935   -0.5001    2.3071 
 C                     9.3877   -1.256     1.2149 
 H                     8.7648   -2.1672    1.2162 
 H                     9.7318   -0.979     0.1964 
 H                     10.2725  -1.3932    1.8592 
 
 ITRead=  0  0  0  0  0  0  0  0  0  0  0  0  0  0  0  0  0  0  0  0
 ITRead=  0  0  0  0  0  0  0  0  0  0  0  0  0  0  0  0  0  0  0  0
 ITRead=  0  0  0  0  0  0  0  0  0  0
 MicOpt= -1 -1 -1 -1 -1 -1 -1 -1 -1 -1 -1 -1 -1 -1 -1 -1 -1 -1 -1 -1
 MicOpt= -1 -1 -1 -1 -1 -1 -1 -1 -1 -1 -1 -1 -1 -1 -1 -1 -1 -1 -1 -1
 MicOpt= -1 -1 -1 -1 -1 -1 -1 -1 -1 -1
 NAtoms=     50 NQM=       50 NQMF=       0 NMMI=      0 NMMIF=      0
                NMic=       0 NMicF=      0.
                    Isotopes and Nuclear Properties:
 (Nuclear quadrupole moments (NQMom) in fm**2, nuclear magnetic moments (NMagM)
  in nuclear magnetons)

  Atom         1           2           3           4           5           6           7           8           9          10
 IAtWgt=          12           1           1           1          12           1           1          16          12           1
 AtmWgt=  12.0000000   1.0078250   1.0078250   1.0078250  12.0000000   1.0078250   1.0078250  15.9949146  12.0000000   1.0078250
 NucSpn=           0           1           1           1           0           1           1           0           0           1
 AtZEff=  -0.0000000  -0.0000000  -0.0000000  -0.0000000  -0.0000000  -0.0000000  -0.0000000  -0.0000000  -0.0000000  -0.0000000
 NQMom=    0.0000000   0.0000000   0.0000000   0.0000000   0.0000000   0.0000000   0.0000000   0.0000000   0.0000000   0.0000000
 NMagM=    0.0000000   2.7928460   2.7928460   2.7928460   0.0000000   2.7928460   2.7928460   0.0000000   0.0000000   2.7928460
 AtZNuc=   6.0000000   1.0000000   1.0000000   1.0000000   6.0000000   1.0000000   1.0000000   8.0000000   6.0000000   1.0000000

  Atom        11          12          13          14          15          16          17          18          19          20
 IAtWgt=           1          12           1           1          16          12           1           1          12           1
 AtmWgt=   1.0078250  12.0000000   1.0078250   1.0078250  15.9949146  12.0000000   1.0078250   1.0078250  12.0000000   1.0078250
 NucSpn=           1           0           1           1           0           0           1           1           0           1
 AtZEff=  -0.0000000  -0.0000000  -0.0000000  -0.0000000  -0.0000000  -0.0000000  -0.0000000  -0.0000000  -0.0000000  -0.0000000
 NQMom=    0.0000000   0.0000000   0.0000000   0.0000000   0.0000000   0.0000000   0.0000000   0.0000000   0.0000000   0.0000000
 NMagM=    2.7928460   0.0000000   2.7928460   2.7928460   0.0000000   0.0000000   2.7928460   2.7928460   0.0000000   2.7928460
 AtZNuc=   1.0000000   6.0000000   1.0000000   1.0000000   8.0000000   6.0000000   1.0000000   1.0000000   6.0000000   1.0000000

  Atom        21          22          23          24          25          26          27          28          29          30
 IAtWgt=           1          16          12           1           1          12           1           1          32          12
 AtmWgt=   1.0078250  15.9949146  12.0000000   1.0078250   1.0078250  12.0000000   1.0078250   1.0078250  31.9720718  12.0000000
 NucSpn=           1           0           0           1           1           0           1           1           0           0
 AtZEff=  -0.0000000  -0.0000000  -0.0000000  -0.0000000  -0.0000000  -0.0000000  -0.0000000  -0.0000000  -0.0000000  -0.0000000
 NQMom=    0.0000000   0.0000000   0.0000000   0.0000000   0.0000000   0.0000000   0.0000000   0.0000000   0.0000000   0.0000000
 NMagM=    2.7928460   0.0000000   0.0000000   2.7928460   2.7928460   0.0000000   2.7928460   2.7928460   0.0000000   0.0000000
 AtZNuc=   1.0000000   8.0000000   6.0000000   1.0000000   1.0000000   6.0000000   1.0000000   1.0000000  16.0000000   6.0000000

  Atom        31          32          33          34          35          36          37          38          39          40
 IAtWgt=           1           1          12           1           1          32          12           1           1          12
 AtmWgt=   1.0078250   1.0078250  12.0000000   1.0078250   1.0078250  31.9720718  12.0000000   1.0078250   1.0078250  12.0000000
 NucSpn=           1           1           0           1           1           0           0           1           1           0
 AtZEff=  -0.0000000  -0.0000000  -0.0000000  -0.0000000  -0.0000000  -0.0000000  -0.0000000  -0.0000000  -0.0000000  -0.0000000
 NQMom=    0.0000000   0.0000000   0.0000000   0.0000000   0.0000000   0.0000000   0.0000000   0.0000000   0.0000000   0.0000000
 NMagM=    2.7928460   2.7928460   0.0000000   2.7928460   2.7928460   0.0000000   0.0000000   2.7928460   2.7928460   0.0000000
 AtZNuc=   1.0000000   1.0000000   6.0000000   1.0000000   1.0000000  16.0000000   6.0000000   1.0000000   1.0000000   6.0000000

  Atom        41          42          43          44          45          46          47          48          49          50
 IAtWgt=           1           1          32          12           1           1          12           1           1           1
 AtmWgt=   1.0078250   1.0078250  31.9720718  12.0000000   1.0078250   1.0078250  12.0000000   1.0078250   1.0078250   1.0078250
 NucSpn=           1           1           0           0           1           1           0           1           1           1
 AtZEff=  -0.0000000  -0.0000000  -0.0000000  -0.0000000  -0.0000000  -0.0000000  -0.0000000  -0.0000000  -0.0000000  -0.0000000
 NQMom=    0.0000000   0.0000000   0.0000000   0.0000000   0.0000000   0.0000000   0.0000000   0.0000000   0.0000000   0.0000000
 NMagM=    2.7928460   2.7928460   0.0000000   0.0000000   2.7928460   2.7928460   0.0000000   2.7928460   2.7928460   2.7928460
 AtZNuc=   1.0000000   1.0000000  16.0000000   6.0000000   1.0000000   1.0000000   6.0000000   1.0000000   1.0000000   1.0000000
 Leave Link  101 at Tue Jun 27 23:16:26 2023, MaxMem=   262144000 cpu:               1.1 elap:               0.2
 (Enter /dragofs/sw/campus/0.2/software/gaussian/16.gaussian/gaussian/g16_legacy/l103.exe)

 GradGradGradGradGradGradGradGradGradGradGradGradGradGradGradGradGradGrad
 Berny optimization.
 Initialization pass.
                           ----------------------------
                           !    Initial Parameters    !
                           ! (Angstroms and Degrees)  !
 --------------------------                            --------------------------
 ! Name  Definition              Value          Derivative Info.                !
 --------------------------------------------------------------------------------
 ! R1    R(1,2)                  1.1178         estimate D2E/DX2                !
 ! R2    R(1,3)                  1.1068         estimate D2E/DX2                !
 ! R3    R(1,4)                  1.1062         estimate D2E/DX2                !
 ! R4    R(1,5)                  1.5253         estimate D2E/DX2                !
 ! R5    R(5,6)                  1.0926         estimate D2E/DX2                !
 ! R6    R(5,7)                  1.1214         estimate D2E/DX2                !
 ! R7    R(5,8)                  1.3698         estimate D2E/DX2                !
 ! R8    R(8,9)                  1.3749         estimate D2E/DX2                !
 ! R9    R(9,10)                 1.108          estimate D2E/DX2                !
 ! R10   R(9,11)                 1.1247         estimate D2E/DX2                !
 ! R11   R(9,12)                 1.5113         estimate D2E/DX2                !
 ! R12   R(12,13)                1.0988         estimate D2E/DX2                !
 ! R13   R(12,14)                1.1267         estimate D2E/DX2                !
 ! R14   R(12,15)                1.3794         estimate D2E/DX2                !
 ! R15   R(15,16)                1.4326         estimate D2E/DX2                !
 ! R16   R(16,17)                1.0756         estimate D2E/DX2                !
 ! R17   R(16,18)                1.1208         estimate D2E/DX2                !
 ! R18   R(16,19)                1.4939         estimate D2E/DX2                !
 ! R19   R(19,20)                1.1605         estimate D2E/DX2                !
 ! R20   R(19,21)                1.152          estimate D2E/DX2                !
 ! R21   R(19,22)                1.3057         estimate D2E/DX2                !
 ! R22   R(22,23)                1.3108         estimate D2E/DX2                !
 ! R23   R(23,24)                1.1517         estimate D2E/DX2                !
 ! R24   R(23,25)                1.1602         estimate D2E/DX2                !
 ! R25   R(23,26)                1.5018         estimate D2E/DX2                !
 ! R26   R(26,27)                1.1262         estimate D2E/DX2                !
 ! R27   R(26,28)                1.0792         estimate D2E/DX2                !
 ! R28   R(26,29)                1.8527         estimate D2E/DX2                !
 ! R29   R(29,30)                1.795          estimate D2E/DX2                !
 ! R30   R(30,31)                1.1011         estimate D2E/DX2                !
 ! R31   R(30,32)                1.1147         estimate D2E/DX2                !
 ! R32   R(30,33)                1.5086         estimate D2E/DX2                !
 ! R33   R(33,34)                1.1024         estimate D2E/DX2                !
 ! R34   R(33,35)                1.1173         estimate D2E/DX2                !
 ! R35   R(33,36)                1.8347         estimate D2E/DX2                !
 ! R36   R(36,37)                1.8141         estimate D2E/DX2                !
 ! R37   R(37,38)                1.1186         estimate D2E/DX2                !
 ! R38   R(37,39)                1.0888         estimate D2E/DX2                !
 ! R39   R(37,40)                1.5142         estimate D2E/DX2                !
 ! R40   R(40,41)                1.092          estimate D2E/DX2                !
 ! R41   R(40,42)                1.1085         estimate D2E/DX2                !
 ! R42   R(40,43)                1.8093         estimate D2E/DX2                !
 ! R43   R(43,44)                1.7909         estimate D2E/DX2                !
 ! R44   R(44,45)                1.1124         estimate D2E/DX2                !
 ! R45   R(44,46)                1.1151         estimate D2E/DX2                !
 ! R46   R(44,47)                1.5102         estimate D2E/DX2                !
 ! R47   R(47,48)                1.1038         estimate D2E/DX2                !
 ! R48   R(47,49)                1.1102         estimate D2E/DX2                !
 ! R49   R(47,50)                1.1031         estimate D2E/DX2                !
 ! A1    A(2,1,3)              111.0356         estimate D2E/DX2                !
 ! A2    A(2,1,4)              108.5178         estimate D2E/DX2                !
 ! A3    A(2,1,5)              108.4721         estimate D2E/DX2                !
 ! A4    A(3,1,4)              107.2159         estimate D2E/DX2                !
 ! A5    A(3,1,5)              111.7701         estimate D2E/DX2                !
 ! A6    A(4,1,5)              109.7751         estimate D2E/DX2                !
 ! A7    A(1,5,6)              109.7461         estimate D2E/DX2                !
 ! A8    A(1,5,7)              106.1978         estimate D2E/DX2                !
 ! A9    A(1,5,8)              110.3545         estimate D2E/DX2                !
 ! A10   A(6,5,7)              107.8834         estimate D2E/DX2                !
 ! A11   A(6,5,8)              111.5395         estimate D2E/DX2                !
 ! A12   A(7,5,8)              110.9502         estimate D2E/DX2                !
 ! A13   A(5,8,9)              115.2884         estimate D2E/DX2                !
 ! A14   A(8,9,10)             109.1355         estimate D2E/DX2                !
 ! A15   A(8,9,11)             111.5106         estimate D2E/DX2                !
 ! A16   A(8,9,12)             112.4007         estimate D2E/DX2                !
 ! A17   A(10,9,11)            104.6338         estimate D2E/DX2                !
 ! A18   A(10,9,12)            111.4607         estimate D2E/DX2                !
 ! A19   A(11,9,12)            107.4332         estimate D2E/DX2                !
 ! A20   A(9,12,13)            111.2118         estimate D2E/DX2                !
 ! A21   A(9,12,14)            107.0952         estimate D2E/DX2                !
 ! A22   A(9,12,15)            108.0365         estimate D2E/DX2                !
 ! A23   A(13,12,14)           105.1325         estimate D2E/DX2                !
 ! A24   A(13,12,15)           113.7428         estimate D2E/DX2                !
 ! A25   A(14,12,15)           111.4418         estimate D2E/DX2                !
 ! A26   A(12,15,16)           106.1335         estimate D2E/DX2                !
 ! A27   A(15,16,17)           107.6984         estimate D2E/DX2                !
 ! A28   A(15,16,18)           101.2103         estimate D2E/DX2                !
 ! A29   A(15,16,19)           109.7499         estimate D2E/DX2                !
 ! A30   A(17,16,18)           110.451          estimate D2E/DX2                !
 ! A31   A(17,16,19)           117.3907         estimate D2E/DX2                !
 ! A32   A(18,16,19)           109.1107         estimate D2E/DX2                !
 ! A33   A(16,19,20)           107.3622         estimate D2E/DX2                !
 ! A34   A(16,19,21)           108.4226         estimate D2E/DX2                !
 ! A35   A(16,19,22)           117.8845         estimate D2E/DX2                !
 ! A36   A(20,19,21)           103.0143         estimate D2E/DX2                !
 ! A37   A(20,19,22)           109.7076         estimate D2E/DX2                !
 ! A38   A(21,19,22)           109.4087         estimate D2E/DX2                !
 ! A39   A(19,22,23)           131.2105         estimate D2E/DX2                !
 ! A40   A(22,23,24)           108.5223         estimate D2E/DX2                !
 ! A41   A(22,23,25)           108.9727         estimate D2E/DX2                !
 ! A42   A(22,23,26)           121.7134         estimate D2E/DX2                !
 ! A43   A(24,23,25)           103.5814         estimate D2E/DX2                !
 ! A44   A(24,23,26)           105.4205         estimate D2E/DX2                !
 ! A45   A(25,23,26)           107.1579         estimate D2E/DX2                !
 ! A46   A(23,26,27)           110.6759         estimate D2E/DX2                !
 ! A47   A(23,26,28)           115.107          estimate D2E/DX2                !
 ! A48   A(23,26,29)           105.1115         estimate D2E/DX2                !
 ! A49   A(27,26,28)           113.0522         estimate D2E/DX2                !
 ! A50   A(27,26,29)           103.0615         estimate D2E/DX2                !
 ! A51   A(28,26,29)           108.7859         estimate D2E/DX2                !
 ! A52   A(26,29,30)           106.8034         estimate D2E/DX2                !
 ! A53   A(29,30,31)           114.61           estimate D2E/DX2                !
 ! A54   A(29,30,32)           107.1752         estimate D2E/DX2                !
 ! A55   A(29,30,33)           111.7323         estimate D2E/DX2                !
 ! A56   A(31,30,32)           107.359          estimate D2E/DX2                !
 ! A57   A(31,30,33)           108.0127         estimate D2E/DX2                !
 ! A58   A(32,30,33)           107.6538         estimate D2E/DX2                !
 ! A59   A(30,33,34)           112.0515         estimate D2E/DX2                !
 ! A60   A(30,33,35)           108.0203         estimate D2E/DX2                !
 ! A61   A(30,33,36)           105.5699         estimate D2E/DX2                !
 ! A62   A(34,33,35)           112.987          estimate D2E/DX2                !
 ! A63   A(34,33,36)           111.4254         estimate D2E/DX2                !
 ! A64   A(35,33,36)           106.3448         estimate D2E/DX2                !
 ! A65   A(33,36,37)           106.8001         estimate D2E/DX2                !
 ! A66   A(36,37,38)           105.4512         estimate D2E/DX2                !
 ! A67   A(36,37,39)           112.529          estimate D2E/DX2                !
 ! A68   A(36,37,40)           111.2835         estimate D2E/DX2                !
 ! A69   A(38,37,39)           107.5451         estimate D2E/DX2                !
 ! A70   A(38,37,40)           107.5484         estimate D2E/DX2                !
 ! A71   A(39,37,40)           112.0622         estimate D2E/DX2                !
 ! A72   A(37,40,41)           112.8676         estimate D2E/DX2                !
 ! A73   A(37,40,42)           106.1612         estimate D2E/DX2                !
 ! A74   A(37,40,43)           107.9049         estimate D2E/DX2                !
 ! A75   A(41,40,42)           108.3443         estimate D2E/DX2                !
 ! A76   A(41,40,43)           113.073          estimate D2E/DX2                !
 ! A77   A(42,40,43)           108.1721         estimate D2E/DX2                !
 ! A78   A(40,43,44)           113.5006         estimate D2E/DX2                !
 ! A79   A(43,44,45)           107.7765         estimate D2E/DX2                !
 ! A80   A(43,44,46)           111.4477         estimate D2E/DX2                !
 ! A81   A(43,44,47)           111.3142         estimate D2E/DX2                !
 ! A82   A(45,44,46)           107.3567         estimate D2E/DX2                !
 ! A83   A(45,44,47)           109.5942         estimate D2E/DX2                !
 ! A84   A(46,44,47)           109.2496         estimate D2E/DX2                !
 ! A85   A(44,47,48)           109.1598         estimate D2E/DX2                !
 ! A86   A(44,47,49)           107.804          estimate D2E/DX2                !
 ! A87   A(44,47,50)           108.2999         estimate D2E/DX2                !
 ! A88   A(48,47,49)           112.4565         estimate D2E/DX2                !
 ! A89   A(48,47,50)           110.4443         estimate D2E/DX2                !
 ! A90   A(49,47,50)           108.5585         estimate D2E/DX2                !
 ! D1    D(2,1,5,6)             94.752          estimate D2E/DX2                !
 ! D2    D(2,1,5,7)           -148.8871         estimate D2E/DX2                !
 ! D3    D(2,1,5,8)            -28.5622         estimate D2E/DX2                !
 ! D4    D(3,1,5,6)           -142.5017         estimate D2E/DX2                !
 ! D5    D(3,1,5,7)            -26.1408         estimate D2E/DX2                !
 ! D6    D(3,1,5,8)             94.1841         estimate D2E/DX2                !
 ! D7    D(4,1,5,6)            -23.6685         estimate D2E/DX2                !
 ! D8    D(4,1,5,7)             92.6924         estimate D2E/DX2                !
 ! D9    D(4,1,5,8)           -146.9827         estimate D2E/DX2                !
 ! D10   D(1,5,8,9)           -179.5941         estimate D2E/DX2                !
 ! D11   D(6,5,8,9)             58.1405         estimate D2E/DX2                !
 ! D12   D(7,5,8,9)            -62.166          estimate D2E/DX2                !
 ! D13   D(5,8,9,10)           175.3976         estimate D2E/DX2                !
 ! D14   D(5,8,9,11)            60.2984         estimate D2E/DX2                !
 ! D15   D(5,8,9,12)           -60.416          estimate D2E/DX2                !
 ! D16   D(8,9,12,13)           65.7737         estimate D2E/DX2                !
 ! D17   D(8,9,12,14)         -179.875          estimate D2E/DX2                !
 ! D18   D(8,9,12,15)          -59.7185         estimate D2E/DX2                !
 ! D19   D(10,9,12,13)        -171.3377         estimate D2E/DX2                !
 ! D20   D(10,9,12,14)         -56.9863         estimate D2E/DX2                !
 ! D21   D(10,9,12,15)          63.1702         estimate D2E/DX2                !
 ! D22   D(11,9,12,13)         -57.2598         estimate D2E/DX2                !
 ! D23   D(11,9,12,14)          57.0915         estimate D2E/DX2                !
 ! D24   D(11,9,12,15)         177.248          estimate D2E/DX2                !
 ! D25   D(9,12,15,16)        -179.1669         estimate D2E/DX2                !
 ! D26   D(13,12,15,16)         56.8514         estimate D2E/DX2                !
 ! D27   D(14,12,15,16)        -61.7782         estimate D2E/DX2                !
 ! D28   D(12,15,16,17)         51.8008         estimate D2E/DX2                !
 ! D29   D(12,15,16,18)        -64.121          estimate D2E/DX2                !
 ! D30   D(12,15,16,19)       -179.3211         estimate D2E/DX2                !
 ! D31   D(15,16,19,20)         57.1434         estimate D2E/DX2                !
 ! D32   D(15,16,19,21)        -53.5174         estimate D2E/DX2                !
 ! D33   D(15,16,19,22)       -178.4429         estimate D2E/DX2                !
 ! D34   D(17,16,19,20)       -179.5017         estimate D2E/DX2                !
 ! D35   D(17,16,19,21)         69.8376         estimate D2E/DX2                !
 ! D36   D(17,16,19,22)        -55.0879         estimate D2E/DX2                !
 ! D37   D(18,16,19,20)        -52.9171         estimate D2E/DX2                !
 ! D38   D(18,16,19,21)       -163.5778         estimate D2E/DX2                !
 ! D39   D(18,16,19,22)         71.4967         estimate D2E/DX2                !
 ! D40   D(16,19,22,23)        -58.5629         estimate D2E/DX2                !
 ! D41   D(20,19,22,23)         64.6772         estimate D2E/DX2                !
 ! D42   D(21,19,22,23)        176.9999         estimate D2E/DX2                !
 ! D43   D(19,22,23,24)        -54.9514         estimate D2E/DX2                !
 ! D44   D(19,22,23,25)       -167.1032         estimate D2E/DX2                !
 ! D45   D(19,22,23,26)         67.506          estimate D2E/DX2                !
 ! D46   D(22,23,26,27)         68.1942         estimate D2E/DX2                !
 ! D47   D(22,23,26,28)        -61.5256         estimate D2E/DX2                !
 ! D48   D(22,23,26,29)        178.8109         estimate D2E/DX2                !
 ! D49   D(24,23,26,27)       -167.9006         estimate D2E/DX2                !
 ! D50   D(24,23,26,28)         62.3797         estimate D2E/DX2                !
 ! D51   D(24,23,26,29)        -57.2838         estimate D2E/DX2                !
 ! D52   D(25,23,26,27)        -58.0174         estimate D2E/DX2                !
 ! D53   D(25,23,26,28)        172.2628         estimate D2E/DX2                !
 ! D54   D(25,23,26,29)         52.5993         estimate D2E/DX2                !
 ! D55   D(23,26,29,30)        -65.0692         estimate D2E/DX2                !
 ! D56   D(27,26,29,30)         50.9128         estimate D2E/DX2                !
 ! D57   D(28,26,29,30)        171.1448         estimate D2E/DX2                !
 ! D58   D(26,29,30,31)         57.5869         estimate D2E/DX2                !
 ! D59   D(26,29,30,32)        176.6031         estimate D2E/DX2                !
 ! D60   D(26,29,30,33)        -65.6927         estimate D2E/DX2                !
 ! D61   D(29,30,33,34)         58.1005         estimate D2E/DX2                !
 ! D62   D(29,30,33,35)        -66.9889         estimate D2E/DX2                !
 ! D63   D(29,30,33,36)        179.5672         estimate D2E/DX2                !
 ! D64   D(31,30,33,34)        -68.8424         estimate D2E/DX2                !
 ! D65   D(31,30,33,35)        166.0682         estimate D2E/DX2                !
 ! D66   D(31,30,33,36)         52.6243         estimate D2E/DX2                !
 ! D67   D(32,30,33,34)        175.517          estimate D2E/DX2                !
 ! D68   D(32,30,33,35)         50.4276         estimate D2E/DX2                !
 ! D69   D(32,30,33,36)        -63.0163         estimate D2E/DX2                !
 ! D70   D(30,33,36,37)         66.1939         estimate D2E/DX2                !
 ! D71   D(34,33,36,37)       -171.9347         estimate D2E/DX2                !
 ! D72   D(35,33,36,37)        -48.4123         estimate D2E/DX2                !
 ! D73   D(33,36,37,38)         64.9524         estimate D2E/DX2                !
 ! D74   D(33,36,37,39)        -52.0005         estimate D2E/DX2                !
 ! D75   D(33,36,37,40)       -178.7273         estimate D2E/DX2                !
 ! D76   D(36,37,40,41)        -54.5235         estimate D2E/DX2                !
 ! D77   D(36,37,40,42)         64.0214         estimate D2E/DX2                !
 ! D78   D(36,37,40,43)        179.7977         estimate D2E/DX2                !
 ! D79   D(38,37,40,41)         60.5045         estimate D2E/DX2                !
 ! D80   D(38,37,40,42)        179.0494         estimate D2E/DX2                !
 ! D81   D(38,37,40,43)        -65.1744         estimate D2E/DX2                !
 ! D82   D(39,37,40,41)        178.4943         estimate D2E/DX2                !
 ! D83   D(39,37,40,42)        -62.9608         estimate D2E/DX2                !
 ! D84   D(39,37,40,43)         52.8155         estimate D2E/DX2                !
 ! D85   D(37,40,43,44)         66.8293         estimate D2E/DX2                !
 ! D86   D(41,40,43,44)        -58.7281         estimate D2E/DX2                !
 ! D87   D(42,40,43,44)       -178.7198         estimate D2E/DX2                !
 ! D88   D(40,43,44,45)       -173.6493         estimate D2E/DX2                !
 ! D89   D(40,43,44,46)        -56.0981         estimate D2E/DX2                !
 ! D90   D(40,43,44,47)         66.1441         estimate D2E/DX2                !
 ! D91   D(43,44,47,48)       -106.2451         estimate D2E/DX2                !
 ! D92   D(43,44,47,49)         16.1872         estimate D2E/DX2                !
 ! D93   D(43,44,47,50)        133.4644         estimate D2E/DX2                !
 ! D94   D(45,44,47,48)        134.6275         estimate D2E/DX2                !
 ! D95   D(45,44,47,49)       -102.9402         estimate D2E/DX2                !
 ! D96   D(45,44,47,50)         14.337          estimate D2E/DX2                !
 ! D97   D(46,44,47,48)         17.2586         estimate D2E/DX2                !
 ! D98   D(46,44,47,49)        139.6909         estimate D2E/DX2                !
 ! D99   D(46,44,47,50)       -103.0319         estimate D2E/DX2                !
 --------------------------------------------------------------------------------
 Trust Radius=3.00D-01 FncErr=1.00D-07 GrdErr=1.00D-06 EigMax=2.50D+02 EigMin=1.00D-04
 Number of steps in this run=    248 maximum allowed number of steps=    300.
 GradGradGradGradGradGradGradGradGradGradGradGradGradGradGradGradGradGrad

 Leave Link  103 at Tue Jun 27 23:16:26 2023, MaxMem=   262144000 cpu:               0.1 elap:               0.0
 (Enter /dragofs/sw/campus/0.2/software/gaussian/16.gaussian/gaussian/g16_legacy/l202.exe)
                          Input orientation:                          
 ---------------------------------------------------------------------
 Center     Atomic      Atomic             Coordinates (Angstroms)
 Number     Number       Type             X           Y           Z
 ---------------------------------------------------------------------
      1          6           0       -7.861000    1.742200    1.147600
      2          1           0       -7.874100    2.288900    0.172700
      3          1           0       -8.880400    1.660300    1.570900
      4          1           0       -7.253200    2.322000    1.867400
      5          6           0       -7.229200    0.371900    0.924800
      6          1           0       -6.163200    0.414100    1.160900
      7          1           0       -7.717400   -0.320800    1.659200
      8          8           0       -7.443200   -0.048000   -0.361400
      9          6           0       -6.921200   -1.281700   -0.671000
     10          1           0       -7.222600   -1.555400   -1.701500
     11          1           0       -7.359600   -2.089500   -0.022700
     12          6           0       -5.420100   -1.330700   -0.502500
     13          1           0       -5.134200   -1.210000    0.551600
     14          1           0       -5.089500   -2.371600   -0.779600
     15          8           0       -4.865200   -0.385600   -1.340200
     16          6           0       -3.446800   -0.480400   -1.163100
     17          1           0       -3.169600   -1.511800   -1.290400
     18          1           0       -3.340400   -0.175900   -0.089700
     19          6           0       -2.761700    0.527100   -2.027500
     20          1           0       -3.180700    1.570900   -1.741500
     21          1           0       -3.129300    0.387800   -3.110400
     22          8           0       -1.456400    0.557500   -2.012900
     23          6           0       -0.607900    0.747000   -1.031900
     24          1           0       -0.867700    1.740400   -0.510200
     25          1           0        0.446000    0.940400   -1.476800
     26          6           0       -0.444500   -0.254600    0.075100
     27          1           0        0.023800   -1.202700   -0.312400
     28          1           0       -1.329500   -0.431600    0.666800
     29         16           0        0.875000    0.446900    1.170300
     30          6           0        2.389000    0.474300    0.206500
     31          1           0        2.325800    1.049300   -0.730400
     32          1           0        3.172800    0.953000    0.838300
     33          6           0        2.861200   -0.918000   -0.131600
     34          1           0        2.101900   -1.487900   -0.691900
     35          1           0        3.169400   -1.418700    0.818500
     36         16           0        4.392400   -0.693000   -1.116900
     37          6           0        5.628100    0.035600   -0.006500
     38          1           0        5.823700   -0.742300    0.773100
     39          1           0        5.259100    0.924700    0.502300
     40          6           0        6.932600    0.294700   -0.730300
     41          1           0        7.328200   -0.595500   -1.223700
     42          1           0        6.709200    1.053700   -1.506700
     43         16           0        8.090700    1.022800    0.453900
     44          6           0        8.579300   -0.102200    1.758900
     45          1           0        9.191900    0.470800    2.489600
     46          1           0        7.693500   -0.500100    2.307100
     47          6           0        9.387700   -1.256000    1.214900
     48          1           0        8.764800   -2.167200    1.216200
     49          1           0        9.731800   -0.979000    0.196400
     50          1           0       10.272500   -1.393200    1.859200
 ---------------------------------------------------------------------
                    Distance matrix (angstroms):
                    1          2          3          4          5
     1  C    0.000000
     2  H    1.117803   0.000000
     3  H    1.106827   1.833778   0.000000
     4  H    1.106210   1.805165   1.781443   0.000000
     5  C    1.525298   2.157878   2.191776   2.166093   0.000000
     6  H    2.155586   2.723709   3.017332   2.308100   1.092648
     7  H    2.130334   3.007453   2.298940   2.691323   1.121390
     8  O    2.378330   2.435578   2.952561   3.258918   1.369826
     9  C    3.651644   3.790651   4.185683   4.420447   2.318585
    10  H    4.404440   4.326167   4.878281   5.269935   3.257603
    11  H    4.037689   4.412854   4.348953   4.800534   2.640691
    12  C    4.257175   4.424875   5.021827   4.724288   2.865113
    13  H    4.062775   4.460148   4.828210   4.323947   2.651549
    14  H    5.321528   5.511908   6.012653   5.806728   3.874285
    15  O    4.437510   4.300616   5.364890   4.829321   3.360436
    16  C    5.455680   5.390211   6.448361   5.614807   4.403668
    17  H    6.208188   6.222403   7.131794   6.430048   4.993575
    18  H    5.064173   5.167062   6.068016   5.037832   4.056114
    19  C    6.128669   5.837932   7.188262   6.210111   5.357118
    20  H    5.502858   5.119345   6.592918   5.493047   4.993707
    21  H    6.507991   6.075035   7.523894   6.747309   5.752588
    22  O    7.239556   6.997247   8.317185   7.195351   6.479950
    23  C    7.638593   7.525037   8.720260   7.419338   6.914549
    24  H    7.187110   7.060938   8.278934   6.838556   6.663385
    25  H    8.748520   8.588560   9.838113   8.507066   8.062231
    26  C    7.755123   7.853526   8.778876   7.497306   6.866342
    27  H    8.542488   8.648897   9.540879   8.374352   7.524363
    28  H    6.900512   7.104720   7.887302   6.641835   5.959751
    29  S    8.831535   8.996384   9.838732   8.370758   8.108264
    30  C   10.370908  10.422338  11.413481   9.957138   9.645528
    31  H   10.381613  10.314560  11.456362  10.006277   9.720935
    32  H   11.066311  11.147271  12.096140  10.565732  10.418578
    33  C   11.121088  11.208188  12.141306  10.807159  10.227218
    34  H   10.633752  10.701978  11.646559  10.420329   9.651010
    35  H   11.479082  11.667144  12.459696  11.123112  10.552177
    36  S   12.696613  12.689437  13.745163  12.394203  11.847537
    37  C   13.645521  13.690101  14.684155  13.216165  12.895371
    38  H   13.913447  14.042022  14.920440  13.475635  13.101246
    39  H   13.161373  13.207976  14.198890  12.663870  12.507667
    40  C   14.982402  14.967652  16.037810  14.563479  14.258397
    41  H   15.549910  15.536397  16.601721  15.188283  14.746858
    42  H   14.825993  14.731556  15.902051  14.420185  14.165311
    43  S   15.982975  16.017394  17.019763  15.463543  15.340950
    44  C   16.554726  16.701729  17.549441  16.017383  15.837587
    45  H   17.152808  17.318252  18.134689  16.560658  16.495784
    46  H   15.758008  15.958833  16.730316  15.217142  15.011932
    47  C   17.507467  17.652825  18.502838  17.033713  16.698969
    48  H   17.079383  17.256845  18.059032  16.647922  16.196913
    49  H   17.827404  17.906631  18.848585  17.383299  17.030297
    50  H   18.416322  18.593043  19.396921  17.915159  17.615283
                    6          7          8          9         10
     6  H    0.000000
     7  H    1.789949   0.000000
     8  O    2.041895   2.057287   0.000000
     9  C    2.608862   2.643311   1.374901   0.000000
    10  H    3.632436   3.614328   2.028987   1.108009   0.000000
    11  H    3.016670   2.466801   2.071094   1.124735   1.767032
    12  C    2.522583   3.312164   2.399617   1.511322   2.176487
    13  H    2.016876   2.947944   2.741404   2.166393   3.091468
    14  H    3.560688   4.130301   3.333753   2.134198   2.462965
    15  O    2.929134   4.139522   2.778148   2.340504   2.656371
    16  C    3.685096   5.121413   4.098891   3.599403   3.962596
    17  H    4.321991   5.549874   4.611877   3.809344   4.074029
    18  H    3.143294   4.715695   4.113775   3.792470   4.424070
    19  C    4.663568   6.234553   5.002307   4.734268   4.933833
    20  H    4.319423   5.977034   4.763866   4.824379   5.110020
    21  H    5.239203   6.655964   5.133873   4.807953   4.745116
    22  O    5.678691   7.311351   6.239860   5.920084   6.149014
    23  C    5.981685   7.676406   6.913966   6.641056   7.035884
    24  H    5.709113   7.474840   6.815990   6.767851   7.257151
    25  H    7.135543   8.835509   8.028731   7.737098   8.067647
    26  C    5.859151   7.443711   7.015342   6.599943   7.126782
    27  H    6.562288   8.036861   7.555913   6.954701   7.386766
    28  H    4.931937   6.465478   6.211415   5.812012   6.449837
    29  S    7.038283   8.640470   8.472513   8.195070   8.821993
    30  C    8.605500  10.241184   9.862427   9.514902  10.007147
    31  H    8.720299  10.414088   9.837357   9.536462   9.944820
    32  H    9.357103  10.995131  10.730365  10.448000  10.991224
    33  C    9.213297  10.745715  10.343615   9.804008  10.225160
    34  H    8.681149  10.164076   9.658751   9.025480   9.379240
    35  H    9.517028  10.974269  10.765605  10.200862  10.694052
    36  S   10.855171  12.429502  11.877215  11.337678  11.661634
    37  C   11.854992  13.453771  13.076384  12.635734  13.059280
    38  H   12.048793  13.576606  13.333408  12.837790  13.303786
    39  H   11.452659  13.087369  12.768733  12.434007  12.915125
    40  C   13.232191  14.856347  14.384615  13.943326  14.308591
    41  H   13.737667  15.321771  14.806673  14.276615  14.590253
    42  H   13.161454  14.833710  14.241344  13.854252  14.175345
    43  S   14.284398  15.910815  15.592093  15.229355  15.677692
    44  C   14.763654  16.298471  16.162274  15.734076  16.241496
    45  H   15.412584  16.948175  16.885612  16.513408  17.061847
    46  H   13.934047  15.425555  15.376767  14.935509  15.481362
    47  C   15.640417  17.136407  16.947660  16.417597  16.867042
    48  H   15.149632  16.591213  16.421909  15.823913  16.262971
    49  H   15.985056  17.522774  17.209257  16.678322  17.070030
    50  H   16.549507  18.022945  17.904934  17.379231  17.854507
                   11         12         13         14         15
    11  H    0.000000
    12  C    2.137205   0.000000
    13  H    2.460843   1.098833   0.000000
    14  H    2.409529   1.126745   1.767316   0.000000
    15  O    3.295620   1.379445   2.081082   2.075760   0.000000
    16  C    4.381748   2.247958   2.513927   2.534201   1.432554
    17  H    4.415529   2.391304   2.709926   2.164761   2.036140
    18  H    4.452002   2.414357   2.167567   2.890746   1.983114
    19  C    5.657429   3.583872   3.911270   3.921526   2.393766
    20  H    5.815153   3.869020   4.099741   4.484649   2.612752
    21  H    5.793647   3.873261   4.470216   4.109659   2.597134
    22  O    6.768698   4.643008   4.819432   4.827015   3.600261
    23  C    7.392541   5.268242   5.179258   5.465717   4.416156
    24  H    7.553182   5.491453   5.294837   5.899552   4.603127
    25  H    8.498358   6.365397   6.314844   6.488235   5.475927
    26  C    7.155070   5.123301   4.809691   5.175734   4.643579
    27  H    7.442106   5.448722   5.229867   5.265970   5.062247
    28  H    6.291752   4.348408   3.885218   4.471384   4.065875
    29  S    8.698575   6.751771   6.264072   6.879049   6.320250
    30  C   10.082698   8.046288   7.717156   8.062227   7.466936
    31  H   10.205875   8.106498   7.899339   8.166496   7.358075
    32  H   10.996798   8.991716   8.588773   9.051860   8.434877
    33  C   10.288295   8.299869   8.029847   8.108421   7.838458
    34  H    9.504196   7.526026   7.347426   7.246023   7.083491
    35  H   10.583829   8.690932   8.310509   8.465895   8.383441
    36  S   11.885158   9.852376   9.685416   9.635242   9.265393
    37  C   13.160420  11.143407  10.848507  11.011778  10.586100
    38  H   13.275829  11.331214  10.970113  11.142865  10.901645
    39  H   12.984322  10.960920  10.610375  10.936287  10.373675
    40  C   14.506967  12.461261  12.227635  12.314320  11.833126
    41  H   14.812357  12.789832  12.603203  12.551933  12.195763
    42  H   14.491829  12.402165  12.232214  12.307342  11.664735
    43  S   15.767857  13.747559  13.412417  13.666058  13.155141
    44  C   16.160817  14.233985  13.811042  14.086527  13.799975
    45  H   16.935730  15.023602  14.553971  14.923984  14.594617
    46  H   15.315025  13.436899  12.966712  13.282896  13.078106
    47  C   16.813638  14.907246  14.537113  14.656463  14.506250
    48  H   16.172111  14.313108  13.947764  13.998808  13.981637
    49  H   17.128840  15.172087  14.872037  14.918540  14.689645
    50  H   17.745910  15.869443  15.463175  15.617669  15.504882
                   16         17         18         19         20
    16  C    0.000000
    17  H    1.075561   0.000000
    18  H    1.120816   1.804295   0.000000
    19  C    1.493856   2.206085   2.141068   0.000000
    20  H    2.147833   3.115550   2.409410   1.160550   0.000000
    21  H    2.155587   2.631065   3.080089   1.152045   1.810043
    22  O    2.400227   2.781917   2.790346   1.305736   2.018378
    23  C    3.095655   3.425099   3.034146   2.382946   2.793142
    24  H    3.465543   4.060081   3.156465   2.713214   2.625795
    25  H    4.155836   4.372710   4.184136   3.280766   3.690603
    26  C    3.255446   3.297167   2.901653   3.225120   3.757563
    27  H    3.645610   3.354077   3.524451   3.700377   4.472584
    28  H    2.798906   2.895416   2.163653   3.198368   3.638249
    29  S    4.998259   5.123508   4.443543   4.843340   5.117681
    30  C    6.069911   6.089609   5.773779   5.614557   6.001566
    31  H    5.987497   6.088699   5.832447   5.276156   5.622805
    32  H    7.062531   7.129701   6.675131   6.603975   6.885066
    33  C    6.406743   6.169762   6.245984   6.107353   6.729856
    34  H    5.659077   5.305420   5.630508   5.431267   6.193850
    35  H    6.970025   6.681246   6.689311   6.860306   7.470949
    36  S    7.842218   7.608178   7.817847   7.314300   7.928885
    37  C    9.162848   9.024543   8.971379   8.643770   9.108366
    38  H    9.474156   9.259028   9.222037   9.119420   9.630853
    39  H    8.974439   8.955071   8.689832   8.419692   8.756851
    40  C   10.417295  10.277723  10.303706   9.783465  10.243537
    41  H   10.775785  10.537925  10.736901  10.183929  10.742364
    42  H   10.276958  10.208784  10.223222   9.499815   9.906197
    43  S   11.746838  11.673095  11.506625  11.143503  11.496289
    44  C   12.381769  12.219732  12.062421  11.972933  12.383443
    45  H   13.190289  13.077683  12.811306  12.778729  13.122258
    46  H   11.668289  11.487928  11.295871  11.364643  11.786790
    47  C   13.075964  12.807332  12.840293  12.700414  13.217274
    48  H   12.555060  12.212391  12.337201  12.273591  12.861429
    49  H   13.257916  12.997714  13.099971  12.778952  13.303763
    50  H   14.077880  13.806669  13.805473  13.736243  14.238663
                   21         22         23         24         25
    21  H    0.000000
    22  O    2.007959   0.000000
    23  C    3.287346   1.310810   0.000000
    24  H    3.702081   2.000982   1.151742   0.000000
    25  H    3.969482   2.013242   1.160192   1.816624   0.000000
    26  C    4.215239   2.458290   1.501783   2.121721   2.151606
    27  H    4.505611   2.860244   2.172108   3.081515   2.475269
    28  H    4.263559   2.859233   2.189837   2.513200   3.103193
    29  S    5.861937   3.947204   2.671842   2.744854   2.726669
    30  C    6.439017   4.440694   3.254137   3.566898   2.612661
    31  H    5.988330   4.023892   2.964605   3.274836   2.025493
    32  H    7.458428   5.451170   4.223006   4.331754   3.577050
    33  C    6.816484   4.935389   3.951888   4.595120   3.331127
    34  H    6.060763   4.311636   3.528937   4.390155   3.042156
    35  H    7.640243   5.772367   4.730986   5.295614   4.272079
    36  S    7.856089   6.047729   5.204212   5.827364   4.286210
    37  C    9.297865   7.381610   6.359657   6.734647   5.462106
    38  H    9.824200   7.902603   6.844086   7.251585   6.067387
    39  H    9.149050   7.180460   6.066880   6.263242   5.204134
    40  C   10.339989   8.490550   7.560071   7.936194   6.561263
    41  H   10.671730   8.895023   8.051135   8.552093   7.056042
    42  H    9.990563   8.196309   7.338900   7.672938   6.264296
    43  S   11.789651   9.871612   8.828891   9.038660   7.885165
    44  C   12.690213  10.741366   9.639209   9.888872   8.815177
    45  H   13.534358  11.561415  10.416973  10.573847   9.614761
    46  H   12.135513  10.173573   9.034236   9.287151   8.301759
    47  C   13.344871  11.458708  10.438972  10.822551   9.592884
    48  H   12.911898  11.060018  10.069460  10.537308   9.279648
    49  H   13.349568  11.507287  10.554487  10.965574   9.628592
    50  H   14.404066  12.504619  11.459582  11.812602  10.636479
                   26         27         28         29         30
    26  C    0.000000
    27  H    1.126213   0.000000
    28  H    1.079195   1.839796   0.000000
    29  S    1.852740   2.375736   2.425921   0.000000
    30  C    2.928700   2.945464   3.854838   1.794953   0.000000
    31  H    3.165999   3.247373   4.184071   2.465840   1.101091
    32  H    3.889168   3.985894   4.713516   2.376183   1.114750
    33  C    3.377940   2.857373   4.293716   2.739140   1.508570
    34  H    2.931462   2.131633   3.838794   2.952376   2.177103
    35  H    3.868856   3.349685   4.608414   2.978002   2.137058
    36  S    5.000866   4.471206   5.999171   4.347730   2.669754
    37  C    6.080078   5.747620   7.005698   4.913856   3.275606
    38  H    6.325772   5.918540   7.160734   5.105056   3.687589
    39  H    5.839889   5.709460   6.728764   4.460364   2.920245
    40  C    7.441237   7.081551   8.410808   6.350588   4.642645
    41  H    7.887836   7.386029   8.863217   6.961438   5.252203
    42  H    7.442390   7.156275   8.458777   6.447668   4.683470
    43  S    8.638569   8.403270   9.534190   7.274010   5.733362
    44  C    9.180816   8.871187   9.974242   7.746238   6.407973
    45  H    9.960734   9.731694  10.716193   8.420923   7.175793
    46  H    8.442105   8.135092   9.171140   6.977182   5.787892
    47  C    9.948573   9.487787  10.762826   8.681470   7.279602
    48  H    9.474775   8.925915  10.257146   8.311713   6.974800
    49  H   10.202772   9.723898  11.084822   9.023557   7.485245
    50  H   10.923988  10.477976  11.702688   9.600706   8.268527
                   31         32         33         34         35
    31  H    0.000000
    32  H    1.785358   0.000000
    33  C    2.124967   2.130362   0.000000
    34  H    2.547351   3.073489   1.102388   0.000000
    35  H    3.033443   2.371785   1.117308   1.850852   0.000000
    36  S    2.730536   2.831881   1.834670   2.461479   2.401696
    37  C    3.529420   2.753871   2.929290   3.901911   2.973352
    38  H    4.207808   3.147311   3.102541   4.068653   2.739505
    39  H    3.184230   2.113373   3.089870   4.149056   3.155686
    40  C    4.668193   4.126737   4.290149   5.149252   4.415450
    41  H    5.288924   4.890506   4.609857   5.328546   4.705726
    42  H    4.451613   4.244442   4.537136   5.324551   4.904029
    43  S    5.885350   4.933394   5.608671   6.594103   5.505729
    44  C    6.828531   5.584908   6.077515   7.062811   5.646640
    45  H    7.605682   6.260102   6.991224   8.014147   6.529417
    46  H    6.359186   4.970473   5.428906   6.421506   4.850488
    47  C    7.679130   6.606549   6.672519   7.534756   6.233046
    48  H    7.456262   6.414742   6.183006   6.963945   5.659233
    49  H    7.734455   6.867688   6.878695   7.698274   6.606469
    50  H    8.707576   7.546697   7.688723   8.560128   7.178979
                   36         37         38         39         40
    36  S    0.000000
    37  C    1.814056   0.000000
    38  H    2.371318   1.118554   0.000000
    39  H    2.447434   1.088824   1.780729   0.000000
    40  C    2.752749   1.514179   2.136642   2.171821   0.000000
    41  H    2.939359   2.184079   2.504452   3.093745   1.091970
    42  H    2.927536   2.110901   3.034339   2.481030   1.108506
    43  S    4.369074   2.692755   2.890805   2.833712   1.809324
    44  C    5.113649   3.441687   2.995807   3.695578   3.010858
    45  H    6.115266   4.372709   3.970234   4.429707   3.937411
    46  H    4.760068   3.147316   2.430631   3.348681   3.230553
    47  C    5.541415   4.158683   3.627833   4.723197   3.495138
    48  H    5.170542   4.023209   3.297991   4.728576   3.634112
    49  H    5.505974   4.232131   3.957506   4.870595   3.211947
    50  H    6.627445   5.205070   4.625484   5.687532   4.550764
                   41         42         43         44         45
    41  H    0.000000
    42  H    1.784127   0.000000
    43  S    2.452477   2.398635   0.000000
    44  C    3.271773   3.936689   1.790916   0.000000
    45  H    4.289402   4.740674   2.379374   1.112443   0.000000
    46  H    3.550929   4.234172   2.431325   1.115119   1.794758
    47  C    3.259535   4.462755   2.730249   1.510199   2.155235
    48  H    3.238390   4.691894   3.348375   2.143166   2.960237
    49  H    2.817987   4.021011   2.601292   2.130362   2.766257
    50  H    4.336992   5.478477   3.545726   2.131588   2.244905
                   46         47         48         49         50
    46  H    0.000000
    47  C    2.152812   0.000000
    48  H    2.262072   1.103762   0.000000
    49  H    2.973057   1.110169   1.840353   0.000000
    50  H    2.765770   1.103094   1.812646   1.796892   0.000000
 Stoichiometry    C14H30O3S3
 Framework group  C1[X(C14H30O3S3)]
 Deg. of freedom   144
 Full point group                 C1      NOp   1
 Largest Abelian subgroup         C1      NOp   1
 Largest concise Abelian subgroup C1      NOp   1
                         Standard orientation:                         
 ---------------------------------------------------------------------
 Center     Atomic      Atomic             Coordinates (Angstroms)
 Number     Number       Type             X           Y           Z
 ---------------------------------------------------------------------
      1          6           0       -8.403873    2.214435   -0.985048
      2          1           0       -8.469620    1.501329   -1.843325
      3          1           0       -9.399529    2.628383   -0.735282
      4          1           0       -7.761285    3.064228   -1.282763
      5          6           0       -7.780008    1.486556    0.201340
      6          1           0       -6.703290    1.671188    0.223029
      7          1           0       -8.226935    1.946969    1.121010
      8          8           0       -8.059407    0.146979    0.138972
      9          6           0       -7.550173   -0.607784    1.169197
     10          1           0       -7.904001   -1.652444    1.063480
     11          1           0       -7.951477   -0.271203    2.164535
     12          6           0       -6.042173   -0.539493    1.242459
     13          1           0       -5.702084    0.473196    1.499818
     14          1           0       -5.723021   -1.185898    2.108401
     15          8           0       -5.534862   -1.009154    0.048757
     16          6           0       -4.108849   -0.945291    0.169657
     17          1           0       -3.835243   -1.446049    1.081365
     18          1           0       -3.947618    0.159661    0.266167
     19          6           0       -3.473117   -1.423725   -1.094681
     20          1           0       -3.880092   -0.763781   -1.958232
     21          1           0       -3.896234   -2.466044   -1.343175
     22          8           0       -2.168940   -1.461269   -1.146249
     23          6           0       -1.271061   -0.518888   -0.991471
     24          1           0       -1.506594    0.335292   -1.727277
     25          1           0       -0.242449   -0.914745   -1.353823
     26          6           0       -1.046819    0.147594    0.335506
     27          1           0       -0.596223   -0.575132    1.072381
     28          1           0       -1.899160    0.678203    0.731274
     29         16           0        0.325672    1.357206    0.042672
     30          6           0        1.787242    0.396163   -0.359905
     31          1           0        1.673351   -0.269001   -1.229955
     32          1           0        2.601335    1.119361   -0.598450
     33          6           0        2.245785   -0.439534    0.809340
     34          1           0        1.460190   -1.129828    1.158043
     35          1           0        2.604782    0.252869    1.609387
     36         16           0        3.722753   -1.350780    0.214183
     37          6           0        5.012262   -0.113317   -0.096710
     38          1           0        5.250840    0.326285    0.903787
     39          1           0        4.667352    0.696720   -0.737345
     40          6           0        6.276366   -0.757705   -0.625429
     41          1           0        6.648646   -1.555038    0.021152
     42          1           0        6.010255   -1.199761   -1.606529
     43         16           0        7.492232    0.552096   -0.907822
     44          6           0        8.051967    1.343658    0.598002
     45          1           0        8.699939    2.200956    0.310424
     46          1           0        7.197292    1.754735    1.184548
     47          6           0        8.834719    0.385244    1.463707
     48          1           0        8.215763    0.090188    2.328650
     49          1           0        9.124305   -0.481953    0.833958
     50          1           0        9.752371    0.895038    1.802591
 ---------------------------------------------------------------------
 Rotational constants (GHZ):           0.8116277           0.0465724           0.0458175
 Leave Link  202 at Tue Jun 27 23:16:26 2023, MaxMem=   262144000 cpu:               0.1 elap:               0.0
 (Enter /dragofs/sw/campus/0.2/software/gaussian/16.gaussian/gaussian/g16_legacy/l301.exe)
 Standard basis: 6-31G(d) (6D, 7F)
 Ernie: Thresh=  0.10000D-02 Tol=  0.10000D-05 Strict=F.
 There are   372 symmetry adapted cartesian basis functions of A   symmetry.
 There are   372 symmetry adapted basis functions of A   symmetry.
   372 basis functions,   752 primitive gaussians,   372 cartesian basis functions
    93 alpha electrons       93 beta electrons
       nuclear repulsion energy      1895.7651683679 Hartrees.
 IExCor=20419 DFT=T Ex+Corr=CAM-B3LYP ExCW=0 ScaHFX=  1.000000
 ScaDFX=  1.000000  1.000000  1.000000  0.810000 ScalE2=  1.000000  1.000000
 IRadAn=      5 IRanWt=     -1 IRanGd=            0 ICorTp=0 IEmpDi=  4
 HFx  wShort=  0.000000 wLong=  0.330000 cFull=  0.190000 cShort=  0.000000 cLong=  0.460000
 DFx  wShort=  0.000000 wLong=  0.330000 cFull=  0.190000 cShort=  0.000000 cLong=  0.460000
 NAtoms=   50 NActive=   50 NUniq=   50 SFac= 1.00D+00 NAtFMM=   60 NAOKFM=F Big=F
 Integral buffers will be    131072 words long.
 Raffenetti 2 integral format.
 Two-electron integral symmetry is turned on.
 Leave Link  301 at Tue Jun 27 23:16:26 2023, MaxMem=   262144000 cpu:               0.4 elap:               0.1
 (Enter /dragofs/sw/campus/0.2/software/gaussian/16.gaussian/gaussian/g16_legacy/l302.exe)
 NPDir=0 NMtPBC=     1 NCelOv=     1 NCel=       1 NClECP=     1 NCelD=      1
         NCelK=      1 NCelE2=     1 NClLst=     1 CellRange=     0.0.
 One-electron integrals computed using PRISM.
 One-electron integral symmetry used in STVInt
 NBasis=   372 RedAO= T EigKep=  3.28D-03  NBF=   372
 NBsUse=   372 1.00D-06 EigRej= -1.00D+00 NBFU=   372
 Precomputing XC quadrature grid using
 IXCGrd= 4 IRadAn=           5 IRanWt=          -1 IRanGd=           0 AccXCQ= 0.00D+00.
 Generated NRdTot=       0 NPtTot=           0 NUsed=           0 NTot=          32
 NSgBfM=   348   348   348   348   348 MxSgAt=    50 MxSgA2=    50.
 Leave Link  302 at Tue Jun 27 23:16:27 2023, MaxMem=   262144000 cpu:               5.0 elap:               0.7
 (Enter /dragofs/sw/campus/0.2/software/gaussian/16.gaussian/gaussian/g16_legacy/l303.exe)
 DipDrv:  MaxL=1.
 Leave Link  303 at Tue Jun 27 23:16:27 2023, MaxMem=   262144000 cpu:               0.3 elap:               0.1
 (Enter /dragofs/sw/campus/0.2/software/gaussian/16.gaussian/gaussian/g16_legacy/l401.exe)
 ExpMin= 1.17D-01 ExpMax= 2.19D+04 ExpMxC= 3.30D+03 IAcc=3 IRadAn=         5 AccDes= 0.00D+00
 Harris functional with IExCor=20419 and IRadAn=       5 diagonalized for initial guess.
 HarFok:  IExCor=20419 AccDes= 0.00D+00 IRadAn=         5 IDoV= 1 UseB2=F ITyADJ=14
 ICtDFT=  3500011 ScaDFX=  1.000000  1.000000  1.000000  1.000000
 FoFCou: FMM=F IPFlag=           0 FMFlag=      100000 FMFlg1=           0
         NFxFlg=           0 DoJE=T BraDBF=F KetDBF=T FulRan=T
         wScrn=  0.000000 ICntrl=       500 IOpCl=  0 I1Cent=   200000004 NGrid=           0
         NMat0=    1 NMatS0=      1 NMatT0=    0 NMatD0=    1 NMtDS0=    0 NMtDT0=    0
 Petite list used in FoFCou.
 Harris En= -1921.22337657736    
 JPrj=0 DoOrth=F DoCkMO=F.
 Leave Link  401 at Tue Jun 27 23:16:30 2023, MaxMem=   262144000 cpu:              19.2 elap:               2.4
 (Enter /dragofs/sw/campus/0.2/software/gaussian/16.gaussian/gaussian/g16_legacy/l502.exe)
 Integral symmetry usage will be decided dynamically.
 Closed shell SCF:
 Using DIIS extrapolation, IDIIS=  1040.
 NGot=   262144000 LenX=   261859787 LenY=   261720962
 Requested convergence on RMS density matrix=1.00D-08 within 128 cycles.
 Requested convergence on MAX density matrix=1.00D-06.
 Requested convergence on             energy=1.00D-06.
 No special actions if energy rises.
 Fock matrices will be formed incrementally for  20 cycles.
 Integral accuracy reduced to 1.0D-05 until final iterations.

 Cycle   1  Pass 0  IDiag  1:
 FoFJK:  IHMeth= 1 ICntrl=       0 DoSepK=T KAlg= 0 I1Cent=           0 FoldK=F
 IRaf=         1 NMat=       1 IRICut=       1 DoRegI=T DoRafI=F ISym2E= 0 IDoP0=0 IntGTp=1.
 FoFCou: FMM=F IPFlag=           0 FMFlag=      100000 FMFlg1=           0
         NFxFlg=           0 DoJE=T BraDBF=F KetDBF=F FulRan=T
         wScrn=  0.000000 ICntrl=       500 IOpCl=  0 I1Cent=           0 NGrid=           0
         NMat0=    1 NMatS0=      1 NMatT0=    0 NMatD0=    1 NMtDS0=    0 NMtDT0=    0
 Symmetry not used in FoFCou.
 E= -1970.87704671975    
 DIIS: error= 6.34D-02 at cycle   1 NSaved=   1.
 NSaved= 1 IEnMin= 1 EnMin= -1970.87704671975     IErMin= 1 ErrMin= 6.34D-02
 ErrMax= 6.34D-02  0.00D+00 EMaxC= 1.00D-01 BMatC= 9.69D-01 BMatP= 9.69D-01
 IDIUse=3 WtCom= 3.66D-01 WtEn= 6.34D-01
 Coeff-Com:  0.100D+01
 Coeff-En:   0.100D+01
 Coeff:      0.100D+01
 Gap=     0.398 Goal=   None    Shift=    0.000
 GapD=    0.398 DampG=1.000 DampE=0.500 DampFc=0.5000 IDamp=-1.
 Damping current iteration by 5.00D-01
 RMSDP=3.47D-03 MaxDP=2.66D-01              OVMax= 9.75D-02

 Cycle   2  Pass 0  IDiag  1:
 RMSU=  1.73D-03    CP:  1.00D+00
 E= -1971.05574358250     Delta-E=       -0.178696862752 Rises=F Damp=T
 DIIS: error= 2.54D-02 at cycle   2 NSaved=   2.
 NSaved= 2 IEnMin= 2 EnMin= -1971.05574358250     IErMin= 2 ErrMin= 2.54D-02
 ErrMax= 2.54D-02  0.00D+00 EMaxC= 1.00D-01 BMatC= 1.68D-01 BMatP= 9.69D-01
 IDIUse=3 WtCom= 7.46D-01 WtEn= 2.54D-01
 Coeff-Com: -0.440D+00 0.144D+01
 Coeff-En:   0.000D+00 0.100D+01
 Coeff:     -0.328D+00 0.133D+01
 Gap=     0.378 Goal=   None    Shift=    0.000
 RMSDP=9.19D-04 MaxDP=4.35D-02 DE=-1.79D-01 OVMax= 6.43D-02

 Cycle   3  Pass 0  IDiag  1:
 RMSU=  8.68D-04    CP:  1.01D+00  1.16D+00
 E= -1971.20259622867     Delta-E=       -0.146852646163 Rises=F Damp=F
 DIIS: error= 4.88D-03 at cycle   3 NSaved=   3.
 NSaved= 3 IEnMin= 3 EnMin= -1971.20259622867     IErMin= 3 ErrMin= 4.88D-03
 ErrMax= 4.88D-03  0.00D+00 EMaxC= 1.00D-01 BMatC= 3.12D-02 BMatP= 1.68D-01
 IDIUse=3 WtCom= 9.51D-01 WtEn= 4.88D-02
 Coeff-Com: -0.248D+00 0.567D+00 0.681D+00
 Coeff-En:   0.000D+00 0.000D+00 0.100D+01
 Coeff:     -0.235D+00 0.539D+00 0.697D+00
 Gap=     0.351 Goal=   None    Shift=    0.000
 RMSDP=4.89D-04 MaxDP=2.63D-02 DE=-1.47D-01 OVMax= 2.12D-02

 Cycle   4  Pass 0  IDiag  1:
 RMSU=  3.30D-04    CP:  1.00D+00  1.29D+00  6.80D-01
 E= -1971.22596202450     Delta-E=       -0.023365795833 Rises=F Damp=F
 DIIS: error= 1.69D-03 at cycle   4 NSaved=   4.
 NSaved= 4 IEnMin= 4 EnMin= -1971.22596202450     IErMin= 4 ErrMin= 1.69D-03
 ErrMax= 1.69D-03  0.00D+00 EMaxC= 1.00D-01 BMatC= 2.40D-03 BMatP= 3.12D-02
 IDIUse=3 WtCom= 9.83D-01 WtEn= 1.69D-02
 Coeff-Com: -0.941D-01 0.202D+00 0.337D+00 0.555D+00
 Coeff-En:   0.000D+00 0.000D+00 0.000D+00 0.100D+01
 Coeff:     -0.925D-01 0.199D+00 0.331D+00 0.562D+00
 Gap=     0.352 Goal=   None    Shift=    0.000
 RMSDP=1.31D-04 MaxDP=8.07D-03 DE=-2.34D-02 OVMax= 6.43D-03

 Cycle   5  Pass 0  IDiag  1:
 RMSU=  6.24D-05    CP:  1.01D+00  1.32D+00  7.24D-01  7.01D-01
 E= -1971.22774917150     Delta-E=       -0.001787147002 Rises=F Damp=F
 DIIS: error= 2.19D-04 at cycle   5 NSaved=   5.
 NSaved= 5 IEnMin= 5 EnMin= -1971.22774917150     IErMin= 5 ErrMin= 2.19D-04
 ErrMax= 2.19D-04  0.00D+00 EMaxC= 1.00D-01 BMatC= 5.78D-05 BMatP= 2.40D-03
 IDIUse=3 WtCom= 9.98D-01 WtEn= 2.19D-03
 Coeff-Com: -0.225D-01 0.464D-01 0.977D-01 0.219D+00 0.659D+00
 Coeff-En:   0.000D+00 0.000D+00 0.000D+00 0.000D+00 0.100D+01
 Coeff:     -0.225D-01 0.463D-01 0.975D-01 0.219D+00 0.660D+00
 Gap=     0.351 Goal=   None    Shift=    0.000
 RMSDP=2.31D-05 MaxDP=1.14D-03 DE=-1.79D-03 OVMax= 1.06D-03

 Cycle   6  Pass 0  IDiag  1:
 RMSU=  1.93D-05    CP:  1.01D+00  1.32D+00  7.31D-01  7.27D-01  9.01D-01
 E= -1971.22779902689     Delta-E=       -0.000049855393 Rises=F Damp=F
 DIIS: error= 4.95D-05 at cycle   6 NSaved=   6.
 NSaved= 6 IEnMin= 6 EnMin= -1971.22779902689     IErMin= 6 ErrMin= 4.95D-05
 ErrMax= 4.95D-05  0.00D+00 EMaxC= 1.00D-01 BMatC= 4.10D-06 BMatP= 5.78D-05
 IDIUse=1 WtCom= 1.00D+00 WtEn= 0.00D+00
 Coeff-Com:  0.540D-02-0.118D-01-0.103D-01 0.337D-03 0.205D+00 0.812D+00
 Coeff:      0.540D-02-0.118D-01-0.103D-01 0.337D-03 0.205D+00 0.812D+00
 Gap=     0.351 Goal=   None    Shift=    0.000
 RMSDP=9.20D-06 MaxDP=6.44D-04 DE=-4.99D-05 OVMax= 3.26D-04

 Initial convergence to 1.0D-05 achieved.  Increase integral accuracy.
 Cycle   7  Pass 1  IDiag  1:
 E= -1971.22777361779     Delta-E=        0.000025409100 Rises=F Damp=F
 DIIS: error= 1.46D-05 at cycle   1 NSaved=   1.
 NSaved= 1 IEnMin= 1 EnMin= -1971.22777361779     IErMin= 1 ErrMin= 1.46D-05
 ErrMax= 1.46D-05  0.00D+00 EMaxC= 1.00D-01 BMatC= 3.92D-07 BMatP= 3.92D-07
 IDIUse=1 WtCom= 1.00D+00 WtEn= 0.00D+00
 Coeff-Com:  0.100D+01
 Coeff:      0.100D+01
 Gap=     0.351 Goal=   None    Shift=    0.000
 RMSDP=9.20D-06 MaxDP=6.44D-04 DE= 2.54D-05 OVMax= 1.50D-04

 Cycle   8  Pass 1  IDiag  1:
 RMSU=  4.91D-06    CP:  1.00D+00
 E= -1971.22777370330     Delta-E=       -0.000000085509 Rises=F Damp=F
 DIIS: error= 1.69D-05 at cycle   2 NSaved=   2.
 NSaved= 2 IEnMin= 2 EnMin= -1971.22777370330     IErMin= 1 ErrMin= 1.46D-05
 ErrMax= 1.69D-05  0.00D+00 EMaxC= 1.00D-01 BMatC= 3.96D-07 BMatP= 3.92D-07
 IDIUse=1 WtCom= 1.00D+00 WtEn= 0.00D+00
 Coeff-Com:  0.502D+00 0.498D+00
 Coeff:      0.502D+00 0.498D+00
 Gap=     0.351 Goal=   None    Shift=    0.000
 RMSDP=1.56D-06 MaxDP=1.10D-04 DE=-8.55D-08 OVMax= 1.02D-04

 Cycle   9  Pass 1  IDiag  1:
 RMSU=  1.41D-06    CP:  1.00D+00  8.64D-01
 E= -1971.22777399681     Delta-E=       -0.000000293508 Rises=F Damp=F
 DIIS: error= 2.53D-06 at cycle   3 NSaved=   3.
 NSaved= 3 IEnMin= 3 EnMin= -1971.22777399681     IErMin= 3 ErrMin= 2.53D-06
 ErrMax= 2.53D-06  0.00D+00 EMaxC= 1.00D-01 BMatC= 6.46D-09 BMatP= 3.92D-07
 IDIUse=1 WtCom= 1.00D+00 WtEn= 0.00D+00
 Coeff-Com:  0.394D-01 0.117D+00 0.843D+00
 Coeff:      0.394D-01 0.117D+00 0.843D+00
 Gap=     0.351 Goal=   None    Shift=    0.000
 RMSDP=3.49D-07 MaxDP=1.59D-05 DE=-2.94D-07 OVMax= 1.65D-05

 Cycle  10  Pass 1  IDiag  1:
 RMSU=  2.83D-07    CP:  1.00D+00  9.05D-01  1.01D+00
 E= -1971.22777400182     Delta-E=       -0.000000005011 Rises=F Damp=F
 DIIS: error= 1.36D-06 at cycle   4 NSaved=   4.
 NSaved= 4 IEnMin= 4 EnMin= -1971.22777400182     IErMin= 4 ErrMin= 1.36D-06
 ErrMax= 1.36D-06  0.00D+00 EMaxC= 1.00D-01 BMatC= 1.19D-09 BMatP= 6.46D-09
 IDIUse=1 WtCom= 1.00D+00 WtEn= 0.00D+00
 Coeff-Com: -0.211D-01 0.133D-01 0.359D+00 0.649D+00
 Coeff:     -0.211D-01 0.133D-01 0.359D+00 0.649D+00
 Gap=     0.351 Goal=   None    Shift=    0.000
 RMSDP=1.21D-07 MaxDP=5.30D-06 DE=-5.01D-09 OVMax= 6.45D-06

 Cycle  11  Pass 1  IDiag  1:
 RMSU=  1.07D-07    CP:  1.00D+00  9.13D-01  1.03D+00  9.71D-01
 E= -1971.22777400298     Delta-E=       -0.000000001153 Rises=F Damp=F
 DIIS: error= 3.19D-07 at cycle   5 NSaved=   5.
 NSaved= 5 IEnMin= 5 EnMin= -1971.22777400298     IErMin= 5 ErrMin= 3.19D-07
 ErrMax= 3.19D-07  0.00D+00 EMaxC= 1.00D-01 BMatC= 5.58D-11 BMatP= 1.19D-09
 IDIUse=1 WtCom= 1.00D+00 WtEn= 0.00D+00
 Coeff-Com: -0.846D-02-0.419D-02 0.391D-01 0.187D+00 0.786D+00
 Coeff:     -0.846D-02-0.419D-02 0.391D-01 0.187D+00 0.786D+00
 Gap=     0.351 Goal=   None    Shift=    0.000
 RMSDP=4.56D-08 MaxDP=1.63D-06 DE=-1.15D-09 OVMax= 2.85D-06

 Cycle  12  Pass 1  IDiag  1:
 RMSU=  2.80D-08    CP:  1.00D+00  9.16D-01  1.04D+00  1.07D+00  1.10D+00
 E= -1971.22777400307     Delta-E=       -0.000000000098 Rises=F Damp=F
 DIIS: error= 9.71D-08 at cycle   6 NSaved=   6.
 NSaved= 6 IEnMin= 6 EnMin= -1971.22777400307     IErMin= 6 ErrMin= 9.71D-08
 ErrMax= 9.71D-08  0.00D+00 EMaxC= 1.00D-01 BMatC= 1.16D-11 BMatP= 5.58D-11
 IDIUse=1 WtCom= 1.00D+00 WtEn= 0.00D+00
 Coeff-Com: -0.616D-03-0.393D-02-0.372D-01-0.184D-01 0.322D+00 0.739D+00
 Coeff:     -0.616D-03-0.393D-02-0.372D-01-0.184D-01 0.322D+00 0.739D+00
 Gap=     0.351 Goal=   None    Shift=    0.000
 RMSDP=1.81D-08 MaxDP=6.59D-07 DE=-9.82D-11 OVMax= 1.30D-06

 Cycle  13  Pass 1  IDiag  1:
 RMSU=  8.74D-09    CP:  1.00D+00  9.17D-01  1.05D+00  1.11D+00  1.20D+00
                    CP:  9.32D-01
 E= -1971.22777400308     Delta-E=       -0.000000000004 Rises=F Damp=F
 DIIS: error= 3.07D-08 at cycle   7 NSaved=   7.
 NSaved= 7 IEnMin= 7 EnMin= -1971.22777400308     IErMin= 7 ErrMin= 3.07D-08
 ErrMax= 3.07D-08  0.00D+00 EMaxC= 1.00D-01 BMatC= 1.16D-12 BMatP= 1.16D-11
 IDIUse=1 WtCom= 1.00D+00 WtEn= 0.00D+00
 Coeff-Com:  0.718D-03-0.106D-02-0.187D-01-0.274D-01 0.480D-01 0.306D+00
 Coeff-Com:  0.693D+00
 Coeff:      0.718D-03-0.106D-02-0.187D-01-0.274D-01 0.480D-01 0.306D+00
 Coeff:      0.693D+00
 Gap=     0.351 Goal=   None    Shift=    0.000
 RMSDP=5.16D-09 MaxDP=2.26D-07 DE=-3.64D-12 OVMax= 3.99D-07

 SCF Done:  E(RCAM-B3LYP) =  -1971.22777400     A.U. after   13 cycles
            NFock= 13  Conv=0.52D-08     -V/T= 2.0054
 KE= 1.960633814070D+03 PE=-8.435662169245D+03 EE= 2.608035412804D+03
 Leave Link  502 at Tue Jun 27 23:17:14 2023, MaxMem=   262144000 cpu:             350.8 elap:              44.1
 (Enter /dragofs/sw/campus/0.2/software/gaussian/16.gaussian/gaussian/g16_legacy/l601.exe)
 Copying SCF densities to generalized density rwf, IOpCl= 0 IROHF=0.

 **********************************************************************

            Population analysis using the SCF density.

 **********************************************************************

 Orbital symmetries:
       Occupied  (A) (A) (A) (A) (A) (A) (A) (A) (A) (A) (A) (A)
                 (A) (A) (A) (A) (A) (A) (A) (A) (A) (A) (A) (A)
                 (A) (A) (A) (A) (A) (A) (A) (A) (A) (A) (A) (A)
                 (A) (A) (A) (A) (A) (A) (A) (A) (A) (A) (A) (A)
                 (A) (A) (A) (A) (A) (A) (A) (A) (A) (A) (A) (A)
                 (A) (A) (A) (A) (A) (A) (A) (A) (A) (A) (A) (A)
                 (A) (A) (A) (A) (A) (A) (A) (A) (A) (A) (A) (A)
                 (A) (A) (A) (A) (A) (A) (A) (A) (A)
       Virtual   (A) (A) (A) (A) (A) (A) (A) (A) (A) (A) (A) (A)
                 (A) (A) (A) (A) (A) (A) (A) (A) (A) (A) (A) (A)
                 (A) (A) (A) (A) (A) (A) (A) (A) (A) (A) (A) (A)
                 (A) (A) (A) (A) (A) (A) (A) (A) (A) (A) (A) (A)
                 (A) (A) (A) (A) (A) (A) (A) (A) (A) (A) (A) (A)
                 (A) (A) (A) (A) (A) (A) (A) (A) (A) (A) (A) (A)
                 (A) (A) (A) (A) (A) (A) (A) (A) (A) (A) (A) (A)
                 (A) (A) (A) (A) (A) (A) (A) (A) (A) (A) (A) (A)
                 (A) (A) (A) (A) (A) (A) (A) (A) (A) (A) (A) (A)
                 (A) (A) (A) (A) (A) (A) (A) (A) (A) (A) (A) (A)
                 (A) (A) (A) (A) (A) (A) (A) (A) (A) (A) (A) (A)
                 (A) (A) (A) (A) (A) (A) (A) (A) (A) (A) (A) (A)
                 (A) (A) (A) (A) (A) (A) (A) (A) (A) (A) (A) (A)
                 (A) (A) (A) (A) (A) (A) (A) (A) (A) (A) (A) (A)
                 (A) (A) (A) (A) (A) (A) (A) (A) (A) (A) (A) (A)
                 (A) (A) (A) (A) (A) (A) (A) (A) (A) (A) (A) (A)
                 (A) (A) (A) (A) (A) (A) (A) (A) (A) (A) (A) (A)
                 (A) (A) (A) (A) (A) (A) (A) (A) (A) (A) (A) (A)
                 (A) (A) (A) (A) (A) (A) (A) (A) (A) (A) (A) (A)
                 (A) (A) (A) (A) (A) (A) (A) (A) (A) (A) (A) (A)
                 (A) (A) (A) (A) (A) (A) (A) (A) (A) (A) (A) (A)
                 (A) (A) (A) (A) (A) (A) (A) (A) (A) (A) (A) (A)
                 (A) (A) (A) (A) (A) (A) (A) (A) (A) (A) (A) (A)
                 (A) (A) (A)
 The electronic state is 1-A.
 Alpha  occ. eigenvalues --  -88.94454 -88.94195 -88.93969 -19.23068 -19.22851
 Alpha  occ. eigenvalues --  -19.21570 -10.32442 -10.31944 -10.30925 -10.30592
 Alpha  occ. eigenvalues --  -10.30413 -10.30344 -10.30269 -10.29939 -10.29894
 Alpha  occ. eigenvalues --  -10.29881 -10.29850 -10.29501 -10.25892 -10.24739
 Alpha  occ. eigenvalues --   -8.00745  -8.00503  -8.00322  -5.97373  -5.97127
 Alpha  occ. eigenvalues --   -5.96960  -5.96947  -5.96709  -5.96497  -5.96267
 Alpha  occ. eigenvalues --   -5.96026  -5.95840  -1.17974  -1.14228  -1.12297
 Alpha  occ. eigenvalues --   -0.93162  -0.91594  -0.89171  -0.87230  -0.85907
 Alpha  occ. eigenvalues --   -0.84058  -0.81445  -0.79609  -0.76924  -0.74565
 Alpha  occ. eigenvalues --   -0.72163  -0.71143  -0.68190  -0.66890  -0.65870
 Alpha  occ. eigenvalues --   -0.65030  -0.64664  -0.60096  -0.59161  -0.58294
 Alpha  occ. eigenvalues --   -0.58004  -0.56074  -0.55904  -0.54958  -0.54376
 Alpha  occ. eigenvalues --   -0.54046  -0.53387  -0.52189  -0.51282  -0.50646
 Alpha  occ. eigenvalues --   -0.49580  -0.48795  -0.48017  -0.47175  -0.46711
 Alpha  occ. eigenvalues --   -0.46132  -0.45895  -0.45355  -0.44139  -0.43604
 Alpha  occ. eigenvalues --   -0.43231  -0.42902  -0.42439  -0.41490  -0.41135
 Alpha  occ. eigenvalues --   -0.41026  -0.39963  -0.38301  -0.36388  -0.36028
 Alpha  occ. eigenvalues --   -0.34752  -0.34292  -0.32979  -0.32048  -0.30999
 Alpha  occ. eigenvalues --   -0.28773  -0.28339  -0.27729
 Alpha virt. eigenvalues --    0.07418   0.08768   0.09840   0.10366   0.10927
 Alpha virt. eigenvalues --    0.11300   0.12407   0.12965   0.14246   0.14309
 Alpha virt. eigenvalues --    0.14650   0.14934   0.15799   0.15939   0.16604
 Alpha virt. eigenvalues --    0.17503   0.17829   0.18117   0.18651   0.18795
 Alpha virt. eigenvalues --    0.19141   0.19821   0.20000   0.20901   0.21342
 Alpha virt. eigenvalues --    0.21966   0.22597   0.22781   0.22887   0.24100
 Alpha virt. eigenvalues --    0.24284   0.24678   0.25015   0.25456   0.25964
 Alpha virt. eigenvalues --    0.26047   0.26382   0.27189   0.27774   0.28261
 Alpha virt. eigenvalues --    0.28874   0.29780   0.30460   0.30810   0.31839
 Alpha virt. eigenvalues --    0.32949   0.34238   0.37124   0.38473   0.40881
 Alpha virt. eigenvalues --    0.41431   0.42923   0.43691   0.43810   0.44961
 Alpha virt. eigenvalues --    0.46571   0.48211   0.48867   0.49803   0.50066
 Alpha virt. eigenvalues --    0.51510   0.53357   0.54502   0.56115   0.56404
 Alpha virt. eigenvalues --    0.57221   0.57897   0.58458   0.59014   0.59389
 Alpha virt. eigenvalues --    0.61083   0.61482   0.61681   0.62081   0.62715
 Alpha virt. eigenvalues --    0.63507   0.64472   0.64762   0.65447   0.67189
 Alpha virt. eigenvalues --    0.67688   0.68135   0.68850   0.69061   0.70607
 Alpha virt. eigenvalues --    0.71498   0.72080   0.72707   0.73037   0.74153
 Alpha virt. eigenvalues --    0.74912   0.76420   0.76652   0.78374   0.79594
 Alpha virt. eigenvalues --    0.80436   0.83029   0.83655   0.85721   0.85974
 Alpha virt. eigenvalues --    0.87008   0.87409   0.87477   0.88850   0.89506
 Alpha virt. eigenvalues --    0.89853   0.90317   0.90333   0.90696   0.91134
 Alpha virt. eigenvalues --    0.91879   0.92107   0.92641   0.93008   0.93677
 Alpha virt. eigenvalues --    0.94150   0.94467   0.94552   0.94983   0.95411
 Alpha virt. eigenvalues --    0.95525   0.96504   0.96970   0.97055   0.97847
 Alpha virt. eigenvalues --    0.98344   0.98487   0.98888   0.99518   1.00102
 Alpha virt. eigenvalues --    1.00703   1.01103   1.01656   1.02288   1.02970
 Alpha virt. eigenvalues --    1.03210   1.04589   1.04853   1.05517   1.06105
 Alpha virt. eigenvalues --    1.06647   1.07487   1.08782   1.09684   1.10239
 Alpha virt. eigenvalues --    1.10739   1.13203   1.14214   1.14554   1.17494
 Alpha virt. eigenvalues --    1.19697   1.21010   1.21547   1.22420   1.23433
 Alpha virt. eigenvalues --    1.23895   1.25090   1.29317   1.31093   1.33303
 Alpha virt. eigenvalues --    1.34430   1.36448   1.39227   1.40676   1.47245
 Alpha virt. eigenvalues --    1.48719   1.49149   1.51448   1.54768   1.55901
 Alpha virt. eigenvalues --    1.56552   1.58029   1.58744   1.59517   1.60035
 Alpha virt. eigenvalues --    1.60509   1.61144   1.61947   1.64153   1.64965
[...]
    10  H    0.000000   0.000000   0.000000   0.000000   0.000000   0.000000
    11  H    0.000000   0.000000   0.000000   0.000000   0.000000   0.000000
    12  C   -0.000000   0.000000   0.000000   0.000000   0.000000   0.000000
    13  H    0.000000   0.000000   0.000000   0.000000   0.000000   0.000000
    14  H    0.000000   0.000000   0.000000   0.000000   0.000000   0.000000
    15  O   -0.000000   0.000000   0.000000   0.000000   0.000000   0.000000
    16  C   -0.000000   0.000000   0.000000   0.000000   0.000000   0.000000
    17  H   -0.000000   0.000000   0.000000   0.000000   0.000000   0.000000
    18  H   -0.000000   0.000000   0.000000  -0.000000   0.000000  -0.000000
    19  C    0.000000   0.000000   0.000000  -0.000000   0.000000  -0.000000
    20  H   -0.000000  -0.000000  -0.000000   0.000000   0.000000  -0.000000
    21  H    0.000000  -0.000000   0.000000  -0.000000   0.000000   0.000000
    22  O    0.000000  -0.000000   0.000000  -0.000000   0.000000  -0.000000
    23  C    0.000000   0.000000   0.000000  -0.000000  -0.000000  -0.000000
    24  H   -0.000000  -0.000000  -0.000000   0.000000  -0.000000  -0.000000
    25  H    0.000000   0.000000   0.000000  -0.000000  -0.000000   0.000000
    26  C   -0.000000  -0.000000  -0.000000   0.000000   0.000000  -0.000000
    27  H    0.000000  -0.000000   0.000000  -0.000000  -0.000000   0.000000
    28  H    0.000000   0.000000   0.000000  -0.000000  -0.000000   0.000000
    29  S   -0.000000  -0.000000  -0.000000   0.000000   0.000000   0.000000
    30  C   -0.000008  -0.000000  -0.000000   0.000000  -0.000000  -0.000000
    31  H   -0.000001  -0.000000   0.000000   0.000000   0.000000   0.000000
    32  H    0.000014   0.000000   0.000000  -0.000000  -0.000000  -0.000000
    33  C   -0.000131   0.000001  -0.000000   0.000003   0.000000  -0.000000
    34  H    0.000003   0.000000   0.000000  -0.000000  -0.000000   0.000000
    35  H   -0.000016  -0.000002   0.000000   0.000002   0.000000   0.000000
    36  S    0.005882   0.000135   0.000001  -0.000338  -0.000010  -0.000021
    37  C   -0.053743  -0.004553   0.000063   0.002871  -0.000100   0.000109
    38  H   -0.006792   0.001175  -0.000088   0.004916   0.000080   0.000025
    39  H    0.002584  -0.000261  -0.000012   0.000023   0.000013  -0.000001
    40  C    0.255681  -0.020124   0.002716  -0.005910  -0.005219   0.001064
    41  H   -0.036996  -0.006799   0.000039  -0.000683   0.004147   0.004988
    42  H   -0.037648   0.002575  -0.000057  -0.000015   0.000052  -0.000078
    43  S   15.649900   0.265215  -0.039428  -0.041615  -0.056822  -0.005917
    44  C    0.265215   5.184544   0.379901   0.369274   0.346270  -0.037524
    45  H   -0.039428   0.379901   0.542630  -0.028143  -0.035866   0.004375
    46  H   -0.041615   0.369274  -0.028143   0.575374  -0.044758  -0.003263
    47  C   -0.056822   0.346270  -0.035866  -0.044758   5.092005   0.386794
    48  H   -0.005917  -0.037524   0.004375  -0.003263   0.386794   0.552734
    49  H    0.002624  -0.037381  -0.003487   0.004628   0.385498  -0.028284
    50  H    0.005362  -0.027700  -0.003022  -0.001525   0.366977  -0.029991
              49         50
     1  C    0.000000   0.000000
     2  H    0.000000   0.000000
     3  H    0.000000   0.000000
     4  H    0.000000   0.000000
     5  C    0.000000   0.000000
     6  H    0.000000   0.000000
     7  H    0.000000   0.000000
     8  O    0.000000   0.000000
     9  C    0.000000   0.000000
    10  H    0.000000   0.000000
    11  H    0.000000   0.000000
    12  C    0.000000   0.000000
    13  H    0.000000   0.000000
    14  H    0.000000   0.000000
    15  O    0.000000   0.000000
    16  C    0.000000   0.000000
    17  H    0.000000   0.000000
    18  H    0.000000   0.000000
    19  C    0.000000   0.000000
    20  H    0.000000  -0.000000
    21  H    0.000000   0.000000
    22  O    0.000000   0.000000
    23  C   -0.000000  -0.000000
    24  H    0.000000   0.000000
    25  H   -0.000000  -0.000000
    26  C    0.000000  -0.000000
    27  H   -0.000000  -0.000000
    28  H   -0.000000  -0.000000
    29  S    0.000000  -0.000000
    30  C    0.000000   0.000000
    31  H   -0.000000   0.000000
    32  H   -0.000000   0.000000
    33  C    0.000000   0.000000
    34  H   -0.000000  -0.000000
    35  H   -0.000000   0.000000
    36  S   -0.000000  -0.000001
    37  C    0.000017  -0.000004
    38  H    0.000001  -0.000002
    39  H    0.000000  -0.000000
    40  C   -0.000297   0.000133
    41  H    0.000032  -0.000291
    42  H   -0.000014   0.000001
    43  S    0.002624   0.005362
    44  C   -0.037381  -0.027700
    45  H   -0.003487  -0.003022
    46  H    0.004628  -0.001525
    47  C    0.385498   0.366977
    48  H   -0.028284  -0.029991
    49  H    0.537724  -0.028030
    50  H   -0.028030   0.566046
 Mulliken charges:
               1
     1  C   -0.452701
     2  H    0.162075
     3  H    0.159614
     4  H    0.142059
     5  C   -0.015179
     6  H    0.121294
     7  H    0.117365
     8  O   -0.460238
     9  C   -0.036489
    10  H    0.160213
    11  H    0.118611
    12  C   -0.026193
    13  H    0.124565
    14  H    0.120910
    15  O   -0.471755
    16  C   -0.023902
    17  H    0.130317
    18  H    0.122118
    19  C   -0.044642
    20  H    0.140222
    21  H    0.160616
    22  O   -0.482765
    23  C   -0.010887
    24  H    0.139930
    25  H    0.130414
    26  C   -0.440534
    27  H    0.182248
    28  H    0.190268
    29  S    0.088490
    30  C   -0.422349
    31  H    0.189420
    32  H    0.184783
    33  C   -0.414830
    34  H    0.184014
    35  H    0.184365
    36  S    0.086130
    37  C   -0.398299
    38  H    0.169888
    39  H    0.185438
    40  C   -0.440326
    41  H    0.189365
    42  H    0.194768
    43  S    0.091852
    44  C   -0.414745
    45  H    0.180376
    46  H    0.169160
    47  C   -0.439061
    48  H    0.154992
    49  H    0.166970
    50  H    0.152047
 Sum of Mulliken charges =  -0.00000
 Mulliken charges with hydrogens summed into heavy atoms:
               1
     1  C    0.011047
     5  C    0.223479
     8  O   -0.460238
     9  C    0.242336
    12  C    0.219282
    15  O   -0.471755
    16  C    0.228533
    19  C    0.256196
    22  O   -0.482765
    23  C    0.259456
    26  C   -0.068018
    29  S    0.088490
    30  C   -0.048146
    33  C   -0.046452
    36  S    0.086130
    37  C   -0.042973
    40  C   -0.056193
    43  S    0.091852
    44  C   -0.065210
    47  C    0.034948
 Electronic spatial extent (au):  <R**2>=          23598.9351
 Charge=             -0.0000 electrons
 Dipole moment (field-independent basis, Debye):
    X=             -0.6328    Y=             -1.3624    Z=              1.9606  Tot=              2.4699
 Quadrupole moment (field-independent basis, Debye-Ang):
   XX=           -123.3777   YY=           -153.2010   ZZ=           -153.4624
   XY=             -4.7515   XZ=             -7.2117   YZ=              2.4075
 Traceless Quadrupole moment (field-independent basis, Debye-Ang):
   XX=             19.9693   YY=             -9.8539   ZZ=            -10.1154
   XY=             -4.7515   XZ=             -7.2117   YZ=              2.4075
 Octapole moment (field-independent basis, Debye-Ang**2):
  XXX=            -82.1283  YYY=             -9.0811  ZZZ=            -13.5576  XYY=            -64.5770
  XXY=           -100.6238  XXZ=            117.3357  XZZ=            -24.3003  YZZ=              5.8801
  YYZ=              0.0800  XYZ=            -20.8177
 Hexadecapole moment (field-independent basis, Debye-Ang**3):
 XXXX=         -25331.9586 YYYY=          -2617.5027 ZZZZ=           -871.8304 XXXY=           -304.7185
 XXXZ=           -158.1091 YYYX=           -169.0537 YYYZ=              3.9930 ZZZX=             64.7008
 ZZZY=             21.1991 XXYY=          -5324.0678 XXZZ=          -4798.5652 YYZZ=           -581.9328
 XXYZ=            134.3328 YYXZ=            -56.8005 ZZXY=             24.9713
 N-N= 1.844489817357D+03 E-N=-8.333811389882D+03  KE= 1.960361870739D+03
 There are a total of     1162010 grid points.
 ElSum from          density=      185.9999937100
 ElSum from atomic densities=      186.0000080247
 Hirshfeld populations at iteration   1 (CA, CB, DipXYZ):
               1          2          3          4          5
     1  C    3.044669   3.044669  -0.001721  -0.004221   0.007672
     2  H    0.481195   0.481195   0.137258   0.017175  -0.041685
     3  H    0.481779   0.481779  -0.086176   0.058372  -0.098950
     4  H    0.482629   0.482629  -0.017807   0.070168   0.119027
     5  C    2.986791   2.986791   0.011990  -0.013124  -0.046227
     6  H    0.488368   0.488368   0.072553  -0.033003   0.093420
     7  H    0.488353   0.488353  -0.115224  -0.000949   0.042889
     8  O    4.087800   4.087800  -0.047329  -0.066868   0.120117
     9  C    2.987235   2.987235   0.013545   0.048666   0.002417
    10  H    0.478116   0.478116  -0.021687  -0.040551  -0.136999
    11  H    0.485511   0.485511  -0.109482  -0.026710   0.050640
    12  C    2.989655   2.989655   0.038189  -0.003623  -0.034076
    13  H    0.486941   0.486941   0.016549   0.029533   0.116517
    14  H    0.485691   0.485691  -0.057595  -0.110901   0.007017
    15  O    4.085534   4.085534  -0.009244  -0.072414   0.116330
    16  C    2.990269   2.990269  -0.040623   0.032575  -0.025568
    17  H    0.486169   0.486169  -0.028515  -0.123804   0.008522
    18  H    0.487590   0.487590   0.033535   0.038298   0.110391
    19  C    2.986456   2.986456   0.042561  -0.035253   0.016603
    20  H    0.482965   0.482965   0.028300   0.125567  -0.021655
    21  H    0.478548   0.478548  -0.039856  -0.050143  -0.129222
    22  O    4.089629   4.089629  -0.029881   0.136658   0.053731
    23  C    2.989960   2.989960  -0.045756  -0.032447  -0.049481
    24  H    0.487199   0.487199  -0.063443   0.023269   0.105007
    25  H    0.486747   0.486747   0.040992   0.108116  -0.047811
    26  C    3.025832   3.025832  -0.010228   0.005877  -0.001516
    27  H    0.479730   0.479730   0.054728  -0.041068  -0.126993
    28  H    0.476594   0.476594  -0.059507  -0.130164   0.057889
    29  S    8.023453   8.023453  -0.024826   0.036560  -0.222825
    30  C    3.027265   3.027265   0.002691  -0.012560   0.003553
    31  H    0.481883   0.481883  -0.083786   0.080206  -0.078269
    32  H    0.478940   0.478940   0.068143   0.094545   0.091345
    33  C    3.027166   3.027166  -0.000995   0.013650  -0.003398
    34  H    0.478889   0.478889  -0.066392  -0.096719  -0.090148
    35  H    0.481817   0.481817   0.091253  -0.078327   0.080153
    36  S    8.027559   8.027559   0.002937  -0.016277   0.223311
    37  C    3.028141   3.028141  -0.004023  -0.004679  -0.007632
    38  H    0.482938   0.482938   0.057229  -0.096951   0.083621
    39  H    0.483308   0.483308  -0.075440   0.087116   0.082990
    40  C    3.026150   3.026150  -0.003993  -0.000900   0.011227
    41  H    0.481723   0.481723   0.070224  -0.077147  -0.091872
    42  H    0.477491   0.477491  -0.063880   0.107044  -0.086537
    43  S    8.025559   8.025559  -0.002325  -0.224435  -0.052215
    44  C    3.023706   3.023706   0.018126  -0.012915  -0.010653
    45  H    0.478295   0.478295   0.084219   0.052792   0.114637
    46  H    0.483134   0.483134  -0.063927  -0.110579   0.058802
    47  C    3.045652   3.045652   0.006605  -0.013318   0.012992
    48  H    0.483694   0.483694  -0.058258  -0.064636  -0.107663
    49  H    0.482881   0.482881   0.095059   0.094055  -0.049327
    50  H    0.482401   0.482401   0.081028  -0.098703   0.058502
       Tot  92.999997  92.999997  -0.164205  -0.433144   0.288598

 Dip from Atomic Chgs             -0.084754  -0.103017   0.482766
         Total Dipole             -0.248958  -0.536161   0.771364

 Hirshfeld charges, spin densities, dipoles, and CM5 charges using IRadAn=      5:
              Q-H        S-H        Dx         Dy         Dz        Q-CM5   
     1  C   -0.089339   0.000000  -0.001721  -0.004221   0.007672  -0.236197
     2  H    0.037611   0.000000   0.137258   0.017175  -0.041685   0.091227
     3  H    0.036442   0.000000  -0.086176   0.058372  -0.098950   0.090054
     4  H    0.034742   0.000000  -0.017807   0.070168   0.119027   0.085935
     5  C    0.026418   0.000000   0.011990  -0.013124  -0.046227  -0.056605
     6  H    0.023264   0.000000   0.072553  -0.033003   0.093420   0.085480
     7  H    0.023294   0.000000  -0.115224  -0.000949   0.042889   0.085084
     8  O   -0.175600   0.000000  -0.047329  -0.066868   0.120117  -0.277151
     9  C    0.025529   0.000000   0.013545   0.048666   0.002417  -0.052649
    10  H    0.043768   0.000000  -0.021687  -0.040551  -0.136999   0.110735
    11  H    0.028979   0.000000  -0.109482  -0.026710   0.050640   0.091382
    12  C    0.020690   0.000000   0.038189  -0.003623  -0.034076  -0.057850
    13  H    0.026118   0.000000   0.016549   0.029533   0.116517   0.090609
    14  H    0.028617   0.000000  -0.057595  -0.110901   0.007017   0.090630
    15  O   -0.171067   0.000000  -0.009244  -0.072414   0.116330  -0.273243
    16  C    0.019462   0.000000  -0.040623   0.032575  -0.025568  -0.058878
    17  H    0.027663   0.000000  -0.028515  -0.123804   0.008522   0.091668
    18  H    0.024820   0.000000   0.033535   0.038298   0.110391   0.089079
    19  C    0.027088   0.000000   0.042561  -0.035253   0.016603  -0.051539
    20  H    0.034070   0.000000   0.028300   0.125567  -0.021655   0.099178
    21  H    0.042904   0.000000  -0.039856  -0.050143  -0.129222   0.109085
    22  O   -0.179258   0.000000  -0.029881   0.136658   0.053731  -0.281722
    23  C    0.020081   0.000000  -0.045756  -0.032447  -0.049481  -0.059507
    24  H    0.025601   0.000000  -0.063443   0.023269   0.105007   0.088749
    25  H    0.026506   0.000000   0.040992   0.108116  -0.047811   0.089785
    26  C   -0.051665   0.000000  -0.010228   0.005877  -0.001516  -0.141235
    27  H    0.040541   0.000000   0.054728  -0.041068  -0.126993   0.100016
    28  H    0.046812   0.000000  -0.059507  -0.130164   0.057889   0.105671
    29  S   -0.046905   0.000000  -0.024826   0.036560  -0.222825  -0.094333
    30  C   -0.054530   0.000000   0.002691  -0.012560   0.003553  -0.145719
    31  H    0.036234   0.000000  -0.083786   0.080206  -0.078269   0.093637
    32  H    0.042119   0.000000   0.068143   0.094545   0.091345   0.099634
    33  C   -0.054333   0.000000  -0.000995   0.013650  -0.003398  -0.145196
    34  H    0.042222   0.000000  -0.066392  -0.096719  -0.090148   0.099748
    35  H    0.036367   0.000000   0.091253  -0.078327   0.080153   0.093306
    36  S   -0.055118   0.000000   0.002937  -0.016277   0.223311  -0.102604
    37  C   -0.056281   0.000000  -0.004023  -0.004679  -0.007632  -0.147504
    38  H    0.034125   0.000000   0.057229  -0.096951   0.083621   0.091451
    39  H    0.033385   0.000000  -0.075440   0.087116   0.082990   0.090604
    40  C   -0.052301   0.000000  -0.003993  -0.000900   0.011227  -0.142743
    41  H    0.036554   0.000000   0.070224  -0.077147  -0.091872   0.094130
    42  H    0.045017   0.000000  -0.063880   0.107044  -0.086537   0.102395
    43  S   -0.051118   0.000000  -0.002325  -0.224435  -0.052215  -0.098826
    44  C   -0.047411   0.000000   0.018126  -0.012915  -0.010653  -0.142076
    45  H    0.043411   0.000000   0.084219   0.052792   0.114637   0.099598
    46  H    0.033731   0.000000  -0.063927  -0.110579   0.058802   0.089730
    47  C   -0.091304   0.000000   0.006605  -0.013318   0.012992  -0.239462
    48  H    0.032613   0.000000  -0.058258  -0.064636  -0.107663   0.084494
    49  H    0.034238   0.000000   0.095059   0.094055  -0.049327   0.086060
    50  H    0.035198   0.000000   0.081028  -0.098703   0.058502   0.085889
       Tot   0.000006   0.000000  -0.164205  -0.433144   0.288598   0.000006
 Hirshfeld charges with hydrogens summed into heavy atoms:
              Q-H       Q-CM5   
     1  C    0.019456   0.031019
     5  C    0.072976   0.113960
     8  O   -0.175600  -0.277151
     9  C    0.098276   0.149468
    12  C    0.075426   0.123389
    15  O   -0.171067  -0.273243
    16  C    0.071945   0.121870
    19  C    0.104063   0.156723
    22  O   -0.179258  -0.281722
    23  C    0.072188   0.119027
    26  C    0.035688   0.064452
    29  S   -0.046905  -0.094333
    30  C    0.023824   0.047553
    33  C    0.024256   0.047858
    36  S   -0.055118  -0.102604
    37  C    0.011228   0.034551
    40  C    0.029270   0.053782
    43  S   -0.051118  -0.098826
    44  C    0.029731   0.047252
    47  C    0.010746   0.016981
 
 EQQ= 0.000000000000E+00 EQD= 0.000000000000E+00 EDD=-0.632857920007E-02
 EQQ+QD+DD=-0.632857920007E-02
 
 No NMR shielding tensors so no spin-rotation constants.
 Leave Link  601 at Tue Jun 27 23:56:26 2023, MaxMem=   262144000 cpu:              15.1 elap:               1.9
 (Enter /dragofs/sw/campus/0.2/software/gaussian/16.gaussian/gaussian/g16_legacy/l9999.exe)
 1\1\GINC-DRAGO31030083\FOpt\RCAM-B3LYP\6-31G(d)\C14H30O3S3\JRAMOS\27-J
 un-2023\0\\#p opt cam-b3lyp/6-31G* pop=Hirshfeld\\Conformer number 001
 81. Energy MM = 159.254 kcal/mol\\0,1\C,-7.0121908686,3.0147532414,1.4
 032774572\H,-5.9634998936,3.2760300643,1.2389548865\H,-7.6313173297,3.
 712765583,0.8336453415\H,-7.2388886793,3.1323392626,2.4671059928\C,-7.
 2749321731,1.5920298213,0.9555230295\H,-6.6629160651,0.8917491593,1.54
 36345464\H,-8.33007538,1.3201555841,1.1232550379\O,-6.9695333845,1.504
 2004243,-0.4191666894\C,-7.262927169,0.2621683846,-1.009694508\H,-7.29
 34934582,0.4363827675,-2.089011578\H,-8.2548616354,-0.0966785927,-0.69
 05515767\C,-6.2352595974,-0.8185063817,-0.7273580542\H,-6.0942793613,-
 0.9549004885,0.3564966731\H,-6.6049868205,-1.7766825593,-1.1293048548\
 O,-5.0211321132,-0.4601955315,-1.3380116099\C,-3.9850330765,-1.3797591
 266,-1.1035424204\H,-4.2462383732,-2.3816382402,-1.4783687973\H,-3.786
 7719555,-1.4732132428,-0.0238409512\C,-2.754218039,-0.8687608408,-1.83
 85765271\H,-2.5115261451,0.1446336196,-1.4898953265\H,-2.9759977003,-0
 .8111607794,-2.9074216303\O,-1.651799622,-1.7378221479,-1.6923396576\C
 ,-0.9020882294,-1.5440167918,-0.5129293094\H,-1.4978880446,-1.74088731
 62,0.3887842232\H,-0.5521894939,-0.5019723792,-0.4530935464\C,0.274712
 9824,-2.5030680612,-0.5663933773\H,0.8365087744,-2.3520111113,-1.49190
 93099\H,-0.0917168611,-3.5324586884,-0.5795318513\S,1.3732562183,-2.36
 59199192,0.8776477518\C,2.3914568376,-0.9225337735,0.4172285849\H,1.75
 44123311,-0.1191991379,0.0388927078\H,2.825978348,-0.5703763559,1.3562
 520313\C,3.4868046344,-1.2579385397,-0.5890034797\H,3.051095218,-1.630
 3677105,-1.5200086775\H,4.1357405365,-2.0477766916,-0.2000843054\S,4.4
 981325622,0.1756816181,-1.0813015411\C,5.4716593038,0.4382985875,0.442
 728134\H,5.9286323845,-0.5128704473,0.732773854\H,4.8272204947,0.77016
 84123,1.2598662266\C,6.5421218955,1.4906112233,0.1794405735\H,7.181934
 0319,1.1942807039,-0.6560499612\H,6.0764559272,2.4405387707,-0.0972151
 916\S,7.5622724956,1.8648973807,1.6409418811\C,8.6626000328,0.41026715
 75,1.7090654792\H,9.1328822887,0.4753528273,2.6944164144\H,8.059206573
 ,-0.5024259496,1.711864989\C,9.7229638275,0.3644431782,0.616889938\H,9
 .2760046609,0.2990387988,-0.3793506289\H,10.3507010068,1.2586736225,0.
 645840749\H,10.3648081036,-0.5134193882,0.7479288585\\Version=EM64L-G1
 6RevA.03\State=1-A\HF=-1971.3181224\RMSD=5.348e-09\RMSF=1.502e-06\Dipo
 le=-0.2739932,-0.8137767,0.4549243\Quadrupole=15.7677783,-8.7469722,-7
 .0208061,-0.6734889,-4.5740838,1.0821399\PG=C01 [X(C14H30O3S3)]\\@


 COMMON SENSE IS NOT SO COMMON.   -- VOLTAIRE
 Job cpu time:       0 days  5 hours 17 minutes  0.9 seconds.
 Elapsed time:       0 days  0 hours 39 minutes 58.4 seconds.
 File lengths (MBytes):  RWF=     92 Int=      0 D2E=      0 Chk=     13 Scr=      1
 Normal termination of Gaussian 16 at Tue Jun 27 23:56:26 2023.
