 Entering Gaussian System, Link 0=/dragofs/sw/campus/0.2/software/gaussian/16.gaussian/gaussian/g16_legacy/g16
 Input=C10H24O2_pair_020_069.com
 Output=C10H24O2_pair_020_069.log
 Initial command:
 /dragofs/sw/campus/0.2/software/gaussian/16.gaussian/gaussian/g16_legacy/l1.exe "/tmp/jramos/51475/Gau-1917284.inp" -scrdir="/tmp/jramos/51475/"
 Entering Link 1 = /dragofs/sw/campus/0.2/software/gaussian/16.gaussian/gaussian/g16_legacy/l1.exe PID=   1917285.
  
 Copyright (c) 1988,1990,1992,1993,1995,1998,2003,2009,2016,
            Gaussian, Inc.  All Rights Reserved.
  
 This is part of the Gaussian(R) 16 program.  It is based on
 the Gaussian(R) 09 system (copyright 2009, Gaussian, Inc.),
 the Gaussian(R) 03 system (copyright 2003, Gaussian, Inc.),
 the Gaussian(R) 98 system (copyright 1998, Gaussian, Inc.),
 the Gaussian(R) 94 system (copyright 1995, Gaussian, Inc.),
 the Gaussian 92(TM) system (copyright 1992, Gaussian, Inc.),
 the Gaussian 90(TM) system (copyright 1990, Gaussian, Inc.),
 the Gaussian 88(TM) system (copyright 1988, Gaussian, Inc.),
 the Gaussian 86(TM) system (copyright 1986, Carnegie Mellon
 University), and the Gaussian 82(TM) system (copyright 1983,
 Carnegie Mellon University). Gaussian is a federally registered
 trademark of Gaussian, Inc.
  
 This software contains proprietary and confidential information,
 including trade secrets, belonging to Gaussian, Inc.
  
 This software is provided under written license and may be
 used, copied, transmitted, or stored only in accord with that
 written license.
  
 The following legend is applicable only to US Government
 contracts under FAR:
  
                    RESTRICTED RIGHTS LEGEND
  
 Use, reproduction and disclosure by the US Government is
 subject to restrictions as set forth in subparagraphs (a)
 and (c) of the Commercial Computer Software - Restricted
 Rights clause in FAR 52.227-19.
  
 Gaussian, Inc.
 340 Quinnipiac St., Bldg. 40, Wallingford CT 06492
  
  
 ---------------------------------------------------------------
 Warning -- This program may not be used in any manner that
 competes with the business of Gaussian, Inc. or will provide
 assistance to any competitor of Gaussian, Inc.  The licensee
 of this program is prohibited from giving any competitor of
 Gaussian, Inc. access to this program.  By using this program,
 the user acknowledges that Gaussian, Inc. is engaged in the
 business of creating and licensing software in the field of
 computational chemistry and represents and warrants to the
 licensee that it is not a competitor of Gaussian, Inc. and that
 it will not use this program in any manner prohibited above.
 ---------------------------------------------------------------
  

 Cite this work as:
 Gaussian 16, Revision A.03,
 M. J. Frisch, G. W. Trucks, H. B. Schlegel, G. E. Scuseria, 
 M. A. Robb, J. R. Cheeseman, G. Scalmani, V. Barone, 
 G. A. Petersson, H. Nakatsuji, X. Li, M. Caricato, A. V. Marenich, 
 J. Bloino, B. G. Janesko, R. Gomperts, B. Mennucci, H. P. Hratchian, 
 J. V. Ortiz, A. F. Izmaylov, J. L. Sonnenberg, D. Williams-Young, 
 F. Ding, F. Lipparini, F. Egidi, J. Goings, B. Peng, A. Petrone, 
 T. Henderson, D. Ranasinghe, V. G. Zakrzewski, J. Gao, N. Rega, 
 G. Zheng, W. Liang, M. Hada, M. Ehara, K. Toyota, R. Fukuda, 
 J. Hasegawa, M. Ishida, T. Nakajima, Y. Honda, O. Kitao, H. Nakai, 
 T. Vreven, K. Throssell, J. A. Montgomery, Jr., J. E. Peralta, 
 F. Ogliaro, M. J. Bearpark, J. J. Heyd, E. N. Brothers, K. N. Kudin, 
 V. N. Staroverov, T. A. Keith, R. Kobayashi, J. Normand, 
 K. Raghavachari, A. P. Rendell, J. C. Burant, S. S. Iyengar, 
 J. Tomasi, M. Cossi, J. M. Millam, M. Klene, C. Adamo, R. Cammi, 
 J. W. Ochterski, R. L. Martin, K. Morokuma, O. Farkas, 
 J. B. Foresman, and D. J. Fox, Gaussian, Inc., Wallingford CT, 2016.
 
 ******************************************
 Gaussian 16:  EM64L-G16RevA.03 25-Dec-2016
                13-Feb-2023 
 ******************************************
 %chk=C10H24O2_pair_020_069.chk
 %nproc=8
 Will use up to    8 processors via shared memory.
 %mem=1000Mb
 ----------------------------------------------------------------
 #p opt=tight blyp/6-311G** int=ultrafine EmpiricalDispersion=GD3
 ----------------------------------------------------------------
 1/7=10,18=20,19=15,26=4,38=1/1,3;
 2/9=110,12=2,17=6,18=5,40=1/2;
 3/5=4,6=6,7=101,11=2,25=1,30=1,71=1,74=402,75=-5,124=31/1,2,3;
 4//1;
 5/5=2,38=5/2;
 6/7=2,8=2,9=2,10=2,28=1/1;
 7//1,2,3,16;
 1/7=10,18=20,19=15,26=4/3(2);
 2/9=110/2;
 99//99;
 2/9=110/2;
 3/5=4,6=6,7=101,11=2,25=1,30=1,71=1,74=402,75=-5,124=31/1,2,3;
 4/5=5,16=3,69=1/1;
 5/5=2,38=5/2;
 7//1,2,3,16;
 1/7=10,18=20,19=15,26=4/3(-5);
 2/9=110/2;
 6/7=2,8=2,9=2,10=2,19=2,28=1/1;
 99/9=1/99;
 Leave Link    1 at Mon Feb 13 14:50:43 2023, MaxMem=   131072000 cpu:               1.0 elap:               0.3
 (Enter /dragofs/sw/campus/0.2/software/gaussian/16.gaussian/gaussian/g16_legacy/l101.exe)
 ------------------------------------------------
 Conformer number 224. Energy MM = 0.000 kcal/mol
 ------------------------------------------------
 Symbolic Z-matrix:
 Charge =  0 Multiplicity = 1
 H                     11.789    7.128     5.321 
 C                     12.124    6.718     6.278 
 C                     13.435    7.395     6.756 
 H                     11.323    6.891     6.983 
 H                     12.286    5.651     6.158 
 H                     13.236    8.498     6.689 
 H                     14.21     7.094     6.061 
 C                     13.892    6.881     8.074 
 C                     15.094    7.537     8.537 
 H                     13.068    7.163     8.822 
 H                     14.83     8.594     8.621 
 H                     15.944    7.645     7.791 
 O                     14.086    5.482     8. 
 H                     14.274    5.141     8.895 
 C                     15.869    6.947     9.811 
 H                     16.43     7.784     10.377 
 H                     16.581    6.213     9.366 
 H                     15.228    6.451     10.539 
 H                     10.073    9.97      5.305 
 C                     10.383    9.736     4.298 
 C                     11.211    10.861    3.64 
 H                     10.823    8.783     4.269 
 H                     9.5       9.634     3.775 
 H                     10.763    11.819    3.73 
 H                     11.172    10.675    2.514 
 C                     12.556    10.874    4.081 
 C                     13.278    9.687     3.481 
 H                     13.104    11.749    3.748 
 H                     13.233    9.836     2.358 
 H                     12.815    8.739     3.768 
 O                     12.579    10.801    5.498 
 H                     13.209    11.46     5.762 
 C                     14.746    9.677     4.103 
 H                     15.412    8.881     3.799 
 H                     14.556    9.452     5.141 
 H                     15.153    10.634    4.029 
 
 Add virtual bond connecting atoms H22        and H1         Dist= 4.13D+00.
 Add virtual bond connecting atoms H35        and H6         Dist= 4.25D+00.
 ITRead=  0  0  0  0  0  0  0  0  0  0  0  0  0  0  0  0  0  0  0  0
 ITRead=  0  0  0  0  0  0  0  0  0  0  0  0  0  0  0  0
 MicOpt= -1 -1 -1 -1 -1 -1 -1 -1 -1 -1 -1 -1 -1 -1 -1 -1 -1 -1 -1 -1
 MicOpt= -1 -1 -1 -1 -1 -1 -1 -1 -1 -1 -1 -1 -1 -1 -1 -1
 NAtoms=     36 NQM=       36 NQMF=       0 NMMI=      0 NMMIF=      0
                NMic=       0 NMicF=      0.
                    Isotopes and Nuclear Properties:
 (Nuclear quadrupole moments (NQMom) in fm**2, nuclear magnetic moments (NMagM)
  in nuclear magnetons)

  Atom         1           2           3           4           5           6           7           8           9          10
 IAtWgt=           1          12          12           1           1           1           1          12          12           1
 AtmWgt=   1.0078250  12.0000000  12.0000000   1.0078250   1.0078250   1.0078250   1.0078250  12.0000000  12.0000000   1.0078250
 NucSpn=           1           0           0           1           1           1           1           0           0           1
 AtZEff=  -0.0000000  -0.0000000  -0.0000000  -0.0000000  -0.0000000  -0.0000000  -0.0000000  -0.0000000  -0.0000000  -0.0000000
 NQMom=    0.0000000   0.0000000   0.0000000   0.0000000   0.0000000   0.0000000   0.0000000   0.0000000   0.0000000   0.0000000
 NMagM=    2.7928460   0.0000000   0.0000000   2.7928460   2.7928460   2.7928460   2.7928460   0.0000000   0.0000000   2.7928460
 AtZNuc=   1.0000000   6.0000000   6.0000000   1.0000000   1.0000000   1.0000000   1.0000000   6.0000000   6.0000000   1.0000000

  Atom        11          12          13          14          15          16          17          18          19          20
 IAtWgt=           1           1          16           1          12           1           1           1           1          12
 AtmWgt=   1.0078250   1.0078250  15.9949146   1.0078250  12.0000000   1.0078250   1.0078250   1.0078250   1.0078250  12.0000000
 NucSpn=           1           1           0           1           0           1           1           1           1           0
 AtZEff=  -0.0000000  -0.0000000  -0.0000000  -0.0000000  -0.0000000  -0.0000000  -0.0000000  -0.0000000  -0.0000000  -0.0000000
 NQMom=    0.0000000   0.0000000   0.0000000   0.0000000   0.0000000   0.0000000   0.0000000   0.0000000   0.0000000   0.0000000
 NMagM=    2.7928460   2.7928460   0.0000000   2.7928460   0.0000000   2.7928460   2.7928460   2.7928460   2.7928460   0.0000000
 AtZNuc=   1.0000000   1.0000000   8.0000000   1.0000000   6.0000000   1.0000000   1.0000000   1.0000000   1.0000000   6.0000000

  Atom        21          22          23          24          25          26          27          28          29          30
 IAtWgt=          12           1           1           1           1          12          12           1           1           1
 AtmWgt=  12.0000000   1.0078250   1.0078250   1.0078250   1.0078250  12.0000000  12.0000000   1.0078250   1.0078250   1.0078250
 NucSpn=           0           1           1           1           1           0           0           1           1           1
 AtZEff=  -0.0000000  -0.0000000  -0.0000000  -0.0000000  -0.0000000  -0.0000000  -0.0000000  -0.0000000  -0.0000000  -0.0000000
 NQMom=    0.0000000   0.0000000   0.0000000   0.0000000   0.0000000   0.0000000   0.0000000   0.0000000   0.0000000   0.0000000
 NMagM=    0.0000000   2.7928460   2.7928460   2.7928460   2.7928460   0.0000000   0.0000000   2.7928460   2.7928460   2.7928460
 AtZNuc=   6.0000000   1.0000000   1.0000000   1.0000000   1.0000000   6.0000000   6.0000000   1.0000000   1.0000000   1.0000000

  Atom        31          32          33          34          35          36
 IAtWgt=          16           1          12           1           1           1
 AtmWgt=  15.9949146   1.0078250  12.0000000   1.0078250   1.0078250   1.0078250
 NucSpn=           0           1           0           1           1           1
 AtZEff=  -0.0000000  -0.0000000  -0.0000000  -0.0000000  -0.0000000  -0.0000000
 NQMom=    0.0000000   0.0000000   0.0000000   0.0000000   0.0000000   0.0000000
 NMagM=    0.0000000   2.7928460   0.0000000   2.7928460   2.7928460   2.7928460
 AtZNuc=   8.0000000   1.0000000   6.0000000   1.0000000   1.0000000   1.0000000
 Leave Link  101 at Mon Feb 13 14:50:44 2023, MaxMem=   131072000 cpu:               1.8 elap:               0.5
 (Enter /dragofs/sw/campus/0.2/software/gaussian/16.gaussian/gaussian/g16_legacy/l103.exe)

 GradGradGradGradGradGradGradGradGradGradGradGradGradGradGradGradGradGrad
 Berny optimization.
 Initialization pass.
                           ----------------------------
                           !    Initial Parameters    !
                           ! (Angstroms and Degrees)  !
 --------------------------                            --------------------------
 ! Name  Definition              Value          Derivative Info.                !
 --------------------------------------------------------------------------------
 ! R1    R(1,2)                  1.0937         estimate D2E/DX2                !
 ! R2    R(1,22)                 2.1861         estimate D2E/DX2                !
 ! R3    R(2,3)                  1.551          estimate D2E/DX2                !
 ! R4    R(2,4)                  1.081          estimate D2E/DX2                !
 ! R5    R(2,5)                  1.0859         estimate D2E/DX2                !
 ! R6    R(3,6)                  1.1228         estimate D2E/DX2                !
 ! R7    R(3,7)                  1.0836         estimate D2E/DX2                !
 ! R8    R(3,8)                  1.4867         estimate D2E/DX2                !
 ! R9    R(6,35)                 2.247          estimate D2E/DX2                !
 ! R10   R(8,9)                  1.4455         estimate D2E/DX2                !
 ! R11   R(8,10)                 1.148          estimate D2E/DX2                !
 ! R12   R(8,13)                 1.4143         estimate D2E/DX2                !
 ! R13   R(9,11)                 1.0927         estimate D2E/DX2                !
 ! R14   R(9,12)                 1.1361         estimate D2E/DX2                !
 ! R15   R(9,15)                 1.6037         estimate D2E/DX2                !
 ! R16   R(13,14)                0.976          estimate D2E/DX2                !
 ! R17   R(15,16)                1.1557         estimate D2E/DX2                !
 ! R18   R(15,17)                1.1152         estimate D2E/DX2                !
 ! R19   R(15,18)                1.0894         estimate D2E/DX2                !
 ! R20   R(19,20)                1.0793         estimate D2E/DX2                !
 ! R21   R(20,21)                1.5441         estimate D2E/DX2                !
 ! R22   R(20,22)                1.0501         estimate D2E/DX2                !
 ! R23   R(20,23)                1.0313         estimate D2E/DX2                !
 ! R24   R(21,24)                1.0614         estimate D2E/DX2                !
 ! R25   R(21,25)                1.1419         estimate D2E/DX2                !
 ! R26   R(21,26)                1.4155         estimate D2E/DX2                !
 ! R27   R(26,27)                1.5134         estimate D2E/DX2                !
 ! R28   R(26,28)                1.0848         estimate D2E/DX2                !
 ! R29   R(26,31)                1.4191         estimate D2E/DX2                !
 ! R30   R(27,29)                1.1337         estimate D2E/DX2                !
 ! R31   R(27,30)                1.0934         estimate D2E/DX2                !
 ! R32   R(27,33)                1.5944         estimate D2E/DX2                !
 ! R33   R(31,32)                0.9491         estimate D2E/DX2                !
 ! R34   R(33,34)                1.0815         estimate D2E/DX2                !
 ! R35   R(33,35)                1.079          estimate D2E/DX2                !
 ! R36   R(33,36)                1.0426         estimate D2E/DX2                !
 ! A1    A(2,1,22)             147.1654         estimate D2E/DX2                !
 ! A2    A(1,2,3)              111.4044         estimate D2E/DX2                !
 ! A3    A(1,2,4)              106.4815         estimate D2E/DX2                !
 ! A4    A(1,2,5)              108.5031         estimate D2E/DX2                !
 ! A5    A(3,2,4)              110.8229         estimate D2E/DX2                !
 ! A6    A(3,2,5)              109.6859         estimate D2E/DX2                !
 ! A7    A(4,2,5)              109.8691         estimate D2E/DX2                !
 ! A8    A(2,3,6)              105.1055         estimate D2E/DX2                !
 ! A9    A(2,3,7)              106.5959         estimate D2E/DX2                !
 ! A10   A(2,3,8)              112.4669         estimate D2E/DX2                !
 ! A11   A(6,3,7)              111.1834         estimate D2E/DX2                !
 ! A12   A(6,3,8)              116.553          estimate D2E/DX2                !
 ! A13   A(7,3,8)              104.6382         estimate D2E/DX2                !
 ! A14   A(3,6,35)             110.7368         estimate D2E/DX2                !
 ! A15   A(3,8,9)              112.4994         estimate D2E/DX2                !
 ! A16   A(3,8,10)             105.7872         estimate D2E/DX2                !
 ! A17   A(3,8,13)             109.7413         estimate D2E/DX2                !
 ! A18   A(9,8,10)             106.0614         estimate D2E/DX2                !
 ! A19   A(9,8,13)             110.5852         estimate D2E/DX2                !
 ! A20   A(10,8,13)            112.0562         estimate D2E/DX2                !
 ! A21   A(8,9,11)             105.231          estimate D2E/DX2                !
 ! A22   A(8,9,12)             117.0626         estimate D2E/DX2                !
 ! A23   A(8,9,15)             119.2975         estimate D2E/DX2                !
 ! A24   A(11,9,12)             98.0065         estimate D2E/DX2                !
 ! A25   A(11,9,15)            114.3035         estimate D2E/DX2                !
 ! A26   A(12,9,15)            101.248          estimate D2E/DX2                !
 ! A27   A(8,13,14)            108.9068         estimate D2E/DX2                !
 ! A28   A(9,15,16)            110.9284         estimate D2E/DX2                !
 ! A29   A(9,15,17)            103.5139         estimate D2E/DX2                !
 ! A30   A(9,15,18)            114.4574         estimate D2E/DX2                !
 ! A31   A(16,15,17)           111.2339         estimate D2E/DX2                !
 ! A32   A(16,15,18)           106.7427         estimate D2E/DX2                !
 ! A33   A(17,15,18)           110.0373         estimate D2E/DX2                !
 ! A34   A(19,20,21)           113.182          estimate D2E/DX2                !
 ! A35   A(19,20,22)           110.0525         estimate D2E/DX2                !
 ! A36   A(19,20,23)           104.3989         estimate D2E/DX2                !
 ! A37   A(21,20,22)           115.1363         estimate D2E/DX2                !
 ! A38   A(21,20,23)           108.3654         estimate D2E/DX2                !
 ! A39   A(22,20,23)           104.7732         estimate D2E/DX2                !
 ! A40   A(20,21,24)           113.2746         estimate D2E/DX2                !
 ! A41   A(20,21,25)           106.452          estimate D2E/DX2                !
 ! A42   A(20,21,26)           112.548          estimate D2E/DX2                !
 ! A43   A(24,21,25)           102.4866         estimate D2E/DX2                !
 ! A44   A(24,21,26)           111.4908         estimate D2E/DX2                !
 ! A45   A(25,21,26)           109.947          estimate D2E/DX2                !
 ! A46   A(1,22,20)            149.1992         estimate D2E/DX2                !
 ! A47   A(21,26,27)           108.82           estimate D2E/DX2                !
 ! A48   A(21,26,28)           113.0644         estimate D2E/DX2                !
 ! A49   A(21,26,31)           109.0275         estimate D2E/DX2                !
 ! A50   A(27,26,28)           105.6609         estimate D2E/DX2                !
 ! A51   A(27,26,31)           110.3535         estimate D2E/DX2                !
 ! A52   A(28,26,31)           109.8662         estimate D2E/DX2                !
 ! A53   A(26,27,29)           105.7057         estimate D2E/DX2                !
 ! A54   A(26,27,30)           111.9607         estimate D2E/DX2                !
 ! A55   A(26,27,33)           106.8292         estimate D2E/DX2                !
 ! A56   A(29,27,30)           110.9253         estimate D2E/DX2                !
 ! A57   A(29,27,33)           115.0747         estimate D2E/DX2                !
 ! A58   A(30,27,33)           106.3831         estimate D2E/DX2                !
 ! A59   A(26,31,32)           104.6422         estimate D2E/DX2                !
 ! A60   A(27,33,34)           117.5143         estimate D2E/DX2                !
 ! A61   A(27,33,35)           102.3851         estimate D2E/DX2                !
 ! A62   A(27,33,36)           109.0255         estimate D2E/DX2                !
 ! A63   A(34,33,35)           103.0253         estimate D2E/DX2                !
 ! A64   A(34,33,36)           114.5356         estimate D2E/DX2                !
 ! A65   A(35,33,36)           109.1742         estimate D2E/DX2                !
 ! A66   A(6,35,33)            148.7332         estimate D2E/DX2                !
 ! D1    D(22,1,2,3)           -76.8002         estimate D2E/DX2                !
 ! D2    D(22,1,2,4)            44.1403         estimate D2E/DX2                !
 ! D3    D(22,1,2,5)           162.3545         estimate D2E/DX2                !
 ! D4    D(2,1,22,20)            2.7511         estimate D2E/DX2                !
 ! D5    D(1,2,3,6)             50.655          estimate D2E/DX2                !
 ! D6    D(1,2,3,7)            -67.4444         estimate D2E/DX2                !
 ! D7    D(1,2,3,8)            178.4382         estimate D2E/DX2                !
 ! D8    D(4,2,3,6)            -67.7106         estimate D2E/DX2                !
 ! D9    D(4,2,3,7)            174.1899         estimate D2E/DX2                !
 ! D10   D(4,2,3,8)             60.0726         estimate D2E/DX2                !
 ! D11   D(5,2,3,6)            170.8051         estimate D2E/DX2                !
 ! D12   D(5,2,3,7)             52.7057         estimate D2E/DX2                !
 ! D13   D(5,2,3,8)            -61.4116         estimate D2E/DX2                !
 ! D14   D(2,3,6,35)          -114.7002         estimate D2E/DX2                !
 ! D15   D(7,3,6,35)             0.2536         estimate D2E/DX2                !
 ! D16   D(8,3,6,35)           120.0326         estimate D2E/DX2                !
 ! D17   D(2,3,8,9)           -178.4375         estimate D2E/DX2                !
 ! D18   D(2,3,8,10)           -63.0774         estimate D2E/DX2                !
 ! D19   D(2,3,8,13)            57.9913         estimate D2E/DX2                !
 ! D20   D(6,3,8,9)            -56.977          estimate D2E/DX2                !
 ! D21   D(6,3,8,10)            58.3832         estimate D2E/DX2                !
 ! D22   D(6,3,8,13)           179.4518         estimate D2E/DX2                !
 ! D23   D(7,3,8,9)             66.256          estimate D2E/DX2                !
 ! D24   D(7,3,8,10)          -178.3839         estimate D2E/DX2                !
 ! D25   D(7,3,8,13)           -57.3153         estimate D2E/DX2                !
 ! D26   D(3,6,35,33)           81.5176         estimate D2E/DX2                !
 ! D27   D(3,8,9,11)            60.3425         estimate D2E/DX2                !
 ! D28   D(3,8,9,12)           -47.1877         estimate D2E/DX2                !
 ! D29   D(3,8,9,15)          -169.7244         estimate D2E/DX2                !
 ! D30   D(10,8,9,11)          -54.852          estimate D2E/DX2                !
 ! D31   D(10,8,9,12)         -162.3822         estimate D2E/DX2                !
 ! D32   D(10,8,9,15)           75.0811         estimate D2E/DX2                !
 ! D33   D(13,8,9,11)         -176.5573         estimate D2E/DX2                !
 ! D34   D(13,8,9,12)           75.9124         estimate D2E/DX2                !
 ! D35   D(13,8,9,15)          -46.6243         estimate D2E/DX2                !
 ! D36   D(3,8,13,14)         -172.8362         estimate D2E/DX2                !
 ! D37   D(9,8,13,14)           62.4775         estimate D2E/DX2                !
 ! D38   D(10,8,13,14)         -55.6246         estimate D2E/DX2                !
 ! D39   D(8,9,15,16)         -151.2858         estimate D2E/DX2                !
 ! D40   D(8,9,15,17)           89.327          estimate D2E/DX2                !
 ! D41   D(8,9,15,18)          -30.4376         estimate D2E/DX2                !
 ! D42   D(11,9,15,16)         -25.5584         estimate D2E/DX2                !
 ! D43   D(11,9,15,17)        -144.9456         estimate D2E/DX2                !
 ! D44   D(11,9,15,18)          95.2898         estimate D2E/DX2                !
 ! D45   D(12,9,15,16)          78.6608         estimate D2E/DX2                !
 ! D46   D(12,9,15,17)         -40.7264         estimate D2E/DX2                !
 ! D47   D(12,9,15,18)        -160.491          estimate D2E/DX2                !
 ! D48   D(19,20,21,24)        -49.2183         estimate D2E/DX2                !
 ! D49   D(19,20,21,25)       -161.0842         estimate D2E/DX2                !
 ! D50   D(19,20,21,26)         78.4007         estimate D2E/DX2                !
 ! D51   D(22,20,21,24)       -177.021          estimate D2E/DX2                !
 ! D52   D(22,20,21,25)         71.1131         estimate D2E/DX2                !
 ! D53   D(22,20,21,26)        -49.4019         estimate D2E/DX2                !
 ! D54   D(23,20,21,24)         66.0714         estimate D2E/DX2                !
 ! D55   D(23,20,21,25)        -45.7945         estimate D2E/DX2                !
 ! D56   D(23,20,21,26)       -166.3095         estimate D2E/DX2                !
 ! D57   D(19,20,22,1)         -19.8437         estimate D2E/DX2                !
 ! D58   D(21,20,22,1)         109.5138         estimate D2E/DX2                !
 ! D59   D(23,20,22,1)        -131.5609         estimate D2E/DX2                !
 ! D60   D(20,21,26,27)         71.983          estimate D2E/DX2                !
 ! D61   D(20,21,26,28)       -170.9464         estimate D2E/DX2                !
 ! D62   D(20,21,26,31)        -48.4301         estimate D2E/DX2                !
 ! D63   D(24,21,26,27)       -159.4606         estimate D2E/DX2                !
 ! D64   D(24,21,26,28)        -42.39           estimate D2E/DX2                !
 ! D65   D(24,21,26,31)         80.1263         estimate D2E/DX2                !
 ! D66   D(25,21,26,27)        -46.5007         estimate D2E/DX2                !
 ! D67   D(25,21,26,28)         70.57           estimate D2E/DX2                !
 ! D68   D(25,21,26,31)       -166.9138         estimate D2E/DX2                !
 ! D69   D(21,26,27,29)         61.6683         estimate D2E/DX2                !
 ! D70   D(21,26,27,30)        -59.2232         estimate D2E/DX2                !
 ! D71   D(21,26,27,33)       -175.3078         estimate D2E/DX2                !
 ! D72   D(28,26,27,29)        -60.0269         estimate D2E/DX2                !
 ! D73   D(28,26,27,30)        179.0816         estimate D2E/DX2                !
 ! D74   D(28,26,27,33)         62.9969         estimate D2E/DX2                !
 ! D75   D(31,26,27,29)       -178.7405         estimate D2E/DX2                !
 ! D76   D(31,26,27,30)         60.3681         estimate D2E/DX2                !
 ! D77   D(31,26,27,33)        -55.7166         estimate D2E/DX2                !
 ! D78   D(21,26,31,32)       -134.519          estimate D2E/DX2                !
 ! D79   D(27,26,31,32)        106.0153         estimate D2E/DX2                !
 ! D80   D(28,26,31,32)        -10.1001         estimate D2E/DX2                !
 ! D81   D(26,27,33,34)        179.0858         estimate D2E/DX2                !
 ! D82   D(26,27,33,35)         67.0886         estimate D2E/DX2                !
 ! D83   D(26,27,33,36)        -48.469          estimate D2E/DX2                !
 ! D84   D(29,27,33,34)        -63.929          estimate D2E/DX2                !
 ! D85   D(29,27,33,35)       -175.9261         estimate D2E/DX2                !
 ! D86   D(29,27,33,36)         68.5162         estimate D2E/DX2                !
 ! D87   D(30,27,33,34)         59.3392         estimate D2E/DX2                !
 ! D88   D(30,27,33,35)        -52.6579         estimate D2E/DX2                !
 ! D89   D(30,27,33,36)       -168.2156         estimate D2E/DX2                !
 ! D90   D(27,33,35,6)          26.723          estimate D2E/DX2                !
 ! D91   D(34,33,35,6)         -95.7069         estimate D2E/DX2                !
 ! D92   D(36,33,35,6)         142.1727         estimate D2E/DX2                !
 --------------------------------------------------------------------------------
 Trust Radius=3.00D-01 FncErr=1.00D-07 GrdErr=1.00D-06 EigMax=2.50D+02 EigMin=1.00D-04
 Number of steps in this run=    204 maximum allowed number of steps=    216.
 GradGradGradGradGradGradGradGradGradGradGradGradGradGradGradGradGradGrad

 Leave Link  103 at Mon Feb 13 14:50:44 2023, MaxMem=   131072000 cpu:               0.3 elap:               0.1
 (Enter /dragofs/sw/campus/0.2/software/gaussian/16.gaussian/gaussian/g16_legacy/l202.exe)
                          Input orientation:                          
 ---------------------------------------------------------------------
 Center     Atomic      Atomic             Coordinates (Angstroms)
 Number     Number       Type             X           Y           Z
 ---------------------------------------------------------------------
      1          1           0       11.789000    7.128000    5.321000
      2          6           0       12.124000    6.718000    6.278000
      3          6           0       13.435000    7.395000    6.756000
      4          1           0       11.323000    6.891000    6.983000
      5          1           0       12.286000    5.651000    6.158000
      6          1           0       13.236000    8.498000    6.689000
      7          1           0       14.210000    7.094000    6.061000
      8          6           0       13.892000    6.881000    8.074000
      9          6           0       15.094000    7.537000    8.537000
     10          1           0       13.068000    7.163000    8.822000
     11          1           0       14.830000    8.594000    8.621000
     12          1           0       15.944000    7.645000    7.791000
     13          8           0       14.086000    5.482000    8.000000
     14          1           0       14.274000    5.141000    8.895000
     15          6           0       15.869000    6.947000    9.811000
     16          1           0       16.430000    7.784000   10.377000
     17          1           0       16.581000    6.213000    9.366000
     18          1           0       15.228000    6.451000   10.539000
     19          1           0       10.073000    9.970000    5.305000
     20          6           0       10.383000    9.736000    4.298000
     21          6           0       11.211000   10.861000    3.640000
     22          1           0       10.823000    8.783000    4.269000
     23          1           0        9.500000    9.634000    3.775000
     24          1           0       10.763000   11.819000    3.730000
     25          1           0       11.172000   10.675000    2.514000
     26          6           0       12.556000   10.874000    4.081000
     27          6           0       13.278000    9.687000    3.481000
     28          1           0       13.104000   11.749000    3.748000
     29          1           0       13.233000    9.836000    2.358000
     30          1           0       12.815000    8.739000    3.768000
     31          8           0       12.579000   10.801000    5.498000
     32          1           0       13.209000   11.460000    5.762000
     33          6           0       14.746000    9.677000    4.103000
     34          1           0       15.412000    8.881000    3.799000
     35          1           0       14.556000    9.452000    5.141000
     36          1           0       15.153000   10.634000    4.029000
 ---------------------------------------------------------------------
                    Distance matrix (angstroms):
                    1          2          3          4          5
     1  H    0.000000
     2  C    1.093697   0.000000
     3  C    2.199961   1.550978   0.000000
     4  H    1.742288   1.080997   2.183137   0.000000
     5  H    1.768928   1.085879   2.172404   1.773582   0.000000
     6  H    2.417050   2.138660   1.122809   2.515642   3.047929
     7  H    2.531797   2.130695   1.083629   3.037443   2.406955
     8  C    3.473129   2.525472   1.486664   2.791083   2.786251
     9  C    4.629575   3.820307   2.438115   4.129488   4.135396
    10  H    3.727475   2.749745   2.111130   2.549692   3.161418
    11  H    4.720894   4.041220   2.619514   4.228747   4.604297
    12  H    4.861298   4.211995   2.725584   4.751318   4.474784
    13  O    3.893914   2.888325   2.372953   3.264007   2.580993
    14  H    4.785067   3.736056   3.218658   3.927677   3.421025
    15  C    6.069535   5.153596   3.931677   5.354142   5.278439
    16  H    6.894371   6.039850   4.715187   6.196623   6.286683
    17  H    6.337390   5.445697   4.255178   5.812481   5.390189
    18  H    6.285903   5.278468   4.291512   5.299789   5.337464
    19  H    3.319921   3.965959   4.476502   3.722691   4.927346
    20  C    3.134490   4.007469   4.564729   4.023288   4.875268
    21  C    4.134626   4.995704   5.164183   5.191252   5.885580
    22  H    2.186066   3.161156   3.864487   3.345962   3.939304
    23  H    3.729567   4.653326   5.420674   4.597678   5.413388
    24  H    5.058600   5.862152   5.988993   5.931340   6.801392
    25  H    4.565211   5.543631   5.820149   5.857766   6.305578
    26  C    4.019752   4.720781   4.475680   5.079979   5.627305
    27  C    3.485857   4.239090   4.000442   4.889135   4.943651
    28  H    5.055412   5.715965   5.302352   6.102241   6.607785
    29  H    4.265884   5.130127   5.034053   5.806182   5.731582
    30  H    2.461667   3.295758   3.334498   3.997173   3.940518
    31  O    3.761164   4.181664   3.730434   4.367020   5.200380
    32  H    4.580077   4.891835   4.190864   5.091522   5.895187
    33  C    4.089593   4.512338   3.736931   5.270021   5.146193
    34  H    4.302978   4.651339   3.854942   5.551385   5.076382
    35  H    3.617964   3.831729   2.845367   4.517076   4.542553
    36  H    5.027703   5.437637   4.569373   6.115968   6.130466
                    6          7          8          9         10
     6  H    0.000000
     7  H    1.820515   0.000000
     8  C    2.227835   2.049064   0.000000
     9  C    2.791198   2.666136   1.445513   0.000000
    10  H    2.521931   2.988653   1.148044   2.079850   0.000000
    11  H    2.506527   3.031171   2.028157   1.092704   2.278773
    12  H    3.045534   2.510629   2.207824   1.136081   3.093002
    13  O    3.396686   2.524607   1.414324   2.351055   2.130204
    14  H    4.148895   3.442363   1.961521   2.557612   2.355472
    15  C    4.368658   4.103217   2.632500   1.603684   2.978318
    16  H    4.930799   4.902281   3.544102   2.287248   3.755890
    17  H    4.855572   4.161830   3.057157   2.156707   3.679620
    18  H    4.793827   4.637053   2.836551   2.281525   2.849672
    19  H    3.753240   5.094868   5.638621   6.447926   5.405420
    20  C    3.922899   4.973355   5.892562   6.708073   5.856290
    21  C    4.356695   5.389391   6.533645   7.078649   6.631499
    22  H    3.429314   4.187571   5.245416   6.165207   5.328624
    23  H    4.872329   5.819063   6.734246   7.639823   6.656476
    24  H    5.089249   6.296110   7.283188   7.758887   7.274601
    25  H    5.141016   5.885084   7.259920   7.842554   7.464571
    26  C    3.592971   4.576518   5.802844   6.118247   6.042412
    27  C    3.421513   3.774741   5.417221   5.786492   5.911088
    28  H    4.385876   5.314342   6.559927   6.680985   6.839457
    29  H    4.532970   4.710128   6.468304   6.850457   6.996817
    30  H    2.961007   3.147999   4.811832   5.420517   5.300066
    31  O    2.674685   4.088885   4.870949   5.120004   4.952085
    32  H    3.103788   4.489249   5.174850   5.161761   5.277091
    33  C    3.218313   3.285262   4.931103   4.935692   5.604002
    34  H    3.637824   3.123270   4.958430   4.935190   5.803136
    35  H    2.246958   2.554658   3.956441   3.935668   4.582949
    36  H    3.913181   4.189257   5.660137   5.469639   6.274386
                   11         12         13         14         15
    11  H    0.000000
    12  H    1.682408   0.000000
    13  O    3.259405   2.859093   0.000000
    14  H    3.508193   3.205890   0.976038   0.000000
    15  C    2.282155   2.138511   2.933434   2.577735   0.000000
    16  H    2.509908   2.634941   4.055079   3.718885   1.155702
    17  H    3.047981   2.221940   2.936893   2.587136   1.115224
    18  H    2.903373   3.080551   2.947821   2.308452   1.089441
    19  H    5.959722   6.786344   6.596161   7.338647   7.939533
    20  C    6.306211   6.891883   6.746372   7.575376   8.262438
    21  C    6.561007   7.069282   7.497257   8.349574   8.665887
    22  H    5.918756   6.318558   5.955177   6.824474   7.716656
    23  H    7.278339   7.849173   7.491403   8.318204   9.177005
    24  H    7.131830   7.794662   8.332635   9.143305   9.315910
    25  H    7.416669   7.733021   8.096594   8.998040   9.444893
    26  C    5.566065   5.972360   6.839088   7.680717   7.696116
    27  C    5.479320   5.463828   6.225452   7.139295   7.368160
    28  H    6.056338   6.422948   7.636695   8.457315   8.213671
    29  H    6.581652   6.455036   7.177541   8.115360   8.416771
    30  H    5.256697   5.212677   5.489382   6.431206   7.004001
    31  O    4.437452   5.151836   6.068180   6.815294   6.654276
    32  H    4.360674   5.113833   6.443156   7.132999   6.620964
    33  C    4.646748   4.377850   5.763700   6.615236   6.426141
    34  H    4.865468   4.212693   5.564160   6.422761   6.331931
    35  H    3.594668   3.494895   4.914843   5.723352   5.459661
    36  H    5.035116   4.869543   6.591694   7.390781   6.894791
                   16         17         18         19         20
    16  H    0.000000
    17  H    1.874290   0.000000
    18  H    1.802203   1.806428   0.000000
    19  H    8.421118   8.541711   8.145682   0.000000
    20  C    8.793791   8.747077   8.556596   1.079308   0.000000
    21  C    9.060522   9.122932   9.120339   2.204802   1.544077
    22  H    8.351294   8.107951   8.009691   1.744925   1.050071
    23  H    9.748528   9.648994   9.417705   1.667970   1.031321
    24  H    9.621784   9.850932   9.752647   2.524980   2.192239
    25  H    9.890966   9.803909   9.934482   3.081316   2.164924
    26  C    8.012215   8.115218   8.270930   2.912161   2.462532
    27  C    7.817374   7.590238   8.005596   3.698525   3.008474
    28  H    8.409943   8.619672   8.871181   3.843963   3.429068
    29  H    8.873324   8.570140   9.075627   4.323004   3.449072
    30  H    7.593361   7.204237   7.543471   3.375840   2.681330
    31  O    6.909206   7.212986   7.165988   2.647234   2.719677
    32  H    6.722056   7.203486   7.210144   3.501920   3.619634
    33  C    6.766268   6.562445   7.215365   4.834003   4.367754
    34  H    6.746096   6.283015   7.167033   5.653218   5.125511
    35  H    5.806014   5.695820   6.212567   4.515807   4.266759
    36  H    7.074626   7.075874   7.738425   5.279723   4.861241
                   21         22         23         24         25
    21  C    0.000000
    22  H    2.205509   0.000000
    23  H    2.109804   1.648807   0.000000
    24  H    1.061399   3.084059   2.524167   0.000000
    25  H    1.141925   2.604129   2.338672   1.718916   0.000000
    26  C    1.415512   2.722299   3.312155   2.056958   2.100130
    27  C    2.382445   2.732249   3.789793   3.306456   2.519220
    28  H    2.093718   3.777772   4.178848   2.342115   2.531572
    29  H    2.604349   3.250974   3.997997   3.451894   2.230690
    30  H    2.663097   2.054507   3.433700   3.701155   2.831971
    31  O    2.308070   2.943858   3.716296   2.731301   3.301482
    32  H    2.975515   3.884376   4.586843   3.200128   3.913451
    33  C    3.756654   4.026999   5.256420   4.537795   4.036632
    34  H    4.646943   4.614046   5.959809   5.499982   4.779881
    35  H    3.927761   3.891431   5.240440   4.688332   4.455145
    36  H    3.967646   4.715157   5.746384   4.556943   4.259726
                   26         27         28         29         30
    26  C    0.000000
    27  C    1.513358   0.000000
    28  H    1.084812   2.086482   0.000000
    29  H    2.122381   1.133735   2.368187   0.000000
    30  H    2.173310   1.093363   3.023908   1.834730   0.000000
    31  O    1.419066   2.407880   2.058356   3.349409   2.701933
    32  H    1.896198   2.889853   2.037337   3.771627   3.396338
    33  C    2.495875   1.594368   2.667466   2.315054   2.172747
    34  H    3.494039   2.303197   3.681696   2.781465   2.601064
    35  H    2.673141   2.108106   3.053680   3.105298   2.329073
    36  H    2.608584   2.170884   2.349593   2.667479   3.020826
                   31         32         33         34         35
    31  O    0.000000
    32  H    0.949145   0.000000
    33  C    2.811635   2.879885   0.000000
    34  H    3.820849   3.918905   1.081475   0.000000
    35  H    2.419872   2.496420   1.078967   1.691077   0.000000
    36  H    2.968388   2.732161   1.042580   1.786894   1.729184
                   36
    36  H    0.000000
 Stoichiometry    C10H24O2
 Framework group  C1[X(C10H24O2)]
 Deg. of freedom   102
 Full point group                 C1      NOp   1
 Largest Abelian subgroup         C1      NOp   1
 Largest concise Abelian subgroup C1      NOp   1
                         Standard orientation:                         
 ---------------------------------------------------------------------
 Center     Atomic      Atomic             Coordinates (Angstroms)
 Number     Number       Type             X           Y           Z
 ---------------------------------------------------------------------
      1          1           0       -0.328953    1.997654    0.814282
      2          6           0        0.721514    1.979788    0.510351
      3          6           0        1.212769    0.530716    0.256595
      4          1           0        0.790032    2.572202   -0.391262
      5          1           0        1.315669    2.434965    1.297070
      6          1           0        0.450414    0.079949   -0.433567
      7          1           0        1.214014    0.031446    1.218353
      8          6           0        2.628627    0.481549   -0.194070
      9          6           0        3.076294   -0.865847   -0.465410
     10          1           0        2.655527    1.033852   -1.200173
     11          1           0        2.420279   -1.231986   -1.258876
     12          1           0        2.837815   -1.656672    0.314592
     13          8           0        3.458996    1.096435    0.771702
     14          1           0        4.365304    1.160137    0.415055
     15          6           0        4.635989   -1.138214   -0.720299
     16          1           0        4.787888   -2.050693   -1.413087
     17          1           0        5.036434   -1.335858    0.301614
     18          1           0        5.170657   -0.305618   -1.176146
     19          1           0       -2.679499    1.840431   -1.524968
     20          6           0       -3.129447    1.679460   -0.557219
     21          6           0       -3.898200    0.343974   -0.458885
     22          1           0       -2.421492    1.843458    0.200774
     23          1           0       -3.805596    2.451744   -0.457108
     24          1           0       -4.569184    0.185883   -1.265951
     25          1           0       -4.604017    0.442048    0.433414
     26          6           0       -3.038150   -0.765105   -0.274673
     27          6           0       -2.483329   -0.724195    1.132719
     28          1           0       -3.549276   -1.718113   -0.360363
     29          1           0       -3.381684   -0.807440    1.819292
     30          1           0       -1.927748    0.197319    1.326584
     31          8           0       -1.984537   -0.696013   -1.222764
     32          1           0       -1.915624   -1.576872   -1.569484
     33          6           0       -1.431256   -1.916517    1.248985
     34          1           0       -0.914516   -2.036739    2.191383
     35          1           0       -0.646495   -1.598735    0.580155
     36          1           0       -1.864479   -2.789396    0.878345
 ---------------------------------------------------------------------
 Rotational constants (GHZ):           1.3386619           0.3187081           0.2922094
 Leave Link  202 at Mon Feb 13 14:50:44 2023, MaxMem=   131072000 cpu:               0.3 elap:               0.1
 (Enter /dragofs/sw/campus/0.2/software/gaussian/16.gaussian/gaussian/g16_legacy/l301.exe)
 Standard basis: 6-311G(d,p) (5D, 7F)
 Ernie: Thresh=  0.10000D-02 Tol=  0.10000D-05 Strict=F.
 There are   372 symmetry adapted cartesian basis functions of A   symmetry.
 There are   360 symmetry adapted basis functions of A   symmetry.
   360 basis functions,   576 primitive gaussians,   372 cartesian basis functions
    50 alpha electrons       50 beta electrons
       nuclear repulsion energy       769.8351012828 Hartrees.
 IExCor=  402 DFT=T Ex=B Corr=LYP ExCW=0 ScaHFX=  0.000000
 ScaDFX=  1.000000  1.000000  1.000000  1.000000 ScalE2=  1.000000  1.000000
 IRadAn=      5 IRanWt=     -1 IRanGd=            0 ICorTp=0 IEmpDi=131
 NAtoms=   36 NActive=   36 NUniq=   36 SFac= 1.00D+00 NAtFMM=   60 NAOKFM=F Big=F
 Integral buffers will be    131072 words long.
 Raffenetti 2 integral format.
 Two-electron integral symmetry is turned on.
 R6Disp:  Grimme-D3 Dispersion energy=       -0.0399834387 Hartrees.
 Nuclear repulsion after empirical dispersion term =      769.7951178441 Hartrees.
 Leave Link  301 at Mon Feb 13 14:50:44 2023, MaxMem=   131072000 cpu:               0.3 elap:               0.1
 (Enter /dragofs/sw/campus/0.2/software/gaussian/16.gaussian/gaussian/g16_legacy/l302.exe)
 NPDir=0 NMtPBC=     1 NCelOv=     1 NCel=       1 NClECP=     1 NCelD=      1
         NCelK=      1 NCelE2=     1 NClLst=     1 CellRange=     0.0.
 One-electron integrals computed using PRISM.
 One-electron integral symmetry used in STVInt
 NBasis=   360 RedAO= T EigKep=  1.14D-03  NBF=   360
 NBsUse=   360 1.00D-06 EigRej= -1.00D+00 NBFU=   360
 Precomputing XC quadrature grid using
 IXCGrd= 4 IRadAn=           5 IRanWt=          -1 IRanGd=           0 AccXCQ= 0.00D+00.
 Generated NRdTot=       0 NPtTot=           0 NUsed=           0 NTot=          32
 NSgBfM=   372   372   372   372   372 MxSgAt=    36 MxSgA2=    36.
 Leave Link  302 at Mon Feb 13 14:50:45 2023, MaxMem=   131072000 cpu:               4.5 elap:               0.7
 (Enter /dragofs/sw/campus/0.2/software/gaussian/16.gaussian/gaussian/g16_legacy/l303.exe)
 DipDrv:  MaxL=1.
 Leave Link  303 at Mon Feb 13 14:50:45 2023, MaxMem=   131072000 cpu:               0.7 elap:               0.1
 (Enter /dragofs/sw/campus/0.2/software/gaussian/16.gaussian/gaussian/g16_legacy/l401.exe)
 ExpMin= 1.03D-01 ExpMax= 8.59D+03 ExpMxC= 1.30D+03 IAcc=3 IRadAn=         5 AccDes= 0.00D+00
 Harris functional with IExCor=  402 and IRadAn=       5 diagonalized for initial guess.
 HarFok:  IExCor=  402 AccDes= 0.00D+00 IRadAn=         5 IDoV= 1 UseB2=F ITyADJ=14
 ICtDFT=  3500011 ScaDFX=  1.000000  1.000000  1.000000  1.000000
 FoFCou: FMM=F IPFlag=           0 FMFlag=      100000 FMFlg1=           0
         NFxFlg=           0 DoJE=T BraDBF=F KetDBF=T FulRan=T
         wScrn=  0.000000 ICntrl=       500 IOpCl=  0 I1Cent=   200000004 NGrid=           0
         NMat0=    1 NMatS0=      1 NMatT0=    0 NMatD0=    1 NMtDS0=    0 NMtDT0=    0
 Petite list used in FoFCou.
 Harris En= -546.283510823662    
 JPrj=0 DoOrth=F DoCkMO=F.
 Leave Link  401 at Mon Feb 13 14:50:49 2023, MaxMem=   131072000 cpu:              24.6 elap:               3.9
 (Enter /dragofs/sw/campus/0.2/software/gaussian/16.gaussian/gaussian/g16_legacy/l502.exe)
 Integral symmetry usage will be decided dynamically.
 Closed shell SCF:
 Using DIIS extrapolation, IDIIS=  1040.
 NGot=   131072000 LenX=   130788220 LenY=   130649395
 Requested convergence on RMS density matrix=1.00D-08 within 128 cycles.
 Requested convergence on MAX density matrix=1.00D-06.
 Requested convergence on             energy=1.00D-06.
 No special actions if energy rises.
 Fock matrices will be formed incrementally for  20 cycles.
 Integral accuracy reduced to 1.0D-05 until final iterations.

 Cycle   1  Pass 0  IDiag  1:
 FoFJK:  IHMeth= 1 ICntrl=     500 DoSepK=F KAlg= 0 I1Cent=           0 FoldK=F
 IRaf= 820000000 NMat=       1 IRICut=       1 DoRegI=T DoRafI=F ISym2E= 0 IDoP0=0 IntGTp=1.
 FoFCou: FMM=F IPFlag=           0 FMFlag=      100000 FMFlg1=           0
         NFxFlg=           0 DoJE=T BraDBF=F KetDBF=F FulRan=T
         wScrn=  0.000000 ICntrl=       500 IOpCl=  0 I1Cent=           0 NGrid=           0
         NMat0=    1 NMatS0=      1 NMatT0=    0 NMatD0=    1 NMtDS0=    0 NMtDT0=    0
 Symmetry not used in FoFCou.
 E= -545.253034440365    
 DIIS: error= 3.79D-02 at cycle   1 NSaved=   1.
 NSaved= 1 IEnMin= 1 EnMin= -545.253034440365     IErMin= 1 ErrMin= 3.79D-02
 ErrMax= 3.79D-02  0.00D+00 EMaxC= 1.00D-01 BMatC= 5.57D-01 BMatP= 5.57D-01
 IDIUse=3 WtCom= 6.21D-01 WtEn= 3.79D-01
 Coeff-Com:  0.100D+01
 Coeff-En:   0.100D+01
 Coeff:      0.100D+01
 Gap=     0.132 Goal=   None    Shift=    0.000
 GapD=    0.132 DampG=1.000 DampE=0.500 DampFc=0.5000 IDamp=-1.
 Damping current iteration by 5.00D-01
 RMSDP=5.49D-03 MaxDP=2.38D-01              OVMax= 2.31D-01

 Cycle   2  Pass 0  IDiag  1:
 RMSU=  2.73D-03    CP:  9.71D-01
 E= -545.363150072431     Delta-E=       -0.110115632066 Rises=F Damp=T
 DIIS: error= 1.42D-02 at cycle   2 NSaved=   2.
 NSaved= 2 IEnMin= 2 EnMin= -545.363150072431     IErMin= 2 ErrMin= 1.42D-02
 ErrMax= 1.42D-02  0.00D+00 EMaxC= 1.00D-01 BMatC= 8.46D-02 BMatP= 5.57D-01
 IDIUse=3 WtCom= 8.58D-01 WtEn= 1.42D-01
 Coeff-Com:  0.253D+00 0.747D+00
 Coeff-En:   0.406D+00 0.594D+00
 Coeff:      0.275D+00 0.725D+00
 Gap=     0.229 Goal=   None    Shift=    0.000
 RMSDP=1.52D-03 MaxDP=7.55D-02 DE=-1.10D-01 OVMax= 1.91D-01

 Cycle   3  Pass 0  IDiag  1:
 RMSU=  8.31D-04    CP:  9.77D-01  5.36D-01
 E= -545.787199111555     Delta-E=       -0.424049039124 Rises=F Damp=F
 DIIS: error= 7.81D-03 at cycle   3 NSaved=   3.
 NSaved= 3 IEnMin= 3 EnMin= -545.787199111555     IErMin= 3 ErrMin= 7.81D-03
 ErrMax= 7.81D-03  0.00D+00 EMaxC= 1.00D-01 BMatC= 1.97D-02 BMatP= 8.46D-02
 IDIUse=3 WtCom= 9.22D-01 WtEn= 7.81D-02
 Coeff-Com:  0.106D+00 0.364D+00 0.530D+00
 Coeff-En:   0.000D+00 0.000D+00 0.100D+01
 Coeff:      0.979D-01 0.336D+00 0.566D+00
 Gap=     0.213 Goal=   None    Shift=    0.000
 RMSDP=5.23D-04 MaxDP=1.58D-02 DE=-4.24D-01 OVMax= 2.96D-02

 Cycle   4  Pass 0  IDiag  1:
 RMSU=  3.56D-04    CP:  9.82D-01  6.11D-01  6.15D-01
 E= -545.798327976388     Delta-E=       -0.011128864832 Rises=F Damp=F
 DIIS: error= 3.92D-03 at cycle   4 NSaved=   4.
 NSaved= 4 IEnMin= 4 EnMin= -545.798327976388     IErMin= 4 ErrMin= 3.92D-03
 ErrMax= 3.92D-03  0.00D+00 EMaxC= 1.00D-01 BMatC= 6.61D-03 BMatP= 1.97D-02
 IDIUse=3 WtCom= 9.61D-01 WtEn= 3.92D-02
 Coeff-Com:  0.263D-01 0.110D+00 0.365D+00 0.499D+00
 Coeff-En:   0.000D+00 0.000D+00 0.261D+00 0.739D+00
 Coeff:      0.252D-01 0.106D+00 0.361D+00 0.509D+00
 Gap=     0.215 Goal=   None    Shift=    0.000
 RMSDP=2.09D-04 MaxDP=9.99D-03 DE=-1.11D-02 OVMax= 1.23D-02

 Cycle   5  Pass 0  IDiag  1:
 RMSU=  1.17D-04    CP:  9.79D-01  5.95D-01  7.14D-01  6.00D-01
 E= -545.803349816271     Delta-E=       -0.005021839883 Rises=F Damp=F
 DIIS: error= 7.82D-04 at cycle   5 NSaved=   5.
 NSaved= 5 IEnMin= 5 EnMin= -545.803349816271     IErMin= 5 ErrMin= 7.82D-04
 ErrMax= 7.82D-04  0.00D+00 EMaxC= 1.00D-01 BMatC= 2.50D-04 BMatP= 6.61D-03
 IDIUse=3 WtCom= 9.92D-01 WtEn= 7.82D-03
 Coeff-Com:  0.318D-02 0.204D-01 0.125D+00 0.245D+00 0.607D+00
 Coeff-En:   0.000D+00 0.000D+00 0.000D+00 0.000D+00 0.100D+01
 Coeff:      0.316D-02 0.202D-01 0.124D+00 0.243D+00 0.610D+00
 Gap=     0.215 Goal=   None    Shift=    0.000
 RMSDP=4.43D-05 MaxDP=1.51D-03 DE=-5.02D-03 OVMax= 2.25D-03

 Cycle   6  Pass 0  IDiag  1:
 RMSU=  2.20D-05    CP:  9.79D-01  5.94D-01  7.18D-01  6.26D-01  6.85D-01
 E= -545.803521230755     Delta-E=       -0.000171414484 Rises=F Damp=F
 DIIS: error= 2.71D-04 at cycle   6 NSaved=   6.
 NSaved= 6 IEnMin= 6 EnMin= -545.803521230755     IErMin= 6 ErrMin= 2.71D-04
 ErrMax= 2.71D-04  0.00D+00 EMaxC= 1.00D-01 BMatC= 3.46D-05 BMatP= 2.50D-04
 IDIUse=3 WtCom= 9.97D-01 WtEn= 2.71D-03
 Coeff-Com:  0.752D-03 0.571D-02 0.529D-01 0.116D+00 0.368D+00 0.457D+00
 Coeff-En:   0.000D+00 0.000D+00 0.000D+00 0.000D+00 0.608D-01 0.939D+00
 Coeff:      0.750D-03 0.569D-02 0.528D-01 0.115D+00 0.367D+00 0.458D+00
 Gap=     0.215 Goal=   None    Shift=    0.000
 RMSDP=1.24D-05 MaxDP=7.62D-04 DE=-1.71D-04 OVMax= 8.98D-04

 Cycle   7  Pass 0  IDiag  1:
 RMSU=  7.87D-06    CP:  9.79D-01  5.95D-01  7.18D-01  6.25D-01  7.18D-01
                    CP:  6.18D-01
 E= -545.803551219878     Delta-E=       -0.000029989124 Rises=F Damp=F
 DIIS: error= 4.04D-05 at cycle   7 NSaved=   7.
 NSaved= 7 IEnMin= 7 EnMin= -545.803551219878     IErMin= 7 ErrMin= 4.04D-05
 ErrMax= 4.04D-05  0.00D+00 EMaxC= 1.00D-01 BMatC= 9.88D-07 BMatP= 3.46D-05
 IDIUse=1 WtCom= 1.00D+00 WtEn= 0.00D+00
 Coeff-Com:  0.302D-03 0.990D-03 0.143D-01 0.328D-01 0.118D+00 0.209D+00
 Coeff-Com:  0.624D+00
 Coeff:      0.302D-03 0.990D-03 0.143D-01 0.328D-01 0.118D+00 0.209D+00
 Coeff:      0.624D+00
 Gap=     0.215 Goal=   None    Shift=    0.000
 RMSDP=3.32D-06 MaxDP=9.47D-05 DE=-3.00D-05 OVMax= 1.88D-04

 Initial convergence to 1.0D-05 achieved.  Increase integral accuracy.
 Cycle   8  Pass 1  IDiag  1:
 E= -545.803540066562     Delta-E=        0.000011153316 Rises=F Damp=F
 DIIS: error= 2.54D-05 at cycle   1 NSaved=   1.
 NSaved= 1 IEnMin= 1 EnMin= -545.803540066562     IErMin= 1 ErrMin= 2.54D-05
 ErrMax= 2.54D-05  0.00D+00 EMaxC= 1.00D-01 BMatC= 1.80D-07 BMatP= 1.80D-07
 IDIUse=1 WtCom= 1.00D+00 WtEn= 0.00D+00
 Coeff-Com:  0.100D+01
 Coeff:      0.100D+01
 Gap=     0.215 Goal=   None    Shift=    0.000
 RMSDP=3.32D-06 MaxDP=9.47D-05 DE= 1.12D-05 OVMax= 1.10D-04

 Cycle   9  Pass 1  IDiag  1:
 RMSU=  7.45D-06    CP:  1.00D+00
 E= -545.803540075541     Delta-E=       -0.000000008979 Rises=F Damp=F
 DIIS: error= 1.69D-05 at cycle   2 NSaved=   2.
 NSaved= 2 IEnMin= 2 EnMin= -545.803540075541     IErMin= 2 ErrMin= 1.69D-05
 ErrMax= 1.69D-05  0.00D+00 EMaxC= 1.00D-01 BMatC= 2.03D-07 BMatP= 1.80D-07
 IDIUse=1 WtCom= 1.00D+00 WtEn= 0.00D+00
 Coeff-Com:  0.518D+00 0.482D+00
 Coeff:      0.518D+00 0.482D+00
 Gap=     0.215 Goal=   None    Shift=    0.000
 RMSDP=1.35D-06 MaxDP=6.68D-05 DE=-8.98D-09 OVMax= 7.13D-05

 Cycle  10  Pass 1  IDiag  1:
 RMSU=  1.31D-06    CP:  1.00D+00  9.56D-01
 E= -545.803540248313     Delta-E=       -0.000000172771 Rises=F Damp=F
 DIIS: error= 7.12D-06 at cycle   3 NSaved=   3.
 NSaved= 3 IEnMin= 3 EnMin= -545.803540248313     IErMin= 3 ErrMin= 7.12D-06
 ErrMax= 7.12D-06  0.00D+00 EMaxC= 1.00D-01 BMatC= 2.29D-08 BMatP= 1.80D-07
 IDIUse=1 WtCom= 1.00D+00 WtEn= 0.00D+00
 Coeff-Com:  0.741D-01 0.255D+00 0.671D+00
 Coeff:      0.741D-01 0.255D+00 0.671D+00
 Gap=     0.215 Goal=   None    Shift=    0.000
 RMSDP=4.13D-07 MaxDP=1.86D-05 DE=-1.73D-07 OVMax= 2.93D-05

 Cycle  11  Pass 1  IDiag  1:
 RMSU=  2.97D-07    CP:  1.00D+00  9.65D-01  7.89D-01
 E= -545.803540263372     Delta-E=       -0.000000015059 Rises=F Damp=F
 DIIS: error= 4.18D-06 at cycle   4 NSaved=   4.
 NSaved= 4 IEnMin= 4 EnMin= -545.803540263372     IErMin= 4 ErrMin= 4.18D-06
 ErrMax= 4.18D-06  0.00D+00 EMaxC= 1.00D-01 BMatC= 4.74D-09 BMatP= 2.29D-08
 IDIUse=1 WtCom= 1.00D+00 WtEn= 0.00D+00
 Coeff-Com:  0.633D-02 0.127D+00 0.426D+00 0.441D+00
 Coeff:      0.633D-02 0.127D+00 0.426D+00 0.441D+00
 Gap=     0.215 Goal=   None    Shift=    0.000
 RMSDP=1.62D-07 MaxDP=8.02D-06 DE=-1.51D-08 OVMax= 1.09D-05

 Cycle  12  Pass 1  IDiag  1:
 RMSU=  6.22D-08    CP:  1.00D+00  9.64D-01  8.10D-01  5.09D-01
 E= -545.803540266857     Delta-E=       -0.000000003485 Rises=F Damp=F
 DIIS: error= 6.40D-07 at cycle   5 NSaved=   5.
 NSaved= 5 IEnMin= 5 EnMin= -545.803540266857     IErMin= 5 ErrMin= 6.40D-07
 ErrMax= 6.40D-07  0.00D+00 EMaxC= 1.00D-01 BMatC= 1.68D-10 BMatP= 4.74D-09
 IDIUse=1 WtCom= 1.00D+00 WtEn= 0.00D+00
 Coeff-Com:  0.175D-03 0.599D-01 0.208D+00 0.252D+00 0.480D+00
 Coeff:      0.175D-03 0.599D-01 0.208D+00 0.252D+00 0.480D+00
 Gap=     0.215 Goal=   None    Shift=    0.000
 RMSDP=4.10D-08 MaxDP=2.06D-06 DE=-3.49D-09 OVMax= 2.16D-06

 Cycle  13  Pass 1  IDiag  1:
 RMSU=  1.27D-08    CP:  1.00D+00  9.65D-01  7.95D-01  4.93D-01  4.74D-01
 E= -545.803540266991     Delta-E=       -0.000000000134 Rises=F Damp=F
 DIIS: error= 1.04D-07 at cycle   6 NSaved=   6.
 NSaved= 6 IEnMin= 6 EnMin= -545.803540266991     IErMin= 6 ErrMin= 1.04D-07
 ErrMax= 1.04D-07  0.00D+00 EMaxC= 1.00D-01 BMatC= 5.02D-12 BMatP= 1.68D-10
 IDIUse=1 WtCom= 1.00D+00 WtEn= 0.00D+00
 Coeff-Com: -0.127D-03 0.271D-01 0.941D-01 0.117D+00 0.254D+00 0.508D+00
 Coeff:     -0.127D-03 0.271D-01 0.941D-01 0.117D+00 0.254D+00 0.508D+00
 Gap=     0.215 Goal=   None    Shift=    0.000
 RMSDP=7.07D-09 MaxDP=2.78D-07 DE=-1.34D-10 OVMax= 3.39D-07

 SCF Done:  E(RB-LYP) =  -545.803540267     A.U. after   13 cycles
            NFock= 13  Conv=0.71D-08     -V/T= 2.0013
 KE= 5.450945560334D+02 PE=-2.812467501941D+03 EE= 9.517742877965D+02
 Leave Link  502 at Mon Feb 13 14:51:50 2023, MaxMem=   131072000 cpu:             407.3 elap:              61.5
 (Enter /dragofs/sw/campus/0.2/software/gaussian/16.gaussian/gaussian/g16_legacy/l601.exe)
 Copying SCF densities to generalized density rwf, IOpCl= 0 IROHF=0.

 **********************************************************************

            Population analysis using the SCF density.

 **********************************************************************

 Orbital symmetries:
       Occupied  (A) (A) (A) (A) (A) (A) (A) (A) (A) (A) (A) (A)
                 (A) (A) (A) (A) (A) (A) (A) (A) (A) (A) (A) (A)
                 (A) (A) (A) (A) (A) (A) (A) (A) (A) (A) (A) (A)
                 (A) (A) (A) (A) (A) (A) (A) (A) (A) (A) (A) (A)
                 (A) (A)
       Virtual   (A) (A) (A) (A) (A) (A) (A) (A) (A) (A) (A) (A)
                 (A) (A) (A) (A) (A) (A) (A) (A) (A) (A) (A) (A)
                 (A) (A) (A) (A) (A) (A) (A) (A) (A) (A) (A) (A)
                 (A) (A) (A) (A) (A) (A) (A) (A) (A) (A) (A) (A)
                 (A) (A) (A) (A) (A) (A) (A) (A) (A) (A) (A) (A)
                 (A) (A) (A) (A) (A) (A) (A) (A) (A) (A) (A) (A)
                 (A) (A) (A) (A) (A) (A) (A) (A) (A) (A) (A) (A)
                 (A) (A) (A) (A) (A) (A) (A) (A) (A) (A) (A) (A)
                 (A) (A) (A) (A) (A) (A) (A) (A) (A) (A) (A) (A)
                 (A) (A) (A) (A) (A) (A) (A) (A) (A) (A) (A) (A)
                 (A) (A) (A) (A) (A) (A) (A) (A) (A) (A) (A) (A)
                 (A) (A) (A) (A) (A) (A) (A) (A) (A) (A) (A) (A)
                 (A) (A) (A) (A) (A) (A) (A) (A) (A) (A) (A) (A)
                 (A) (A) (A) (A) (A) (A) (A) (A) (A) (A) (A) (A)
                 (A) (A) (A) (A) (A) (A) (A) (A) (A) (A) (A) (A)
                 (A) (A) (A) (A) (A) (A) (A) (A) (A) (A) (A) (A)
                 (A) (A) (A) (A) (A) (A) (A) (A) (A) (A) (A) (A)
                 (A) (A) (A) (A) (A) (A) (A) (A) (A) (A) (A) (A)
                 (A) (A) (A) (A) (A) (A) (A) (A) (A) (A) (A) (A)
                 (A) (A) (A) (A) (A) (A) (A) (A) (A) (A) (A) (A)
                 (A) (A) (A) (A) (A) (A) (A) (A) (A) (A) (A) (A)
                 (A) (A) (A) (A) (A) (A) (A) (A) (A) (A) (A) (A)
                 (A) (A) (A) (A) (A) (A) (A) (A) (A) (A) (A) (A)
                 (A) (A) (A) (A) (A) (A) (A) (A) (A) (A) (A) (A)
                 (A) (A) (A) (A) (A) (A) (A) (A) (A) (A) (A) (A)
                 (A) (A) (A) (A) (A) (A) (A) (A) (A) (A)
 The electronic state is 1-A.
 Alpha  occ. eigenvalues --  -18.75692 -18.74887  -9.94044  -9.93740  -9.90667
 Alpha  occ. eigenvalues --   -9.89465  -9.89428  -9.88807  -9.88555  -9.87840
 Alpha  occ. eigenvalues --   -9.87395  -9.87053  -0.93706  -0.92134  -0.72627
 Alpha  occ. eigenvalues --   -0.71190  -0.66749  -0.66562  -0.60953  -0.60318
 Alpha  occ. eigenvalues --   -0.54909  -0.53289  -0.50352  -0.50099  -0.47678
 Alpha  occ. eigenvalues --   -0.46123  -0.40616  -0.40306  -0.39450  -0.38163
 Alpha  occ. eigenvalues --   -0.37855  -0.37102  -0.36069  -0.35734  -0.34257
 Alpha  occ. eigenvalues --   -0.33605  -0.32794  -0.31666  -0.30826  -0.30192
 Alpha  occ. eigenvalues --   -0.29752  -0.29334  -0.28751  -0.28332  -0.28111
 Alpha  occ. eigenvalues --   -0.27491  -0.27310  -0.25200  -0.21908  -0.21216
 Alpha virt. eigenvalues --    0.00239   0.01084   0.03565   0.03742   0.04120
 Alpha virt. eigenvalues --    0.05417   0.06063   0.06861   0.07091   0.07717
 Alpha virt. eigenvalues --    0.08639   0.08892   0.09458   0.09904   0.10882
 Alpha virt. eigenvalues --    0.11778   0.12102   0.12803   0.12900   0.13340
 Alpha virt. eigenvalues --    0.14255   0.14814   0.15701   0.16662   0.16831
 Alpha virt. eigenvalues --    0.17694   0.19724   0.20601   0.20956   0.21822
 Alpha virt. eigenvalues --    0.22549   0.24109   0.24486   0.25505   0.26820
 Alpha virt. eigenvalues --    0.27518   0.28515   0.29309   0.30568   0.31103
 Alpha virt. eigenvalues --    0.32512   0.33348   0.34119   0.34511   0.35039
 Alpha virt. eigenvalues --    0.36945   0.38179   0.38686   0.39702   0.40219
 Alpha virt. eigenvalues --    0.42038   0.42840   0.43702   0.45312   0.46645
 Alpha virt. eigenvalues --    0.47301   0.49656   0.50702   0.50830   0.51263
 Alpha virt. eigenvalues --    0.52182   0.52541   0.52983   0.54091   0.54133
 Alpha virt. eigenvalues --    0.54701   0.55286   0.55444   0.56366   0.56672
 Alpha virt. eigenvalues --    0.57052   0.57505   0.57716   0.58739   0.58902
 Alpha virt. eigenvalues --    0.59750   0.60520   0.61121   0.61414   0.61940
 Alpha virt. eigenvalues --    0.62803   0.63541   0.64600   0.65409   0.66454
 Alpha virt. eigenvalues --    0.67757   0.68108   0.70230   0.72777   0.76808
 Alpha virt. eigenvalues --    0.81161   0.81908   0.82697   0.84680   0.85855
 Alpha virt. eigenvalues --    0.87111   0.89375   0.90667   0.91715   0.93231
 Alpha virt. eigenvalues --    0.93980   0.95222   0.97217   1.00329   1.01664
 Alpha virt. eigenvalues --    1.03813   1.06801   1.07480   1.09383   1.11536
 Alpha virt. eigenvalues --    1.15537   1.16442   1.19871   1.20760   1.22949
 Alpha virt. eigenvalues --    1.24089   1.25615   1.28798   1.29986   1.30195
 Alpha virt. eigenvalues --    1.31081   1.31874   1.33715   1.36833   1.37647
 Alpha virt. eigenvalues --    1.38986   1.39380   1.40752   1.41331   1.42286
 Alpha virt. eigenvalues --    1.42976   1.43046   1.43776   1.44448   1.45064
 Alpha virt. eigenvalues --    1.45717   1.46166   1.47340   1.47558   1.48369
 Alpha virt. eigenvalues --    1.49040   1.49510   1.51514   1.52671   1.53756
 Alpha virt. eigenvalues --    1.54020   1.55414   1.56200   1.57263   1.58498
 Alpha virt. eigenvalues --    1.59232   1.61466   1.62978   1.64122   1.64392
 Alpha virt. eigenvalues --    1.64524   1.65444   1.66290   1.67065   1.68078
 Alpha virt. eigenvalues --    1.68969   1.70247   1.71530   1.72658   1.73972
 Alpha virt. eigenvalues --    1.75222   1.76224   1.76672   1.77287   1.77738
 Alpha virt. eigenvalues --    1.79457   1.82384   1.84216   1.86564   1.86738
 Alpha virt. eigenvalues --    1.89738   1.90381   1.91107   1.92117   1.94703
 Alpha virt. eigenvalues --    1.95851   1.96464   1.99241   2.00009   2.01972
 Alpha virt. eigenvalues --    2.02248   2.03750   2.05041   2.05238   2.05980
 Alpha virt. eigenvalues --    2.08104   2.10071   2.11638   2.14107   2.14235
 Alpha virt. eigenvalues --    2.16001   2.18558   2.20911   2.21050   2.24037
 Alpha virt. eigenvalues --    2.25190   2.26005   2.27354   2.28727   2.29256
 Alpha virt. eigenvalues --    2.31530   2.32839   2.34247   2.34846   2.35651
 Alpha virt. eigenvalues --    2.36259   2.37046   2.38394   2.39721   2.41051
 Alpha virt. eigenvalues --    2.42018   2.42740   2.43884   2.44993   2.45732
 Alpha virt. eigenvalues --    2.46230   2.46918   2.47767   2.48239   2.49216
 Alpha virt. eigenvalues --    2.50977   2.51766   2.53122   2.55226   2.55842
 Alpha virt. eigenvalues --    2.56305   2.56635   2.58494   2.58685   2.59923
 Alpha virt. eigenvalues --    2.60411   2.62188   2.65408   2.65757   2.67567
 Alpha virt. eigenvalues --    2.68377   2.70613   2.72029   2.74086   2.74771
 Alpha virt. eigenvalues --    2.76888   2.78527   2.79740   2.80550   2.84175
 Alpha virt. eigenvalues --    2.86023   2.88311   2.89052   2.90553   2.94355
 Alpha virt. eigenvalues --    2.94679   2.96809   3.04064   3.07561   3.09339
 Alpha virt. eigenvalues --    3.12093   3.16224   3.20665   3.23363   3.25285
 Alpha virt. eigenvalues --    3.27029   3.39977   3.43714   3.53317   3.64255
 Alpha virt. eigenvalues --    3.65231   3.66795   3.69075   3.70552   3.71498
 Alpha virt. eigenvalues --    3.72942   3.74125   3.76214   3.79078   3.81597
 Alpha virt. eigenvalues --    3.84062   3.85055   3.85391   3.88941   3.95973
 Alpha virt. eigenvalues --    3.98118   4.00056   4.10508   4.12955   4.21733
 Alpha virt. eigenvalues --    4.28566   4.36480   4.81307   4.87492   5.17735
 Alpha virt. eigenvalues --    5.24460   5.53222   5.55414  23.44251  23.50031
 Alpha virt. eigenvalues --   23.52817  23.57507  23.59933  23.66743  23.68592
 Alpha virt. eigenvalues --   23.69228  23.71523  23.81363  49.46916  49.47450
          Condensed to atoms (all electrons):
               1          2          3          4          5          6
     1  H    0.608198   0.397659  -0.029202  -0.036096  -0.031025  -0.008365
     2  C    0.397659   4.871515   0.361633   0.397038   0.399640  -0.038832
     3  C   -0.029202   0.361633   5.017845  -0.035219  -0.037294   0.375136
     4  H   -0.036096   0.397038  -0.035219   0.609547  -0.029770  -0.006064
     5  H   -0.031025   0.399640  -0.037294  -0.029770   0.578980   0.009536
     6  H   -0.008365  -0.038832   0.375136  -0.006064   0.009536   0.580140
     7  H   -0.006225  -0.045817   0.390061   0.010093  -0.008345  -0.029775
     8  C    0.007914  -0.054240   0.372441  -0.006749  -0.010036  -0.022331
     9  C   -0.000417   0.011599  -0.063382   0.000056   0.001560  -0.003841
    10  H   -0.000526  -0.016729  -0.056407   0.007500   0.000112  -0.002872
    11  H   -0.000007  -0.000992  -0.001912   0.000054  -0.000202   0.001921
    12  H   -0.000053  -0.000101  -0.011930   0.000047   0.000090  -0.000703
    13  O   -0.000317  -0.003836  -0.053867  -0.000592   0.018898   0.003142
    14  H    0.000070   0.000348   0.009090  -0.000136  -0.000892  -0.000613
    15  C    0.000018  -0.000355   0.009329  -0.000015  -0.000059   0.000133
    16  H   -0.000001   0.000011  -0.000236  -0.000000  -0.000001  -0.000027
    17  H   -0.000002  -0.000014  -0.000791   0.000003  -0.000017   0.000017
    18  H    0.000001  -0.000011   0.000260   0.000001  -0.000022  -0.000030
    19  H   -0.000226   0.000196  -0.000019   0.000213  -0.000004   0.000166
    20  C   -0.002863  -0.001826  -0.000017   0.000312   0.000063   0.000976
    21  C    0.000014   0.000103   0.000047   0.000002  -0.000001  -0.000664
    22  H    0.004681  -0.000787  -0.000111   0.000030   0.000124  -0.000416
    23  H    0.000124   0.000093  -0.000004  -0.000025  -0.000010   0.000045
    24  H   -0.000014  -0.000007   0.000009   0.000001   0.000000  -0.000083
    25  H    0.000027  -0.000003   0.000005   0.000001   0.000000  -0.000028
    26  C    0.000300   0.000126   0.000187   0.000009  -0.000002  -0.002810
    27  C   -0.001260  -0.000857   0.000628   0.000064   0.000036  -0.000991
    28  H   -0.000010  -0.000009  -0.000098  -0.000001  -0.000000   0.000773
    29  H    0.000068   0.000026  -0.000058  -0.000003  -0.000003   0.000081
    30  H    0.001707  -0.000153   0.000333  -0.000113   0.000002   0.000995
    31  O    0.000341   0.000014  -0.006119  -0.000080  -0.000005   0.028388
    32  H   -0.000024  -0.000011   0.000620   0.000002   0.000001  -0.002583
    33  C    0.000277   0.000409  -0.001981  -0.000018  -0.000044  -0.004865
    34  H    0.000010  -0.000018   0.000123   0.000002   0.000006   0.000260
    35  H    0.000148  -0.000230  -0.001495   0.000034  -0.000035   0.001311
    36  H   -0.000020  -0.000016   0.000130   0.000002   0.000001   0.000163
               7          8          9         10         11         12
     1  H   -0.006225   0.007914  -0.000417  -0.000526  -0.000007  -0.000053
     2  C   -0.045817  -0.054240   0.011599  -0.016729  -0.000992  -0.000101
     3  C    0.390061   0.372441  -0.063382  -0.056407  -0.001912  -0.011930
     4  H    0.010093  -0.006749   0.000056   0.007500   0.000054   0.000047
     5  H   -0.008345  -0.010036   0.001560   0.000112  -0.000202   0.000090
     6  H   -0.029775  -0.022331  -0.003841  -0.002872   0.001921  -0.000703
     7  H    0.619657  -0.048961  -0.016794   0.017329   0.001085   0.009068
     8  C   -0.048961   4.835260   0.367225   0.376475  -0.031418  -0.034943
     9  C   -0.016794   0.367225   5.034560  -0.070852   0.368906   0.397621
    10  H    0.017329   0.376475  -0.070852   0.718313  -0.006594   0.013800
    11  H    0.001085  -0.031418   0.368906  -0.006594   0.644539  -0.053230
    12  H    0.009068  -0.034943   0.397621   0.013800  -0.053230   0.651823
    13  O    0.007600   0.269118  -0.066262  -0.035411   0.007709   0.001073
    14  H   -0.001055  -0.031423  -0.007844  -0.009553  -0.001071  -0.000845
    15  C   -0.000834  -0.039326   0.325508  -0.009199  -0.024238  -0.054963
    16  H   -0.000005   0.005027  -0.022830   0.000137  -0.008477   0.001892
    17  H    0.000456  -0.003960  -0.042889   0.000813   0.009483  -0.016138
    18  H    0.000040   0.000742  -0.044362   0.003775  -0.000570   0.008696
    19  H    0.000007  -0.000000   0.000000  -0.000002  -0.000002   0.000000
    20  C   -0.000021  -0.000009   0.000000  -0.000002  -0.000001   0.000000
    21  C    0.000009   0.000000  -0.000000   0.000000   0.000001  -0.000000
    22  H    0.000056   0.000027  -0.000000   0.000010   0.000001   0.000000
    23  H   -0.000002   0.000000  -0.000000  -0.000000  -0.000000  -0.000000
    24  H    0.000002  -0.000000   0.000000   0.000000   0.000000   0.000000
    25  H    0.000001  -0.000000   0.000000  -0.000000  -0.000000   0.000000
    26  C    0.000046  -0.000001  -0.000000   0.000002   0.000011  -0.000000
    27  C    0.000060   0.000019  -0.000007  -0.000001  -0.000005  -0.000004
    28  H   -0.000010   0.000002  -0.000000  -0.000000  -0.000004   0.000000
    29  H   -0.000065   0.000001   0.000000  -0.000000  -0.000000  -0.000000
    30  H    0.000208  -0.000010   0.000009  -0.000001  -0.000018   0.000009
    31  O   -0.000481   0.000102  -0.000013  -0.000010  -0.000090  -0.000017
    32  H    0.000030  -0.000033   0.000005   0.000001   0.000105   0.000000
    33  C    0.000053  -0.000036   0.000017  -0.000017   0.000003   0.000083
    34  H    0.000763  -0.000013   0.000013   0.000001  -0.000020   0.000059
    35  H   -0.001845  -0.000188   0.000632  -0.000057   0.000343   0.000450
    36  H    0.000098  -0.000004  -0.000004   0.000002   0.000003   0.000005
              13         14         15         16         17         18
     1  H   -0.000317   0.000070   0.000018  -0.000001  -0.000002   0.000001
     2  C   -0.003836   0.000348  -0.000355   0.000011  -0.000014  -0.000011
     3  C   -0.053867   0.009090   0.009329  -0.000236  -0.000791   0.000260
     4  H   -0.000592  -0.000136  -0.000015  -0.000000   0.000003   0.000001
     5  H    0.018898  -0.000892  -0.000059  -0.000001  -0.000017  -0.000022
     6  H    0.003142  -0.000613   0.000133  -0.000027   0.000017  -0.000030
     7  H    0.007600  -0.001055  -0.000834  -0.000005   0.000456   0.000040
     8  C    0.269118  -0.031423  -0.039326   0.005027  -0.003960   0.000742
     9  C   -0.066262  -0.007844   0.325508  -0.022830  -0.042889  -0.044362
    10  H   -0.035411  -0.009553  -0.009199   0.000137   0.000813   0.003775
    11  H    0.007709  -0.001071  -0.024238  -0.008477   0.009483  -0.000570
    12  H    0.001073  -0.000845  -0.054963   0.001892  -0.016138   0.008696
    13  O    7.907612   0.308438   0.001132   0.000493   0.008141  -0.000790
    14  H    0.308438   0.491619   0.010342  -0.000197  -0.001578   0.002347
    15  C    0.001132   0.010342   4.938217   0.381059   0.397183   0.395574
    16  H    0.000493  -0.000197   0.381059   0.594741  -0.023072  -0.030512
    17  H    0.008141  -0.001578   0.397183  -0.023072   0.590610  -0.035302
    18  H   -0.000790   0.002347   0.395574  -0.030512  -0.035302   0.606075
    19  H   -0.000000  -0.000000  -0.000000   0.000000  -0.000000   0.000000
    20  C   -0.000000  -0.000000  -0.000000   0.000000   0.000000   0.000000
    21  C    0.000000  -0.000000   0.000000  -0.000000   0.000000  -0.000000
    22  H    0.000001   0.000000   0.000000  -0.000000   0.000000  -0.000000
    23  H   -0.000000  -0.000000   0.000000  -0.000000  -0.000000   0.000000
    24  H    0.000000  -0.000000  -0.000000  -0.000000  -0.000000  -0.000000
    25  H    0.000000  -0.000000   0.000000   0.000000  -0.000000   0.000000
    26  C   -0.000000   0.000000   0.000000  -0.000000   0.000000   0.000000
    27  C    0.000000  -0.000000  -0.000000   0.000000   0.000000  -0.000000
    28  H   -0.000000   0.000000  -0.000000   0.000000  -0.000000   0.000000
    29  H   -0.000000   0.000000   0.000000   0.000000   0.000000  -0.000000
    30  H   -0.000002   0.000000  -0.000000   0.000000  -0.000000   0.000000
    31  O   -0.000000   0.000000  -0.000000   0.000000   0.000000   0.000000
    32  H    0.000000  -0.000000  -0.000000  -0.000000   0.000000   0.000000
    33  C   -0.000001   0.000001   0.000001   0.000000  -0.000000  -0.000000
    34  H   -0.000002   0.000000  -0.000000   0.000000  -0.000000   0.000000
    35  H   -0.000019   0.000002  -0.000000  -0.000000  -0.000003   0.000003
    36  H    0.000000  -0.000000   0.000000  -0.000000   0.000000  -0.000000
              19         20         21         22         23         24
     1  H   -0.000226  -0.002863   0.000014   0.004681   0.000124  -0.000014
     2  C    0.000196  -0.001826   0.000103  -0.000787   0.000093  -0.000007
     3  C   -0.000019  -0.000017   0.000047  -0.000111  -0.000004   0.000009
     4  H    0.000213   0.000312   0.000002   0.000030  -0.000025   0.000001
     5  H   -0.000004   0.000063  -0.000001   0.000124  -0.000010   0.000000
     6  H    0.000166   0.000976  -0.000664  -0.000416   0.000045  -0.000083
     7  H    0.000007  -0.000021   0.000009   0.000056  -0.000002   0.000002
     8  C   -0.000000  -0.000009   0.000000   0.000027   0.000000  -0.000000
     9  C    0.000000   0.000000  -0.000000  -0.000000  -0.000000   0.000000
    10  H   -0.000002  -0.000002   0.000000   0.000010  -0.000000   0.000000
    11  H   -0.000002  -0.000001   0.000001   0.000001  -0.000000   0.000000
    12  H    0.000000   0.000000  -0.000000   0.000000  -0.000000   0.000000
    13  O   -0.000000  -0.000000   0.000000   0.000001  -0.000000   0.000000
    14  H   -0.000000  -0.000000  -0.000000   0.000000  -0.000000  -0.000000
    15  C   -0.000000  -0.000000   0.000000   0.000000   0.000000  -0.000000
    16  H    0.000000   0.000000  -0.000000  -0.000000  -0.000000  -0.000000
    17  H   -0.000000   0.000000   0.000000   0.000000  -0.000000  -0.000000
    18  H    0.000000   0.000000  -0.000000  -0.000000   0.000000  -0.000000
    19  H    0.576213   0.402207  -0.031229  -0.030448  -0.036165  -0.007519
    20  C    0.402207   4.850721   0.354297   0.412084   0.401870  -0.031097
    21  C   -0.031229   0.354297   4.917301  -0.031466  -0.033998   0.396507
    22  H   -0.030448   0.412084  -0.031466   0.594605  -0.037119   0.008359
    23  H   -0.036165   0.401870  -0.033998  -0.037119   0.611168  -0.003667
    24  H   -0.007519  -0.031097   0.396507   0.008359  -0.003667   0.618139
    25  H    0.010052  -0.043311   0.406123  -0.005208  -0.011569  -0.043485
    26  C   -0.007949  -0.054772   0.398331  -0.004802   0.009510  -0.037470
    27  C    0.001852  -0.027709  -0.105950  -0.000197   0.000342   0.017173
    28  H    0.000362   0.012704  -0.043644  -0.000183  -0.000443  -0.015978
    29  H   -0.000260   0.000793  -0.004584   0.000908  -0.000161  -0.000529
    30  H    0.000985  -0.002046  -0.008049  -0.000275   0.000119  -0.000231
    31  O    0.012759  -0.005682  -0.062154  -0.002820   0.000475   0.002929
    32  H   -0.000293  -0.000963   0.009117   0.000037  -0.000032   0.001495
    33  C   -0.000058   0.000257   0.013025  -0.000519   0.000006  -0.001078
    34  H   -0.000006   0.000014  -0.000384   0.000039  -0.000001   0.000034
    35  H   -0.000230   0.000220   0.001349   0.000120   0.000003  -0.000128
    36  H    0.000007  -0.000051   0.000532  -0.000021   0.000004  -0.000057
              25         26         27         28         29         30
     1  H    0.000027   0.000300  -0.001260  -0.000010   0.000068   0.001707
     2  C   -0.000003   0.000126  -0.000857  -0.000009   0.000026  -0.000153
     3  C    0.000005   0.000187   0.000628  -0.000098  -0.000058   0.000333
     4  H    0.000001   0.000009   0.000064  -0.000001  -0.000003  -0.000113
     5  H    0.000000  -0.000002   0.000036  -0.000000  -0.000003   0.000002
     6  H   -0.000028  -0.002810  -0.000991   0.000773   0.000081   0.000995
     7  H    0.000001   0.000046   0.000060  -0.000010  -0.000065   0.000208
     8  C   -0.000000  -0.000001   0.000019   0.000002   0.000001  -0.000010
     9  C    0.000000  -0.000000  -0.000007  -0.000000   0.000000   0.000009
    10  H   -0.000000   0.000002  -0.000001  -0.000000  -0.000000  -0.000001
    11  H   -0.000000   0.000011  -0.000005  -0.000004  -0.000000  -0.000018
    12  H    0.000000  -0.000000  -0.000004   0.000000  -0.000000   0.000009
    13  O    0.000000  -0.000000   0.000000  -0.000000  -0.000000  -0.000002
    14  H   -0.000000   0.000000  -0.000000   0.000000   0.000000   0.000000
    15  C    0.000000   0.000000  -0.000000  -0.000000   0.000000  -0.000000
    16  H    0.000000  -0.000000   0.000000   0.000000   0.000000   0.000000
    17  H   -0.000000   0.000000   0.000000  -0.000000   0.000000  -0.000000
    18  H    0.000000   0.000000  -0.000000   0.000000  -0.000000   0.000000
    19  H    0.010052  -0.007949   0.001852   0.000362  -0.000260   0.000985
    20  C   -0.043311  -0.054772  -0.027709   0.012704   0.000793  -0.002046
    21  C    0.406123   0.398331  -0.105950  -0.043644  -0.004584  -0.008049
    22  H   -0.005208  -0.004802  -0.000197  -0.000183   0.000908  -0.000275
    23  H   -0.011569   0.009510   0.000342  -0.000443  -0.000161   0.000119
    24  H   -0.043485  -0.037470   0.017173  -0.015978  -0.000529  -0.000231
    25  H    0.657559  -0.052445  -0.006163  -0.000647   0.001075   0.000352
    26  C   -0.052445   4.958458   0.311258   0.409651  -0.030673  -0.037039
    27  C   -0.006163   0.311258   5.155653  -0.064480   0.366831   0.410142
    28  H   -0.000647   0.409651  -0.064480   0.652145  -0.004467   0.010778
    29  H    0.001075  -0.030673   0.366831  -0.004467   0.630671  -0.034462
    30  H    0.000352  -0.037039   0.410142   0.010778  -0.034462   0.596461
    31  O    0.006019   0.249258  -0.084424  -0.029124   0.005339  -0.002676
    32  H   -0.000942  -0.028277   0.007603  -0.021159  -0.001131  -0.000470
    33  C    0.000489  -0.053516   0.317626  -0.011332  -0.020771  -0.041781
    34  H   -0.000131   0.006441  -0.019092   0.000065  -0.003593  -0.002159
    35  H   -0.000153  -0.008560  -0.060300  -0.000486   0.010897  -0.012982
    36  H    0.000036  -0.001570  -0.046397   0.007506  -0.004329   0.009254
              31         32         33         34         35         36
     1  H    0.000341  -0.000024   0.000277   0.000010   0.000148  -0.000020
     2  C    0.000014  -0.000011   0.000409  -0.000018  -0.000230  -0.000016
     3  C   -0.006119   0.000620  -0.001981   0.000123  -0.001495   0.000130
[...]
    33  C    0.000003   0.000046  -0.000797  -0.000003   0.000003  -0.001551
    34  H    0.000010  -0.000003   0.000036   0.000000   0.000001  -0.000038
    35  H    0.000017   0.000081   0.001219   0.000007  -0.000027   0.001451
    36  H   -0.000001  -0.000004   0.000051   0.000000  -0.000000   0.000027
               7          8          9         10         11         12
     1  H   -0.006930   0.007829  -0.000344  -0.000325  -0.000007  -0.000007
     2  C   -0.039440  -0.049958   0.008670  -0.013345  -0.000505  -0.000475
     3  C    0.387751   0.378676  -0.059620  -0.039241  -0.003412  -0.010910
     4  H    0.009411  -0.005496  -0.000188   0.006408   0.000053   0.000020
     5  H   -0.006338  -0.009091   0.001409  -0.000153  -0.000206   0.000035
     6  H   -0.037449  -0.045528   0.001771  -0.002928   0.000285  -0.000427
     7  H    0.619194  -0.038678  -0.013544   0.013154   0.001169   0.006945
     8  C   -0.038678   4.916843   0.345722   0.374551  -0.027502  -0.039311
     9  C   -0.013544   0.345722   5.050313  -0.058336   0.363497   0.384432
    10  H    0.013154   0.374551  -0.058336   0.668549  -0.001866   0.012994
    11  H    0.001169  -0.027502   0.363497  -0.001866   0.609686  -0.036834
    12  H    0.006945  -0.039311   0.384432   0.012994  -0.036834   0.625620
    13  O    0.006713   0.258867  -0.054987  -0.032247   0.004852   0.006416
    14  H   -0.000936  -0.030953  -0.003305  -0.011866  -0.000690  -0.001533
    15  C   -0.000666  -0.047707   0.339753  -0.010663  -0.028852  -0.041694
    16  H   -0.000010   0.006951  -0.025730  -0.000394  -0.005270  -0.005011
    17  H    0.000321  -0.007346  -0.046609   0.001910   0.011277  -0.006051
    18  H    0.000014  -0.004024  -0.039751   0.006341  -0.007174   0.009446
    19  H    0.000076   0.000157  -0.000085   0.000043   0.000436  -0.000010
    20  C   -0.000019  -0.000010   0.000009   0.000012  -0.000116   0.000002
    21  C    0.000056   0.000014  -0.000012   0.000002  -0.000048  -0.000002
    22  H   -0.000038   0.000013   0.000000  -0.000001  -0.000005   0.000001
    23  H   -0.000005  -0.000003   0.000001  -0.000001  -0.000006   0.000000
    24  H    0.000005   0.000004  -0.000013   0.000001   0.000052  -0.000001
    25  H    0.000003   0.000000  -0.000000   0.000000   0.000002  -0.000000
    26  C    0.000021   0.000080   0.000155   0.000009  -0.000866   0.000014
    27  C   -0.000627   0.000071   0.000048  -0.000002   0.000479  -0.000032
    28  H   -0.000043  -0.000021   0.000013  -0.000002   0.000203  -0.000011
    29  H   -0.000121  -0.000015   0.000010  -0.000000  -0.000023   0.000011
    30  H   -0.000106   0.000012   0.000072  -0.000009   0.000145  -0.000024
    31  O   -0.001129  -0.002245  -0.000125  -0.000266   0.012461  -0.000712
    32  H    0.000336   0.000786   0.001582   0.000200  -0.003859   0.002064
    33  C    0.000443   0.000153  -0.000634  -0.000007  -0.000071  -0.000354
    34  H    0.000595  -0.000005   0.000002   0.000001   0.000004  -0.000015
    35  H   -0.001192  -0.000763   0.002480  -0.000076  -0.000891   0.002933
    36  H    0.000050  -0.000002   0.000002   0.000001   0.000008   0.000005
              13         14         15         16         17         18
     1  H   -0.000241   0.000079   0.000016  -0.000001   0.000001   0.000001
     2  C   -0.005482   0.000372  -0.000270   0.000014  -0.000055  -0.000009
     3  C   -0.055473   0.008597   0.008454  -0.000235   0.000126   0.000016
     4  H   -0.000560  -0.000035  -0.000010   0.000000   0.000006  -0.000009
     5  H    0.019924  -0.001157  -0.000070   0.000000  -0.000072  -0.000001
     6  H    0.004023  -0.000855   0.000493  -0.000036  -0.000048  -0.000049
     7  H    0.006713  -0.000936  -0.000666  -0.000010   0.000321   0.000014
     8  C    0.258867  -0.030953  -0.047707   0.006951  -0.007346  -0.004024
     9  C   -0.054987  -0.003305   0.339753  -0.025730  -0.046609  -0.039751
    10  H   -0.032247  -0.011866  -0.010663  -0.000394   0.001910   0.006341
    11  H    0.004852  -0.000690  -0.028852  -0.005270   0.011277  -0.007174
    12  H    0.006416  -0.001533  -0.041694  -0.005011  -0.006051   0.009446
    13  O    7.919711   0.297825  -0.002902   0.000114   0.015069  -0.000407
    14  H    0.297825   0.506986   0.007507  -0.000103   0.000082  -0.000058
    15  C   -0.002902   0.007507   4.906795   0.395306   0.386312   0.396097
    16  H    0.000114  -0.000103   0.395306   0.587913  -0.029221  -0.030494
    17  H    0.015069   0.000082   0.386312  -0.029221   0.618542  -0.036305
    18  H   -0.000407  -0.000058   0.396097  -0.030494  -0.036305   0.609146
    19  H    0.000000   0.000001  -0.000004  -0.000000   0.000000   0.000001
    20  C    0.000000   0.000000  -0.000000   0.000000  -0.000000   0.000000
    21  C   -0.000000  -0.000000   0.000000   0.000000  -0.000000  -0.000000
    22  H    0.000000   0.000000  -0.000000  -0.000000  -0.000000  -0.000000
    23  H    0.000000  -0.000000   0.000000   0.000000  -0.000000   0.000000
    24  H   -0.000000   0.000000  -0.000000  -0.000000   0.000000  -0.000000
    25  H   -0.000000   0.000000  -0.000000  -0.000000   0.000000   0.000000
    26  C   -0.000000   0.000000  -0.000004   0.000000   0.000000   0.000000
    27  C    0.000001   0.000000   0.000001  -0.000000   0.000000   0.000000
    28  H   -0.000000   0.000000   0.000002  -0.000000  -0.000000  -0.000000
    29  H    0.000000  -0.000000   0.000000   0.000000   0.000000  -0.000000
    30  H   -0.000006   0.000001   0.000000   0.000000  -0.000000   0.000000
    31  O   -0.000000   0.000001   0.000079  -0.000004  -0.000004  -0.000008
    32  H    0.000015  -0.000006  -0.000300   0.000008   0.000012   0.000021
    33  C    0.000001  -0.000000   0.000006   0.000001   0.000000  -0.000001
    34  H    0.000001  -0.000000  -0.000000  -0.000000   0.000000   0.000000
    35  H   -0.000173   0.000013   0.000039   0.000002  -0.000019   0.000008
    36  H    0.000000   0.000000  -0.000000  -0.000000   0.000000   0.000000
              19         20         21         22         23         24
     1  H    0.000024   0.000060  -0.000021   0.000629  -0.000012   0.000000
     2  C    0.000248   0.000114  -0.000010   0.000389  -0.000013  -0.000000
     3  C   -0.000555  -0.000518   0.000251  -0.000195   0.000051   0.000020
     4  H    0.000270   0.000184  -0.000003   0.000041  -0.000007   0.000001
     5  H   -0.000015   0.000004   0.000000  -0.000002   0.000000   0.000000
     6  H    0.000496   0.000371  -0.002523  -0.000552   0.000142  -0.000286
     7  H    0.000076  -0.000019   0.000056  -0.000038  -0.000005   0.000005
     8  C    0.000157  -0.000010   0.000014   0.000013  -0.000003   0.000004
     9  C   -0.000085   0.000009  -0.000012   0.000000   0.000001  -0.000013
    10  H    0.000043   0.000012   0.000002  -0.000001  -0.000001   0.000001
    11  H    0.000436  -0.000116  -0.000048  -0.000005  -0.000006   0.000052
    12  H   -0.000010   0.000002  -0.000002   0.000001   0.000000  -0.000001
    13  O    0.000000   0.000000  -0.000000   0.000000   0.000000  -0.000000
    14  H    0.000001   0.000000  -0.000000   0.000000  -0.000000   0.000000
    15  C   -0.000004  -0.000000   0.000000  -0.000000   0.000000  -0.000000
    16  H   -0.000000   0.000000   0.000000  -0.000000   0.000000  -0.000000
    17  H    0.000000  -0.000000  -0.000000  -0.000000  -0.000000   0.000000
    18  H    0.000001   0.000000  -0.000000  -0.000000   0.000000  -0.000000
    19  H    0.570493   0.400669  -0.035574  -0.033369  -0.030187  -0.004682
    20  C    0.400669   4.880364   0.355348   0.400709   0.396519  -0.040146
    21  C   -0.035574   0.355348   4.914473  -0.036391  -0.029475   0.395364
    22  H   -0.033369   0.400709  -0.036391   0.603571  -0.031912   0.009003
    23  H   -0.030187   0.396519  -0.029475  -0.031912   0.600094  -0.007291
    24  H   -0.004682  -0.040146   0.395364   0.009003  -0.007291   0.606194
    25  H    0.009201  -0.035984   0.389438  -0.007777  -0.005307  -0.033243
    26  C   -0.009169  -0.053452   0.381449  -0.004724   0.007788  -0.035465
    27  C    0.001240  -0.014648  -0.056167   0.002713  -0.000121   0.011135
    28  H    0.000268   0.009296  -0.040610  -0.000332  -0.000346  -0.011882
    29  H   -0.000280   0.000617  -0.003331   0.000463  -0.000038  -0.000620
    30  H    0.000718   0.002903  -0.008243  -0.000251  -0.000071  -0.000301
    31  O    0.009125  -0.004286  -0.052324  -0.000460  -0.000095   0.004529
    32  H   -0.000782  -0.000503   0.009400  -0.000060   0.000042   0.000131
    33  C   -0.000090   0.000020   0.007463  -0.000109   0.000009  -0.000505
    34  H   -0.000001   0.000014  -0.000301   0.000034  -0.000001   0.000027
    35  H   -0.000087   0.000082  -0.000083   0.000037   0.000000  -0.000059
    36  H    0.000000   0.000024  -0.000126  -0.000018   0.000002  -0.000053
              25         26         27         28         29         30
     1  H    0.000000   0.000016   0.000149   0.000001  -0.000009   0.000927
     2  C    0.000001   0.000034  -0.000185   0.000001   0.000000   0.000257
     3  C   -0.000024   0.000446  -0.001042  -0.000167  -0.000049  -0.000589
     4  H    0.000000   0.000006   0.000009  -0.000001  -0.000001  -0.000057
     5  H   -0.000000  -0.000002  -0.000007  -0.000000  -0.000000  -0.000085
     6  H    0.000093  -0.004073  -0.004331   0.001150   0.000910  -0.000482
     7  H    0.000003   0.000021  -0.000627  -0.000043  -0.000121  -0.000106
     8  C    0.000000   0.000080   0.000071  -0.000021  -0.000015   0.000012
     9  C   -0.000000   0.000155   0.000048   0.000013   0.000010   0.000072
    10  H    0.000000   0.000009  -0.000002  -0.000002  -0.000000  -0.000009
    11  H    0.000002  -0.000866   0.000479   0.000203  -0.000023   0.000145
    12  H   -0.000000   0.000014  -0.000032  -0.000011   0.000011  -0.000024
    13  O   -0.000000  -0.000000   0.000001  -0.000000   0.000000  -0.000006
    14  H    0.000000   0.000000   0.000000   0.000000  -0.000000   0.000001
    15  C   -0.000000  -0.000004   0.000001   0.000002   0.000000   0.000000
    16  H   -0.000000   0.000000  -0.000000  -0.000000   0.000000   0.000000
    17  H    0.000000   0.000000   0.000000  -0.000000   0.000000  -0.000000
    18  H    0.000000   0.000000   0.000000  -0.000000  -0.000000   0.000000
    19  H    0.009201  -0.009169   0.001240   0.000268  -0.000280   0.000718
    20  C   -0.035984  -0.053452  -0.014648   0.009296   0.000617   0.002903
    21  C    0.389438   0.381449  -0.056167  -0.040610  -0.003331  -0.008243
    22  H   -0.007777  -0.004724   0.002713  -0.000332   0.000463  -0.000251
    23  H   -0.005307   0.007788  -0.000121  -0.000346  -0.000038  -0.000071
    24  H   -0.033243  -0.035465   0.011135  -0.011882  -0.000620  -0.000301
    25  H    0.621980  -0.036782  -0.003664  -0.000657   0.002557   0.000164
    26  C   -0.036782   4.888305   0.340839   0.389334  -0.027308  -0.036352
    27  C   -0.003664   0.340839   5.028116  -0.064538   0.366190   0.403156
    28  H   -0.000657   0.389334  -0.064538   0.661907  -0.000637   0.009723
    29  H    0.002557  -0.027308   0.366190  -0.000637   0.630405  -0.037035
    30  H    0.000164  -0.036352   0.403156   0.009723  -0.037035   0.591911
    31  O    0.004491   0.263660  -0.048419  -0.032037   0.005202  -0.001256
    32  H   -0.000846  -0.030908  -0.004821  -0.014400  -0.000879  -0.001235
    33  C   -0.000177  -0.050189   0.351553  -0.008672  -0.032419  -0.038431
    34  H   -0.000031   0.006808  -0.024626  -0.000258  -0.006011  -0.004805
    35  H    0.000007  -0.005180  -0.042161   0.000967   0.011400  -0.008511
    36  H    0.000009  -0.004377  -0.040476   0.007149  -0.006891   0.009323
              31         32         33         34         35         36
     1  H    0.000005  -0.000004   0.000003   0.000010   0.000017  -0.000001
     2  C    0.000098  -0.000061   0.000046  -0.000003   0.000081  -0.000004
     3  C   -0.007502   0.001838  -0.000797   0.000036   0.001219   0.000051
     4  H   -0.000027   0.000006  -0.000003   0.000000   0.000007   0.000000
     5  H   -0.000010   0.000010   0.000003   0.000001  -0.000027  -0.000000
     6  H    0.031747  -0.006322  -0.001551  -0.000038   0.001451   0.000027
     7  H   -0.001129   0.000336   0.000443   0.000595  -0.001192   0.000050
     8  C   -0.002245   0.000786   0.000153  -0.000005  -0.000763  -0.000002
     9  C   -0.000125   0.001582  -0.000634   0.000002   0.002480   0.000002
    10  H   -0.000266   0.000200  -0.000007   0.000001  -0.000076   0.000001
    11  H    0.012461  -0.003859  -0.000071   0.000004  -0.000891   0.000008
    12  H   -0.000712   0.002064  -0.000354  -0.000015   0.002933   0.000005
    13  O   -0.000000   0.000015   0.000001   0.000001  -0.000173   0.000000
    14  H    0.000001  -0.000006  -0.000000  -0.000000   0.000013   0.000000
    15  C    0.000079  -0.000300   0.000006  -0.000000   0.000039  -0.000000
    16  H   -0.000004   0.000008   0.000001  -0.000000   0.000002  -0.000000
    17  H   -0.000004   0.000012   0.000000   0.000000  -0.000019   0.000000
    18  H   -0.000008   0.000021  -0.000001   0.000000   0.000008   0.000000
    19  H    0.009125  -0.000782  -0.000090  -0.000001  -0.000087   0.000000
    20  C   -0.004286  -0.000503   0.000020   0.000014   0.000082   0.000024
    21  C   -0.052324   0.009400   0.007463  -0.000301  -0.000083  -0.000126
    22  H   -0.000460  -0.000060  -0.000109   0.000034   0.000037  -0.000018
    23  H   -0.000095   0.000042   0.000009  -0.000001   0.000000   0.000002
    24  H    0.004529   0.000131  -0.000505   0.000027  -0.000059  -0.000053
    25  H    0.004491  -0.000846  -0.000177  -0.000031   0.000007   0.000009
    26  C    0.263660  -0.030908  -0.050189   0.006808  -0.005180  -0.004377
    27  C   -0.048419  -0.004821   0.351553  -0.024626  -0.042161  -0.040476
    28  H   -0.032037  -0.014400  -0.008672  -0.000258   0.000967   0.007149
    29  H    0.005202  -0.000879  -0.032419  -0.006011   0.011400  -0.006891
    30  H   -0.001256  -0.001235  -0.038431  -0.004805  -0.008511   0.009323
    31  O    7.901794   0.292362  -0.002193   0.000174   0.006251  -0.000246
    32  H    0.292362   0.505973   0.008865  -0.000246   0.001535  -0.000310
    33  C   -0.002193   0.008865   4.892658   0.396646   0.388874   0.396266
    34  H    0.000174  -0.000246   0.396646   0.579079  -0.029394  -0.029510
    35  H    0.006251   0.001535   0.388874  -0.029394   0.614385  -0.034896
    36  H   -0.000246  -0.000310   0.396266  -0.029510  -0.034896   0.604093
 Mulliken charges:
               1
     1  H    0.093495
     2  C   -0.285906
     3  C   -0.222795
     4  H    0.089674
     5  H    0.110172
     6  H    0.134028
     7  H    0.101014
     8  C    0.017926
     9  C   -0.196657
    10  H    0.087552
    11  H    0.113595
    12  H    0.092476
    13  O   -0.381053
    14  H    0.230032
    15  C   -0.307715
    16  H    0.106200
    17  H    0.092070
    18  H    0.097200
    19  H    0.121423
    20  C   -0.297639
    21  C   -0.188013
    22  H    0.098595
    23  H    0.100243
    24  H    0.108082
    25  H    0.096547
    26  C    0.019886
    27  C   -0.199832
    28  H    0.094602
    29  H    0.097901
    30  H    0.118537
    31  O   -0.378631
    32  H    0.240356
    33  C   -0.306803
    34  H    0.111815
    35  H    0.091724
    36  H    0.099898
 Sum of Mulliken charges =  -0.00000
 Mulliken charges with hydrogens summed into heavy atoms:
               1
     2  C    0.007435
     3  C    0.012247
     8  C    0.105479
     9  C    0.009414
    13  O   -0.151021
    15  C   -0.012246
    20  C    0.022622
    21  C    0.016615
    26  C    0.114488
    27  C    0.016606
    31  O   -0.138274
    33  C   -0.003366
 Electronic spatial extent (au):  <R**2>=           3461.4860
 Charge=             -0.0000 electrons
 Dipole moment (field-independent basis, Debye):
    X=             -0.5342    Y=             -0.9837    Z=             -0.0802  Tot=              1.1223
 Quadrupole moment (field-independent basis, Debye-Ang):
   XX=            -75.4282   YY=            -81.7153   ZZ=            -83.5805
   XY=             -1.2720   XZ=             -6.3958   YZ=             -2.4966
 Traceless Quadrupole moment (field-independent basis, Debye-Ang):
   XX=              4.8132   YY=             -1.4740   ZZ=             -3.3392
   XY=             -1.2720   XZ=             -6.3958   YZ=             -2.4966
 Octapole moment (field-independent basis, Debye-Ang**2):
  XXX=             26.8010  YYY=            -13.2679  ZZZ=             -0.0779  XYY=             -1.0511
  XXY=             -3.2779  XXZ=            -13.2852  XZZ=             -1.9374  YZZ=              1.6455
  YYZ=              0.6035  XYZ=             -1.9515
 Hexadecapole moment (field-independent basis, Debye-Ang**3):
 XXXX=          -2819.2281 YYYY=          -1011.8604 ZZZZ=           -718.4470 XXXY=             32.4927
 XXXZ=            -26.2025 YYYX=             15.8514 YYYZ=              5.2948 ZZZX=              8.1987
 ZZZY=              4.1862 XXYY=           -686.5448 XXZZ=           -640.4966 YYZZ=           -293.4545
 XXYZ=            -16.5977 YYXZ=             -0.8524 ZZXY=              1.4646
 N-N= 7.787855863634D+02 E-N=-2.829820340090D+03  KE= 5.442442634456D+02
 No NMR shielding tensors so no spin-rotation constants.
 Leave Link  601 at Mon Feb 13 16:01:02 2023, MaxMem=   131072000 cpu:               6.0 elap:               1.1
 (Enter /dragofs/sw/campus/0.2/software/gaussian/16.gaussian/gaussian/g16_legacy/l9999.exe)
 1\1\GINC-DRAGO31070223\FOpt\RBLYP\6-311G(d,p)\C10H24O2\JRAMOS\13-Feb-2
 023\0\\#p opt=tight blyp/6-311G** int=ultrafine EmpiricalDispersion=GD
 3\\Conformer number 224. Energy MM = 0.000 kcal/mol\\0,1\H,11.81668624
 ,5.9935975724,4.9169380771\C,12.1219041926,5.9231769981,5.9715142266\C
 ,13.1476456576,7.0158506647,6.3289338418\H,11.2141390432,6.0178105443,
 6.5881154486\H,12.5482015242,4.9261215585,6.1442951031\H,12.7203189629
 ,8.0170465774,6.1847709326\H,14.0198177678,6.9442799535,5.6575532293\C
 ,13.6714026533,6.9148213905,7.7690913932\C,14.5437821289,8.1283404895,
 8.1675156872\H,12.8069665586,6.8627619133,8.4630579788\H,13.9212103937
 ,9.0341781377,8.0961439913\H,15.3557724242,8.2227330512,7.426366787\O,
 14.4270883161,5.6719444921,7.8461168374\H,14.5339986674,5.4491052015,8
 .7853100056\C,15.1464486833,8.0157034743,9.5827269705\H,15.7264323644,
 8.9118292325,9.8453359093\H,15.8249862746,7.1527439331,9.6549026003\H,
 14.3565891276,7.8962551268,10.3417825203\H,10.761598754,9.5648218474,5
 .8597065482\C,10.5533344904,9.8833635288,4.8303031181\C,11.4866098132,
 11.0453056838,4.4252514563\H,10.6728918309,9.0093883648,4.1744464196\H
 ,9.5009697673,10.1972217184,4.7748095333\H,11.2714699204,11.920092162,
 5.0583847666\H,11.287793213,11.3493070936,3.3844730098\C,12.9932700253
 ,10.7422217017,4.5573839041\C,13.4930746288,9.6090944622,3.6305592405\
 H,13.5498231765,11.6654979613,4.296572549\H,13.2565604899,9.8921095859
 ,2.591357025\H,12.937187582,8.6863788814,3.8476914938\O,13.2234879155,
 10.4382651489,5.9634462543\H,14.1714649654,10.2593922995,6.0807900059\
 C,15.0066221408,9.3370912756,3.7585050169\H,15.3339493184,8.5666514121
 ,3.046415218\H,15.2657048397,8.9692420674,4.7632790672\H,15.5957961481
 ,10.2472544938,3.5641538334\\Version=EM64L-G16RevA.03\State=1-A\HF=-54
 5.8706798\RMSD=3.916e-09\RMSF=4.730e-07\Dipole=0.1886235,0.3978426,-0.
 0329966\Quadrupole=-0.9451181,-3.8315147,4.7766329,1.8204341,0.6308991
 ,-3.7587768\PG=C01 [X(C10H24O2)]\\@


 MORNING PEOPLE ARE USUALLY ADMIRED AS EARLY BIRDS.
 RECALL BEN FRANKLIN'S APHORISM THAT THE EARLY BIRD GETS THE WORM.
 I IDENTIFY WITH THE WORM. --  CRAIG JAGGER, MINNEAPOLIS, KS.
 Job cpu time:       0 days  7 hours 57 minutes  0.3 seconds.
 Elapsed time:       0 days  1 hours 10 minutes  7.9 seconds.
 File lengths (MBytes):  RWF=     86 Int=      0 D2E=      0 Chk=     11 Scr=      1
 Normal termination of Gaussian 16 at Mon Feb 13 16:01:02 2023.
