 Entering Gaussian System, Link 0=/dragofs/sw/campus/0.2/software/gaussian/16.gaussian/gaussian/g16_legacy/g16
 Input=C10H24O2_pair_010_055.com
 Output=C10H24O2_pair_010_055.log
 Initial command:
 /dragofs/sw/campus/0.2/software/gaussian/16.gaussian/gaussian/g16_legacy/l1.exe "/tmp/jramos/51274/Gau-615668.inp" -scrdir="/tmp/jramos/51274/"
 Entering Link 1 = /dragofs/sw/campus/0.2/software/gaussian/16.gaussian/gaussian/g16_legacy/l1.exe PID=    615676.
  
 Copyright (c) 1988,1990,1992,1993,1995,1998,2003,2009,2016,
            Gaussian, Inc.  All Rights Reserved.
  
 This is part of the Gaussian(R) 16 program.  It is based on
 the Gaussian(R) 09 system (copyright 2009, Gaussian, Inc.),
 the Gaussian(R) 03 system (copyright 2003, Gaussian, Inc.),
 the Gaussian(R) 98 system (copyright 1998, Gaussian, Inc.),
 the Gaussian(R) 94 system (copyright 1995, Gaussian, Inc.),
 the Gaussian 92(TM) system (copyright 1992, Gaussian, Inc.),
 the Gaussian 90(TM) system (copyright 1990, Gaussian, Inc.),
 the Gaussian 88(TM) system (copyright 1988, Gaussian, Inc.),
 the Gaussian 86(TM) system (copyright 1986, Carnegie Mellon
 University), and the Gaussian 82(TM) system (copyright 1983,
 Carnegie Mellon University). Gaussian is a federally registered
 trademark of Gaussian, Inc.
  
 This software contains proprietary and confidential information,
 including trade secrets, belonging to Gaussian, Inc.
  
 This software is provided under written license and may be
 used, copied, transmitted, or stored only in accord with that
 written license.
  
 The following legend is applicable only to US Government
 contracts under FAR:
  
                    RESTRICTED RIGHTS LEGEND
  
 Use, reproduction and disclosure by the US Government is
 subject to restrictions as set forth in subparagraphs (a)
 and (c) of the Commercial Computer Software - Restricted
 Rights clause in FAR 52.227-19.
  
 Gaussian, Inc.
 340 Quinnipiac St., Bldg. 40, Wallingford CT 06492
  
  
 ---------------------------------------------------------------
 Warning -- This program may not be used in any manner that
 competes with the business of Gaussian, Inc. or will provide
 assistance to any competitor of Gaussian, Inc.  The licensee
 of this program is prohibited from giving any competitor of
 Gaussian, Inc. access to this program.  By using this program,
 the user acknowledges that Gaussian, Inc. is engaged in the
 business of creating and licensing software in the field of
 computational chemistry and represents and warrants to the
 licensee that it is not a competitor of Gaussian, Inc. and that
 it will not use this program in any manner prohibited above.
 ---------------------------------------------------------------
  

 Cite this work as:
 Gaussian 16, Revision A.03,
 M. J. Frisch, G. W. Trucks, H. B. Schlegel, G. E. Scuseria, 
 M. A. Robb, J. R. Cheeseman, G. Scalmani, V. Barone, 
 G. A. Petersson, H. Nakatsuji, X. Li, M. Caricato, A. V. Marenich, 
 J. Bloino, B. G. Janesko, R. Gomperts, B. Mennucci, H. P. Hratchian, 
 J. V. Ortiz, A. F. Izmaylov, J. L. Sonnenberg, D. Williams-Young, 
 F. Ding, F. Lipparini, F. Egidi, J. Goings, B. Peng, A. Petrone, 
 T. Henderson, D. Ranasinghe, V. G. Zakrzewski, J. Gao, N. Rega, 
 G. Zheng, W. Liang, M. Hada, M. Ehara, K. Toyota, R. Fukuda, 
 J. Hasegawa, M. Ishida, T. Nakajima, Y. Honda, O. Kitao, H. Nakai, 
 T. Vreven, K. Throssell, J. A. Montgomery, Jr., J. E. Peralta, 
 F. Ogliaro, M. J. Bearpark, J. J. Heyd, E. N. Brothers, K. N. Kudin, 
 V. N. Staroverov, T. A. Keith, R. Kobayashi, J. Normand, 
 K. Raghavachari, A. P. Rendell, J. C. Burant, S. S. Iyengar, 
 J. Tomasi, M. Cossi, J. M. Millam, M. Klene, C. Adamo, R. Cammi, 
 J. W. Ochterski, R. L. Martin, K. Morokuma, O. Farkas, 
 J. B. Foresman, and D. J. Fox, Gaussian, Inc., Wallingford CT, 2016.
 
 ******************************************
 Gaussian 16:  EM64L-G16RevA.03 25-Dec-2016
                13-Feb-2023 
 ******************************************
 %chk=C10H24O2_pair_010_055.chk
 %nproc=8
 Will use up to    8 processors via shared memory.
 %mem=1000Mb
 ----------------------------------------------------------------
 #p opt=tight blyp/6-311G** int=ultrafine EmpiricalDispersion=GD3
 ----------------------------------------------------------------
 1/7=10,18=20,19=15,26=4,38=1/1,3;
 2/9=110,12=2,17=6,18=5,40=1/2;
 3/5=4,6=6,7=101,11=2,25=1,30=1,71=1,74=402,75=-5,124=31/1,2,3;
 4//1;
 5/5=2,38=5/2;
 6/7=2,8=2,9=2,10=2,28=1/1;
 7//1,2,3,16;
 1/7=10,18=20,19=15,26=4/3(2);
 2/9=110/2;
 99//99;
 2/9=110/2;
 3/5=4,6=6,7=101,11=2,25=1,30=1,71=1,74=402,75=-5,124=31/1,2,3;
 4/5=5,16=3,69=1/1;
 5/5=2,38=5/2;
 7//1,2,3,16;
 1/7=10,18=20,19=15,26=4/3(-5);
 2/9=110/2;
 6/7=2,8=2,9=2,10=2,19=2,28=1/1;
 99/9=1/99;
 Leave Link    1 at Mon Feb 13 12:25:50 2023, MaxMem=   131072000 cpu:               0.2 elap:               0.0
 (Enter /dragofs/sw/campus/0.2/software/gaussian/16.gaussian/gaussian/g16_legacy/l101.exe)
 ------------------------------------------------
 Conformer number 117. Energy MM = 0.000 kcal/mol
 ------------------------------------------------
 Symbolic Z-matrix:
 Charge =  0 Multiplicity = 1
 H                     2.054     1.899     14.716 
 C                     3.083     1.897     14.214 
 C                     2.992     2.129     12.709 
 H                     3.625     2.661     14.811 
 H                     3.621     0.922     14.375 
 H                     4.045     2.158     12.203 
 H                     2.549     3.104     12.523 
 C                     2.051     1.262     12.034 
 C                     2.313     1.157     10.6 
 H                     2.259     0.195     12.307 
 H                     3.391     1.077     10.496 
 H                     2.081     2.175     10.118 
 O                     0.808     1.665     12.461 
 H                     0.231     1.041     12.017 
 C                     1.665     0.066     9.735 
 H                     1.992    -0.963     9.732 
 H                     1.895     0.261     8.676 
 H                     0.594    -0.003     9.803 
 H                     3.268    -7.11      16.315 
 C                     2.768    -6.757     15.408 
 C                     2.805    -5.184     15.31 
 H                     3.16     -7.309     14.549 
 H                     1.722    -7.107     15.486 
 H                     2.213    -4.839     16.192 
 H                     2.129    -4.819     14.463 
 C                     3.995    -4.379     15.234 
 C                     3.753    -2.956     15.175 
 H                     4.656    -4.635     16.102 
 H                     3.061    -2.791     15.945 
 H                     3.165    -2.72      14.266 
 O                     4.757    -4.736     14.096 
 H                     5.242    -5.552     14.303 
 C                     5.03     -1.978     15.327 
 H                     4.759    -0.992     15.025 
 H                     5.794    -2.337     14.68 
 H                     5.298    -1.941     16.335 
 
 Add virtual bond connecting atoms H34        and H5         Dist= 4.38D+00.
 ITRead=  0  0  0  0  0  0  0  0  0  0  0  0  0  0  0  0  0  0  0  0
 ITRead=  0  0  0  0  0  0  0  0  0  0  0  0  0  0  0  0
 MicOpt= -1 -1 -1 -1 -1 -1 -1 -1 -1 -1 -1 -1 -1 -1 -1 -1 -1 -1 -1 -1
 MicOpt= -1 -1 -1 -1 -1 -1 -1 -1 -1 -1 -1 -1 -1 -1 -1 -1
 NAtoms=     36 NQM=       36 NQMF=       0 NMMI=      0 NMMIF=      0
                NMic=       0 NMicF=      0.
                    Isotopes and Nuclear Properties:
 (Nuclear quadrupole moments (NQMom) in fm**2, nuclear magnetic moments (NMagM)
  in nuclear magnetons)

  Atom         1           2           3           4           5           6           7           8           9          10
 IAtWgt=           1          12          12           1           1           1           1          12          12           1
 AtmWgt=   1.0078250  12.0000000  12.0000000   1.0078250   1.0078250   1.0078250   1.0078250  12.0000000  12.0000000   1.0078250
 NucSpn=           1           0           0           1           1           1           1           0           0           1
 AtZEff=  -0.0000000  -0.0000000  -0.0000000  -0.0000000  -0.0000000  -0.0000000  -0.0000000  -0.0000000  -0.0000000  -0.0000000
 NQMom=    0.0000000   0.0000000   0.0000000   0.0000000   0.0000000   0.0000000   0.0000000   0.0000000   0.0000000   0.0000000
 NMagM=    2.7928460   0.0000000   0.0000000   2.7928460   2.7928460   2.7928460   2.7928460   0.0000000   0.0000000   2.7928460
 AtZNuc=   1.0000000   6.0000000   6.0000000   1.0000000   1.0000000   1.0000000   1.0000000   6.0000000   6.0000000   1.0000000

  Atom        11          12          13          14          15          16          17          18          19          20
 IAtWgt=           1           1          16           1          12           1           1           1           1          12
 AtmWgt=   1.0078250   1.0078250  15.9949146   1.0078250  12.0000000   1.0078250   1.0078250   1.0078250   1.0078250  12.0000000
 NucSpn=           1           1           0           1           0           1           1           1           1           0
 AtZEff=  -0.0000000  -0.0000000  -0.0000000  -0.0000000  -0.0000000  -0.0000000  -0.0000000  -0.0000000  -0.0000000  -0.0000000
 NQMom=    0.0000000   0.0000000   0.0000000   0.0000000   0.0000000   0.0000000   0.0000000   0.0000000   0.0000000   0.0000000
 NMagM=    2.7928460   2.7928460   0.0000000   2.7928460   0.0000000   2.7928460   2.7928460   2.7928460   2.7928460   0.0000000
 AtZNuc=   1.0000000   1.0000000   8.0000000   1.0000000   6.0000000   1.0000000   1.0000000   1.0000000   1.0000000   6.0000000

  Atom        21          22          23          24          25          26          27          28          29          30
 IAtWgt=          12           1           1           1           1          12          12           1           1           1
 AtmWgt=  12.0000000   1.0078250   1.0078250   1.0078250   1.0078250  12.0000000  12.0000000   1.0078250   1.0078250   1.0078250
 NucSpn=           0           1           1           1           1           0           0           1           1           1
 AtZEff=  -0.0000000  -0.0000000  -0.0000000  -0.0000000  -0.0000000  -0.0000000  -0.0000000  -0.0000000  -0.0000000  -0.0000000
 NQMom=    0.0000000   0.0000000   0.0000000   0.0000000   0.0000000   0.0000000   0.0000000   0.0000000   0.0000000   0.0000000
 NMagM=    0.0000000   2.7928460   2.7928460   2.7928460   2.7928460   0.0000000   0.0000000   2.7928460   2.7928460   2.7928460
 AtZNuc=   6.0000000   1.0000000   1.0000000   1.0000000   1.0000000   6.0000000   6.0000000   1.0000000   1.0000000   1.0000000

  Atom        31          32          33          34          35          36
 IAtWgt=          16           1          12           1           1           1
 AtmWgt=  15.9949146   1.0078250  12.0000000   1.0078250   1.0078250   1.0078250
 NucSpn=           0           1           0           1           1           1
 AtZEff=  -0.0000000  -0.0000000  -0.0000000  -0.0000000  -0.0000000  -0.0000000
 NQMom=    0.0000000   0.0000000   0.0000000   0.0000000   0.0000000   0.0000000
 NMagM=    0.0000000   2.7928460   0.0000000   2.7928460   2.7928460   2.7928460
 AtZNuc=   8.0000000   1.0000000   6.0000000   1.0000000   1.0000000   1.0000000
 Leave Link  101 at Mon Feb 13 12:25:50 2023, MaxMem=   131072000 cpu:               0.8 elap:               0.1
 (Enter /dragofs/sw/campus/0.2/software/gaussian/16.gaussian/gaussian/g16_legacy/l103.exe)

 GradGradGradGradGradGradGradGradGradGradGradGradGradGradGradGradGradGrad
 Berny optimization.
 Initialization pass.
                           ----------------------------
                           !    Initial Parameters    !
                           ! (Angstroms and Degrees)  !
 --------------------------                            --------------------------
 ! Name  Definition              Value          Derivative Info.                !
 --------------------------------------------------------------------------------
 ! R1    R(1,2)                  1.1449         estimate D2E/DX2                !
 ! R2    R(2,3)                  1.5255         estimate D2E/DX2                !
 ! R3    R(2,4)                  1.1108         estimate D2E/DX2                !
 ! R4    R(2,5)                  1.1252         estimate D2E/DX2                !
 ! R5    R(3,6)                  1.1686         estimate D2E/DX2                !
 ! R6    R(3,7)                  1.087          estimate D2E/DX2                !
 ! R7    R(3,8)                  1.4466         estimate D2E/DX2                !
 ! R8    R(5,34)                 2.3197         estimate D2E/DX2                !
 ! R9    R(8,9)                  1.4615         estimate D2E/DX2                !
 ! R10   R(8,10)                 1.1208         estimate D2E/DX2                !
 ! R11   R(8,13)                 1.3747         estimate D2E/DX2                !
 ! R12   R(9,11)                 1.086          estimate D2E/DX2                !
 ! R13   R(9,12)                 1.15           estimate D2E/DX2                !
 ! R14   R(9,15)                 1.5357         estimate D2E/DX2                !
 ! R15   R(13,14)                0.9589         estimate D2E/DX2                !
 ! R16   R(15,16)                1.0797         estimate D2E/DX2                !
 ! R17   R(15,17)                1.1011         estimate D2E/DX2                !
 ! R18   R(15,18)                1.0754         estimate D2E/DX2                !
 ! R19   R(19,20)                1.0942         estimate D2E/DX2                !
 ! R20   R(20,21)                1.5765         estimate D2E/DX2                !
 ! R21   R(20,22)                1.0937         estimate D2E/DX2                !
 ! R22   R(20,23)                1.1058         estimate D2E/DX2                !
 ! R23   R(21,24)                1.1169         estimate D2E/DX2                !
 ! R24   R(21,25)                1.1435         estimate D2E/DX2                !
 ! R25   R(21,26)                1.4387         estimate D2E/DX2                !
 ! R26   R(26,27)                1.4446         estimate D2E/DX2                !
 ! R27   R(26,28)                1.1207         estimate D2E/DX2                !
 ! R28   R(26,31)                1.4153         estimate D2E/DX2                !
 ! R29   R(27,29)                1.0483         estimate D2E/DX2                !
 ! R30   R(27,30)                1.108          estimate D2E/DX2                !
 ! R31   R(27,33)                1.6156         estimate D2E/DX2                !
 ! R32   R(31,32)                0.9716         estimate D2E/DX2                !
 ! R33   R(33,34)                1.0662         estimate D2E/DX2                !
 ! R34   R(33,35)                1.0636         estimate D2E/DX2                !
 ! R35   R(33,36)                1.0437         estimate D2E/DX2                !
 ! A1    A(1,2,3)              112.2525         estimate D2E/DX2                !
 ! A2    A(1,2,4)              101.6354         estimate D2E/DX2                !
 ! A3    A(1,2,5)              111.6241         estimate D2E/DX2                !
 ! A4    A(3,2,4)              117.0481         estimate D2E/DX2                !
 ! A5    A(3,2,5)              107.5463         estimate D2E/DX2                !
 ! A6    A(4,2,5)              106.606          estimate D2E/DX2                !
 ! A7    A(2,3,6)              112.16           estimate D2E/DX2                !
 ! A8    A(2,3,7)              109.2416         estimate D2E/DX2                !
 ! A9    A(2,3,8)              114.0783         estimate D2E/DX2                !
 ! A10   A(6,3,7)              105.7169         estimate D2E/DX2                !
 ! A11   A(6,3,8)              113.5127         estimate D2E/DX2                !
 ! A12   A(7,3,8)              101.1068         estimate D2E/DX2                !
 ! A13   A(3,8,9)              112.5979         estimate D2E/DX2                !
 ! A14   A(3,8,10)             109.6437         estimate D2E/DX2                !
 ! A15   A(3,8,13)             105.5173         estimate D2E/DX2                !
 ! A16   A(9,8,10)              97.8929         estimate D2E/DX2                !
 ! A17   A(9,8,13)             119.204          estimate D2E/DX2                !
 ! A18   A(10,8,13)            111.7906         estimate D2E/DX2                !
 ! A19   A(8,9,11)             106.0938         estimate D2E/DX2                !
 ! A20   A(8,9,12)             108.1485         estimate D2E/DX2                !
 ! A21   A(8,9,15)             121.8738         estimate D2E/DX2                !
 ! A22   A(11,9,12)            103.0227         estimate D2E/DX2                !
 ! A23   A(11,9,15)            108.2151         estimate D2E/DX2                !
 ! A24   A(12,9,15)            107.9193         estimate D2E/DX2                !
 ! A25   A(8,13,14)            102.0929         estimate D2E/DX2                !
 ! A26   A(9,15,16)            123.4236         estimate D2E/DX2                !
 ! A27   A(9,15,17)            109.1336         estimate D2E/DX2                !
 ! A28   A(9,15,18)            115.4806         estimate D2E/DX2                !
 ! A29   A(16,15,17)            95.903          estimate D2E/DX2                !
 ! A30   A(16,15,18)           103.9251         estimate D2E/DX2                !
 ! A31   A(17,15,18)           106.273          estimate D2E/DX2                !
 ! A32   A(19,20,21)           111.2663         estimate D2E/DX2                !
 ! A33   A(19,20,22)           108.9308         estimate D2E/DX2                !
 ! A34   A(19,20,23)           105.764          estimate D2E/DX2                !
 ! A35   A(21,20,22)           116.5094         estimate D2E/DX2                !
 ! A36   A(21,20,23)           110.0239         estimate D2E/DX2                !
 ! A37   A(22,20,23)           103.5733         estimate D2E/DX2                !
 ! A38   A(20,21,24)           104.2813         estimate D2E/DX2                !
 ! A39   A(20,21,25)           110.5276         estimate D2E/DX2                !
 ! A40   A(20,21,26)           125.52           estimate D2E/DX2                !
 ! A41   A(24,21,25)            99.9618         estimate D2E/DX2                !
 ! A42   A(24,21,26)           107.8965         estimate D2E/DX2                !
 ! A43   A(25,21,26)           105.7382         estimate D2E/DX2                !
 ! A44   A(21,26,27)           114.5034         estimate D2E/DX2                !
 ! A45   A(21,26,28)           108.6105         estimate D2E/DX2                !
 ! A46   A(21,26,31)           110.2831         estimate D2E/DX2                !
 ! A47   A(27,26,28)           110.8213         estimate D2E/DX2                !
 ! A48   A(27,26,31)           107.8071         estimate D2E/DX2                !
 ! A49   A(28,26,31)           104.3353         estimate D2E/DX2                !
 ! A50   A(26,27,29)           103.6279         estimate D2E/DX2                !
 ! A51   A(26,27,30)           109.4025         estimate D2E/DX2                !
 ! A52   A(26,27,33)           117.3883         estimate D2E/DX2                !
 ! A53   A(29,27,30)           102.6356         estimate D2E/DX2                !
 ! A54   A(29,27,33)           110.9383         estimate D2E/DX2                !
 ! A55   A(30,27,33)           111.5734         estimate D2E/DX2                !
 ! A56   A(26,31,32)           108.0173         estimate D2E/DX2                !
 ! A57   A(27,33,34)           109.4049         estimate D2E/DX2                !
 ! A58   A(27,33,35)           107.8311         estimate D2E/DX2                !
 ! A59   A(27,33,36)           108.3781         estimate D2E/DX2                !
 ! A60   A(34,33,35)           108.8092         estimate D2E/DX2                !
 ! A61   A(34,33,36)           107.8209         estimate D2E/DX2                !
 ! A62   A(35,33,36)           114.522          estimate D2E/DX2                !
 ! A63   L(2,5,34,10,-1)       187.4777         estimate D2E/DX2                !
 ! A64   L(5,34,33,30,-1)      166.7328         estimate D2E/DX2                !
 ! A65   L(2,5,34,10,-2)       183.5391         estimate D2E/DX2                !
 ! A66   L(5,34,33,30,-2)      186.7275         estimate D2E/DX2                !
 ! D1    D(1,2,3,6)            178.3185         estimate D2E/DX2                !
 ! D2    D(1,2,3,7)             61.4493         estimate D2E/DX2                !
 ! D3    D(1,2,3,8)            -50.8509         estimate D2E/DX2                !
 ! D4    D(4,2,3,6)             61.3446         estimate D2E/DX2                !
 ! D5    D(4,2,3,7)            -55.5245         estimate D2E/DX2                !
 ! D6    D(4,2,3,8)           -167.8248         estimate D2E/DX2                !
 ! D7    D(5,2,3,6)            -58.5221         estimate D2E/DX2                !
 ! D8    D(5,2,3,7)           -175.3913         estimate D2E/DX2                !
 ! D9    D(5,2,3,8)             72.3085         estimate D2E/DX2                !
 ! D10   D(1,2,33,27)           41.2146         estimate D2E/DX2                !
 ! D11   D(1,2,33,35)          156.592          estimate D2E/DX2                !
 ! D12   D(1,2,33,36)          -71.7965         estimate D2E/DX2                !
 ! D13   D(3,2,33,27)          -82.9422         estimate D2E/DX2                !
 ! D14   D(3,2,33,35)           32.4352         estimate D2E/DX2                !
 ! D15   D(3,2,33,36)          164.0467         estimate D2E/DX2                !
 ! D16   D(4,2,33,27)          148.2698         estimate D2E/DX2                !
 ! D17   D(4,2,33,35)          -96.3529         estimate D2E/DX2                !
 ! D18   D(4,2,33,36)           35.2586         estimate D2E/DX2                !
 ! D19   D(2,3,8,9)           -159.5166         estimate D2E/DX2                !
 ! D20   D(2,3,8,10)           -51.6682         estimate D2E/DX2                !
 ! D21   D(2,3,8,13)            68.8738         estimate D2E/DX2                !
 ! D22   D(6,3,8,9)            -29.3531         estimate D2E/DX2                !
 ! D23   D(6,3,8,10)            78.4953         estimate D2E/DX2                !
 ! D24   D(6,3,8,13)          -160.9626         estimate D2E/DX2                !
 ! D25   D(7,3,8,9)             83.3814         estimate D2E/DX2                !
 ! D26   D(7,3,8,10)          -168.7702         estimate D2E/DX2                !
 ! D27   D(7,3,8,13)           -48.2281         estimate D2E/DX2                !
 ! D28   D(3,8,9,11)            41.5941         estimate D2E/DX2                !
 ! D29   D(3,8,9,12)           -68.3667         estimate D2E/DX2                !
 ! D30   D(3,8,9,15)           165.8234         estimate D2E/DX2                !
 ! D31   D(10,8,9,11)          -73.5762         estimate D2E/DX2                !
 ! D32   D(10,8,9,12)          176.463          estimate D2E/DX2                !
 ! D33   D(10,8,9,15)           50.6531         estimate D2E/DX2                !
 ! D34   D(13,8,9,11)          165.9707         estimate D2E/DX2                !
 ! D35   D(13,8,9,12)           56.0098         estimate D2E/DX2                !
 ! D36   D(13,8,9,15)          -69.8001         estimate D2E/DX2                !
 ! D37   D(3,8,13,14)         -177.7428         estimate D2E/DX2                !
 ! D38   D(9,8,13,14)           54.5179         estimate D2E/DX2                !
 ! D39   D(10,8,13,14)         -58.6167         estimate D2E/DX2                !
 ! D40   D(8,9,15,16)          -76.507          estimate D2E/DX2                !
 ! D41   D(8,9,15,17)          172.4299         estimate D2E/DX2                !
 ! D42   D(8,9,15,18)           52.833          estimate D2E/DX2                !
 ! D43   D(11,9,15,16)          46.7418         estimate D2E/DX2                !
 ! D44   D(11,9,15,17)         -64.3213         estimate D2E/DX2                !
 ! D45   D(11,9,15,18)         176.0818         estimate D2E/DX2                !
 ! D46   D(12,9,15,16)         157.5799         estimate D2E/DX2                !
 ! D47   D(12,9,15,17)          46.5168         estimate D2E/DX2                !
 ! D48   D(12,9,15,18)         -73.0801         estimate D2E/DX2                !
 ! D49   D(19,20,21,24)        -63.5534         estimate D2E/DX2                !
 ! D50   D(19,20,21,25)       -170.1674         estimate D2E/DX2                !
 ! D51   D(19,20,21,26)         61.2875         estimate D2E/DX2                !
 ! D52   D(22,20,21,24)        170.7731         estimate D2E/DX2                !
 ! D53   D(22,20,21,25)         64.1591         estimate D2E/DX2                !
 ! D54   D(22,20,21,26)        -64.386          estimate D2E/DX2                !
 ! D55   D(23,20,21,24)         53.3269         estimate D2E/DX2                !
 ! D56   D(23,20,21,25)        -53.2872         estimate D2E/DX2                !
 ! D57   D(23,20,21,26)        178.1677         estimate D2E/DX2                !
 ! D58   D(20,21,26,27)       -178.9746         estimate D2E/DX2                !
 ! D59   D(20,21,26,28)        -54.5254         estimate D2E/DX2                !
 ! D60   D(20,21,26,31)         59.2392         estimate D2E/DX2                !
 ! D61   D(24,21,26,27)        -55.676          estimate D2E/DX2                !
 ! D62   D(24,21,26,28)         68.7733         estimate D2E/DX2                !
 ! D63   D(24,21,26,31)       -177.4622         estimate D2E/DX2                !
 ! D64   D(25,21,26,27)         50.5765         estimate D2E/DX2                !
 ! D65   D(25,21,26,28)        175.0257         estimate D2E/DX2                !
 ! D66   D(25,21,26,31)        -71.2097         estimate D2E/DX2                !
 ! D67   D(21,26,27,29)         47.7627         estimate D2E/DX2                !
 ! D68   D(21,26,27,30)        -61.1441         estimate D2E/DX2                !
 ! D69   D(21,26,27,33)        170.4288         estimate D2E/DX2                !
 ! D70   D(28,26,27,29)        -75.5056         estimate D2E/DX2                !
 ! D71   D(28,26,27,30)        175.5877         estimate D2E/DX2                !
 ! D72   D(28,26,27,33)         47.1605         estimate D2E/DX2                !
 ! D73   D(31,26,27,29)        170.8929         estimate D2E/DX2                !
 ! D74   D(31,26,27,30)         61.9861         estimate D2E/DX2                !
 ! D75   D(31,26,27,33)        -66.441          estimate D2E/DX2                !
 ! D76   D(21,26,31,32)        -78.6519         estimate D2E/DX2                !
 ! D77   D(27,26,31,32)        155.6776         estimate D2E/DX2                !
 ! D78   D(28,26,31,32)         37.8105         estimate D2E/DX2                !
 ! D79   D(26,27,33,34)        165.8925         estimate D2E/DX2                !
 ! D80   D(26,27,33,35)         47.7029         estimate D2E/DX2                !
 ! D81   D(26,27,33,36)        -76.7886         estimate D2E/DX2                !
 ! D82   D(29,27,33,34)        -75.2679         estimate D2E/DX2                !
 ! D83   D(29,27,33,35)        166.5424         estimate D2E/DX2                !
 ! D84   D(29,27,33,36)         42.0509         estimate D2E/DX2                !
 ! D85   D(30,27,33,34)         38.5072         estimate D2E/DX2                !
 ! D86   D(30,27,33,35)        -79.6825         estimate D2E/DX2                !
 ! D87   D(30,27,33,36)        155.826          estimate D2E/DX2                !
 --------------------------------------------------------------------------------
 Trust Radius=3.00D-01 FncErr=1.00D-07 GrdErr=1.00D-06 EigMax=2.50D+02 EigMin=1.00D-04
 Number of steps in this run=    198 maximum allowed number of steps=    216.
 GradGradGradGradGradGradGradGradGradGradGradGradGradGradGradGradGradGrad

 Leave Link  103 at Mon Feb 13 12:25:50 2023, MaxMem=   131072000 cpu:               0.1 elap:               0.0
 (Enter /dragofs/sw/campus/0.2/software/gaussian/16.gaussian/gaussian/g16_legacy/l202.exe)
                          Input orientation:                          
 ---------------------------------------------------------------------
 Center     Atomic      Atomic             Coordinates (Angstroms)
 Number     Number       Type             X           Y           Z
 ---------------------------------------------------------------------
      1          1           0        2.054000    1.899000   14.716000
      2          6           0        3.083000    1.897000   14.214000
      3          6           0        2.992000    2.129000   12.709000
      4          1           0        3.625000    2.661000   14.811000
      5          1           0        3.621000    0.922000   14.375000
      6          1           0        4.045000    2.158000   12.203000
      7          1           0        2.549000    3.104000   12.523000
      8          6           0        2.051000    1.262000   12.034000
      9          6           0        2.313000    1.157000   10.600000
     10          1           0        2.259000    0.195000   12.307000
     11          1           0        3.391000    1.077000   10.496000
     12          1           0        2.081000    2.175000   10.118000
     13          8           0        0.808000    1.665000   12.461000
     14          1           0        0.231000    1.041000   12.017000
     15          6           0        1.665000    0.066000    9.735000
     16          1           0        1.992000   -0.963000    9.732000
     17          1           0        1.895000    0.261000    8.676000
     18          1           0        0.594000   -0.003000    9.803000
     19          1           0        3.268000   -7.110000   16.315000
     20          6           0        2.768000   -6.757000   15.408000
     21          6           0        2.805000   -5.184000   15.310000
     22          1           0        3.160000   -7.309000   14.549000
     23          1           0        1.722000   -7.107000   15.486000
     24          1           0        2.213000   -4.839000   16.192000
     25          1           0        2.129000   -4.819000   14.463000
     26          6           0        3.995000   -4.379000   15.234000
     27          6           0        3.753000   -2.956000   15.175000
     28          1           0        4.656000   -4.635000   16.102000
     29          1           0        3.061000   -2.791000   15.945000
     30          1           0        3.165000   -2.720000   14.266000
     31          8           0        4.757000   -4.736000   14.096000
     32          1           0        5.242000   -5.552000   14.303000
     33          6           0        5.030000   -1.978000   15.327000
     34          1           0        4.759000   -0.992000   15.025000
     35          1           0        5.794000   -2.337000   14.680000
     36          1           0        5.298000   -1.941000   16.335000
 ---------------------------------------------------------------------
                    Distance matrix (angstroms):
                    1          2          3          4          5
     1  H    0.000000
     2  C    1.144923   0.000000
     3  C    2.227284   1.525493   0.000000
     4  H    1.748631   1.110797   2.258787   0.000000
     5  H    1.877844   1.125162   2.151289   1.792828   0.000000
     6  H    3.216571   2.244479   1.168626   2.689065   2.534769
     7  H    2.550745   2.145107   1.086954   2.566899   3.056176
     8  C    2.756611   2.494123   1.446650   3.485169   2.839151
     9  C    4.190358   3.768487   2.419443   4.660030   4.002089
    10  H    2.957858   2.685597   2.106953   3.770561   2.580736
    11  H    4.502405   3.819789   2.482594   4.602503   3.888903
    12  H    4.606355   4.225932   2.746874   4.964311   4.697197
    13  O    2.586947   2.881399   2.246476   3.801316   3.482587
    14  H    3.368099   3.700466   3.047249   4.685090   4.131153
    15  C    5.321801   5.042294   3.855071   6.028383   5.107668
    16  H    5.747621   5.427541   4.407152   6.449520   5.269185
    17  H    6.260186   5.895531   4.577982   6.811103   5.991210
    18  H    5.466880   5.409440   4.329049   6.431479   5.560714
    19  H    9.229988   9.250647   9.921619   9.892518   8.270504
    20  C    8.712921   8.741658   9.289552   9.475736   7.794982
    21  C    7.147428   7.170709   7.764029   7.903507   6.230836
    22  H    9.275688   9.212415   9.617155   9.984276   8.245736
    23  H    9.044952   9.194690   9.727709   9.974510   8.324984
    24  H    6.899602   7.074113   7.828867   7.755701   6.202667
    25  H    6.723181   6.787987   7.217755   7.636067   5.932359
    26  C    6.591592   6.423420   7.052354   7.062395   5.383155
    27  C    5.164137   4.992397   5.702412   5.630237   3.961857
    28  H    7.168302   6.978961   7.748099   7.480726   5.910499
    29  H    4.951827   4.997418   5.889215   5.597174   4.069996
    30  H    4.772000   4.618021   5.095781   5.428055   3.672054
    31  O    7.191233   6.841995   7.222688   7.517197   5.777655
    32  H    8.114882   7.756082   8.160950   8.386067   6.674242
    33  C    4.925548   4.477187   5.279661   4.874485   3.361783
    34  H    3.971195   3.437007   4.269284   3.830948   2.319685
    35  H    5.650893   5.049102   5.628606   5.449929   3.928872
    36  H    5.281126   4.912750   5.918650   5.128344   3.853660
                    6          7          8          9         10
     6  H    0.000000
     7  H    1.798703   0.000000
     8  C    2.192581   1.969794   0.000000
     9  C    2.563481   2.746713   1.461515   0.000000
    10  H    2.655933   2.931388   1.120840   1.960155   0.000000
    11  H    2.123706   2.987712   2.048236   1.085956   2.310643
    12  H    2.864404   2.620322   2.122622   1.149988   2.956993
    13  O    3.284476   2.259568   1.374695   2.446714   2.071236
    14  H    3.978553   3.144062   1.833448   2.521125   2.216439
    15  C    4.016452   4.217090   2.620079   1.535712   2.642851
    16  H    4.478983   4.963912   3.202079   2.313194   2.835997
    17  H    4.545419   4.828020   3.507492   2.163173   3.649796
    18  H    4.726449   4.568793   2.949650   2.221659   3.013544
    19  H   10.168977  10.918884   9.481478  10.095372   8.393162
    20  C    9.559288  10.276697   8.729394   9.271207   7.629259
    21  C    8.068210   8.747791   7.269911   7.914193   6.184640
    22  H    9.793418  10.625844   9.000953   9.380041   7.883424
    23  H   10.100230  10.664325   9.058957   9.618522   7.982081
    24  H    8.259925   8.755895   7.384945   8.199541   6.358970
    25  H    7.580052   8.167860   6.548640   7.118230   5.459435
    26  C    7.205680   8.089235   6.770526   7.412852   5.701096
    27  C    5.922081   6.723565   5.527586   6.318306   4.515115
    28  H    7.856231   8.782984   7.622943   8.325198   6.593674
    29  H    6.281992   6.835441   5.722135   6.686945   4.774353
    30  H    5.368915   6.110359   4.698845   5.403387   3.627085
    31  O    7.184541   8.295492   6.895671   7.274792   5.809930
    32  H    8.080031   9.238343   7.858845   8.203775   6.775715
    33  C    5.275993   6.312250   5.496898   6.289264   4.639048
    34  H    4.289054   5.284063   4.621673   5.493791   3.878981
    35  H    5.422136   6.692321   5.827878   6.400922   4.953623
    36  H    5.953590   6.894953   6.269037   7.169244   5.479307
                   11         12         13         14         15
    11  H    0.000000
    12  H    1.750596   0.000000
    13  O    3.298311   2.714826   0.000000
    14  H    3.507184   2.883515   0.958875   0.000000
    15  C    2.140168   2.183489   3.274496   2.866096   0.000000
    16  H    2.588918   3.162904   3.969343   3.512600   1.079712
    17  H    2.493245   2.403613   4.180791   3.813080   1.101093
    18  H    3.077313   2.655951   3.145311   2.474571   1.075372
    19  H   10.045042  11.225997   9.894723   9.702318   9.867167
    20  C    9.267547  10.403687   9.135453   8.873785   8.941637
    21  C    7.919477   9.035260   7.682032   7.497996   7.742269
    22  H    9.316929  10.523510   9.509171   9.203943   8.933098
    23  H    9.729518  10.728459   9.323841   8.980364   9.193975
    24  H    8.296454   9.279391   7.628657   7.478860   8.127249
    25  H    7.217517   8.233916   6.913415   6.627588   6.814140
    26  C    7.251303   8.531809   7.374038   7.341198   7.444859
    27  C    6.187825   7.395674   6.114938   6.193017   6.563980
    28  H    8.102741   9.424170   8.231281   8.275556   8.460743
    29  H    6.690435   7.718516   6.088530   6.174327   6.976773
    30  H    5.355482   6.507072   5.295441   5.273659   5.526460
    31  O    6.972584   8.411146   7.696793   7.627624   7.185958
    32  H    7.865309   9.338773   8.668241   8.590900   8.076105
    33  C    5.946252   7.285444   6.269824   6.565125   6.838978
    34  H    5.163722   6.424969   5.407786   5.803786   6.219027
    35  H    5.910640   7.413255   6.767582   7.032028   6.875760
    36  H    6.843895   8.120445   6.940548   7.294651   7.796585
                   16         17         18         19         20
    16  H    0.000000
    17  H    1.619482   0.000000
    18  H    1.697364   1.741386   0.000000
    19  H    9.096685  10.703789  10.003293   0.000000
    20  C    8.147981   9.763927   9.042058   1.094193   0.000000
    21  C    7.042151   8.630532   7.877711   2.221232   1.576484
    22  H    8.052293   9.664225   9.082208   1.780455   1.093732
    23  H    8.422004  10.034613   9.167098   1.754242   1.105758
    24  H    7.536831   9.088530   8.174801   2.507109   2.145089
    25  H    6.104905   7.703929   6.875004   3.158466   2.248820
    26  C    6.778869   8.303431   7.759635   3.025798   2.681546
    27  C    6.058005   7.485870   6.896222   4.334806   3.933461
    28  H    7.820318   9.313400   8.810940   2.845617   2.923878
    29  H    6.563971   7.969481   7.182144   4.339759   4.012901
    30  H    5.002013   6.461220   5.823272   4.845731   4.214160
    31  O    6.397285   7.908063   7.626382   3.574487   3.124405
    32  H    7.246755   8.755370   8.523222   3.220588   2.965422
    33  C    6.446991   7.686166   7.354815   5.515271   5.287915
    34  H    5.972686   7.076885   6.752380   6.427838   6.111137
    35  H    6.389506   7.615761   7.501512   5.642289   5.405836
    36  H    7.448874   8.665419   8.279522   5.553365   5.518522
                   21         22         23         24         25
    21  C    0.000000
    22  H    2.284901   0.000000
    23  H    2.214000   1.728183   0.000000
    24  H    1.116876   3.114026   2.425560   0.000000
    25  H    1.143508   2.696378   2.539118   1.731155   0.000000
    26  C    1.438715   3.122715   3.559778   2.074822   2.066397
    27  C    2.425059   4.437582   4.631683   2.636585   2.571982
    28  H    2.086832   3.435128   3.885691   2.453154   3.017599
    29  H    2.489018   4.729793   4.542186   2.230340   2.679129
    30  H    2.700154   4.597721   4.776653   3.017605   2.349022
    31  O    2.341966   3.062017   4.094504   3.297842   2.654800
    32  H    2.662413   2.735377   4.025905   3.640265   3.202133
    33  C    3.902480   5.702784   6.105308   4.107193   4.151334
    34  H    4.633811   6.533595   6.843180   4.758510   4.677464
    35  H    4.175695   5.628135   6.323268   4.622738   4.431663
    36  H    4.216957   6.047831   6.340042   4.235101   4.672240
                   26         27         28         29         30
    26  C    0.000000
    27  C    1.444636   0.000000
    28  H    1.120661   2.119854   0.000000
    29  H    1.974746   1.048327   2.443156   0.000000
    30  H    2.092416   1.108026   3.043222   1.683716   0.000000
    31  O    1.415322   2.310986   2.011079   3.174625   2.574416
    32  H    1.948769   3.117166   2.102543   3.882788   3.512196
    33  C    2.616233   1.615648   2.792875   2.218074   2.270355
    34  H    3.478383   2.211749   3.800261   2.639319   2.470405
    35  H    2.777243   2.189490   2.932223   3.045592   2.688815
    36  H    2.975543   2.182395   2.779225   2.424617   3.072017
                   31         32         33         34         35
    31  O    0.000000
    32  H    0.971561   0.000000
    33  C    3.032566   3.723842   0.000000
    34  H    3.857536   4.642001   1.066227   0.000000
    35  H    2.677989   3.283757   1.063572   1.731842   0.000000
    36  H    3.621854   4.143849   1.043675   1.705058   1.772528
                   36
    36  H    0.000000
 Stoichiometry    C10H24O2
 Framework group  C1[X(C10H24O2)]
 Deg. of freedom   102
 Full point group                 C1      NOp   1
 Largest Abelian subgroup         C1      NOp   1
 Largest concise Abelian subgroup C1      NOp   1
                         Standard orientation:                         
 ---------------------------------------------------------------------
 Center     Atomic      Atomic             Coordinates (Angstroms)
 Number     Number       Type             X           Y           Z
 ---------------------------------------------------------------------
      1          1           0        2.611040   -2.132314    1.597098
      2          6           0        2.622099   -2.232331    0.456606
      3          6           0        3.523000   -1.194548   -0.205599
      4          1           0        2.901730   -3.299636    0.328017
      5          1           0        1.591724   -2.115031    0.020078
      6          1           0        3.557754   -1.317958   -1.367170
      7          1           0        4.544901   -1.336930    0.136330
      8          6           0        3.272416    0.164179    0.223197
      9          6           0        3.775447    1.154620   -0.726545
     10          1           0        2.180316    0.395582    0.122940
     11          1           0        3.528633    0.776974   -1.714354
     12          1           0        4.924590    1.112751   -0.712783
     13          8           0        3.687591    0.219105    1.532548
     14          1           0        3.467449    1.120200    1.775458
     15          6           0        3.355541    2.630220   -0.658021
     16          1           0        2.396458    2.992008   -0.997207
     17          1           0        3.955770    3.209993   -1.376349
     18          1           0        3.487969    3.104998    0.297737
     19          1           0       -6.177625    0.591130    0.865737
     20          6           0       -5.357120    1.315022    0.862725
     21          6           0       -3.956394    0.591656    0.865984
     22          1           0       -5.528888    2.042741    0.064496
     23          1           0       -5.478103    1.910077    1.786831
     24          1           0       -3.932891    0.041094    1.837448
     25          1           0       -3.115972    1.345973    1.045722
     26          6           0       -3.471726   -0.296126   -0.157170
     27          6           0       -2.160623   -0.846161    0.098648
     28          1           0       -4.223999   -1.113033   -0.307596
     29          1           0       -2.221730   -1.179107    1.090818
     30          1           0       -1.422349   -0.022541    0.164405
     31          8           0       -3.425239    0.371440   -1.404299
     32          1           0       -4.327501    0.400356   -1.763489
     33          6           0       -1.647178   -2.027761   -0.876294
     34          1           0       -0.599084   -2.168785   -0.740455
     35          1           0       -1.824937   -1.722560   -1.879509
     36          1           0       -2.126851   -2.912966   -0.601370
 ---------------------------------------------------------------------
 Rotational constants (GHZ):           1.0281435           0.2200755           0.2020266
 Leave Link  202 at Mon Feb 13 12:25:50 2023, MaxMem=   131072000 cpu:               0.0 elap:               0.0
 (Enter /dragofs/sw/campus/0.2/software/gaussian/16.gaussian/gaussian/g16_legacy/l301.exe)
 Standard basis: 6-311G(d,p) (5D, 7F)
 Ernie: Thresh=  0.10000D-02 Tol=  0.10000D-05 Strict=F.
 There are   372 symmetry adapted cartesian basis functions of A   symmetry.
 There are   360 symmetry adapted basis functions of A   symmetry.
   360 basis functions,   576 primitive gaussians,   372 cartesian basis functions
    50 alpha electrons       50 beta electrons
       nuclear repulsion energy       711.2068650576 Hartrees.
 IExCor=  402 DFT=T Ex=B Corr=LYP ExCW=0 ScaHFX=  0.000000
 ScaDFX=  1.000000  1.000000  1.000000  1.000000 ScalE2=  1.000000  1.000000
 IRadAn=      5 IRanWt=     -1 IRanGd=            0 ICorTp=0 IEmpDi=131
 NAtoms=   36 NActive=   36 NUniq=   36 SFac= 1.00D+00 NAtFMM=   60 NAOKFM=F Big=F
 Integral buffers will be    131072 words long.
 Raffenetti 2 integral format.
 Two-electron integral symmetry is turned on.
 R6Disp:  Grimme-D3 Dispersion energy=       -0.0319104009 Hartrees.
 Nuclear repulsion after empirical dispersion term =      711.1749546567 Hartrees.
 Leave Link  301 at Mon Feb 13 12:25:50 2023, MaxMem=   131072000 cpu:               0.4 elap:               0.1
 (Enter /dragofs/sw/campus/0.2/software/gaussian/16.gaussian/gaussian/g16_legacy/l302.exe)
 NPDir=0 NMtPBC=     1 NCelOv=     1 NCel=       1 NClECP=     1 NCelD=      1
         NCelK=      1 NCelE2=     1 NClLst=     1 CellRange=     0.0.
 One-electron integrals computed using PRISM.
 One-electron integral symmetry used in STVInt
 NBasis=   360 RedAO= T EigKep=  1.25D-03  NBF=   360
 NBsUse=   360 1.00D-06 EigRej= -1.00D+00 NBFU=   360
 Precomputing XC quadrature grid using
 IXCGrd= 4 IRadAn=           5 IRanWt=          -1 IRanGd=           0 AccXCQ= 0.00D+00.
 Generated NRdTot=       0 NPtTot=           0 NUsed=           0 NTot=          32
 NSgBfM=   371   371   371   371   371 MxSgAt=    36 MxSgA2=    36.
 Leave Link  302 at Mon Feb 13 12:25:50 2023, MaxMem=   131072000 cpu:               3.2 elap:               0.4
 (Enter /dragofs/sw/campus/0.2/software/gaussian/16.gaussian/gaussian/g16_legacy/l303.exe)
 DipDrv:  MaxL=1.
 Leave Link  303 at Mon Feb 13 12:25:51 2023, MaxMem=   131072000 cpu:               0.3 elap:               0.1
 (Enter /dragofs/sw/campus/0.2/software/gaussian/16.gaussian/gaussian/g16_legacy/l401.exe)
 ExpMin= 1.03D-01 ExpMax= 8.59D+03 ExpMxC= 1.30D+03 IAcc=3 IRadAn=         5 AccDes= 0.00D+00
 Harris functional with IExCor=  402 and IRadAn=       5 diagonalized for initial guess.
 HarFok:  IExCor=  402 AccDes= 0.00D+00 IRadAn=         5 IDoV= 1 UseB2=F ITyADJ=14
 ICtDFT=  3500011 ScaDFX=  1.000000  1.000000  1.000000  1.000000
 FoFCou: FMM=F IPFlag=           0 FMFlag=      100000 FMFlg1=           0
         NFxFlg=           0 DoJE=T BraDBF=F KetDBF=T FulRan=T
         wScrn=  0.000000 ICntrl=       500 IOpCl=  0 I1Cent=   200000004 NGrid=           0
         NMat0=    1 NMatS0=      1 NMatT0=    0 NMatD0=    1 NMtDS0=    0 NMtDT0=    0
 Petite list used in FoFCou.
 Harris En= -546.265099242914    
 JPrj=0 DoOrth=F DoCkMO=F.
 Leave Link  401 at Mon Feb 13 12:25:53 2023, MaxMem=   131072000 cpu:              17.1 elap:               2.2
 (Enter /dragofs/sw/campus/0.2/software/gaussian/16.gaussian/gaussian/g16_legacy/l502.exe)
 Integral symmetry usage will be decided dynamically.
 Closed shell SCF:
 Using DIIS extrapolation, IDIIS=  1040.
 NGot=   131072000 LenX=   130788220 LenY=   130649395
 Requested convergence on RMS density matrix=1.00D-08 within 128 cycles.
 Requested convergence on MAX density matrix=1.00D-06.
 Requested convergence on             energy=1.00D-06.
 No special actions if energy rises.
 Fock matrices will be formed incrementally for  20 cycles.
 Integral accuracy reduced to 1.0D-05 until final iterations.

 Cycle   1  Pass 0  IDiag  1:
 FoFJK:  IHMeth= 1 ICntrl=     500 DoSepK=F KAlg= 0 I1Cent=           0 FoldK=F
 IRaf= 740000000 NMat=       1 IRICut=       1 DoRegI=T DoRafI=F ISym2E= 0 IDoP0=0 IntGTp=1.
 FoFCou: FMM=F IPFlag=           0 FMFlag=      100000 FMFlg1=           0
         NFxFlg=           0 DoJE=T BraDBF=F KetDBF=F FulRan=T
         wScrn=  0.000000 ICntrl=       500 IOpCl=  0 I1Cent=           0 NGrid=           0
         NMat0=    1 NMatS0=      1 NMatT0=    0 NMatD0=    1 NMtDS0=    0 NMtDT0=    0
 Symmetry not used in FoFCou.
 E= -545.243909649217    
 DIIS: error= 3.39D-02 at cycle   1 NSaved=   1.
 NSaved= 1 IEnMin= 1 EnMin= -545.243909649217     IErMin= 1 ErrMin= 3.39D-02
 ErrMax= 3.39D-02  0.00D+00 EMaxC= 1.00D-01 BMatC= 5.51D-01 BMatP= 5.51D-01
 IDIUse=3 WtCom= 6.61D-01 WtEn= 3.39D-01
 Coeff-Com:  0.100D+01
 Coeff-En:   0.100D+01
 Coeff:      0.100D+01
 Gap=     0.124 Goal=   None    Shift=    0.000
 GapD=    0.124 DampG=1.000 DampE=0.500 DampFc=0.5000 IDamp=-1.
 Damping current iteration by 5.00D-01
 RMSDP=5.47D-03 MaxDP=2.25D-01              OVMax= 2.39D-01

 Cycle   2  Pass 0  IDiag  1:
 RMSU=  2.72D-03    CP:  9.69D-01
 E= -545.355686792172     Delta-E=       -0.111777142955 Rises=F Damp=T
 DIIS: error= 1.34D-02 at cycle   2 NSaved=   2.
 NSaved= 2 IEnMin= 2 EnMin= -545.355686792172     IErMin= 2 ErrMin= 1.34D-02
 ErrMax= 1.34D-02  0.00D+00 EMaxC= 1.00D-01 BMatC= 8.15D-02 BMatP= 5.51D-01
 IDIUse=3 WtCom= 8.66D-01 WtEn= 1.34D-01
 Coeff-Com:  0.252D+00 0.748D+00
 Coeff-En:   0.404D+00 0.596D+00
 Coeff:      0.272D+00 0.728D+00
 Gap=     0.230 Goal=   None    Shift=    0.000
 RMSDP=1.50D-03 MaxDP=7.77D-02 DE=-1.12D-01 OVMax= 1.98D-01

 Cycle   3  Pass 0  IDiag  1:
 RMSU=  8.29D-04    CP:  9.77D-01  5.39D-01
 E= -545.776962974312     Delta-E=       -0.421276182140 Rises=F Damp=F
 DIIS: error= 7.94D-03 at cycle   3 NSaved=   3.
 NSaved= 3 IEnMin= 3 EnMin= -545.776962974312     IErMin= 3 ErrMin= 7.94D-03
 ErrMax= 7.94D-03  0.00D+00 EMaxC= 1.00D-01 BMatC= 1.83D-02 BMatP= 8.15D-02
 IDIUse=3 WtCom= 9.21D-01 WtEn= 7.94D-02
 Coeff-Com:  0.105D+00 0.363D+00 0.532D+00
 Coeff-En:   0.000D+00 0.000D+00 0.100D+01
 Coeff:      0.967D-01 0.334D+00 0.569D+00
 Gap=     0.222 Goal=   None    Shift=    0.000
 RMSDP=5.02D-04 MaxDP=1.73D-02 DE=-4.21D-01 OVMax= 3.30D-02

 Cycle   4  Pass 0  IDiag  1:
 RMSU=  3.48D-04    CP:  9.81D-01  6.10D-01  6.32D-01
 E= -545.787038417303     Delta-E=       -0.010075442990 Rises=F Damp=F
 DIIS: error= 4.67D-03 at cycle   4 NSaved=   4.
 NSaved= 4 IEnMin= 4 EnMin= -545.787038417303     IErMin= 4 ErrMin= 4.67D-03
 ErrMax= 4.67D-03  0.00D+00 EMaxC= 1.00D-01 BMatC= 6.41D-03 BMatP= 1.83D-02
 IDIUse=3 WtCom= 9.53D-01 WtEn= 4.67D-02
 Coeff-Com:  0.236D-01 0.104D+00 0.369D+00 0.504D+00
 Coeff-En:   0.000D+00 0.000D+00 0.273D+00 0.727D+00
 Coeff:      0.225D-01 0.989D-01 0.364D+00 0.514D+00
 Gap=     0.218 Goal=   None    Shift=    0.000
 RMSDP=2.08D-04 MaxDP=9.42D-03 DE=-1.01D-02 OVMax= 1.31D-02

 Cycle   5  Pass 0  IDiag  1:
 RMSU=  1.18D-04    CP:  9.78D-01  5.94D-01  7.27D-01  5.93D-01
 E= -545.791954722142     Delta-E=       -0.004916304839 Rises=F Damp=F
 DIIS: error= 9.06D-04 at cycle   5 NSaved=   5.
 NSaved= 5 IEnMin= 5 EnMin= -545.791954722142     IErMin= 5 ErrMin= 9.06D-04
 ErrMax= 9.06D-04  0.00D+00 EMaxC= 1.00D-01 BMatC= 2.33D-04 BMatP= 6.41D-03
 IDIUse=3 WtCom= 9.91D-01 WtEn= 9.06D-03
 Coeff-Com:  0.312D-02 0.200D-01 0.130D+00 0.249D+00 0.597D+00
 Coeff-En:   0.000D+00 0.000D+00 0.000D+00 0.000D+00 0.100D+01
 Coeff:      0.309D-02 0.198D-01 0.129D+00 0.247D+00 0.601D+00
 Gap=     0.217 Goal=   None    Shift=    0.000
 RMSDP=4.66D-05 MaxDP=1.96D-03 DE=-4.92D-03 OVMax= 2.17D-03

 Cycle   6  Pass 0  IDiag  1:
 RMSU=  2.34D-05    CP:  9.78D-01  5.94D-01  7.32D-01  6.21D-01  6.73D-01
 E= -545.792122097050     Delta-E=       -0.000167374909 Rises=F Damp=F
 DIIS: error= 2.95D-04 at cycle   6 NSaved=   6.
 NSaved= 6 IEnMin= 6 EnMin= -545.792122097050     IErMin= 6 ErrMin= 2.95D-04
 ErrMax= 2.95D-04  0.00D+00 EMaxC= 1.00D-01 BMatC= 3.36D-05 BMatP= 2.33D-04
 IDIUse=3 WtCom= 9.97D-01 WtEn= 2.95D-03
 Coeff-Com:  0.730D-03 0.529D-02 0.544D-01 0.116D+00 0.364D+00 0.460D+00
 Coeff-En:   0.000D+00 0.000D+00 0.000D+00 0.000D+00 0.600D-01 0.940D+00
 Coeff:      0.728D-03 0.527D-02 0.543D-01 0.116D+00 0.363D+00 0.461D+00
 Gap=     0.217 Goal=   None    Shift=    0.000
 RMSDP=1.28D-05 MaxDP=6.44D-04 DE=-1.67D-04 OVMax= 8.67D-04

 Cycle   7  Pass 0  IDiag  1:
 RMSU=  8.06D-06    CP:  9.78D-01  5.95D-01  7.32D-01  6.20D-01  7.05D-01
                    CP:  6.16D-01
 E= -545.792150931302     Delta-E=       -0.000028834251 Rises=F Damp=F
 DIIS: error= 5.04D-05 at cycle   7 NSaved=   7.
 NSaved= 7 IEnMin= 7 EnMin= -545.792150931302     IErMin= 7 ErrMin= 5.04D-05
 ErrMax= 5.04D-05  0.00D+00 EMaxC= 1.00D-01 BMatC= 1.08D-06 BMatP= 3.36D-05
 IDIUse=1 WtCom= 1.00D+00 WtEn= 0.00D+00
 Coeff-Com:  0.333D-03 0.918D-03 0.153D-01 0.341D-01 0.120D+00 0.216D+00
 Coeff-Com:  0.613D+00
 Coeff:      0.333D-03 0.918D-03 0.153D-01 0.341D-01 0.120D+00 0.216D+00
 Coeff:      0.613D+00
 Gap=     0.217 Goal=   None    Shift=    0.000
 RMSDP=3.75D-06 MaxDP=1.02D-04 DE=-2.88D-05 OVMax= 2.18D-04

 Initial convergence to 1.0D-05 achieved.  Increase integral accuracy.
 Cycle   8  Pass 1  IDiag  1:
 E= -545.792151277978     Delta-E=       -0.000000346676 Rises=F Damp=F
 DIIS: error= 3.01D-05 at cycle   1 NSaved=   1.
 NSaved= 1 IEnMin= 1 EnMin= -545.792151277978     IErMin= 1 ErrMin= 3.01D-05
 ErrMax= 3.01D-05  0.00D+00 EMaxC= 1.00D-01 BMatC= 2.13D-07 BMatP= 2.13D-07
 IDIUse=1 WtCom= 1.00D+00 WtEn= 0.00D+00
 Coeff-Com:  0.100D+01
 Coeff:      0.100D+01
 Gap=     0.217 Goal=   None    Shift=    0.000
 RMSDP=3.75D-06 MaxDP=1.02D-04 DE=-3.47D-07 OVMax= 1.51D-04

 Cycle   9  Pass 1  IDiag  1:
 RMSU=  9.83D-06    CP:  1.00D+00
 E= -545.792151180707     Delta-E=        0.000000097271 Rises=F Damp=F
 DIIS: error= 3.74D-05 at cycle   2 NSaved=   2.
 NSaved= 2 IEnMin= 1 EnMin= -545.792151277978     IErMin= 1 ErrMin= 3.01D-05
 ErrMax= 3.74D-05  0.00D+00 EMaxC= 1.00D-01 BMatC= 4.08D-07 BMatP= 2.13D-07
 IDIUse=1 WtCom= 1.00D+00 WtEn= 0.00D+00
 Coeff-Com:  0.593D+00 0.407D+00
 Coeff:      0.593D+00 0.407D+00
 Gap=     0.217 Goal=   None    Shift=    0.000
 RMSDP=1.77D-06 MaxDP=6.83D-05 DE= 9.73D-08 OVMax= 1.11D-04

 Cycle  10  Pass 1  IDiag  1:
 RMSU=  1.72D-06    CP:  1.00D+00  9.58D-01
 E= -545.792151505648     Delta-E=       -0.000000324941 Rises=F Damp=F
 DIIS: error= 1.03D-05 at cycle   3 NSaved=   3.
 NSaved= 3 IEnMin= 3 EnMin= -545.792151505648     IErMin= 3 ErrMin= 1.03D-05
 ErrMax= 1.03D-05  0.00D+00 EMaxC= 1.00D-01 BMatC= 2.16D-08 BMatP= 2.13D-07
 IDIUse=1 WtCom= 1.00D+00 WtEn= 0.00D+00
 Coeff-Com:  0.952D-01 0.196D+00 0.709D+00
 Coeff:      0.952D-01 0.196D+00 0.709D+00
 Gap=     0.217 Goal=   None    Shift=    0.000
 RMSDP=4.61D-07 MaxDP=2.38D-05 DE=-3.25D-07 OVMax= 2.77D-05

 Cycle  11  Pass 1  IDiag  1:
 RMSU=  3.80D-07    CP:  1.00D+00  9.62D-01  8.50D-01
 E= -545.792151516167     Delta-E=       -0.000000010519 Rises=F Damp=F
 DIIS: error= 3.73D-06 at cycle   4 NSaved=   4.
 NSaved= 4 IEnMin= 4 EnMin= -545.792151516167     IErMin= 4 ErrMin= 3.73D-06
 ErrMax= 3.73D-06  0.00D+00 EMaxC= 1.00D-01 BMatC= 5.63D-09 BMatP= 2.16D-08
 IDIUse=1 WtCom= 1.00D+00 WtEn= 0.00D+00
 Coeff-Com:  0.833D-02 0.892D-01 0.445D+00 0.458D+00
 Coeff:      0.833D-02 0.892D-01 0.445D+00 0.458D+00
 Gap=     0.217 Goal=   None    Shift=    0.000
 RMSDP=1.82D-07 MaxDP=7.59D-06 DE=-1.05D-08 OVMax= 9.60D-06

 Cycle  12  Pass 1  IDiag  1:
 RMSU=  6.73D-08    CP:  1.00D+00  9.63D-01  8.60D-01  5.59D-01
 E= -545.792151520846     Delta-E=       -0.000000004679 Rises=F Damp=F
 DIIS: error= 4.65D-07 at cycle   5 NSaved=   5.
 NSaved= 5 IEnMin= 5 EnMin= -545.792151520846     IErMin= 5 ErrMin= 4.65D-07
 ErrMax= 4.65D-07  0.00D+00 EMaxC= 1.00D-01 BMatC= 1.26D-10 BMatP= 5.63D-09
 IDIUse=1 WtCom= 1.00D+00 WtEn= 0.00D+00
 Coeff-Com:  0.300D-03 0.386D-01 0.201D+00 0.236D+00 0.525D+00
 Coeff:      0.300D-03 0.386D-01 0.201D+00 0.236D+00 0.525D+00
 Gap=     0.217 Goal=   None    Shift=    0.000
 RMSDP=4.02D-08 MaxDP=1.32D-06 DE=-4.68D-09 OVMax= 2.04D-06

 Cycle  13  Pass 1  IDiag  1:
 RMSU=  1.09D-08    CP:  1.00D+00  9.63D-01  8.52D-01  5.31D-01  4.93D-01
 E= -545.792151520977     Delta-E=       -0.000000000131 Rises=F Damp=F
 DIIS: error= 1.11D-07 at cycle   6 NSaved=   6.
 NSaved= 6 IEnMin= 6 EnMin= -545.792151520977     IErMin= 6 ErrMin= 1.11D-07
 ErrMax= 1.11D-07  0.00D+00 EMaxC= 1.00D-01 BMatC= 5.09D-12 BMatP= 1.26D-10
 IDIUse=1 WtCom= 1.00D+00 WtEn= 0.00D+00
 Coeff-Com: -0.439D-04 0.189D-01 0.989D-01 0.117D+00 0.290D+00 0.475D+00
 Coeff:     -0.439D-04 0.189D-01 0.989D-01 0.117D+00 0.290D+00 0.475D+00
 Gap=     0.217 Goal=   None    Shift=    0.000
 RMSDP=6.38D-09 MaxDP=3.01D-07 DE=-1.31D-10 OVMax= 4.06D-07

 SCF Done:  E(RB-LYP) =  -545.792151521     A.U. after   13 cycles
            NFock= 13  Conv=0.64D-08     -V/T= 2.0014
 KE= 5.450558652647D+02 PE=-2.694862708322D+03 EE= 8.928397368799D+02
 Leave Link  502 at Mon Feb 13 12:26:28 2023, MaxMem=   131072000 cpu:             283.7 elap:              35.6
 (Enter /dragofs/sw/campus/0.2/software/gaussian/16.gaussian/gaussian/g16_legacy/l601.exe)
 Copying SCF densities to generalized density rwf, IOpCl= 0 IROHF=0.

 **********************************************************************

            Population analysis using the SCF density.

 **********************************************************************

 Orbital symmetries:
       Occupied  (A) (A) (A) (A) (A) (A) (A) (A) (A) (A) (A) (A)
                 (A) (A) (A) (A) (A) (A) (A) (A) (A) (A) (A) (A)
                 (A) (A) (A) (A) (A) (A) (A) (A) (A) (A) (A) (A)
                 (A) (A) (A) (A) (A) (A) (A) (A) (A) (A) (A) (A)
                 (A) (A)
       Virtual   (A) (A) (A) (A) (A) (A) (A) (A) (A) (A) (A) (A)
                 (A) (A) (A) (A) (A) (A) (A) (A) (A) (A) (A) (A)
                 (A) (A) (A) (A) (A) (A) (A) (A) (A) (A) (A) (A)
                 (A) (A) (A) (A) (A) (A) (A) (A) (A) (A) (A) (A)
                 (A) (A) (A) (A) (A) (A) (A) (A) (A) (A) (A) (A)
                 (A) (A) (A) (A) (A) (A) (A) (A) (A) (A) (A) (A)
                 (A) (A) (A) (A) (A) (A) (A) (A) (A) (A) (A) (A)
                 (A) (A) (A) (A) (A) (A) (A) (A) (A) (A) (A) (A)
                 (A) (A) (A) (A) (A) (A) (A) (A) (A) (A) (A) (A)
                 (A) (A) (A) (A) (A) (A) (A) (A) (A) (A) (A) (A)
                 (A) (A) (A) (A) (A) (A) (A) (A) (A) (A) (A) (A)
                 (A) (A) (A) (A) (A) (A) (A) (A) (A) (A) (A) (A)
                 (A) (A) (A) (A) (A) (A) (A) (A) (A) (A) (A) (A)
                 (A) (A) (A) (A) (A) (A) (A) (A) (A) (A) (A) (A)
                 (A) (A) (A) (A) (A) (A) (A) (A) (A) (A) (A) (A)
                 (A) (A) (A) (A) (A) (A) (A) (A) (A) (A) (A) (A)
                 (A) (A) (A) (A) (A) (A) (A) (A) (A) (A) (A) (A)
                 (A) (A) (A) (A) (A) (A) (A) (A) (A) (A) (A) (A)
                 (A) (A) (A) (A) (A) (A) (A) (A) (A) (A) (A) (A)
                 (A) (A) (A) (A) (A) (A) (A) (A) (A) (A) (A) (A)
                 (A) (A) (A) (A) (A) (A) (A) (A) (A) (A) (A) (A)
                 (A) (A) (A) (A) (A) (A) (A) (A) (A) (A) (A) (A)
                 (A) (A) (A) (A) (A) (A) (A) (A) (A) (A) (A) (A)
                 (A) (A) (A) (A) (A) (A) (A) (A) (A) (A) (A) (A)
                 (A) (A) (A) (A) (A) (A) (A) (A) (A) (A) (A) (A)
                 (A) (A) (A) (A) (A) (A) (A) (A) (A) (A)
 The electronic state is 1-A.
 Alpha  occ. eigenvalues --  -18.75884 -18.74369  -9.93754  -9.93537  -9.90142
 Alpha  occ. eigenvalues --   -9.90038  -9.89937  -9.89470  -9.89151  -9.89127
 Alpha  occ. eigenvalues --   -9.88819  -9.87978  -0.94847  -0.92179  -0.72390
 Alpha  occ. eigenvalues --   -0.72114  -0.67669  -0.66869  -0.61411  -0.60958
 Alpha  occ. eigenvalues --   -0.54804  -0.54606  -0.50780  -0.50333  -0.47008
 Alpha  occ. eigenvalues --   -0.46664  -0.41446  -0.40612  -0.38395  -0.38143
 Alpha  occ. eigenvalues --   -0.37224  -0.37182  -0.36813  -0.36389  -0.34729
 Alpha  occ. eigenvalues --   -0.34310  -0.32508  -0.31894  -0.31211  -0.30690
 Alpha  occ. eigenvalues --   -0.29778  -0.29582  -0.29295  -0.28994  -0.28429
 Alpha  occ. eigenvalues --   -0.27964  -0.27148  -0.26172  -0.21363  -0.21077
 Alpha virt. eigenvalues --    0.00614   0.00725   0.02602   0.03883   0.04430
 Alpha virt. eigenvalues --    0.05063   0.05162   0.06147   0.06315   0.06989
 Alpha virt. eigenvalues --    0.07515   0.08600   0.09285   0.09656   0.09833
 Alpha virt. eigenvalues --    0.10390   0.11059   0.12320   0.12470   0.13006
 Alpha virt. eigenvalues --    0.13236   0.13527   0.14494   0.15105   0.17480
 Alpha virt. eigenvalues --    0.18417   0.19572   0.20589   0.20944   0.21154
 Alpha virt. eigenvalues --    0.22791   0.23121   0.23488   0.26190   0.26923
 Alpha virt. eigenvalues --    0.27348   0.28464   0.29084   0.29472   0.29713
 Alpha virt. eigenvalues --    0.30159   0.31294   0.32296   0.32779   0.35025
 Alpha virt. eigenvalues --    0.35789   0.38648   0.39008   0.39772   0.40333
 Alpha virt. eigenvalues --    0.40854   0.41583   0.42146   0.42396   0.45913
 Alpha virt. eigenvalues --    0.47944   0.48484   0.49259   0.50637   0.51238
 Alpha virt. eigenvalues --    0.51600   0.51716   0.52470   0.52950   0.53374
 Alpha virt. eigenvalues --    0.54023   0.54524   0.54986   0.55479   0.55620
 Alpha virt. eigenvalues --    0.56455   0.56842   0.57002   0.57166   0.58020
 Alpha virt. eigenvalues --    0.58098   0.58592   0.59094   0.59601   0.60237
 Alpha virt. eigenvalues --    0.61002   0.61309   0.61556   0.63990   0.64816
 Alpha virt. eigenvalues --    0.66588   0.67575   0.69499   0.72965   0.77691
 Alpha virt. eigenvalues --    0.79902   0.80447   0.81673   0.82590   0.82688
 Alpha virt. eigenvalues --    0.83428   0.84008   0.86799   0.88449   0.90243
 Alpha virt. eigenvalues --    0.90935   0.93975   0.97354   0.99930   1.02340
 Alpha virt. eigenvalues --    1.03930   1.07016   1.07763   1.08751   1.10912
 Alpha virt. eigenvalues --    1.14486   1.16287   1.16737   1.17417   1.19641
 Alpha virt. eigenvalues --    1.20243   1.27592   1.28389   1.28957   1.30410
 Alpha virt. eigenvalues --    1.31639   1.31683   1.33001   1.33915   1.37109
 Alpha virt. eigenvalues --    1.37161   1.39235   1.39671   1.40235   1.40730
 Alpha virt. eigenvalues --    1.41302   1.42466   1.43138   1.43805   1.44251
 Alpha virt. eigenvalues --    1.44688   1.45121   1.45766   1.48348   1.49230
 Alpha virt. eigenvalues --    1.49406   1.49628   1.50713   1.51310   1.51681
 Alpha virt. eigenvalues --    1.52038   1.53303   1.53790   1.54267   1.55751
 Alpha virt. eigenvalues --    1.57573   1.58146   1.58965   1.59894   1.62197
 Alpha virt. eigenvalues --    1.62487   1.63599   1.64896   1.65310   1.66944
 Alpha virt. eigenvalues --    1.67453   1.68344   1.69908   1.70673   1.73317
 Alpha virt. eigenvalues --    1.73964   1.74791   1.75281   1.76875   1.78021
 Alpha virt. eigenvalues --    1.79124   1.80390   1.83943   1.85634   1.87049
 Alpha virt. eigenvalues --    1.89704   1.90517   1.90963   1.94714   1.95716
 Alpha virt. eigenvalues --    1.96144   1.97887   1.98368   1.98917   2.02025
 Alpha virt. eigenvalues --    2.02419   2.03104   2.04032   2.05406   2.06084
 Alpha virt. eigenvalues --    2.07872   2.08615   2.11227   2.12341   2.13154
 Alpha virt. eigenvalues --    2.13322   2.16038   2.16469   2.18022   2.19213
 Alpha virt. eigenvalues --    2.20787   2.22984   2.24066   2.26667   2.28505
 Alpha virt. eigenvalues --    2.29020   2.30746   2.31352   2.32130   2.33092
 Alpha virt. eigenvalues --    2.35889   2.36120   2.37485   2.38084   2.39563
 Alpha virt. eigenvalues --    2.40190   2.40909   2.40953   2.42561   2.43315
 Alpha virt. eigenvalues --    2.44505   2.45874   2.46458   2.48291   2.49439
 Alpha virt. eigenvalues --    2.50445   2.50544   2.51187   2.52854   2.53047
 Alpha virt. eigenvalues --    2.54811   2.55131   2.55324   2.58698   2.59120
 Alpha virt. eigenvalues --    2.59387   2.60926   2.61151   2.62524   2.64943
 Alpha virt. eigenvalues --    2.65650   2.65929   2.67944   2.67971   2.71713
 Alpha virt. eigenvalues --    2.73350   2.75011   2.76568   2.77656   2.77977
 Alpha virt. eigenvalues --    2.81960   2.84230   2.88766   2.92467   2.93640
 Alpha virt. eigenvalues --    2.97390   2.97885   3.02071   3.08225   3.08500
 Alpha virt. eigenvalues --    3.15757   3.17211   3.20341   3.22922   3.24994
 Alpha virt. eigenvalues --    3.31081   3.45903   3.47760   3.57185   3.57960
 Alpha virt. eigenvalues --    3.62362   3.64682   3.65014   3.67185   3.68472
 Alpha virt. eigenvalues --    3.70757   3.71990   3.74261   3.75236   3.77798
 Alpha virt. eigenvalues --    3.79014   3.81713   3.82107   3.84292   3.94420
 Alpha virt. eigenvalues --    3.97612   4.02283   4.04335   4.12884   4.18333
 Alpha virt. eigenvalues --    4.36624   4.41873   4.79063   4.83242   5.19284
 Alpha virt. eigenvalues --    5.28215   5.53707   5.56439  23.43737  23.46313
 Alpha virt. eigenvalues --   23.57415  23.57580  23.61121  23.64287  23.68645
 Alpha virt. eigenvalues --   23.69271  23.69623  23.76006  49.47909  49.48772
          Condensed to atoms (all electrons):
               1          2          3          4          5          6
     1  H    0.598115   0.388860  -0.033238  -0.042060  -0.023346   0.008498
     2  C    0.388860   4.889830   0.379613   0.393572   0.392464  -0.034835
     3  C   -0.033238   0.379613   4.957844  -0.023841  -0.045098   0.391137
     4  H   -0.042060   0.393572  -0.023841   0.612341  -0.034567  -0.004310
     5  H   -0.023346   0.392464  -0.045098  -0.034567   0.591947  -0.008565
     6  H    0.008498  -0.034835   0.391137  -0.004310  -0.008565   0.637914
     7  H   -0.005622  -0.042435   0.376494  -0.006961   0.009905  -0.028305
     8  C   -0.010636  -0.055843   0.376332   0.008338  -0.008235  -0.041314
     9  C    0.001708   0.010284  -0.048751  -0.000521   0.000011  -0.007252
    10  H   -0.001511  -0.016855  -0.059390   0.000204   0.006103   0.001636
    11  H   -0.000271  -0.000242  -0.010655  -0.000096   0.000267   0.000825
    12  H   -0.000056  -0.000795  -0.012452   0.000052  -0.000014   0.001825
    13  O    0.018108  -0.009092  -0.070808  -0.000438  -0.000696   0.005000
    14  H   -0.001341  -0.000030   0.013274   0.000096  -0.000018  -0.001231
    15  C   -0.000010  -0.000332   0.009622   0.000016  -0.000032   0.000551
    16  H    0.000002  -0.000002  -0.000028   0.000001  -0.000020   0.000058
    17  H    0.000003   0.000016  -0.000402  -0.000001   0.000003  -0.000085
    18  H   -0.000046   0.000001   0.000064   0.000000   0.000010  -0.000053
    19  H    0.000000  -0.000000   0.000000  -0.000000   0.000000   0.000000
    20  C    0.000000  -0.000000   0.000000   0.000000  -0.000000   0.000000
    21  C   -0.000000  -0.000000  -0.000000  -0.000000   0.000002  -0.000000
    22  H    0.000000   0.000000   0.000000   0.000000  -0.000000   0.000000
    23  H   -0.000000   0.000000  -0.000000  -0.000000   0.000000  -0.000000
    24  H   -0.000000   0.000000   0.000000   0.000000  -0.000002   0.000000
    25  H    0.000000  -0.000000  -0.000000   0.000000   0.000001  -0.000000
    26  C    0.000000   0.000000   0.000000  -0.000000   0.000009   0.000000
    27  C    0.000004   0.000027  -0.000008  -0.000006   0.000374  -0.000002
    28  H    0.000000  -0.000000   0.000000   0.000000   0.000002  -0.000000
    29  H    0.000015   0.000018  -0.000004  -0.000003   0.000171   0.000000
    30  H   -0.000005   0.000052  -0.000011  -0.000005   0.000150   0.000002
    31  O   -0.000000  -0.000000  -0.000000  -0.000000   0.000004  -0.000000
    32  H   -0.000000   0.000000   0.000000   0.000000  -0.000000   0.000000
    33  C    0.000037  -0.001301   0.000054   0.000058  -0.000883   0.000009
    34  H   -0.000082   0.000880  -0.000046   0.000034   0.008325   0.000099
    35  H   -0.000001   0.000019  -0.000005  -0.000004   0.000054  -0.000001
    36  H   -0.000002   0.000061  -0.000002  -0.000001  -0.000163  -0.000001
               7          8          9         10         11         12
     1  H   -0.005622  -0.010636   0.001708  -0.001511  -0.000271  -0.000056
     2  C   -0.042435  -0.055843   0.010284  -0.016855  -0.000242  -0.000795
     3  C    0.376494   0.376332  -0.048751  -0.059390  -0.010655  -0.012452
     4  H   -0.006961   0.008338  -0.000521   0.000204  -0.000096   0.000052
     5  H    0.009905  -0.008235   0.000011   0.006103   0.000267  -0.000014
     6  H   -0.028305  -0.041314  -0.007252   0.001636   0.000825   0.001825
     7  H    0.620262  -0.052014  -0.016621   0.019551   0.001601   0.010365
     8  C   -0.052014   4.891647   0.361009   0.375319  -0.034729  -0.049870
     9  C   -0.016621   0.361009   5.016790  -0.098229   0.375232   0.372890
    10  H    0.019551   0.375319  -0.098229   0.740309   0.000056   0.020823
    11  H    0.001601  -0.034729   0.375232   0.000056   0.630497  -0.032492
    12  H    0.010365  -0.049870   0.372890   0.020823  -0.032492   0.660065
    13  O    0.010048   0.293184  -0.042465  -0.039860   0.005986   0.007444
    14  H   -0.000473  -0.047190  -0.007921  -0.007932  -0.000339  -0.000483
    15  C   -0.001078  -0.042875   0.362925  -0.016237  -0.038132  -0.049665
    16  H    0.000015  -0.003456  -0.020888   0.005336  -0.009161   0.008801
    17  H    0.000038   0.007154  -0.026556  -0.000543  -0.004283  -0.012615
    18  H    0.000104  -0.003789  -0.041459   0.000885   0.011567  -0.003601
    19  H   -0.000000  -0.000000  -0.000000  -0.000000  -0.000000  -0.000000
    20  C   -0.000000   0.000000   0.000000  -0.000000   0.000000   0.000000
    21  C   -0.000000  -0.000000   0.000000   0.000001  -0.000000  -0.000000
    22  H    0.000000   0.000000  -0.000000  -0.000000   0.000000  -0.000000
    23  H    0.000000  -0.000000  -0.000000   0.000000   0.000000   0.000000
    24  H    0.000000   0.000000   0.000000   0.000000   0.000000   0.000000
    25  H   -0.000000  -0.000000   0.000000  -0.000007  -0.000000  -0.000000
    26  C    0.000000   0.000000  -0.000000  -0.000004   0.000000   0.000000
    27  C   -0.000000  -0.000024   0.000001   0.000065  -0.000001  -0.000000
    28  H   -0.000000  -0.000000   0.000000  -0.000000   0.000000  -0.000000
    29  H    0.000000   0.000002   0.000000  -0.000029  -0.000000  -0.000000
    30  H    0.000005   0.000085  -0.000030   0.001332   0.000011   0.000002
    31  O   -0.000000   0.000000   0.000000  -0.000002   0.000000  -0.000000
    32  H    0.000000  -0.000000  -0.000000   0.000000  -0.000000   0.000000
    33  C   -0.000004  -0.000008   0.000000  -0.000063   0.000001  -0.000000
    34  H    0.000009   0.000107  -0.000012   0.000223  -0.000007   0.000001
    35  H    0.000000  -0.000002   0.000000   0.000002   0.000000  -0.000000
    36  H    0.000000  -0.000000   0.000000   0.000001  -0.000000  -0.000000
              13         14         15         16         17         18
     1  H    0.018108  -0.001341  -0.000010   0.000002   0.000003  -0.000046
     2  C   -0.009092  -0.000030  -0.000332  -0.000002   0.000016   0.000001
     3  C   -0.070808   0.013274   0.009622  -0.000028  -0.000402   0.000064
     4  H   -0.000438   0.000096   0.000016   0.000001  -0.000001   0.000000
     5  H   -0.000696  -0.000018  -0.000032  -0.000020   0.000003   0.000010
     6  H    0.005000  -0.001231   0.000551   0.000058  -0.000085  -0.000053
     7  H    0.010048  -0.000473  -0.001078   0.000015   0.000038   0.000104
     8  C    0.293184  -0.047190  -0.042875  -0.003456   0.007154  -0.003789
     9  C   -0.042465  -0.007921   0.362925  -0.020888  -0.026556  -0.041459
    10  H   -0.039860  -0.007932  -0.016237   0.005336  -0.000543   0.000885
    11  H    0.005986  -0.000339  -0.038132  -0.009161  -0.004283   0.011567
    12  H    0.007444  -0.000483  -0.049665   0.008801  -0.012615  -0.003601
    13  O    7.834836   0.310282  -0.002940  -0.000158  -0.000161   0.003310
    14  H    0.310282   0.515965   0.004732  -0.000055  -0.000406   0.003924
    15  C   -0.002940   0.004732   4.885462   0.399982   0.396539   0.388598
    16  H   -0.000158  -0.000055   0.399982   0.603109  -0.050223  -0.042296
    17  H   -0.000161  -0.000406   0.396539  -0.050223   0.611703  -0.026991
    18  H    0.003310   0.003924   0.388598  -0.042296  -0.026991   0.625445
    19  H    0.000000   0.000000  -0.000000   0.000000  -0.000000  -0.000000
    20  C   -0.000000  -0.000000   0.000000  -0.000000  -0.000000   0.000000
    21  C   -0.000000  -0.000000  -0.000000  -0.000000   0.000000   0.000000
    22  H    0.000000   0.000000  -0.000000   0.000000   0.000000   0.000000
    23  H   -0.000000  -0.000000   0.000000  -0.000000   0.000000   0.000000
    24  H   -0.000000   0.000000   0.000000  -0.000000  -0.000000   0.000000
    25  H    0.000000   0.000000  -0.000000   0.000001   0.000000  -0.000000
    26  C   -0.000000   0.000000   0.000000  -0.000000   0.000000   0.000000
    27  C    0.000000  -0.000000  -0.000000  -0.000001   0.000000  -0.000000
    28  H    0.000000   0.000000  -0.000000   0.000000  -0.000000  -0.000000
    29  H    0.000000   0.000000  -0.000000  -0.000000   0.000000  -0.000000
    30  H   -0.000018  -0.000000   0.000005   0.000031  -0.000001   0.000003
    31  O    0.000000   0.000000  -0.000000   0.000000  -0.000000  -0.000000
    32  H    0.000000  -0.000000   0.000000  -0.000000  -0.000000   0.000000
    33  C   -0.000000  -0.000000  -0.000000  -0.000000   0.000000   0.000000
    34  H    0.000004  -0.000000   0.000001   0.000001  -0.000000  -0.000000
    35  H   -0.000000  -0.000000  -0.000000  -0.000000   0.000000   0.000000
    36  H   -0.000000   0.000000  -0.000000   0.000000   0.000000   0.000000
              19         20         21         22         23         24
     1  H    0.000000   0.000000  -0.000000   0.000000  -0.000000  -0.000000
     2  C   -0.000000  -0.000000  -0.000000   0.000000   0.000000   0.000000
     3  C    0.000000   0.000000  -0.000000   0.000000  -0.000000   0.000000
     4  H   -0.000000   0.000000  -0.000000   0.000000  -0.000000   0.000000
     5  H    0.000000  -0.000000   0.000002  -0.000000   0.000000  -0.000002
     6  H    0.000000   0.000000  -0.000000   0.000000  -0.000000   0.000000
     7  H   -0.000000  -0.000000  -0.000000   0.000000   0.000000   0.000000
     8  C   -0.000000   0.000000  -0.000000   0.000000  -0.000000   0.000000
     9  C   -0.000000   0.000000   0.000000  -0.000000  -0.000000   0.000000
    10  H   -0.000000  -0.000000   0.000001  -0.000000   0.000000   0.000000
    11  H   -0.000000   0.000000  -0.000000   0.000000   0.000000   0.000000
    12  H   -0.000000   0.000000  -0.000000  -0.000000   0.000000   0.000000
    13  O    0.000000  -0.000000  -0.000000   0.000000  -0.000000  -0.000000
    14  H    0.000000  -0.000000  -0.000000   0.000000  -0.000000   0.000000
    15  C   -0.000000   0.000000  -0.000000  -0.000000   0.000000   0.000000
    16  H    0.000000  -0.000000  -0.000000   0.000000  -0.000000  -0.000000
    17  H   -0.000000  -0.000000   0.000000   0.000000   0.000000  -0.000000
    18  H   -0.000000   0.000000   0.000000   0.000000   0.000000   0.000000
    19  H    0.606292   0.392527  -0.035485  -0.034093  -0.032170  -0.007963
    20  C    0.392527   4.881824   0.347035   0.389881   0.397562  -0.035618
    21  C   -0.035485   0.347035   5.053896  -0.037770  -0.023728   0.351545
    22  H   -0.034093   0.389881  -0.037770   0.603800  -0.036120   0.011735
    23  H   -0.032170   0.397562  -0.023728  -0.036120   0.594488  -0.007711
    24  H   -0.007963  -0.035618   0.351545   0.011735  -0.007711   0.677261
    25  H    0.008853  -0.040291   0.378009  -0.004543  -0.005912  -0.042145
    26  C   -0.003611  -0.034732   0.351008  -0.003612   0.005996  -0.033123
    27  C   -0.000054   0.008704  -0.062830   0.000139  -0.000217  -0.005062
    28  H    0.006177  -0.010470  -0.076567   0.000816  -0.000395  -0.003646
    29  H    0.000009   0.000003   0.003913  -0.000035  -0.000075   0.001622
    30  H    0.000039  -0.000635  -0.017686   0.000159  -0.000019   0.001267
    31  O   -0.000288  -0.000479  -0.067493   0.009029  -0.000065   0.008131
    32  H   -0.000230   0.006280  -0.004191   0.000175  -0.000035  -0.000895
    33  C    0.000006  -0.000228   0.008092  -0.000011   0.000011  -0.000571
    34  H    0.000000   0.000015  -0.000417   0.000001  -0.000001   0.000008
    35  H   -0.000001  -0.000050   0.002205  -0.000041   0.000001  -0.000343
    36  H   -0.000004   0.000002  -0.000391   0.000002  -0.000000   0.000091
              25         26         27         28         29         30
     1  H    0.000000   0.000000   0.000004   0.000000   0.000015  -0.000005
     2  C   -0.000000   0.000000   0.000027  -0.000000   0.000018   0.000052
     3  C   -0.000000   0.000000  -0.000008   0.000000  -0.000004  -0.000011
     4  H    0.000000  -0.000000  -0.000006   0.000000  -0.000003  -0.000005
     5  H    0.000001   0.000009   0.000374   0.000002   0.000171   0.000150
     6  H   -0.000000   0.000000  -0.000002  -0.000000   0.000000   0.000002
     7  H   -0.000000   0.000000  -0.000000  -0.000000   0.000000   0.000005
     8  C   -0.000000   0.000000  -0.000024  -0.000000   0.000002   0.000085
     9  C    0.000000  -0.000000   0.000001   0.000000   0.000000  -0.000030
    10  H   -0.000007  -0.000004   0.000065  -0.000000  -0.000029   0.001332
    11  H   -0.000000   0.000000  -0.000001   0.000000  -0.000000   0.000011
    12  H   -0.000000   0.000000  -0.000000  -0.000000  -0.000000   0.000002
    13  O    0.000000  -0.000000   0.000000   0.000000   0.000000  -0.000018
    14  H    0.000000   0.000000  -0.000000   0.000000   0.000000  -0.000000
    15  C   -0.000000   0.000000  -0.000000  -0.000000  -0.000000   0.000005
    16  H    0.000001  -0.000000  -0.000001   0.000000  -0.000000   0.000031
    17  H    0.000000   0.000000   0.000000  -0.000000   0.000000  -0.000001
    18  H   -0.000000   0.000000  -0.000000  -0.000000  -0.000000   0.000003
    19  H    0.008853  -0.003611  -0.000054   0.006177   0.000009   0.000039
    20  C   -0.040291  -0.034732   0.008704  -0.010470   0.000003  -0.000635
    21  C    0.378009   0.351008  -0.062830  -0.076567   0.003913  -0.017686
    22  H   -0.004543  -0.003612   0.000139   0.000816  -0.000035   0.000159
    23  H   -0.005912   0.005996  -0.000217  -0.000395  -0.000075  -0.000019
    24  H   -0.042145  -0.033123  -0.005062  -0.003646   0.001622   0.001267
    25  H    0.650065  -0.045600  -0.012547   0.017310  -0.000524   0.012136
    26  C   -0.045600   4.867237   0.367422   0.389005  -0.055296  -0.034579
    27  C   -0.012547   0.367422   4.967844  -0.047972   0.395188   0.389787
    28  H    0.017310   0.389005  -0.047972   0.713746  -0.004565   0.014582
    29  H   -0.000524  -0.055296   0.395188  -0.004565   0.627888  -0.040483
    30  H    0.012136  -0.034579   0.389787   0.014582  -0.040483   0.609355
    31  O    0.003985   0.270373  -0.067689  -0.043832   0.007019   0.002865
    32  H   -0.001338  -0.029049   0.011388  -0.015770  -0.001517  -0.000533
    33  C   -0.000436  -0.043049   0.361289  -0.012509  -0.029433  -0.033386
    34  H   -0.000014   0.006335  -0.026274  -0.000284  -0.002899  -0.008420
    35  H    0.000021  -0.007468  -0.046580  -0.000448   0.009123  -0.002589
    36  H    0.000046  -0.002613  -0.033616   0.005117  -0.009649   0.007854
              31         32         33         34         35         36
     1  H   -0.000000  -0.000000   0.000037  -0.000082  -0.000001  -0.000002
     2  C   -0.000000   0.000000  -0.001301   0.000880   0.000019   0.000061
     3  C   -0.000000   0.000000   0.000054  -0.000046  -0.000005  -0.000002
     4  H   -0.000000   0.000000   0.000058   0.000034  -0.000004  -0.000001
     5  H    0.000004  -0.000000  -0.000883   0.008325   0.000054  -0.000163
     6  H   -0.000000   0.000000   0.000009   0.000099  -0.000001  -0.000001
     7  H   -0.000000   0.000000  -0.000004   0.000009   0.000000   0.000000
     8  C    0.000000  -0.000000  -0.000008   0.000107  -0.000002  -0.000000
     9  C    0.000000  -0.000000   0.000000  -0.000012   0.000000   0.000000
    10  H   -0.000002   0.000000  -0.000063   0.000223   0.000002   0.000001
[...]
    32  H   -0.000007   0.000004   0.000006   0.000000  -0.000001  -0.000001
    33  C    0.000002   0.000035   0.000035  -0.000005   0.000321  -0.000004
    34  H    0.000002   0.000064  -0.000013  -0.000009   0.000603  -0.000003
    35  H    0.000012   0.000016   0.000031  -0.000001  -0.000029   0.000002
    36  H   -0.000002  -0.000003  -0.000000   0.000000  -0.000006  -0.000000
               7          8          9         10         11         12
     1  H   -0.006329  -0.010373   0.000776   0.000616  -0.000082   0.000083
     2  C   -0.038649  -0.050094   0.008047  -0.012681  -0.000517  -0.000402
     3  C    0.389922   0.378106  -0.056497  -0.051169  -0.002105  -0.009476
     4  H   -0.006038   0.007636  -0.000289  -0.000259  -0.000028  -0.000011
     5  H    0.009734  -0.005313  -0.000399   0.007252   0.000125   0.000063
     6  H   -0.036463  -0.038513  -0.000595  -0.003202   0.001643   0.000043
     7  H    0.613482  -0.038978  -0.009865   0.012340   0.000657   0.007601
     8  C   -0.038978   4.943325   0.360509   0.359142  -0.033025  -0.043161
     9  C   -0.009865   0.360509   4.970404  -0.054128   0.367952   0.393921
    10  H    0.012340   0.359142  -0.054128   0.688296   0.000052   0.012620
    11  H    0.000657  -0.033025   0.367952   0.000052   0.646157  -0.035575
    12  H    0.007601  -0.043161   0.393921   0.012620  -0.035575   0.618801
    13  O    0.003409   0.255577  -0.049926  -0.036808   0.005486   0.005182
    14  H    0.000090  -0.047885  -0.007069   0.000866   0.000282   0.000089
    15  C   -0.000592  -0.040284   0.352711  -0.014559  -0.035596  -0.042116
    16  H    0.000027  -0.005052  -0.035230   0.004825  -0.006698   0.009346
    17  H   -0.000011   0.007643  -0.028660  -0.000305  -0.006935  -0.005168
    18  H    0.000176  -0.008678  -0.039152   0.001826   0.011536  -0.006920
    19  H    0.000000  -0.000000  -0.000000   0.000001   0.000000   0.000000
    20  C   -0.000000   0.000000   0.000000  -0.000000   0.000000  -0.000000
    21  C   -0.000001   0.000266  -0.000038   0.000002   0.000001   0.000000
    22  H    0.000001  -0.000068   0.000006   0.000026   0.000000   0.000003
    23  H   -0.000000  -0.000000  -0.000000   0.000000   0.000000   0.000000
    24  H   -0.000000  -0.000017   0.000001   0.000002   0.000000   0.000000
    25  H    0.000028  -0.000497   0.000193   0.000114  -0.000013   0.000004
    26  C   -0.000004   0.000810   0.000116  -0.000634  -0.000006  -0.000005
    27  C   -0.000002  -0.001470  -0.000169   0.000487   0.000020  -0.000001
    28  H   -0.000000  -0.000029  -0.000002  -0.000040  -0.000001  -0.000001
    29  H    0.000000   0.000085  -0.000002  -0.000041  -0.000000  -0.000000
    30  H   -0.000293   0.003776   0.000956  -0.010634  -0.000146  -0.000102
    31  O    0.000003   0.000717  -0.001394   0.000387  -0.000031  -0.000045
    32  H   -0.000003   0.000428  -0.000091  -0.000380   0.000002  -0.000008
    33  C    0.000002  -0.000728   0.000009   0.002185   0.000009   0.000002
    34  H    0.000003  -0.000007  -0.000009   0.000695   0.000004   0.000001
    35  H   -0.000003   0.000581  -0.000171  -0.000049  -0.000009  -0.000006
    36  H    0.000000   0.000012  -0.000003   0.000160   0.000001   0.000000
              13         14         15         16         17         18
     1  H    0.014919  -0.001139  -0.000043   0.000002  -0.000000  -0.000022
     2  C   -0.005803  -0.000958  -0.000267  -0.000008   0.000014  -0.000023
     3  C   -0.052909   0.008111   0.008297   0.000078  -0.000274   0.000042
     4  H    0.000009   0.000057   0.000014   0.000001  -0.000001  -0.000001
     5  H   -0.001830   0.000020  -0.000005  -0.000008  -0.000000   0.000013
     6  H    0.004768  -0.000694  -0.000151   0.000020  -0.000024  -0.000015
     7  H    0.003409   0.000090  -0.000592   0.000027  -0.000011   0.000176
     8  C    0.255577  -0.047885  -0.040284  -0.005052   0.007643  -0.008678
     9  C   -0.049926  -0.007069   0.352711  -0.035230  -0.028660  -0.039152
    10  H   -0.036808   0.000866  -0.014559   0.004825  -0.000305   0.001826
    11  H    0.005486   0.000282  -0.035596  -0.006698  -0.006935   0.011536
    12  H    0.005182   0.000089  -0.042116   0.009346  -0.005168  -0.006920
    13  O    7.934302   0.311326  -0.004465  -0.000602   0.000029   0.010601
    14  H    0.311326   0.449765  -0.001161  -0.001572   0.000044   0.004196
    15  C   -0.004465  -0.001161   4.893470   0.395783   0.394210   0.389208
    16  H   -0.000602  -0.001572   0.395783   0.602422  -0.030610  -0.036602
    17  H    0.000029   0.000044   0.394210  -0.030610   0.604652  -0.032383
    18  H    0.010601   0.004196   0.389208  -0.036602  -0.032383   0.615421
    19  H   -0.000008   0.000001  -0.000000  -0.000000   0.000000   0.000003
    20  C   -0.000009  -0.000736  -0.000004  -0.000003   0.000000  -0.000004
    21  C   -0.003909  -0.002112   0.000016   0.000040   0.000000   0.000075
    22  H   -0.000050   0.002043  -0.000045  -0.000038  -0.000002   0.000252
    23  H   -0.000009   0.000019  -0.000000   0.000000  -0.000000   0.000000
    24  H   -0.000027   0.000696  -0.000001  -0.000003  -0.000000   0.000001
    25  H    0.012212  -0.002523  -0.000022   0.000009   0.000000  -0.000153
    26  C    0.004788  -0.014664   0.000067  -0.000029  -0.000004  -0.000276
    27  C   -0.005689  -0.000542   0.000074  -0.000066   0.000001   0.000094
    28  H   -0.000069   0.001927  -0.000001  -0.000007   0.000001  -0.000004
    29  H    0.000081   0.000152   0.000000   0.000004  -0.000000  -0.000004
    30  H    0.020169  -0.003627   0.000080  -0.000027   0.000006  -0.000260
    31  O   -0.016733   0.056371   0.000958   0.003191   0.000112   0.001665
    32  H    0.001141  -0.005862   0.000731   0.000094  -0.000040   0.000435
    33  C   -0.000322  -0.000073  -0.000092  -0.000104   0.000000   0.000024
    34  H   -0.000053   0.000017  -0.000000  -0.000015  -0.000000   0.000003
    35  H    0.000245  -0.000458   0.000252   0.001387  -0.000010  -0.000103
    36  H   -0.000026   0.000051   0.000001  -0.000002  -0.000000   0.000005
              19         20         21         22         23         24
     1  H    0.000000  -0.000007  -0.000103   0.000000  -0.000001   0.000001
     2  C   -0.000000   0.000000   0.000012  -0.000000   0.000000  -0.000000
     3  C    0.000000   0.000000   0.000021   0.000000  -0.000000   0.000000
     4  H    0.000000   0.000000   0.000000   0.000000   0.000000   0.000000
     5  H   -0.000000  -0.000000   0.000013   0.000000   0.000000  -0.000000
     6  H    0.000000   0.000000  -0.000001  -0.000000  -0.000000   0.000000
     7  H    0.000000  -0.000000  -0.000001   0.000001  -0.000000  -0.000000
     8  C   -0.000000   0.000000   0.000266  -0.000068  -0.000000  -0.000017
     9  C   -0.000000   0.000000  -0.000038   0.000006  -0.000000   0.000001
    10  H    0.000001  -0.000000   0.000002   0.000026   0.000000   0.000002
    11  H    0.000000   0.000000   0.000001   0.000000   0.000000   0.000000
    12  H    0.000000  -0.000000   0.000000   0.000003   0.000000   0.000000
    13  O   -0.000008  -0.000009  -0.003909  -0.000050  -0.000009  -0.000027
    14  H    0.000001  -0.000736  -0.002112   0.002043   0.000019   0.000696
    15  C   -0.000000  -0.000004   0.000016  -0.000045  -0.000000  -0.000001
    16  H   -0.000000  -0.000003   0.000040  -0.000038   0.000000  -0.000003
    17  H    0.000000   0.000000   0.000000  -0.000002  -0.000000  -0.000000
    18  H    0.000003  -0.000004   0.000075   0.000252   0.000000   0.000001
    19  H    0.608784   0.395771  -0.040198  -0.036496  -0.029439  -0.006701
    20  C    0.395771   4.891131   0.346966   0.391227   0.396528  -0.031551
    21  C   -0.040198   0.346966   4.988147  -0.041899  -0.024387   0.371830
    22  H   -0.036496   0.391227  -0.041899   0.615578  -0.027998   0.011112
    23  H   -0.029439   0.396528  -0.024387  -0.027998   0.574437  -0.006013
    24  H   -0.006701  -0.031551   0.371830   0.011112  -0.006013   0.624091
    25  H    0.008415  -0.036170   0.395395  -0.008305  -0.004371  -0.033179
    26  C   -0.004318  -0.051981   0.363353  -0.008229   0.006777  -0.032349
    27  C   -0.000008   0.007552  -0.059170   0.000169  -0.000263  -0.001852
    28  H    0.006554  -0.007127  -0.054102   0.000740  -0.000213  -0.001883
    29  H    0.000010  -0.000067  -0.001542  -0.000012  -0.000020   0.002522
    30  H    0.000004  -0.000064  -0.011860  -0.000029  -0.000011   0.000165
    31  O   -0.000334  -0.001608  -0.046813   0.010007   0.000157   0.005266
    32  H   -0.000172   0.006795  -0.003284   0.002001  -0.000251  -0.000600
    33  C   -0.000012  -0.000338   0.008047  -0.000017   0.000012  -0.000376
    34  H    0.000001   0.000013  -0.000305   0.000000  -0.000001  -0.000023
    35  H   -0.000002  -0.000035   0.000965  -0.000046   0.000001  -0.000099
    36  H   -0.000008  -0.000004  -0.000082   0.000005   0.000000   0.000019
              25         26         27         28         29         30
     1  H    0.001212   0.000091  -0.000766   0.000002   0.000070   0.002232
     2  C   -0.000196   0.000020  -0.000487  -0.000002   0.000027   0.001915
     3  C   -0.000158  -0.000038   0.000252  -0.000002   0.000001  -0.003231
     4  H   -0.000009  -0.000002   0.000052   0.000000  -0.000005   0.000088
     5  H   -0.000041  -0.000001   0.000178  -0.000003   0.000026  -0.000953
     6  H    0.000007   0.000001  -0.000035   0.000000   0.000000   0.000218
     7  H    0.000028  -0.000004  -0.000002  -0.000000   0.000000  -0.000293
     8  C   -0.000497   0.000810  -0.001470  -0.000029   0.000085   0.003776
     9  C    0.000193   0.000116  -0.000169  -0.000002  -0.000002   0.000956
    10  H    0.000114  -0.000634   0.000487  -0.000040  -0.000041  -0.010634
    11  H   -0.000013  -0.000006   0.000020  -0.000001  -0.000000  -0.000146
    12  H    0.000004  -0.000005  -0.000001  -0.000001  -0.000000  -0.000102
    13  O    0.012212   0.004788  -0.005689  -0.000069   0.000081   0.020169
    14  H   -0.002523  -0.014664  -0.000542   0.001927   0.000152  -0.003627
    15  C   -0.000022   0.000067   0.000074  -0.000001   0.000000   0.000080
    16  H    0.000009  -0.000029  -0.000066  -0.000007   0.000004  -0.000027
    17  H    0.000000  -0.000004   0.000001   0.000001  -0.000000   0.000006
    18  H   -0.000153  -0.000276   0.000094  -0.000004  -0.000004  -0.000260
    19  H    0.008415  -0.004318  -0.000008   0.006554   0.000010   0.000004
    20  C   -0.036170  -0.051981   0.007552  -0.007127  -0.000067  -0.000064
    21  C    0.395395   0.363353  -0.059170  -0.054102  -0.001542  -0.011860
    22  H   -0.008305  -0.008229   0.000169   0.000740  -0.000012  -0.000029
    23  H   -0.004371   0.006777  -0.000263  -0.000213  -0.000020  -0.000011
    24  H   -0.033179  -0.032349  -0.001852  -0.001883   0.002522   0.000165
    25  H    0.570645  -0.032334  -0.008759   0.008831   0.000036   0.006184
    26  C   -0.032334   4.947712   0.369652   0.383890  -0.038453  -0.034802
    27  C   -0.008759   0.369652   4.961828  -0.038410   0.390234   0.386282
    28  H    0.008831   0.383890  -0.038410   0.635872  -0.002891   0.009570
    29  H    0.000036  -0.038453   0.390234  -0.002891   0.614767  -0.030391
    30  H    0.006184  -0.034802   0.386282   0.009570  -0.030391   0.575706
    31  O   -0.002492   0.222778  -0.052322  -0.028486   0.004299  -0.002530
    32  H   -0.000596  -0.026367   0.008717  -0.011442  -0.000764   0.000055
    33  C   -0.000065  -0.053574   0.360495  -0.009124  -0.032479  -0.038985
    34  H    0.000002   0.007869  -0.029700  -0.000262  -0.005360  -0.007453
    35  H    0.000032  -0.010069  -0.037301  -0.000664   0.009293  -0.006507
    36  H   -0.000010  -0.005138  -0.035037   0.006029  -0.007912   0.008531
              31         32         33         34         35         36
     1  H    0.000010  -0.000007   0.000002   0.000002   0.000012  -0.000002
     2  C   -0.000008   0.000004   0.000035   0.000064   0.000016  -0.000003
     3  C   -0.000020   0.000006   0.000035  -0.000013   0.000031  -0.000000
     4  H   -0.000000   0.000000  -0.000005  -0.000009  -0.000001   0.000000
     5  H   -0.000003  -0.000001   0.000321   0.000603  -0.000029  -0.000006
     6  H    0.000008  -0.000001  -0.000004  -0.000003   0.000002  -0.000000
     7  H    0.000003  -0.000003   0.000002   0.000003  -0.000003   0.000000
     8  C    0.000717   0.000428  -0.000728  -0.000007   0.000581   0.000012
     9  C   -0.001394  -0.000091   0.000009  -0.000009  -0.000171  -0.000003
    10  H    0.000387  -0.000380   0.002185   0.000695  -0.000049   0.000160
    11  H   -0.000031   0.000002   0.000009   0.000004  -0.000009   0.000001
    12  H   -0.000045  -0.000008   0.000002   0.000001  -0.000006   0.000000
    13  O   -0.016733   0.001141  -0.000322  -0.000053   0.000245  -0.000026
    14  H    0.056371  -0.005862  -0.000073   0.000017  -0.000458   0.000051
    15  C    0.000958   0.000731  -0.000092  -0.000000   0.000252   0.000001
    16  H    0.003191   0.000094  -0.000104  -0.000015   0.001387  -0.000002
    17  H    0.000112  -0.000040   0.000000  -0.000000  -0.000010  -0.000000
    18  H    0.001665   0.000435   0.000024   0.000003  -0.000103   0.000005
    19  H   -0.000334  -0.000172  -0.000012   0.000001  -0.000002  -0.000008
    20  C   -0.001608   0.006795  -0.000338   0.000013  -0.000035  -0.000004
    21  C   -0.046813  -0.003284   0.008047  -0.000305   0.000965  -0.000082
    22  H    0.010007   0.002001  -0.000017   0.000000  -0.000046   0.000005
    23  H    0.000157  -0.000251   0.000012  -0.000001   0.000001   0.000000
    24  H    0.005266  -0.000600  -0.000376  -0.000023  -0.000099   0.000019
    25  H   -0.002492  -0.000596  -0.000065   0.000002   0.000032  -0.000010
    26  C    0.222778  -0.026367  -0.053574   0.007869  -0.010069  -0.005138
    27  C   -0.052322   0.008717   0.360495  -0.029700  -0.037301  -0.035037
    28  H   -0.028486  -0.011442  -0.009124  -0.000262  -0.000664   0.006029
    29  H    0.004299  -0.000764  -0.032479  -0.005360   0.009293  -0.007912
    30  H   -0.002530   0.000055  -0.038985  -0.007453  -0.006507   0.008531
    31  O    7.950046   0.293738  -0.002975  -0.000003   0.014314  -0.000507
    32  H    0.293738   0.485584  -0.000001   0.000053  -0.000661  -0.000129
    33  C   -0.002975  -0.000001   4.859286   0.397411   0.402159   0.393515
    34  H   -0.000003   0.000053   0.397411   0.596981  -0.030220  -0.032209
    35  H    0.014314  -0.000661   0.402159  -0.030220   0.572895  -0.032095
    36  H   -0.000507  -0.000129   0.393515  -0.032209  -0.032095   0.614609
 Mulliken charges:
               1
     1  H    0.116434
     2  C   -0.291967
     3  C   -0.179134
     4  H    0.095644
     5  H    0.088547
     6  H    0.090797
     7  H    0.099757
     8  C    0.005555
     9  C   -0.171910
    10  H    0.092995
    11  H    0.086837
    12  H    0.095237
    13  O   -0.404996
    14  H    0.254952
    15  C   -0.296467
    16  H    0.099446
    17  H    0.097716
    18  H    0.089024
    19  H    0.098151
    20  C   -0.306278
    21  C   -0.185346
    22  H    0.090063
    23  H    0.115044
    24  H    0.098967
    25  H    0.126573
    26  C    0.005352
    27  C   -0.214039
    28  H    0.101350
    29  H    0.098336
    30  H    0.135969
    31  O   -0.407721
    32  H    0.250878
    33  C   -0.284275
    34  H    0.101924
    35  H    0.116354
    36  H    0.090234
 Sum of Mulliken charges =  -0.00000
 Mulliken charges with hydrogens summed into heavy atoms:
               1
     2  C    0.008658
     3  C    0.011419
     8  C    0.098550
     9  C    0.010164
    13  O   -0.150044
    15  C   -0.010281
    20  C   -0.003020
    21  C    0.040194
    26  C    0.106701
    27  C    0.020266
    31  O   -0.156844
    33  C    0.024237
 Electronic spatial extent (au):  <R**2>=           3158.2553
 Charge=             -0.0000 electrons
 Dipole moment (field-independent basis, Debye):
    X=             -2.3475    Y=              0.3563    Z=             -0.9713  Tot=              2.5653
 Quadrupole moment (field-independent basis, Debye-Ang):
   XX=            -75.1667   YY=            -79.7026   ZZ=            -84.2712
   XY=             -1.9618   XZ=             -1.5160   YZ=             -0.1357
 Traceless Quadrupole moment (field-independent basis, Debye-Ang):
   XX=              4.5468   YY=              0.0109   ZZ=             -4.5577
   XY=             -1.9618   XZ=             -1.5160   YZ=             -0.1357
 Octapole moment (field-independent basis, Debye-Ang**2):
  XXX=            -19.0086  YYY=             13.2970  ZZZ=              3.7034  XYY=             -9.2879
  XXY=              4.6512  XXZ=             -0.9943  XZZ=             -4.6116  YZZ=              0.7567
  YYZ=             -1.5033  XYZ=              0.9485
 Hexadecapole moment (field-independent basis, Debye-Ang**3):
 XXXX=          -2531.8139 YYYY=          -1115.7320 ZZZZ=           -782.0958 XXXY=             -9.6985
 XXXZ=             11.7757 YYYX=            -11.3698 YYYZ=             -0.4476 ZZZX=             -2.1351
 ZZZY=             -2.5194 XXYY=           -602.1444 XXZZ=           -545.0933 YYZZ=           -319.4851
 XXYZ=             -7.2502 YYXZ=              6.6679 ZZXY=             -4.3982
 N-N= 7.976083908001D+02 E-N=-2.867570517604D+03  KE= 5.442302816258D+02
 No NMR shielding tensors so no spin-rotation constants.
 Leave Link  601 at Mon Feb 13 13:31:43 2023, MaxMem=   131072000 cpu:               1.0 elap:               0.2
 (Enter /dragofs/sw/campus/0.2/software/gaussian/16.gaussian/gaussian/g16_legacy/l9999.exe)
 1\1\GINC-DRAGO31070237\FOpt\RBLYP\6-311G(d,p)\C10H24O2\JRAMOS\13-Feb-2
 023\0\\#p opt=tight blyp/6-311G** int=ultrafine EmpiricalDispersion=GD
 3\\Conformer number 117. Energy MM = 0.000 kcal/mol\\0,1\H,1.685451353
 2,0.7538196972,14.925207426\C,2.3123312839,1.5428596877,14.4900994485\
 C,2.306428844,1.4367302384,12.9519219498\H,1.9297839692,2.5174972188,1
 4.827181915\H,3.3318695701,1.4245094668,14.8904900048\H,2.9258382193,2
 .235979949,12.5128723331\H,1.2813737791,1.5792262112,12.5715147612\C,2
 .815872148,0.0772411364,12.4388979197\C,2.9020997686,0.0221335036,10.8
 953687325\H,3.8321246678,-0.0966238345,12.849859456\H,3.5772969941,0.8
 250073318,10.5528621336\H,1.9021783139,0.244022098,10.4876776157\O,1.9
 168206704,-0.936176908,12.9485604881\H,2.4015536835,-1.7895421009,12.9
 259055197\C,3.3948568583,-1.3365415395,10.355383712\H,4.3721787837,-1.
 6051323677,10.7848654046\H,3.4954886737,-1.317744805,9.2604127687\H,2.
 6873096326,-2.1373337496,10.6133472121\H,1.9817491012,-5.8242024433,14
 .7854590688\C,1.3811987386,-4.9204739809,14.5939437563\C,2.030702335,-
 3.6691699539,15.2209659073\H,1.2653830863,-4.8093353044,13.5048372719\
 H,0.3768967685,-5.0939515034,15.0045752038\H,2.0521296556,-3.774183168
 9,16.3180971562\H,1.4291068686,-2.7762616554,14.9908527525\C,3.4739382
 591,-3.4118300342,14.7386056132\C,4.0877488667,-2.1429868698,15.352070
 7551\H,4.1087390811,-4.2851799827,14.9839860309\H,4.0330796119,-2.2365
 948575,16.4485907846\H,3.4496767757,-1.2921437303,15.0718956284\O,3.51
 17597823,-3.2224605599,13.2800672943\H,3.2887054487,-4.0668685187,12.8
 538987867\C,5.5428545084,-1.8865188249,14.9122205334\H,5.9278102384,-0
 .9548542558,15.3510046573\H,5.6056681842,-1.80467132,13.8195291425\H,6
 .2059954763,-2.7072442695,15.2279708558\\Version=EM64L-G16RevA.03\Stat
 e=1-A\HF=-545.8835124\RMSD=9.302e-09\RMSF=2.704e-07\Dipole=0.3796564,-
 0.889013,0.2900914\Quadrupole=-3.3937532,3.6300813,-0.2363281,1.234494
 7,-0.1893306,-0.9630921\PG=C01 [X(C10H24O2)]\\@


 My opinions may have changed, but not the fact that I am right.
                       -- Ashleigh Brilliant
 Job cpu time:       0 days  8 hours 43 minutes  0.7 seconds.
 Elapsed time:       0 days  1 hours  5 minutes 50.1 seconds.
 File lengths (MBytes):  RWF=     86 Int=      0 D2E=      0 Chk=     11 Scr=      1
 Normal termination of Gaussian 16 at Mon Feb 13 13:31:43 2023.
