 Entering Gaussian System, Link 0=/dragofs/sw/campus/0.2/software/gaussian/16.gaussian/gaussian/g16_legacy/g16
 Input=C10H24O2_pair_027_044.com
 Output=C10H24O2_pair_027_044.log
 Initial command:
 /dragofs/sw/campus/0.2/software/gaussian/16.gaussian/gaussian/g16_legacy/l1.exe "/tmp/jramos/51561/Gau-569898.inp" -scrdir="/tmp/jramos/51561/"
 Entering Link 1 = /dragofs/sw/campus/0.2/software/gaussian/16.gaussian/gaussian/g16_legacy/l1.exe PID=    569899.
  
 Copyright (c) 1988,1990,1992,1993,1995,1998,2003,2009,2016,
            Gaussian, Inc.  All Rights Reserved.
  
 This is part of the Gaussian(R) 16 program.  It is based on
 the Gaussian(R) 09 system (copyright 2009, Gaussian, Inc.),
 the Gaussian(R) 03 system (copyright 2003, Gaussian, Inc.),
 the Gaussian(R) 98 system (copyright 1998, Gaussian, Inc.),
 the Gaussian(R) 94 system (copyright 1995, Gaussian, Inc.),
 the Gaussian 92(TM) system (copyright 1992, Gaussian, Inc.),
 the Gaussian 90(TM) system (copyright 1990, Gaussian, Inc.),
 the Gaussian 88(TM) system (copyright 1988, Gaussian, Inc.),
 the Gaussian 86(TM) system (copyright 1986, Carnegie Mellon
 University), and the Gaussian 82(TM) system (copyright 1983,
 Carnegie Mellon University). Gaussian is a federally registered
 trademark of Gaussian, Inc.
  
 This software contains proprietary and confidential information,
 including trade secrets, belonging to Gaussian, Inc.
  
 This software is provided under written license and may be
 used, copied, transmitted, or stored only in accord with that
 written license.
  
 The following legend is applicable only to US Government
 contracts under FAR:
  
                    RESTRICTED RIGHTS LEGEND
  
 Use, reproduction and disclosure by the US Government is
 subject to restrictions as set forth in subparagraphs (a)
 and (c) of the Commercial Computer Software - Restricted
 Rights clause in FAR 52.227-19.
  
 Gaussian, Inc.
 340 Quinnipiac St., Bldg. 40, Wallingford CT 06492
  
  
 ---------------------------------------------------------------
 Warning -- This program may not be used in any manner that
 competes with the business of Gaussian, Inc. or will provide
 assistance to any competitor of Gaussian, Inc.  The licensee
 of this program is prohibited from giving any competitor of
 Gaussian, Inc. access to this program.  By using this program,
 the user acknowledges that Gaussian, Inc. is engaged in the
 business of creating and licensing software in the field of
 computational chemistry and represents and warrants to the
 licensee that it is not a competitor of Gaussian, Inc. and that
 it will not use this program in any manner prohibited above.
 ---------------------------------------------------------------
  

 Cite this work as:
 Gaussian 16, Revision A.03,
 M. J. Frisch, G. W. Trucks, H. B. Schlegel, G. E. Scuseria, 
 M. A. Robb, J. R. Cheeseman, G. Scalmani, V. Barone, 
 G. A. Petersson, H. Nakatsuji, X. Li, M. Caricato, A. V. Marenich, 
 J. Bloino, B. G. Janesko, R. Gomperts, B. Mennucci, H. P. Hratchian, 
 J. V. Ortiz, A. F. Izmaylov, J. L. Sonnenberg, D. Williams-Young, 
 F. Ding, F. Lipparini, F. Egidi, J. Goings, B. Peng, A. Petrone, 
 T. Henderson, D. Ranasinghe, V. G. Zakrzewski, J. Gao, N. Rega, 
 G. Zheng, W. Liang, M. Hada, M. Ehara, K. Toyota, R. Fukuda, 
 J. Hasegawa, M. Ishida, T. Nakajima, Y. Honda, O. Kitao, H. Nakai, 
 T. Vreven, K. Throssell, J. A. Montgomery, Jr., J. E. Peralta, 
 F. Ogliaro, M. J. Bearpark, J. J. Heyd, E. N. Brothers, K. N. Kudin, 
 V. N. Staroverov, T. A. Keith, R. Kobayashi, J. Normand, 
 K. Raghavachari, A. P. Rendell, J. C. Burant, S. S. Iyengar, 
 J. Tomasi, M. Cossi, J. M. Millam, M. Klene, C. Adamo, R. Cammi, 
 J. W. Ochterski, R. L. Martin, K. Morokuma, O. Farkas, 
 J. B. Foresman, and D. J. Fox, Gaussian, Inc., Wallingford CT, 2016.
 
 ******************************************
 Gaussian 16:  EM64L-G16RevA.03 25-Dec-2016
                13-Feb-2023 
 ******************************************
 %chk=C10H24O2_pair_027_044.chk
 %nproc=8
 Will use up to    8 processors via shared memory.
 %mem=1000Mb
 ----------------------------------------------------------------
 #p opt=tight blyp/6-311G** int=ultrafine EmpiricalDispersion=GD3
 ----------------------------------------------------------------
 1/7=10,18=20,19=15,26=4,38=1/1,3;
 2/9=110,12=2,17=6,18=5,40=1/2;
 3/5=4,6=6,7=101,11=2,25=1,30=1,71=1,74=402,75=-5,124=31/1,2,3;
 4//1;
 5/5=2,38=5/2;
 6/7=2,8=2,9=2,10=2,28=1/1;
 7//1,2,3,16;
 1/7=10,18=20,19=15,26=4/3(2);
 2/9=110/2;
 99//99;
 2/9=110/2;
 3/5=4,6=6,7=101,11=2,25=1,30=1,71=1,74=402,75=-5,124=31/1,2,3;
 4/5=5,16=3,69=1/1;
 5/5=2,38=5/2;
 7//1,2,3,16;
 1/7=10,18=20,19=15,26=4/3(-5);
 2/9=110/2;
 6/7=2,8=2,9=2,10=2,19=2,28=1/1;
 99/9=1/99;
 Leave Link    1 at Mon Feb 13 15:34:34 2023, MaxMem=   131072000 cpu:               0.4 elap:               0.1
 (Enter /dragofs/sw/campus/0.2/software/gaussian/16.gaussian/gaussian/g16_legacy/l101.exe)
 ------------------------------------------------
 Conformer number 291. Energy MM = 0.000 kcal/mol
 ------------------------------------------------
 Symbolic Z-matrix:
 Charge =  0 Multiplicity = 1
 H                     20.692    2.404     5.523 
 C                     21.281    2.076     6.437 
 C                     22.729    2.611     6.492 
 H                     20.905    2.463     7.405 
 H                     21.113    1.007     6.571 
 H                     23.232    2.269     7.399 
 H                     22.707    3.685     6.482 
 C                     23.489    2.215     5.269 
 C                     25.002    2.498     5.385 
 H                     23.454    1.154     5.229 
 H                     25.44     2.049     6.287 
 H                     25.095    3.582     5.535 
 O                     22.819    2.685     4.091 
 H                     22.258    3.454     4.278 
 C                     25.781    2.006     4.199 
 H                     25.509    0.978     3.983 
 H                     26.874    2.101     4.435 
 H                     25.522    2.572     3.306 
 H                     23.096    7.222     6.7 
 C                     22.855    6.293     6.056 
 C                     22.842    6.72      4.565 
 H                     23.677    5.574     6.383 
 H                     21.885    5.873     6.277 
 H                     23.754    7.475     4.356 
 H                     21.963    7.461     4.439 
 C                     22.809    5.692     3.552 
 C                     23.097    6.192     2.245 
 H                     23.665    5.002     3.713 
 H                     24.129    6.462     2.356 
 H                     22.422    7.051     2.004 
 O                     21.571    5.03      3.618 
 H                     20.951    5.493     4.194 
 C                     22.988    5.156     1.083 
 H                     23.851    4.458     1.026 
 H                     22.937    5.791     0.167 
 H                     22.108    4.425     1.134 
 
 Add virtual bond connecting atoms O31        and H14        Dist= 3.48D+00.
 ITRead=  0  0  0  0  0  0  0  0  0  0  0  0  0  0  0  0  0  0  0  0
 ITRead=  0  0  0  0  0  0  0  0  0  0  0  0  0  0  0  0
 MicOpt= -1 -1 -1 -1 -1 -1 -1 -1 -1 -1 -1 -1 -1 -1 -1 -1 -1 -1 -1 -1
 MicOpt= -1 -1 -1 -1 -1 -1 -1 -1 -1 -1 -1 -1 -1 -1 -1 -1
 NAtoms=     36 NQM=       36 NQMF=       0 NMMI=      0 NMMIF=      0
                NMic=       0 NMicF=      0.
                    Isotopes and Nuclear Properties:
 (Nuclear quadrupole moments (NQMom) in fm**2, nuclear magnetic moments (NMagM)
  in nuclear magnetons)

  Atom         1           2           3           4           5           6           7           8           9          10
 IAtWgt=           1          12          12           1           1           1           1          12          12           1
 AtmWgt=   1.0078250  12.0000000  12.0000000   1.0078250   1.0078250   1.0078250   1.0078250  12.0000000  12.0000000   1.0078250
 NucSpn=           1           0           0           1           1           1           1           0           0           1
 AtZEff=  -0.0000000  -0.0000000  -0.0000000  -0.0000000  -0.0000000  -0.0000000  -0.0000000  -0.0000000  -0.0000000  -0.0000000
 NQMom=    0.0000000   0.0000000   0.0000000   0.0000000   0.0000000   0.0000000   0.0000000   0.0000000   0.0000000   0.0000000
 NMagM=    2.7928460   0.0000000   0.0000000   2.7928460   2.7928460   2.7928460   2.7928460   0.0000000   0.0000000   2.7928460
 AtZNuc=   1.0000000   6.0000000   6.0000000   1.0000000   1.0000000   1.0000000   1.0000000   6.0000000   6.0000000   1.0000000

  Atom        11          12          13          14          15          16          17          18          19          20
 IAtWgt=           1           1          16           1          12           1           1           1           1          12
 AtmWgt=   1.0078250   1.0078250  15.9949146   1.0078250  12.0000000   1.0078250   1.0078250   1.0078250   1.0078250  12.0000000
 NucSpn=           1           1           0           1           0           1           1           1           1           0
 AtZEff=  -0.0000000  -0.0000000  -0.0000000  -0.0000000  -0.0000000  -0.0000000  -0.0000000  -0.0000000  -0.0000000  -0.0000000
 NQMom=    0.0000000   0.0000000   0.0000000   0.0000000   0.0000000   0.0000000   0.0000000   0.0000000   0.0000000   0.0000000
 NMagM=    2.7928460   2.7928460   0.0000000   2.7928460   0.0000000   2.7928460   2.7928460   2.7928460   2.7928460   0.0000000
 AtZNuc=   1.0000000   1.0000000   8.0000000   1.0000000   6.0000000   1.0000000   1.0000000   1.0000000   1.0000000   6.0000000

  Atom        21          22          23          24          25          26          27          28          29          30
 IAtWgt=          12           1           1           1           1          12          12           1           1           1
 AtmWgt=  12.0000000   1.0078250   1.0078250   1.0078250   1.0078250  12.0000000  12.0000000   1.0078250   1.0078250   1.0078250
 NucSpn=           0           1           1           1           1           0           0           1           1           1
 AtZEff=  -0.0000000  -0.0000000  -0.0000000  -0.0000000  -0.0000000  -0.0000000  -0.0000000  -0.0000000  -0.0000000  -0.0000000
 NQMom=    0.0000000   0.0000000   0.0000000   0.0000000   0.0000000   0.0000000   0.0000000   0.0000000   0.0000000   0.0000000
 NMagM=    0.0000000   2.7928460   2.7928460   2.7928460   2.7928460   0.0000000   0.0000000   2.7928460   2.7928460   2.7928460
 AtZNuc=   6.0000000   1.0000000   1.0000000   1.0000000   1.0000000   6.0000000   6.0000000   1.0000000   1.0000000   1.0000000

  Atom        31          32          33          34          35          36
 IAtWgt=          16           1          12           1           1           1
 AtmWgt=  15.9949146   1.0078250  12.0000000   1.0078250   1.0078250   1.0078250
 NucSpn=           0           1           0           1           1           1
 AtZEff=  -0.0000000  -0.0000000  -0.0000000  -0.0000000  -0.0000000  -0.0000000
 NQMom=    0.0000000   0.0000000   0.0000000   0.0000000   0.0000000   0.0000000
 NMagM=    0.0000000   2.7928460   0.0000000   2.7928460   2.7928460   2.7928460
 AtZNuc=   8.0000000   1.0000000   6.0000000   1.0000000   1.0000000   1.0000000
 Leave Link  101 at Mon Feb 13 15:34:34 2023, MaxMem=   131072000 cpu:               1.0 elap:               0.1
 (Enter /dragofs/sw/campus/0.2/software/gaussian/16.gaussian/gaussian/g16_legacy/l103.exe)

 GradGradGradGradGradGradGradGradGradGradGradGradGradGradGradGradGradGrad
 Berny optimization.
 Initialization pass.
                           ----------------------------
                           !    Initial Parameters    !
                           ! (Angstroms and Degrees)  !
 --------------------------                            --------------------------
 ! Name  Definition              Value          Derivative Info.                !
 --------------------------------------------------------------------------------
 ! R1    R(1,2)                  1.1357         estimate D2E/DX2                !
 ! R2    R(2,3)                  1.5447         estimate D2E/DX2                !
 ! R3    R(2,4)                  1.1082         estimate D2E/DX2                !
 ! R4    R(2,5)                  1.0904         estimate D2E/DX2                !
 ! R5    R(3,6)                  1.0921         estimate D2E/DX2                !
 ! R6    R(3,7)                  1.0743         estimate D2E/DX2                !
 ! R7    R(3,8)                  1.4934         estimate D2E/DX2                !
 ! R8    R(8,9)                  1.5436         estimate D2E/DX2                !
 ! R9    R(8,10)                 1.0623         estimate D2E/DX2                !
 ! R10   R(8,13)                 1.4344         estimate D2E/DX2                !
 ! R11   R(9,11)                 1.0987         estimate D2E/DX2                !
 ! R12   R(9,12)                 1.0983         estimate D2E/DX2                !
 ! R13   R(9,15)                 1.5018         estimate D2E/DX2                !
 ! R14   R(13,14)                0.9701         estimate D2E/DX2                !
 ! R15   R(14,31)                1.8416         estimate D2E/DX2                !
 ! R16   R(15,16)                1.0851         estimate D2E/DX2                !
 ! R17   R(15,17)                1.1222         estimate D2E/DX2                !
 ! R18   R(15,18)                1.0885         estimate D2E/DX2                !
 ! R19   R(19,20)                1.1558         estimate D2E/DX2                !
 ! R20   R(20,21)                1.551          estimate D2E/DX2                !
 ! R21   R(20,22)                1.14           estimate D2E/DX2                !
 ! R22   R(20,23)                1.0799         estimate D2E/DX2                !
 ! R23   R(21,24)                1.2023         estimate D2E/DX2                !
 ! R24   R(21,25)                1.1565         estimate D2E/DX2                !
 ! R25   R(21,26)                1.4436         estimate D2E/DX2                !
 ! R26   R(26,27)                1.4287         estimate D2E/DX2                !
 ! R27   R(26,28)                1.1112         estimate D2E/DX2                !
 ! R28   R(26,31)                1.4054         estimate D2E/DX2                !
 ! R29   R(27,29)                1.0725         estimate D2E/DX2                !
 ! R30   R(27,30)                1.1187         estimate D2E/DX2                !
 ! R31   R(27,33)                1.5606         estimate D2E/DX2                !
 ! R32   R(31,32)                0.9646         estimate D2E/DX2                !
 ! R33   R(33,34)                1.1114         estimate D2E/DX2                !
 ! R34   R(33,35)                1.1157         estimate D2E/DX2                !
 ! R35   R(33,36)                1.1451         estimate D2E/DX2                !
 ! A1    A(1,2,3)              114.5056         estimate D2E/DX2                !
 ! A2    A(1,2,4)              115.2222         estimate D2E/DX2                !
 ! A3    A(1,2,5)              107.5856         estimate D2E/DX2                !
 ! A4    A(3,2,4)               99.5553         estimate D2E/DX2                !
 ! A5    A(3,2,5)              118.6606         estimate D2E/DX2                !
 ! A6    A(4,2,5)              100.5294         estimate D2E/DX2                !
 ! A7    A(2,3,6)              110.6634         estimate D2E/DX2                !
 ! A8    A(2,3,7)              109.071          estimate D2E/DX2                !
 ! A9    A(2,3,8)              110.8589         estimate D2E/DX2                !
 ! A10   A(6,3,7)              109.284          estimate D2E/DX2                !
 ! A11   A(6,3,8)              111.2674         estimate D2E/DX2                !
 ! A12   A(7,3,8)              105.5396         estimate D2E/DX2                !
 ! A13   A(3,8,9)              112.8716         estimate D2E/DX2                !
 ! A14   A(3,8,10)             106.1951         estimate D2E/DX2                !
 ! A15   A(3,8,13)             110.3631         estimate D2E/DX2                !
 ! A16   A(9,8,10)             102.6051         estimate D2E/DX2                !
 ! A17   A(9,8,13)             117.3535         estimate D2E/DX2                !
 ! A18   A(10,8,13)            106.3165         estimate D2E/DX2                !
 ! A19   A(8,9,11)             112.1811         estimate D2E/DX2                !
 ! A20   A(8,9,12)             105.9154         estimate D2E/DX2                !
 ! A21   A(8,9,15)             112.8929         estimate D2E/DX2                !
 ! A22   A(11,9,12)            104.9206         estimate D2E/DX2                !
 ! A23   A(11,9,15)            107.9191         estimate D2E/DX2                !
 ! A24   A(12,9,15)            112.7851         estimate D2E/DX2                !
 ! A25   A(8,13,14)            111.8118         estimate D2E/DX2                !
 ! A26   A(13,14,31)           145.5944         estimate D2E/DX2                !
 ! A27   A(9,15,16)            109.7271         estimate D2E/DX2                !
 ! A28   A(9,15,17)            108.143          estimate D2E/DX2                !
 ! A29   A(9,15,18)            110.7379         estimate D2E/DX2                !
 ! A30   A(16,15,17)           111.4818         estimate D2E/DX2                !
 ! A31   A(16,15,18)           105.6442         estimate D2E/DX2                !
 ! A32   A(17,15,18)           111.1154         estimate D2E/DX2                !
 ! A33   A(19,20,21)           108.4274         estimate D2E/DX2                !
 ! A34   A(19,20,22)           101.3481         estimate D2E/DX2                !
 ! A35   A(19,20,23)           112.6985         estimate D2E/DX2                !
 ! A36   A(21,20,22)           117.0927         estimate D2E/DX2                !
 ! A37   A(21,20,23)           107.2345         estimate D2E/DX2                !
 ! A38   A(22,20,23)           110.1015         estimate D2E/DX2                !
 ! A39   A(20,21,24)           109.4901         estimate D2E/DX2                !
 ! A40   A(20,21,25)           106.7078         estimate D2E/DX2                !
 ! A41   A(20,21,26)           118.6012         estimate D2E/DX2                !
 ! A42   A(24,21,25)            98.9308         estimate D2E/DX2                !
 ! A43   A(24,21,26)           110.0317         estimate D2E/DX2                !
 ! A44   A(25,21,26)           111.2489         estimate D2E/DX2                !
 ! A45   A(21,26,27)           112.8372         estimate D2E/DX2                !
 ! A46   A(21,26,28)           108.8384         estimate D2E/DX2                !
 ! A47   A(21,26,31)           108.8204         estimate D2E/DX2                !
 ! A48   A(27,26,28)           101.2198         estimate D2E/DX2                !
 ! A49   A(27,26,31)           112.6668         estimate D2E/DX2                !
 ! A50   A(28,26,31)           112.2889         estimate D2E/DX2                !
 ! A51   A(26,27,29)           100.8007         estimate D2E/DX2                !
 ! A52   A(26,27,30)           110.1305         estimate D2E/DX2                !
 ! A53   A(26,27,33)           115.7699         estimate D2E/DX2                !
 ! A54   A(29,27,30)           114.1778         estimate D2E/DX2                !
 ! A55   A(29,27,33)           108.1434         estimate D2E/DX2                !
 ! A56   A(30,27,33)           107.8895         estimate D2E/DX2                !
 ! A57   A(14,31,26)            95.2398         estimate D2E/DX2                !
 ! A58   A(14,31,32)           115.8824         estimate D2E/DX2                !
 ! A59   A(26,31,32)           111.5994         estimate D2E/DX2                !
 ! A60   A(27,33,34)           113.6329         estimate D2E/DX2                !
 ! A61   A(27,33,35)           103.69           estimate D2E/DX2                !
 ! A62   A(27,33,36)           116.3774         estimate D2E/DX2                !
 ! A63   A(34,33,35)           110.5374         estimate D2E/DX2                !
 ! A64   A(34,33,36)           101.4251         estimate D2E/DX2                !
 ! A65   A(35,33,36)           111.3914         estimate D2E/DX2                !
 ! D1    D(1,2,3,6)            179.2975         estimate D2E/DX2                !
 ! D2    D(1,2,3,7)             59.0434         estimate D2E/DX2                !
 ! D3    D(1,2,3,8)            -56.7467         estimate D2E/DX2                !
 ! D4    D(4,2,3,6)             55.8179         estimate D2E/DX2                !
 ! D5    D(4,2,3,7)            -64.4362         estimate D2E/DX2                !
 ! D6    D(4,2,3,8)            179.7738         estimate D2E/DX2                !
 ! D7    D(5,2,3,6)            -51.8319         estimate D2E/DX2                !
 ! D8    D(5,2,3,7)           -172.0859         estimate D2E/DX2                !
 ! D9    D(5,2,3,8)             72.124          estimate D2E/DX2                !
 ! D10   D(2,3,8,9)           -169.5188         estimate D2E/DX2                !
 ! D11   D(2,3,8,10)           -57.8553         estimate D2E/DX2                !
 ! D12   D(2,3,8,13)            56.97           estimate D2E/DX2                !
 ! D13   D(6,3,8,9)            -45.9088         estimate D2E/DX2                !
 ! D14   D(6,3,8,10)            65.7546         estimate D2E/DX2                !
 ! D15   D(6,3,8,13)          -179.4201         estimate D2E/DX2                !
 ! D16   D(7,3,8,9)             72.5197         estimate D2E/DX2                !
 ! D17   D(7,3,8,10)          -175.8168         estimate D2E/DX2                !
 ! D18   D(7,3,8,13)           -60.9915         estimate D2E/DX2                !
 ! D19   D(3,8,9,11)            53.4715         estimate D2E/DX2                !
 ! D20   D(3,8,9,12)           -60.4445         estimate D2E/DX2                !
 ! D21   D(3,8,9,15)           175.6686         estimate D2E/DX2                !
 ! D22   D(10,8,9,11)          -60.3893         estimate D2E/DX2                !
 ! D23   D(10,8,9,12)         -174.3053         estimate D2E/DX2                !
 ! D24   D(10,8,9,15)           61.8079         estimate D2E/DX2                !
 ! D25   D(13,8,9,11)         -176.4807         estimate D2E/DX2                !
 ! D26   D(13,8,9,12)           69.6032         estimate D2E/DX2                !
 ! D27   D(13,8,9,15)          -54.2836         estimate D2E/DX2                !
 ! D28   D(3,8,13,14)           24.5548         estimate D2E/DX2                !
 ! D29   D(9,8,13,14)         -106.6518         estimate D2E/DX2                !
 ! D30   D(10,8,13,14)         139.3034         estimate D2E/DX2                !
 ! D31   D(8,9,15,16)          -49.2845         estimate D2E/DX2                !
 ! D32   D(8,9,15,17)         -171.0803         estimate D2E/DX2                !
 ! D33   D(8,9,15,18)           66.9529         estimate D2E/DX2                !
 ! D34   D(11,9,15,16)          75.2743         estimate D2E/DX2                !
 ! D35   D(11,9,15,17)         -46.5215         estimate D2E/DX2                !
 ! D36   D(11,9,15,18)        -168.4883         estimate D2E/DX2                !
 ! D37   D(12,9,15,16)        -169.3            estimate D2E/DX2                !
 ! D38   D(12,9,15,17)          68.9042         estimate D2E/DX2                !
 ! D39   D(12,9,15,18)         -53.0626         estimate D2E/DX2                !
 ! D40   D(8,13,14,31)         147.4998         estimate D2E/DX2                !
 ! D41   D(13,14,31,26)        -66.9384         estimate D2E/DX2                !
 ! D42   D(13,14,31,32)        175.9729         estimate D2E/DX2                !
 ! D43   D(19,20,21,24)         41.336          estimate D2E/DX2                !
 ! D44   D(19,20,21,25)        -64.8151         estimate D2E/DX2                !
 ! D45   D(19,20,21,26)        168.6972         estimate D2E/DX2                !
 ! D46   D(22,20,21,24)        -72.4558         estimate D2E/DX2                !
 ! D47   D(22,20,21,25)       -178.6068         estimate D2E/DX2                !
 ! D48   D(22,20,21,26)         54.9055         estimate D2E/DX2                !
 ! D49   D(23,20,21,24)        163.2885         estimate D2E/DX2                !
 ! D50   D(23,20,21,25)         57.1375         estimate D2E/DX2                !
 ! D51   D(23,20,21,26)        -69.3502         estimate D2E/DX2                !
 ! D52   D(20,21,26,27)       -166.9635         estimate D2E/DX2                !
 ! D53   D(20,21,26,28)        -55.4482         estimate D2E/DX2                !
 ! D54   D(20,21,26,31)         67.2124         estimate D2E/DX2                !
 ! D55   D(24,21,26,27)        -39.8583         estimate D2E/DX2                !
 ! D56   D(24,21,26,28)         71.657          estimate D2E/DX2                !
 ! D57   D(24,21,26,31)       -165.6824         estimate D2E/DX2                !
 ! D58   D(25,21,26,27)         68.7482         estimate D2E/DX2                !
 ! D59   D(25,21,26,28)       -179.7365         estimate D2E/DX2                !
 ! D60   D(25,21,26,31)        -57.0759         estimate D2E/DX2                !
 ! D61   D(21,26,27,29)         67.4874         estimate D2E/DX2                !
 ! D62   D(21,26,27,30)        -53.4441         estimate D2E/DX2                !
 ! D63   D(21,26,27,33)       -176.1454         estimate D2E/DX2                !
 ! D64   D(28,26,27,29)        -48.6629         estimate D2E/DX2                !
 ! D65   D(28,26,27,30)       -169.5944         estimate D2E/DX2                !
 ! D66   D(28,26,27,33)         67.7043         estimate D2E/DX2                !
 ! D67   D(31,26,27,29)       -168.787          estimate D2E/DX2                !
 ! D68   D(31,26,27,30)         70.2815         estimate D2E/DX2                !
 ! D69   D(31,26,27,33)        -52.4199         estimate D2E/DX2                !
 ! D70   D(21,26,31,14)       -109.8419         estimate D2E/DX2                !
 ! D71   D(21,26,31,32)         10.6736         estimate D2E/DX2                !
 ! D72   D(27,26,31,14)        124.2352         estimate D2E/DX2                !
 ! D73   D(27,26,31,32)       -115.2493         estimate D2E/DX2                !
 ! D74   D(28,26,31,14)         10.7149         estimate D2E/DX2                !
 ! D75   D(28,26,31,32)        131.2304         estimate D2E/DX2                !
 ! D76   D(26,27,33,34)        -76.6404         estimate D2E/DX2                !
 ! D77   D(26,27,33,35)        163.3119         estimate D2E/DX2                !
 ! D78   D(26,27,33,36)         40.64           estimate D2E/DX2                !
 ! D79   D(29,27,33,34)         35.5184         estimate D2E/DX2                !
 ! D80   D(29,27,33,35)        -84.5293         estimate D2E/DX2                !
 ! D81   D(29,27,33,36)        152.7988         estimate D2E/DX2                !
 ! D82   D(30,27,33,34)        159.4824         estimate D2E/DX2                !
 ! D83   D(30,27,33,35)         39.4347         estimate D2E/DX2                !
 ! D84   D(30,27,33,36)        -83.2372         estimate D2E/DX2                !
 --------------------------------------------------------------------------------
 Trust Radius=3.00D-01 FncErr=1.00D-07 GrdErr=1.00D-06 EigMax=2.50D+02 EigMin=1.00D-04
 Number of steps in this run=    194 maximum allowed number of steps=    216.
 GradGradGradGradGradGradGradGradGradGradGradGradGradGradGradGradGradGrad

 Leave Link  103 at Mon Feb 13 15:34:34 2023, MaxMem=   131072000 cpu:               0.1 elap:               0.0
 (Enter /dragofs/sw/campus/0.2/software/gaussian/16.gaussian/gaussian/g16_legacy/l202.exe)
                          Input orientation:                          
 ---------------------------------------------------------------------
 Center     Atomic      Atomic             Coordinates (Angstroms)
 Number     Number       Type             X           Y           Z
 ---------------------------------------------------------------------
      1          1           0       20.692000    2.404000    5.523000
      2          6           0       21.281000    2.076000    6.437000
      3          6           0       22.729000    2.611000    6.492000
      4          1           0       20.905000    2.463000    7.405000
      5          1           0       21.113000    1.007000    6.571000
      6          1           0       23.232000    2.269000    7.399000
      7          1           0       22.707000    3.685000    6.482000
      8          6           0       23.489000    2.215000    5.269000
      9          6           0       25.002000    2.498000    5.385000
     10          1           0       23.454000    1.154000    5.229000
     11          1           0       25.440000    2.049000    6.287000
     12          1           0       25.095000    3.582000    5.535000
     13          8           0       22.819000    2.685000    4.091000
     14          1           0       22.258000    3.454000    4.278000
     15          6           0       25.781000    2.006000    4.199000
     16          1           0       25.509000    0.978000    3.983000
     17          1           0       26.874000    2.101000    4.435000
     18          1           0       25.522000    2.572000    3.306000
     19          1           0       23.096000    7.222000    6.700000
     20          6           0       22.855000    6.293000    6.056000
     21          6           0       22.842000    6.720000    4.565000
     22          1           0       23.677000    5.574000    6.383000
     23          1           0       21.885000    5.873000    6.277000
     24          1           0       23.754000    7.475000    4.356000
     25          1           0       21.963000    7.461000    4.439000
     26          6           0       22.809000    5.692000    3.552000
     27          6           0       23.097000    6.192000    2.245000
     28          1           0       23.665000    5.002000    3.713000
     29          1           0       24.129000    6.462000    2.356000
     30          1           0       22.422000    7.051000    2.004000
     31          8           0       21.571000    5.030000    3.618000
     32          1           0       20.951000    5.493000    4.194000
     33          6           0       22.988000    5.156000    1.083000
     34          1           0       23.851000    4.458000    1.026000
     35          1           0       22.937000    5.791000    0.167000
     36          1           0       22.108000    4.425000    1.134000
 ---------------------------------------------------------------------
                    Distance matrix (angstroms):
                    1          2          3          4          5
     1  H    0.000000
     2  C    1.135738   0.000000
     3  C    2.265211   1.544653   0.000000
     4  H    1.894934   1.108228   2.045104   0.000000
     5  H    1.796428   1.090386   2.278270   1.690786   0.000000
     6  H    3.160570   2.183826   1.092072   2.335081   2.601613
     7  H    2.573105   2.150438   1.074272   2.364829   3.117762
     8  C    2.814862   2.501761   1.493367   3.361704   2.966453
     9  C    4.313233   3.889811   2.530760   4.568045   4.330589
    10  H    3.045912   2.651656   2.060010   3.598035   2.702379
    11  H    4.822160   4.161792   2.776219   4.689088   4.459748
    12  H    4.557876   4.198599   2.730686   4.722834   4.853890
    13  O    2.579479   2.870547   2.403825   3.833442   3.446233
    14  H    2.259398   2.741294   2.415427   3.548354   3.543541
    15  C    5.273452   5.026285   3.865046   5.853432   5.330536
    16  H    5.254385   5.010360   4.085360   5.925548   5.101314
    17  H    6.284320   5.940562   4.655360   6.676893   6.240870
    18  H    5.317162   5.294833   4.237094   6.174979   5.705150
    19  H    5.511594   5.463031   4.630256   5.286359   6.524964
    20  C    4.481850   4.517270   3.709865   4.504576   5.589417
    21  C    4.916108   5.244792   4.539821   5.471711   6.296971
    22  H    4.438325   4.240252   3.112869   4.290313   5.240890
    23  H    3.745094   3.848068   3.376271   3.723021   4.935623
    24  H    6.037613   6.292495   5.410325   6.521759   7.329129
    25  H    5.325762   5.784060   5.322036   5.907328   6.849966
    26  C    4.379209   4.871700   4.259409   5.375618   5.825805
    27  C    5.556820   6.149161   5.567405   6.733194   7.038093
    28  H    4.343321   4.654579   3.783625   5.262602   5.535422
    29  H    6.189525   6.633450   5.822087   7.202679   7.524593
    30  H    6.080368   6.760473   6.320601   7.247195   7.687711
    31  O    3.361182   4.093529   3.930954   4.623247   5.011437
    32  H    3.372720   4.100712   4.092434   4.415149   5.079426
    33  C    5.706025   6.408242   5.983426   7.180447   7.130776
    34  H    5.866959   6.446530   5.877708   7.304148   7.081883
    35  H    6.722985   7.473718   7.082463   8.221512   8.199076
    36  H    5.035158   5.858629   5.690729   6.679977   6.498747
                    6          7          8          9         10
     6  H    0.000000
     7  H    1.766797   0.000000
     8  C    2.146128   2.060047   0.000000
     9  C    2.691010   2.807027   1.543604   0.000000
    10  H    2.449777   2.921297   1.062330   2.055961   0.000000
    11  H    2.481977   3.191208   2.206871   1.098658   2.421691
    12  H    2.944356   2.570985   2.125719   1.098274   2.946473
    13  O    3.359537   2.594114   1.434393   2.544581   2.010530
    14  H    3.477577   2.261101   2.008124   3.109489   2.761307
    15  C    4.099582   4.180981   2.538079   1.501833   2.683604
    16  H    4.303541   4.628613   2.695249   2.129097   2.409672
    17  H    4.698690   4.905421   3.488091   2.136467   3.636433
    18  H    4.699847   4.387479   2.848492   2.144322   3.159949
    19  H    5.003929   3.564998   5.222285   5.261011   6.254009
    20  C    4.258915   2.646704   4.201358   4.411562   5.239470
    21  C    5.291036   3.592261   4.605350   4.812825   5.638776
    22  H    3.486159   2.125799   3.543899   3.494768   4.573603
    23  H    4.007756   2.346285   4.119447   4.679955   5.082226
    24  H    6.052666   4.469920   5.345222   5.233247   6.388049
    25  H    6.109732   4.357242   5.526128   5.895914   6.528815
    26  C    5.166746   3.552936   3.937006   4.286114   4.880758
    27  C    6.478570   4.938554   5.011464   5.209056   5.866272
    28  H    4.609053   3.212416   3.196792   3.294415   4.141241
    29  H    6.619494   5.172783   5.189622   5.064609   6.073271
    30  H    7.254629   5.609248   5.931746   6.230359   6.800019
    31  O    4.967696   3.361847   3.785334   4.615742   4.600477
    32  H    5.086174   3.404019   4.282797   5.176785   5.114993
    33  C    6.948824   5.602857   5.140338   5.443194   5.781218
    34  H    6.766832   5.627984   4.813018   4.916023   5.360899
    35  H    8.049431   6.660883   6.254829   6.506581   6.884250
    36  H    6.720263   5.432081   4.887687   5.491773   5.411117
                   11         12         13         14         15
    11  H    0.000000
    12  H    1.742015   0.000000
    13  O    3.478010   2.840761   0.000000
    14  H    4.016868   3.105640   0.970078   0.000000
    15  C    2.116099   2.176986   3.040748   3.809787   0.000000
    16  H    2.541696   3.059561   3.187729   4.097146   1.085092
    17  H    2.342854   2.562850   4.111255   4.812766   1.122217
    18  H    3.027642   2.484124   2.816949   3.518011   1.088525
    19  H    5.694281   4.313099   5.240990   4.556989   6.377373
    20  C    4.974648   3.555076   4.108550   3.402589   5.512558
    21  C    5.615437   3.982958   4.062811   3.330192   5.567178
    22  H    3.942462   2.588029   3.786258   3.307414   4.682659
    23  H    5.221216   4.012897   3.976719   3.160173   5.869462
    24  H    6.001069   4.282963   4.887591   4.290984   5.834667
    25  H    6.692860   5.104633   4.864567   4.021069   6.662713
    26  C    5.260593   3.689198   3.054942   2.416469   4.778911
    27  C    6.244346   4.650613   3.972914   3.511930   5.342712
    28  H    4.300734   2.716797   2.495414   2.166836   3.699955
    29  H    6.053598   4.396999   4.357987   4.030234   5.097224
    30  H    7.243785   5.625553   4.855423   4.258683   6.446156
    31  O    5.565886   4.264993   2.698195   1.841560   5.215960
    32  H    6.032653   4.756358   3.374151   2.423391   5.957188
    33  C    6.538147   5.170805   3.896468   3.692930   5.237634
    34  H    6.000527   4.758781   3.688194   3.757814   4.450296
    35  H    7.597498   6.192905   5.005890   4.777335   6.218648
    36  H    6.580350   5.385315   3.503851   3.293946   5.360664
                   16         17         18         19         20
    16  H    0.000000
    17  H    1.824461   0.000000
    18  H    1.731859   1.823290   0.000000
    19  H    7.224417   6.754861   6.247176   0.000000
    20  C    6.292080   6.029334   5.340527   1.155793   0.000000
    21  C    6.357844   6.132625   5.096409   2.207882   1.550993
    22  H    5.499040   5.106588   4.678029   1.775937   1.139989
    23  H    6.508213   6.520051   5.740315   1.861518   1.079880
    24  H    6.740190   6.214541   5.316741   2.447715   2.257283
    25  H    7.403468   7.269631   6.152438   2.540262   2.185081
    26  C    5.449546   5.495379   4.141894   3.511862   2.575526
    27  C    6.002015   5.983152   4.484501   4.572519   3.820011
    28  H    4.434615   4.385746   3.085287   3.764881   2.795072
    29  H    5.884368   5.556581   4.239699   4.529351   3.916840
    30  H    7.094176   7.087494   5.600593   4.747203   4.144968
    31  O    5.662135   6.112965   4.663637   4.077893   3.031117
    32  H    6.419121   6.829764   5.496801   3.724312   2.780694
    33  C    5.676365   5.972430   4.247345   5.985876   5.103057
    34  H    4.858314   5.129840   3.398181   6.356414   5.446112
    35  H    6.658980   6.879818   5.186281   6.689778   5.910926
    36  H    5.618310   6.245985   4.450459   6.307116   5.317285
                   21         22         23         24         25
    21  C    0.000000
    22  H    2.305573   0.000000
    23  H    2.136399   1.819863   0.000000
    24  H    1.202269   2.780011   3.122468   0.000000
    25  H    1.156546   3.205885   2.430241   1.792977   0.000000
    26  C    1.443621   2.963429   2.883082   2.172218   2.152172
    27  C    2.392950   4.223904   4.222290   2.556181   2.776680
    28  H    2.086805   2.730609   3.240546   2.556775   3.077428
    29  H    2.569555   4.148443   4.555952   2.273058   3.166772
    30  H    2.616234   4.788757   4.464816   2.736038   2.511574
    31  O    2.316970   3.518010   2.807049   3.359785   2.595663
    32  H    2.284524   3.497050   2.314227   3.436768   2.226475
    33  C    3.819913   5.360918   5.358016   4.083754   4.198379
    34  H    4.319635   5.474777   5.782766   4.494508   4.922512
    35  H    4.496050   6.263653   6.200446   4.588144   4.689089
    36  H    4.192558   5.597675   5.347605   4.732135   4.490139
                   26         27         28         29         30
    26  C    0.000000
    27  C    1.428703   0.000000
    28  H    1.111196   1.973258   0.000000
    29  H    1.940545   1.072495   2.046545   0.000000
    30  H    2.095937   1.118743   2.943490   1.839748   0.000000
    31  O    1.405434   2.358824   2.096341   3.191650   2.722800
    32  H    1.975836   2.982033   2.799685   3.796958   3.063871
    33  C    2.532844   1.560584   2.720100   2.151289   2.181656
    34  H    2.998199   2.249718   2.747817   2.421198   3.118040
    35  H    3.388866   2.122377   3.704945   2.581245   2.286349
    36  H    2.818406   2.309704   3.067315   3.118829   2.784129
                   31         32         33         34         35
    31  O    0.000000
    32  H    0.964648   0.000000
    33  C    2.906887   3.733800   0.000000
    34  H    3.499150   4.417856   1.111405   0.000000
    35  H    3.788730   4.499970   1.115743   1.830346   0.000000
    36  H    2.612403   3.441348   1.145147   1.746655   1.867695
                   36
    36  H    0.000000
 Stoichiometry    C10H24O2
 Framework group  C1[X(C10H24O2)]
 Deg. of freedom   102
 Full point group                 C1      NOp   1
 Largest Abelian subgroup         C1      NOp   1
 Largest concise Abelian subgroup C1      NOp   1
                         Standard orientation:                         
 ---------------------------------------------------------------------
 Center     Atomic      Atomic             Coordinates (Angstroms)
 Number     Number       Type             X           Y           Z
 ---------------------------------------------------------------------
      1          1           0        1.622733   -1.629331   -2.142018
      2          6           0        2.504823   -1.763626   -1.439321
      3          6           0        2.333012   -1.090837   -0.059542
      4          1           0        2.694653   -2.805726   -1.113497
      5          1           0        3.413040   -1.564354   -2.008858
      6          1           0        3.208901   -1.269127    0.567876
      7          1           0        1.462772   -1.496093    0.422651
      8          6           0        2.063008    0.370164   -0.210276
      9          6           0        2.138549    1.135451    1.128135
     10          1           0        2.885099    0.769047   -0.752128
     11          1           0        3.087219    0.959467    1.653589
     12          1           0        1.370524    0.689148    1.774011
     13          8           0        0.902117    0.581663   -1.025803
     14          1           0        0.306196   -0.183633   -1.009954
     15          6           0        1.969818    2.618652    0.963377
     16          1           0        2.627000    2.977013    0.177811
     17          1           0        2.199963    3.107906    1.946756
     18          1           0        0.960400    2.857436    0.633312
     19          1           0       -1.186555   -2.712851    2.474426
     20          6           0       -0.850910   -2.078786    1.568246
     21          6           0       -2.055697   -1.224728    1.094272
     22          1           0        0.042169   -1.520042    2.003895
     23          1           0       -0.537625   -2.683123    0.729933
     24          1           0       -2.639659   -0.789243    2.050719
     25          1           0       -2.859291   -1.964989    0.714998
     26          6           0       -1.821252   -0.170821    0.135962
     27          6           0       -2.931533    0.719143    0.007770
     28          1           0       -1.041927    0.512134    0.537189
     29          1           0       -2.923319    1.190772    0.970964
     30          1           0       -3.864344    0.141879   -0.211816
     31          8           0       -1.445112   -0.747528   -1.089261
     32          1           0       -1.580405   -1.702641   -1.088558
     33          6           0       -2.788489    1.830303   -1.078638
     34          1           0       -2.127465    2.669836   -0.772936
     35          1           0       -3.834125    2.189794   -1.227948
     36          1           0       -2.309967    1.514152   -2.069812
 ---------------------------------------------------------------------
 Rotational constants (GHZ):           0.9016069           0.5245191           0.4435091
 Leave Link  202 at Mon Feb 13 15:34:34 2023, MaxMem=   131072000 cpu:               0.0 elap:               0.0
 (Enter /dragofs/sw/campus/0.2/software/gaussian/16.gaussian/gaussian/g16_legacy/l301.exe)
 Standard basis: 6-311G(d,p) (5D, 7F)
 Ernie: Thresh=  0.10000D-02 Tol=  0.10000D-05 Strict=F.
 There are   372 symmetry adapted cartesian basis functions of A   symmetry.
 There are   360 symmetry adapted basis functions of A   symmetry.
   360 basis functions,   576 primitive gaussians,   372 cartesian basis functions
    50 alpha electrons       50 beta electrons
       nuclear repulsion energy       810.0839471479 Hartrees.
 IExCor=  402 DFT=T Ex=B Corr=LYP ExCW=0 ScaHFX=  0.000000
 ScaDFX=  1.000000  1.000000  1.000000  1.000000 ScalE2=  1.000000  1.000000
 IRadAn=      5 IRanWt=     -1 IRanGd=            0 ICorTp=0 IEmpDi=131
 NAtoms=   36 NActive=   36 NUniq=   36 SFac= 1.00D+00 NAtFMM=   60 NAOKFM=F Big=F
 Integral buffers will be    131072 words long.
 Raffenetti 2 integral format.
 Two-electron integral symmetry is turned on.
 R6Disp:  Grimme-D3 Dispersion energy=       -0.0424565551 Hartrees.
 Nuclear repulsion after empirical dispersion term =      810.0414905928 Hartrees.
 Leave Link  301 at Mon Feb 13 15:34:34 2023, MaxMem=   131072000 cpu:               0.4 elap:               0.1
 (Enter /dragofs/sw/campus/0.2/software/gaussian/16.gaussian/gaussian/g16_legacy/l302.exe)
 NPDir=0 NMtPBC=     1 NCelOv=     1 NCel=       1 NClECP=     1 NCelD=      1
         NCelK=      1 NCelE2=     1 NClLst=     1 CellRange=     0.0.
 One-electron integrals computed using PRISM.
 One-electron integral symmetry used in STVInt
 NBasis=   360 RedAO= T EigKep=  1.03D-03  NBF=   360
 NBsUse=   360 1.00D-06 EigRej= -1.00D+00 NBFU=   360
 Precomputing XC quadrature grid using
 IXCGrd= 4 IRadAn=           5 IRanWt=          -1 IRanGd=           0 AccXCQ= 0.00D+00.
 Generated NRdTot=       0 NPtTot=           0 NUsed=           0 NTot=          32
 NSgBfM=   372   372   372   372   372 MxSgAt=    36 MxSgA2=    36.
 Leave Link  302 at Mon Feb 13 15:34:34 2023, MaxMem=   131072000 cpu:               3.7 elap:               0.5
 (Enter /dragofs/sw/campus/0.2/software/gaussian/16.gaussian/gaussian/g16_legacy/l303.exe)
 DipDrv:  MaxL=1.
 Leave Link  303 at Mon Feb 13 15:34:35 2023, MaxMem=   131072000 cpu:               0.3 elap:               0.1
 (Enter /dragofs/sw/campus/0.2/software/gaussian/16.gaussian/gaussian/g16_legacy/l401.exe)
 ExpMin= 1.03D-01 ExpMax= 8.59D+03 ExpMxC= 1.30D+03 IAcc=3 IRadAn=         5 AccDes= 0.00D+00
 Harris functional with IExCor=  402 and IRadAn=       5 diagonalized for initial guess.
 HarFok:  IExCor=  402 AccDes= 0.00D+00 IRadAn=         5 IDoV= 1 UseB2=F ITyADJ=14
 ICtDFT=  3500011 ScaDFX=  1.000000  1.000000  1.000000  1.000000
 FoFCou: FMM=F IPFlag=           0 FMFlag=      100000 FMFlg1=           0
         NFxFlg=           0 DoJE=T BraDBF=F KetDBF=T FulRan=T
         wScrn=  0.000000 ICntrl=       500 IOpCl=  0 I1Cent=   200000004 NGrid=           0
         NMat0=    1 NMatS0=      1 NMatT0=    0 NMatD0=    1 NMtDS0=    0 NMtDT0=    0
 Petite list used in FoFCou.
 Harris En= -546.255438947825    
 JPrj=0 DoOrth=F DoCkMO=F.
 Leave Link  401 at Mon Feb 13 15:34:37 2023, MaxMem=   131072000 cpu:              23.4 elap:               3.0
 (Enter /dragofs/sw/campus/0.2/software/gaussian/16.gaussian/gaussian/g16_legacy/l502.exe)
 Integral symmetry usage will be decided dynamically.
 Closed shell SCF:
 Using DIIS extrapolation, IDIIS=  1040.
 NGot=   131072000 LenX=   130788220 LenY=   130649395
 Requested convergence on RMS density matrix=1.00D-08 within 128 cycles.
 Requested convergence on MAX density matrix=1.00D-06.
 Requested convergence on             energy=1.00D-06.
 No special actions if energy rises.
 Fock matrices will be formed incrementally for  20 cycles.
 Integral accuracy reduced to 1.0D-05 until final iterations.

 Cycle   1  Pass 0  IDiag  1:
 FoFJK:  IHMeth= 1 ICntrl=     500 DoSepK=F KAlg= 0 I1Cent=           0 FoldK=F
 IRaf= 870000000 NMat=       1 IRICut=       1 DoRegI=T DoRafI=F ISym2E= 0 IDoP0=0 IntGTp=1.
 FoFCou: FMM=F IPFlag=           0 FMFlag=      100000 FMFlg1=           0
         NFxFlg=           0 DoJE=T BraDBF=F KetDBF=F FulRan=T
         wScrn=  0.000000 ICntrl=       500 IOpCl=  0 I1Cent=           0 NGrid=           0
         NMat0=    1 NMatS0=      1 NMatT0=    0 NMatD0=    1 NMtDS0=    0 NMtDT0=    0
 Symmetry not used in FoFCou.
 E= -545.286987047764    
 DIIS: error= 3.06D-02 at cycle   1 NSaved=   1.
 NSaved= 1 IEnMin= 1 EnMin= -545.286987047764     IErMin= 1 ErrMin= 3.06D-02
 ErrMax= 3.06D-02  0.00D+00 EMaxC= 1.00D-01 BMatC= 5.24D-01 BMatP= 5.24D-01
 IDIUse=3 WtCom= 6.94D-01 WtEn= 3.06D-01
 Coeff-Com:  0.100D+01
 Coeff-En:   0.100D+01
 Coeff:      0.100D+01
 Gap=     0.085 Goal=   None    Shift=    0.000
 GapD=    0.085 DampG=0.500 DampE=0.500 DampFc=0.2500 IDamp=-1.
 Damping current iteration by 2.50D-01
 RMSDP=5.22D-03 MaxDP=1.45D-01              OVMax= 2.46D-01

 Cycle   2  Pass 0  IDiag  1:
 RMSU=  1.30D-03    CP:  9.83D-01
 E= -545.479244711745     Delta-E=       -0.192257663981 Rises=F Damp=T
 DIIS: error= 1.04D-02 at cycle   2 NSaved=   2.
 NSaved= 2 IEnMin= 2 EnMin= -545.479244711745     IErMin= 2 ErrMin= 1.04D-02
 ErrMax= 1.04D-02  0.00D+00 EMaxC= 1.00D-01 BMatC= 7.48D-02 BMatP= 5.24D-01
 IDIUse=3 WtCom= 8.96D-01 WtEn= 1.04D-01
 Coeff-Com: -0.494D+00 0.149D+01
 Coeff-En:   0.000D+00 0.100D+01
 Coeff:     -0.442D+00 0.144D+01
 Gap=     0.203 Goal=   None    Shift=    0.000
 RMSDP=8.55D-04 MaxDP=3.08D-02 DE=-1.92D-01 OVMax= 1.88D-01

 Cycle   3  Pass 0  IDiag  1:
 RMSU=  8.40D-04    CP:  9.76D-01  1.11D+00
 E= -545.794789207137     Delta-E=       -0.315544495392 Rises=F Damp=F
 DIIS: error= 5.39D-03 at cycle   3 NSaved=   3.
 NSaved= 3 IEnMin= 3 EnMin= -545.794789207137     IErMin= 3 ErrMin= 5.39D-03
 ErrMax= 5.39D-03  0.00D+00 EMaxC= 1.00D-01 BMatC= 1.69D-02 BMatP= 7.48D-02
 IDIUse=3 WtCom= 9.46D-01 WtEn= 5.39D-02
 Coeff-Com: -0.248D+00 0.723D+00 0.525D+00
 Coeff-En:   0.000D+00 0.000D+00 0.100D+01
 Coeff:     -0.234D+00 0.684D+00 0.550D+00
 Gap=     0.193 Goal=   None    Shift=    0.000
 RMSDP=4.97D-04 MaxDP=1.48D-02 DE=-3.16D-01 OVMax= 3.70D-02

 Cycle   4  Pass 0  IDiag  1:
 RMSU=  3.58D-04    CP:  9.80D-01  1.22D+00  6.28D-01
 E= -545.804945620612     Delta-E=       -0.010156413475 Rises=F Damp=F
 DIIS: error= 3.46D-03 at cycle   4 NSaved=   4.
 NSaved= 4 IEnMin= 4 EnMin= -545.804945620612     IErMin= 4 ErrMin= 3.46D-03
 ErrMax= 3.46D-03  0.00D+00 EMaxC= 1.00D-01 BMatC= 5.78D-03 BMatP= 1.69D-02
 IDIUse=3 WtCom= 9.65D-01 WtEn= 3.46D-02
 Coeff-Com: -0.775D-01 0.214D+00 0.360D+00 0.503D+00
 Coeff-En:   0.000D+00 0.000D+00 0.261D+00 0.739D+00
 Coeff:     -0.748D-01 0.207D+00 0.357D+00 0.511D+00
 Gap=     0.191 Goal=   None    Shift=    0.000
 RMSDP=1.95D-04 MaxDP=7.40D-03 DE=-1.02D-02 OVMax= 1.47D-02

 Cycle   5  Pass 0  IDiag  1:
 RMSU=  1.20D-04    CP:  9.77D-01  1.20D+00  7.06D-01  6.23D-01
 E= -545.809402735700     Delta-E=       -0.004457115088 Rises=F Damp=F
 DIIS: error= 7.62D-04 at cycle   5 NSaved=   5.
 NSaved= 5 IEnMin= 5 EnMin= -545.809402735700     IErMin= 5 ErrMin= 7.62D-04
 ErrMax= 7.62D-04  0.00D+00 EMaxC= 1.00D-01 BMatC= 2.55D-04 BMatP= 5.78D-03
 IDIUse=3 WtCom= 9.92D-01 WtEn= 7.62D-03
 Coeff-Com: -0.163D-01 0.424D-01 0.129D+00 0.255D+00 0.591D+00
 Coeff-En:   0.000D+00 0.000D+00 0.000D+00 0.000D+00 0.100D+01
 Coeff:     -0.162D-01 0.420D-01 0.128D+00 0.253D+00 0.594D+00
 Gap=     0.190 Goal=   None    Shift=    0.000
 RMSDP=4.99D-05 MaxDP=1.50D-03 DE=-4.46D-03 OVMax= 2.62D-03

 Cycle   6  Pass 0  IDiag  1:
 RMSU=  2.63D-05    CP:  9.77D-01  1.20D+00  7.17D-01  6.35D-01  6.61D-01
 E= -545.809586163401     Delta-E=       -0.000183427700 Rises=F Damp=F
 DIIS: error= 2.79D-04 at cycle   6 NSaved=   6.
 NSaved= 6 IEnMin= 6 EnMin= -545.809586163401     IErMin= 6 ErrMin= 2.79D-04
 ErrMax= 2.79D-04  0.00D+00 EMaxC= 1.00D-01 BMatC= 3.53D-05 BMatP= 2.55D-04
 IDIUse=3 WtCom= 9.97D-01 WtEn= 2.79D-03
 Coeff-Com: -0.375D-02 0.963D-02 0.512D-01 0.117D+00 0.359D+00 0.468D+00
 Coeff-En:   0.000D+00 0.000D+00 0.000D+00 0.000D+00 0.596D-01 0.940D+00
 Coeff:     -0.374D-02 0.960D-02 0.510D-01 0.116D+00 0.358D+00 0.469D+00
 Gap=     0.190 Goal=   None    Shift=    0.000
 RMSDP=1.39D-05 MaxDP=7.46D-04 DE=-1.83D-04 OVMax= 9.13D-04

 Cycle   7  Pass 0  IDiag  1:
 RMSU=  7.42D-06    CP:  9.77D-01  1.20D+00  7.16D-01  6.40D-01  6.99D-01
                    CP:  6.05D-01
 E= -545.809615915271     Delta-E=       -0.000029751870 Rises=F Damp=F
 DIIS: error= 5.24D-05 at cycle   7 NSaved=   7.
 NSaved= 7 IEnMin= 7 EnMin= -545.809615915271     IErMin= 7 ErrMin= 5.24D-05
 ErrMax= 5.24D-05  0.00D+00 EMaxC= 1.00D-01 BMatC= 1.69D-06 BMatP= 3.53D-05
 IDIUse=1 WtCom= 1.00D+00 WtEn= 0.00D+00
 Coeff-Com: -0.598D-03 0.196D-02 0.178D-01 0.433D-01 0.148D+00 0.250D+00
 Coeff-Com:  0.540D+00
 Coeff:     -0.598D-03 0.196D-02 0.178D-01 0.433D-01 0.148D+00 0.250D+00
 Coeff:      0.540D+00
 Gap=     0.190 Goal=   None    Shift=    0.000
 RMSDP=4.11D-06 MaxDP=1.74D-04 DE=-2.98D-05 OVMax= 2.87D-04

 Initial convergence to 1.0D-05 achieved.  Increase integral accuracy.
 Cycle   8  Pass 1  IDiag  1:
 E= -545.809641833568     Delta-E=       -0.000025918298 Rises=F Damp=F
 DIIS: error= 1.94D-05 at cycle   1 NSaved=   1.
 NSaved= 1 IEnMin= 1 EnMin= -545.809641833568     IErMin= 1 ErrMin= 1.94D-05
 ErrMax= 1.94D-05  0.00D+00 EMaxC= 1.00D-01 BMatC= 3.52D-07 BMatP= 3.52D-07
 IDIUse=1 WtCom= 1.00D+00 WtEn= 0.00D+00
 Coeff-Com:  0.100D+01
 Coeff:      0.100D+01
 Gap=     0.190 Goal=   None    Shift=    0.000
 RMSDP=4.11D-06 MaxDP=1.74D-04 DE=-2.59D-05 OVMax= 2.44D-04

 Cycle   9  Pass 1  IDiag  1:
 RMSU=  6.22D-06    CP:  1.00D+00
 E= -545.809641414450     Delta-E=        0.000000419118 Rises=F Damp=F
 DIIS: error= 4.24D-05 at cycle   2 NSaved=   2.
 NSaved= 2 IEnMin= 1 EnMin= -545.809641833568     IErMin= 1 ErrMin= 1.94D-05
 ErrMax= 4.24D-05  0.00D+00 EMaxC= 1.00D-01 BMatC= 9.86D-07 BMatP= 3.52D-07
 IDIUse=1 WtCom= 1.00D+00 WtEn= 0.00D+00
 Coeff-Com:  0.638D+00 0.362D+00
 Coeff:      0.638D+00 0.362D+00
 Gap=     0.190 Goal=   None    Shift=    0.000
 RMSDP=2.43D-06 MaxDP=9.83D-05 DE= 4.19D-07 OVMax= 1.85D-04

 Cycle  10  Pass 1  IDiag  1:
 RMSU=  1.99D-06    CP:  1.00D+00  7.78D-01
 E= -545.809642121390     Delta-E=       -0.000000706940 Rises=F Damp=F
 DIIS: error= 7.08D-06 at cycle   3 NSaved=   3.
 NSaved= 3 IEnMin= 3 EnMin= -545.809642121390     IErMin= 3 ErrMin= 7.08D-06
 ErrMax= 7.08D-06  0.00D+00 EMaxC= 1.00D-01 BMatC= 2.23D-08 BMatP= 3.52D-07
 IDIUse=1 WtCom= 1.00D+00 WtEn= 0.00D+00
 Coeff-Com:  0.107D+00 0.147D+00 0.746D+00
 Coeff:      0.107D+00 0.147D+00 0.746D+00
 Gap=     0.190 Goal=   None    Shift=    0.000
 RMSDP=5.10D-07 MaxDP=1.74D-05 DE=-7.07D-07 OVMax= 3.30D-05

 Cycle  11  Pass 1  IDiag  1:
 RMSU=  4.63D-07    CP:  1.00D+00  7.90D-01  9.00D-01
 E= -545.809642129583     Delta-E=       -0.000000008193 Rises=F Damp=F
 DIIS: error= 3.61D-06 at cycle   4 NSaved=   4.
 NSaved= 4 IEnMin= 4 EnMin= -545.809642129583     IErMin= 4 ErrMin= 3.61D-06
 ErrMax= 3.61D-06  0.00D+00 EMaxC= 1.00D-01 BMatC= 8.27D-09 BMatP= 2.23D-08
 IDIUse=1 WtCom= 1.00D+00 WtEn= 0.00D+00
 Coeff-Com:  0.767D-02 0.592D-01 0.475D+00 0.459D+00
 Coeff:      0.767D-02 0.592D-01 0.475D+00 0.459D+00
 Gap=     0.190 Goal=   None    Shift=    0.000
 RMSDP=2.28D-07 MaxDP=1.01D-05 DE=-8.19D-09 OVMax= 1.13D-05

 Cycle  12  Pass 1  IDiag  1:
 RMSU=  8.16D-08    CP:  1.00D+00  7.94D-01  9.00D-01  5.45D-01
 E= -545.809642137215     Delta-E=       -0.000000007632 Rises=F Damp=F
 DIIS: error= 4.48D-07 at cycle   5 NSaved=   5.
 NSaved= 5 IEnMin= 5 EnMin= -545.809642137215     IErMin= 5 ErrMin= 4.48D-07
 ErrMax= 4.48D-07  0.00D+00 EMaxC= 1.00D-01 BMatC= 1.49D-10 BMatP= 8.27D-09
 IDIUse=1 WtCom= 1.00D+00 WtEn= 0.00D+00
 Coeff-Com: -0.119D-03 0.247D-01 0.213D+00 0.228D+00 0.535D+00
 Coeff:     -0.119D-03 0.247D-01 0.213D+00 0.228D+00 0.535D+00
 Gap=     0.190 Goal=   None    Shift=    0.000
 RMSDP=4.47D-08 MaxDP=1.35D-06 DE=-7.63D-09 OVMax= 2.11D-06

 Cycle  13  Pass 1  IDiag  1:
 RMSU=  1.77D-08    CP:  1.00D+00  7.95D-01  8.99D-01  5.15D-01  5.35D-01
 E= -545.809642137348     Delta-E=       -0.000000000133 Rises=F Damp=F
 DIIS: error= 1.21D-07 at cycle   6 NSaved=   6.
 NSaved= 6 IEnMin= 6 EnMin= -545.809642137348     IErMin= 6 ErrMin= 1.21D-07
 ErrMax= 1.21D-07  0.00D+00 EMaxC= 1.00D-01 BMatC= 1.17D-11 BMatP= 1.49D-10
 IDIUse=1 WtCom= 1.00D+00 WtEn= 0.00D+00
 Coeff-Com: -0.369D-03 0.114D-01 0.989D-01 0.106D+00 0.301D+00 0.483D+00
 Coeff:     -0.369D-03 0.114D-01 0.989D-01 0.106D+00 0.301D+00 0.483D+00
 Gap=     0.190 Goal=   None    Shift=    0.000
 RMSDP=9.42D-09 MaxDP=3.76D-07 DE=-1.33D-10 OVMax= 5.68D-07

 SCF Done:  E(RB-LYP) =  -545.809642137     A.U. after   13 cycles
            NFock= 13  Conv=0.94D-08     -V/T= 2.0020
 KE= 5.446956959997D+02 PE=-2.892337947540D+03 EE= 9.917911188098D+02
 Leave Link  502 at Mon Feb 13 15:35:27 2023, MaxMem=   131072000 cpu:             395.3 elap:              49.8
 (Enter /dragofs/sw/campus/0.2/software/gaussian/16.gaussian/gaussian/g16_legacy/l601.exe)
 Copying SCF densities to generalized density rwf, IOpCl= 0 IROHF=0.

 **********************************************************************

            Population analysis using the SCF density.

 **********************************************************************

 Orbital symmetries:
       Occupied  (A) (A) (A) (A) (A) (A) (A) (A) (A) (A) (A) (A)
                 (A) (A) (A) (A) (A) (A) (A) (A) (A) (A) (A) (A)
                 (A) (A) (A) (A) (A) (A) (A) (A) (A) (A) (A) (A)
                 (A) (A) (A) (A) (A) (A) (A) (A) (A) (A) (A) (A)
                 (A) (A)
       Virtual   (A) (A) (A) (A) (A) (A) (A) (A) (A) (A) (A) (A)
                 (A) (A) (A) (A) (A) (A) (A) (A) (A) (A) (A) (A)
                 (A) (A) (A) (A) (A) (A) (A) (A) (A) (A) (A) (A)
                 (A) (A) (A) (A) (A) (A) (A) (A) (A) (A) (A) (A)
                 (A) (A) (A) (A) (A) (A) (A) (A) (A) (A) (A) (A)
                 (A) (A) (A) (A) (A) (A) (A) (A) (A) (A) (A) (A)
                 (A) (A) (A) (A) (A) (A) (A) (A) (A) (A) (A) (A)
                 (A) (A) (A) (A) (A) (A) (A) (A) (A) (A) (A) (A)
                 (A) (A) (A) (A) (A) (A) (A) (A) (A) (A) (A) (A)
                 (A) (A) (A) (A) (A) (A) (A) (A) (A) (A) (A) (A)
                 (A) (A) (A) (A) (A) (A) (A) (A) (A) (A) (A) (A)
                 (A) (A) (A) (A) (A) (A) (A) (A) (A) (A) (A) (A)
                 (A) (A) (A) (A) (A) (A) (A) (A) (A) (A) (A) (A)
                 (A) (A) (A) (A) (A) (A) (A) (A) (A) (A) (A) (A)
                 (A) (A) (A) (A) (A) (A) (A) (A) (A) (A) (A) (A)
                 (A) (A) (A) (A) (A) (A) (A) (A) (A) (A) (A) (A)
                 (A) (A) (A) (A) (A) (A) (A) (A) (A) (A) (A) (A)
                 (A) (A) (A) (A) (A) (A) (A) (A) (A) (A) (A) (A)
                 (A) (A) (A) (A) (A) (A) (A) (A) (A) (A) (A) (A)
                 (A) (A) (A) (A) (A) (A) (A) (A) (A) (A) (A) (A)
                 (A) (A) (A) (A) (A) (A) (A) (A) (A) (A) (A) (A)
                 (A) (A) (A) (A) (A) (A) (A) (A) (A) (A) (A) (A)
                 (A) (A) (A) (A) (A) (A) (A) (A) (A) (A) (A) (A)
                 (A) (A) (A) (A) (A) (A) (A) (A) (A) (A) (A) (A)
                 (A) (A) (A) (A) (A) (A) (A) (A) (A) (A) (A) (A)
                 (A) (A) (A) (A) (A) (A) (A) (A) (A) (A)
 The electronic state is 1-A.
 Alpha  occ. eigenvalues --  -18.77558 -18.72914  -9.94395  -9.92578  -9.92359
 Alpha  occ. eigenvalues --   -9.91636  -9.89349  -9.89221  -9.89075  -9.89010
 Alpha  occ. eigenvalues --   -9.88640  -9.87991  -0.95416  -0.89731  -0.73603
 Alpha  occ. eigenvalues --   -0.70785  -0.68141  -0.67294  -0.61201  -0.59562
 Alpha  occ. eigenvalues --   -0.54767  -0.53121  -0.52864  -0.51458  -0.46434
 Alpha  occ. eigenvalues --   -0.43696  -0.42112  -0.41051  -0.39984  -0.39364
 Alpha  occ. eigenvalues --   -0.38829  -0.37679  -0.35881  -0.34891  -0.34276
 Alpha  occ. eigenvalues --   -0.33775  -0.32658  -0.32275  -0.31566  -0.31174
 Alpha  occ. eigenvalues --   -0.30359  -0.29061  -0.28884  -0.28751  -0.28015
 Alpha  occ. eigenvalues --   -0.27553  -0.27074  -0.24817  -0.23327  -0.19697
 Alpha virt. eigenvalues --   -0.00712   0.01808   0.02758   0.03103   0.04509
 Alpha virt. eigenvalues --    0.04954   0.05451   0.06022   0.06313   0.07873
 Alpha virt. eigenvalues --    0.08194   0.08611   0.09310   0.09862   0.10913
 Alpha virt. eigenvalues --    0.11196   0.12072   0.12506   0.12642   0.12887
 Alpha virt. eigenvalues --    0.13937   0.15293   0.15622   0.16122   0.16829
 Alpha virt. eigenvalues --    0.18285   0.19565   0.20124   0.20527   0.22126
 Alpha virt. eigenvalues --    0.22339   0.22726   0.23469   0.24890   0.25821
 Alpha virt. eigenvalues --    0.27640   0.28618   0.29675   0.30067   0.30833
 Alpha virt. eigenvalues --    0.31194   0.31964   0.32895   0.34289   0.36265
 Alpha virt. eigenvalues --    0.37143   0.38305   0.40189   0.40667   0.41186
 Alpha virt. eigenvalues --    0.41613   0.42881   0.43752   0.43952   0.45038
 Alpha virt. eigenvalues --    0.46402   0.48549   0.49092   0.49850   0.50699
 Alpha virt. eigenvalues --    0.51821   0.52375   0.52704   0.53471   0.54046
 Alpha virt. eigenvalues --    0.54321   0.54925   0.55489   0.55810   0.55970
 Alpha virt. eigenvalues --    0.56417   0.56744   0.57676   0.58196   0.58488
 Alpha virt. eigenvalues --    0.58815   0.59284   0.60061   0.60417   0.61140
 Alpha virt. eigenvalues --    0.61862   0.62333   0.62815   0.64135   0.65115
 Alpha virt. eigenvalues --    0.67176   0.67619   0.69479   0.74499   0.79897
 Alpha virt. eigenvalues --    0.81277   0.82722   0.84003   0.84446   0.87055
 Alpha virt. eigenvalues --    0.88080   0.89709   0.91612   0.93125   0.93232
 Alpha virt. eigenvalues --    0.95569   0.96429   0.99027   1.01414   1.03531
 Alpha virt. eigenvalues --    1.05674   1.06779   1.08192   1.10220   1.12274
 Alpha virt. eigenvalues --    1.13770   1.16288   1.17676   1.19511   1.20821
 Alpha virt. eigenvalues --    1.22520   1.23898   1.29228   1.31294   1.32043
 Alpha virt. eigenvalues --    1.33441   1.34497   1.35583   1.37138   1.37475
 Alpha virt. eigenvalues --    1.37967   1.38905   1.39038   1.39934   1.40998
 Alpha virt. eigenvalues --    1.41728   1.42636   1.43439   1.43940   1.44271
 Alpha virt. eigenvalues --    1.45307   1.45872   1.47110   1.47792   1.49328
 Alpha virt. eigenvalues --    1.49644   1.50440   1.51074   1.52000   1.52056
 Alpha virt. eigenvalues --    1.52900   1.53790   1.54130   1.56128   1.56969
 Alpha virt. eigenvalues --    1.58049   1.59035   1.60246   1.62684   1.63264
 Alpha virt. eigenvalues --    1.63688   1.65007   1.66680   1.67034   1.67293
 Alpha virt. eigenvalues --    1.68207   1.70820   1.71526   1.73426   1.74637
 Alpha virt. eigenvalues --    1.75748   1.76777   1.77116   1.78585   1.78987
 Alpha virt. eigenvalues --    1.80537   1.81658   1.83763   1.85989   1.87458
 Alpha virt. eigenvalues --    1.90222   1.90393   1.91516   1.92777   1.96287
 Alpha virt. eigenvalues --    1.97208   1.99321   1.99927   2.00281   2.01074
 Alpha virt. eigenvalues --    2.02652   2.02807   2.04147   2.05554   2.06385
 Alpha virt. eigenvalues --    2.07495   2.08186   2.10009   2.13193   2.14048
 Alpha virt. eigenvalues --    2.15227   2.15458   2.18000   2.19022   2.19784
 Alpha virt. eigenvalues --    2.21887   2.22814   2.23919   2.25473   2.26876
 Alpha virt. eigenvalues --    2.28698   2.30878   2.32029   2.33212   2.36014
 Alpha virt. eigenvalues --    2.36485   2.37859   2.38709   2.39169   2.40141
 Alpha virt. eigenvalues --    2.41701   2.43277   2.44243   2.44777   2.45535
 Alpha virt. eigenvalues --    2.46398   2.47234   2.47778   2.48682   2.49575
 Alpha virt. eigenvalues --    2.50173   2.50793   2.52800   2.54411   2.54666
 Alpha virt. eigenvalues --    2.55686   2.56303   2.56858   2.57756   2.59594
 Alpha virt. eigenvalues --    2.60810   2.61908   2.62483   2.63695   2.65448
 Alpha virt. eigenvalues --    2.66771   2.69279   2.70284   2.71734   2.74110
 Alpha virt. eigenvalues --    2.75014   2.76265   2.78300   2.80872   2.82337
 Alpha virt. eigenvalues --    2.85598   2.87800   2.91326   2.92716   2.94017
 Alpha virt. eigenvalues --    2.97762   2.99905   3.02379   3.03531   3.10166
 Alpha virt. eigenvalues --    3.14564   3.16913   3.18132   3.19866   3.24274
 Alpha virt. eigenvalues --    3.28612   3.40809   3.44160   3.52191   3.53983
 Alpha virt. eigenvalues --    3.56125   3.57507   3.67034   3.68421   3.71258
 Alpha virt. eigenvalues --    3.72999   3.74276   3.75876   3.77464   3.78234
 Alpha virt. eigenvalues --    3.80216   3.82030   3.87410   3.89951   3.97007
 Alpha virt. eigenvalues --    3.98117   4.02317   4.10095   4.14411   4.18739
 Alpha virt. eigenvalues --    4.29312   4.36220   4.84880   4.92523   5.17187
 Alpha virt. eigenvalues --    5.22880   5.55351   5.61104  23.41438  23.52268
 Alpha virt. eigenvalues --   23.53263  23.54726  23.57724  23.59417  23.62207
 Alpha virt. eigenvalues --   23.64707  23.66975  23.74915  49.46495  49.51943
          Condensed to atoms (all electrons):
               1          2          3          4          5          6
     1  H    0.586970   0.392507  -0.028672  -0.017143  -0.034088   0.008487
     2  C    0.392507   4.896016   0.358229   0.388267   0.402456  -0.033067
     3  C   -0.028672   0.358229   4.994904  -0.050789  -0.025503   0.379766
     4  H   -0.017143   0.388267  -0.050789   0.645239  -0.046687  -0.005946
     5  H   -0.034088   0.402456  -0.025503  -0.046687   0.596897  -0.005970
     6  H    0.008487  -0.033067   0.379766  -0.005946  -0.005970   0.625455
     7  H   -0.008891  -0.051125   0.391866  -0.014430   0.009606  -0.031957
     8  C   -0.007430  -0.071181   0.392023   0.012427  -0.005591  -0.032885
     9  C    0.000893   0.012722  -0.058611  -0.000454   0.000016  -0.001600
    10  H   -0.002902  -0.017640  -0.040933  -0.000346   0.005168  -0.003893
    11  H   -0.000081  -0.000532  -0.005204  -0.000082   0.000031   0.002683
    12  H   -0.000027  -0.000545  -0.009407   0.000044   0.000016   0.000529
    13  O    0.009288  -0.000591  -0.047942   0.000493  -0.000363   0.005928
    14  H    0.004211  -0.002046   0.001005  -0.000213   0.000052   0.000126
    15  C   -0.000011  -0.000446   0.010351   0.000028  -0.000032  -0.000474
    16  H   -0.000003  -0.000072   0.000377   0.000004  -0.000012   0.000011
    17  H    0.000000   0.000027  -0.000529  -0.000002   0.000001  -0.000064
    18  H   -0.000026  -0.000005   0.000486  -0.000001   0.000001  -0.000114
    19  H   -0.000003  -0.000029   0.000400  -0.000009   0.000001  -0.000021
    20  C    0.000087   0.000288  -0.004288   0.000074  -0.000010   0.000114
    21  C    0.000002   0.000027   0.000362   0.000000  -0.000000  -0.000037
    22  H    0.000105   0.000296  -0.003021   0.000074  -0.000018   0.000340
    23  H    0.000203   0.000717  -0.001538   0.000421  -0.000043   0.000076
    24  H   -0.000003   0.000001  -0.000026   0.000000   0.000000   0.000000
    25  H   -0.000001   0.000005  -0.000038   0.000002  -0.000000   0.000001
    26  C   -0.000187  -0.000089  -0.000102  -0.000008   0.000002   0.000077
    27  C    0.000044  -0.000009   0.000016  -0.000001   0.000000   0.000006
    28  H   -0.000405   0.000032  -0.001727  -0.000003  -0.000003  -0.000092
    29  H   -0.000002   0.000000  -0.000004   0.000000   0.000000   0.000001
    30  H    0.000001   0.000000  -0.000001   0.000000  -0.000000   0.000000
    31  O    0.002657  -0.000750   0.001015  -0.000037  -0.000006   0.000013
    32  H    0.000286   0.000153  -0.000052   0.000002  -0.000009   0.000033
    33  C   -0.000004  -0.000000   0.000004  -0.000000  -0.000000  -0.000001
    34  H   -0.000002   0.000000   0.000002  -0.000000   0.000000  -0.000001
    35  H   -0.000000  -0.000000   0.000000  -0.000000   0.000000  -0.000000
    36  H   -0.000023   0.000006  -0.000004   0.000000  -0.000000  -0.000001
               7          8          9         10         11         12
     1  H   -0.008891  -0.007430   0.000893  -0.002902  -0.000081  -0.000027
     2  C   -0.051125  -0.071181   0.012722  -0.017640  -0.000532  -0.000545
     3  C    0.391866   0.392023  -0.058611  -0.040933  -0.005204  -0.009407
     4  H   -0.014430   0.012427  -0.000454  -0.000346  -0.000082   0.000044
     5  H    0.009606  -0.005591   0.000016   0.005168   0.000031   0.000016
     6  H   -0.031957  -0.032885  -0.001600  -0.003893   0.002683   0.000529
     7  H    0.654185  -0.051807  -0.023595   0.019261   0.001973   0.006541
     8  C   -0.051807   4.837720   0.360192   0.386717  -0.025149  -0.042745
     9  C   -0.023595   0.360192   5.027884  -0.085970   0.389119   0.380533
    10  H    0.019261   0.386717  -0.085970   0.679142  -0.001139   0.014144
    11  H    0.001973  -0.025149   0.389119  -0.001139   0.633831  -0.041990
    12  H    0.006541  -0.042745   0.380533   0.014144  -0.041990   0.647912
    13  O   -0.002101   0.317394  -0.054642  -0.041162   0.003840  -0.000342
    14  H    0.000812  -0.059141   0.008242   0.000568  -0.000689  -0.000286
    15  C   -0.000620  -0.056704   0.361355  -0.012658  -0.043813  -0.037296
    16  H    0.000058  -0.009625  -0.040961   0.008936  -0.006039   0.011042
    17  H    0.000006   0.008624  -0.036754  -0.000019  -0.010881  -0.003889
    18  H    0.000084  -0.005765  -0.036450  -0.000823   0.011139  -0.012349
    19  H    0.000477  -0.000037   0.000015   0.000002  -0.000001  -0.000024
    20  C   -0.002182   0.000727  -0.000599  -0.000076   0.000028  -0.000680
    21  C   -0.002421  -0.000231   0.000158  -0.000013  -0.000012   0.000002
    22  H   -0.000952  -0.000037   0.001213  -0.000116  -0.000165   0.004066
    23  H   -0.001762  -0.000101   0.000164  -0.000028  -0.000007  -0.000172
    24  H    0.000096   0.000001   0.000010  -0.000000  -0.000003   0.000050
    25  H   -0.000125   0.000024  -0.000000  -0.000002  -0.000000  -0.000007
    26  C    0.000952   0.001086  -0.000362   0.000095   0.000027  -0.000159
    27  C    0.000113   0.000013   0.000006  -0.000007   0.000001   0.000023
    28  H    0.002573   0.001870  -0.004357   0.001081   0.000363   0.003723
    29  H   -0.000015   0.000004   0.000020  -0.000001  -0.000003   0.000060
    30  H   -0.000016   0.000009   0.000000  -0.000001  -0.000000   0.000001
    31  O   -0.000265  -0.001187   0.000030  -0.000192  -0.000000  -0.000186
    32  H    0.000570   0.000082  -0.000024   0.000040   0.000001   0.000054
    33  C    0.000008  -0.000009   0.000001   0.000002   0.000000  -0.000007
    34  H    0.000004  -0.000012  -0.000032   0.000009   0.000003  -0.000001
    35  H    0.000000  -0.000001  -0.000000   0.000000   0.000000  -0.000001
    36  H   -0.000015  -0.000001   0.000001  -0.000005  -0.000000   0.000000
              13         14         15         16         17         18
     1  H    0.009288   0.004211  -0.000011  -0.000003   0.000000  -0.000026
     2  C   -0.000591  -0.002046  -0.000446  -0.000072   0.000027  -0.000005
     3  C   -0.047942   0.001005   0.010351   0.000377  -0.000529   0.000486
     4  H    0.000493  -0.000213   0.000028   0.000004  -0.000002  -0.000001
     5  H   -0.000363   0.000052  -0.000032  -0.000012   0.000001   0.000001
     6  H    0.005928   0.000126  -0.000474   0.000011  -0.000064  -0.000114
     7  H   -0.002101   0.000812  -0.000620   0.000058   0.000006   0.000084
     8  C    0.317394  -0.059141  -0.056704  -0.009625   0.008624  -0.005765
     9  C   -0.054642   0.008242   0.361355  -0.040961  -0.036754  -0.036450
    10  H   -0.041162   0.000568  -0.012658   0.008936  -0.000019  -0.000823
    11  H    0.003840  -0.000689  -0.043813  -0.006039  -0.010881   0.011139
    12  H   -0.000342  -0.000286  -0.037296   0.011042  -0.003889  -0.012349
    13  O    7.860328   0.323314   0.003489  -0.000041   0.000001   0.009173
    14  H    0.323314   0.445182  -0.000248  -0.000214   0.000046  -0.000394
    15  C    0.003489  -0.000248   4.837072   0.402121   0.394372   0.404210
    16  H   -0.000041  -0.000214   0.402121   0.604043  -0.029310  -0.035953
    17  H    0.000001   0.000046   0.394372  -0.029310   0.619810  -0.028182
    18  H    0.009173  -0.000394   0.404210  -0.035953  -0.028182   0.583543
    19  H    0.000003   0.000109  -0.000001   0.000000   0.000000  -0.000000
    20  C   -0.000028   0.001319   0.000018  -0.000003  -0.000000   0.000006
    21  C   -0.000117   0.002067   0.000003   0.000000  -0.000001   0.000021
    22  H   -0.000620  -0.000271  -0.000053   0.000009   0.000004  -0.000029
    23  H   -0.000220   0.000153   0.000001  -0.000000   0.000000   0.000003
    24  H   -0.000000  -0.000334  -0.000000   0.000000  -0.000000   0.000002
    25  H   -0.000028  -0.000610  -0.000000  -0.000000   0.000000  -0.000001
    26  C    0.000240  -0.010934  -0.000144   0.000001   0.000002   0.000132
    27  C   -0.002229   0.003716   0.000008  -0.000003  -0.000000  -0.000107
    28  H    0.021747  -0.024145  -0.000365   0.000036  -0.000061   0.001416
    29  H   -0.000207  -0.000296   0.000022  -0.000001   0.000001  -0.000058
    30  H   -0.000062  -0.000512  -0.000001  -0.000000   0.000000  -0.000001
    31  O   -0.019308   0.056965   0.000005  -0.000001  -0.000000   0.000018
    32  H    0.000758  -0.004973  -0.000004   0.000000  -0.000000  -0.000006
    33  C    0.001458   0.000087  -0.000065   0.000002   0.000001   0.000295
    34  H    0.000700  -0.000238   0.000054  -0.000004  -0.000013   0.001068
    35  H    0.000015   0.000059   0.000002   0.000000   0.000000  -0.000017
    36  H    0.001473  -0.000398  -0.000001   0.000001  -0.000000   0.000021
              19         20         21         22         23         24
     1  H   -0.000003   0.000087   0.000002   0.000105   0.000203  -0.000003
     2  C   -0.000029   0.000288   0.000027   0.000296   0.000717   0.000001
     3  C    0.000400  -0.004288   0.000362  -0.003021  -0.001538  -0.000026
     4  H   -0.000009   0.000074   0.000000   0.000074   0.000421   0.000000
     5  H    0.000001  -0.000010  -0.000000  -0.000018  -0.000043   0.000000
     6  H   -0.000021   0.000114  -0.000037   0.000340   0.000076   0.000000
     7  H    0.000477  -0.002182  -0.002421  -0.000952  -0.001762   0.000096
     8  C   -0.000037   0.000727  -0.000231  -0.000037  -0.000101   0.000001
     9  C    0.000015  -0.000599   0.000158   0.001213   0.000164   0.000010
    10  H    0.000002  -0.000076  -0.000013  -0.000116  -0.000028  -0.000000
    11  H   -0.000001   0.000028  -0.000012  -0.000165  -0.000007  -0.000003
    12  H   -0.000024  -0.000680   0.000002   0.004066  -0.000172   0.000050
    13  O    0.000003  -0.000028  -0.000117  -0.000620  -0.000220  -0.000000
    14  H    0.000109   0.001319   0.002067  -0.000271   0.000153  -0.000334
    15  C   -0.000001   0.000018   0.000003  -0.000053   0.000001  -0.000000
    16  H    0.000000  -0.000003   0.000000   0.000009  -0.000000   0.000000
    17  H    0.000000  -0.000000  -0.000001   0.000004   0.000000  -0.000000
    18  H   -0.000000   0.000006   0.000021  -0.000029   0.000003   0.000002
    19  H    0.602854   0.386208  -0.029398  -0.036386  -0.020381  -0.009347
    20  C    0.386208   4.896710   0.350777   0.397926   0.392643  -0.032848
    21  C   -0.029398   0.350777   5.063770  -0.029897  -0.040025   0.368277
    22  H   -0.036386   0.397926  -0.029897   0.585203  -0.034877  -0.004901
    23  H   -0.020381   0.392643  -0.040025  -0.034877   0.607536   0.010660
    24  H   -0.009347  -0.032848   0.368277  -0.004901   0.010660   0.654508
    25  H   -0.005379  -0.048215   0.378207   0.008386  -0.013265  -0.038893
    26  C    0.007737  -0.066199   0.391575  -0.004343  -0.006815  -0.036061
    27  C   -0.000344   0.012725  -0.064970  -0.000199   0.000891  -0.002456
    28  H   -0.000086  -0.013972  -0.055573   0.002889  -0.002192  -0.002868
    29  H   -0.000080  -0.000802  -0.009089   0.000105  -0.000146   0.002423
    30  H   -0.000026  -0.000260  -0.013441   0.000051  -0.000149  -0.000652
    31  O    0.000042   0.002820  -0.055351  -0.000695   0.008280   0.005969
    32  H   -0.000395  -0.001670  -0.007184   0.000020   0.003166   0.000235
    33  C    0.000017  -0.000396   0.010991  -0.000024   0.000028   0.000182
    34  H   -0.000001   0.000028  -0.000071  -0.000005  -0.000000  -0.000055
    35  H   -0.000001   0.000024  -0.000541   0.000001   0.000001  -0.000054
    36  H    0.000001  -0.000058   0.000784   0.000006  -0.000044  -0.000119
              25         26         27         28         29         30
     1  H   -0.000001  -0.000187   0.000044  -0.000405  -0.000002   0.000001
     2  C    0.000005  -0.000089  -0.000009   0.000032   0.000000   0.000000
     3  C   -0.000038  -0.000102   0.000016  -0.001727  -0.000004  -0.000001
     4  H    0.000002  -0.000008  -0.000001  -0.000003   0.000000   0.000000
     5  H   -0.000000   0.000002   0.000000  -0.000003   0.000000  -0.000000
     6  H    0.000001   0.000077   0.000006  -0.000092   0.000001   0.000000
     7  H   -0.000125   0.000952   0.000113   0.002573  -0.000015  -0.000016
     8  C    0.000024   0.001086   0.000013   0.001870   0.000004   0.000009
     9  C   -0.000000  -0.000362   0.000006  -0.004357   0.000020   0.000000
    10  H   -0.000002   0.000095  -0.000007   0.001081  -0.000001  -0.000001
    11  H   -0.000000   0.000027   0.000001   0.000363  -0.000003  -0.000000
    12  H   -0.000007  -0.000159   0.000023   0.003723   0.000060   0.000001
    13  O   -0.000028   0.000240  -0.002229   0.021747  -0.000207  -0.000062
    14  H   -0.000610  -0.010934   0.003716  -0.024145  -0.000296  -0.000512
    15  C   -0.000000  -0.000144   0.000008  -0.000365   0.000022  -0.000001
    16  H   -0.000000   0.000001  -0.000003   0.000036  -0.000001  -0.000000
    17  H    0.000000   0.000002  -0.000000  -0.000061   0.000001   0.000000
    18  H   -0.000001   0.000132  -0.000107   0.001416  -0.000058  -0.000001
    19  H   -0.005379   0.007737  -0.000344  -0.000086  -0.000080  -0.000026
    20  C   -0.048215  -0.066199   0.012725  -0.013972  -0.000802  -0.000260
    21  C    0.378207   0.391575  -0.064970  -0.055573  -0.009089  -0.013441
    22  H    0.008386  -0.004343  -0.000199   0.002889   0.000105   0.000051
    23  H   -0.013265  -0.006815   0.000891  -0.002192  -0.000146  -0.000149
    24  H   -0.038893  -0.036061  -0.002456  -0.002868   0.002423  -0.000652
    25  H    0.657108  -0.036484  -0.016703   0.012797   0.001142   0.011815
    26  C   -0.036484   4.907745   0.339875   0.402165  -0.042642  -0.050236
    27  C   -0.016703   0.339875   5.003740  -0.084377   0.386539   0.392532
    28  H    0.012797   0.402165  -0.084377   0.656342  -0.006357   0.016057
    29  H    0.001142  -0.042642   0.386539  -0.006357   0.623014  -0.023688
    30  H    0.011815  -0.050236   0.392532   0.016057  -0.023688   0.640706
    31  O   -0.005815   0.258038  -0.064276  -0.046890   0.006949   0.004218
    32  H    0.008615  -0.045525   0.002368   0.010897  -0.000770   0.002448
    33  C   -0.000818  -0.053760   0.365577  -0.010620  -0.032200  -0.049677
    34  H    0.000013  -0.002407  -0.025348   0.004576  -0.011806   0.008066
    35  H   -0.000020   0.009745  -0.042177  -0.000342  -0.001964  -0.014694
    36  H    0.000173  -0.010852  -0.033742   0.000487   0.008625  -0.000067
              31         32         33         34         35         36
     1  H    0.002657   0.000286  -0.000004  -0.000002  -0.000000  -0.000023
     2  C   -0.000750   0.000153  -0.000000   0.000000  -0.000000   0.000006
     3  C    0.001015  -0.000052   0.000004   0.000002   0.000000  -0.000004
     4  H   -0.000037   0.000002  -0.000000  -0.000000  -0.000000   0.000000
     5  H   -0.000006  -0.000009  -0.000000   0.000000   0.000000  -0.000000
     6  H    0.000013   0.000033  -0.000001  -0.000001  -0.000000  -0.000001
     7  H   -0.000265   0.000570   0.000008   0.000004   0.000000  -0.000015
     8  C   -0.001187   0.000082  -0.000009  -0.000012  -0.000001  -0.000001
     9  C    0.000030  -0.000024   0.000001  -0.000032  -0.000000   0.000001
    10  H   -0.000192   0.000040   0.000002   0.000009   0.000000  -0.000005
    11  H   -0.000000   0.000001   0.000000   0.000003   0.000000  -0.000000
    12  H   -0.000186   0.000054  -0.000007  -0.000001  -0.000001   0.000000
    13  O   -0.019308   0.000758   0.001458   0.000700   0.000015   0.001473
    14  H    0.056965  -0.004973   0.000087  -0.000238   0.000059  -0.000398
[...]
    33  C   -0.000020  -0.000002   0.000006   0.000000   0.000000  -0.000001
    34  H   -0.000072   0.000011   0.000119   0.000001  -0.000001  -0.000012
    35  H   -0.000006   0.000000   0.000000   0.000000   0.000000  -0.000000
    36  H    0.000380  -0.000021   0.000008  -0.000001   0.000000   0.000004
               7          8          9         10         11         12
     1  H   -0.006670  -0.011575   0.001421  -0.001528  -0.000230  -0.000044
     2  C   -0.041371  -0.055346   0.008903  -0.008217  -0.000585  -0.000275
     3  C    0.390793   0.379418  -0.063702  -0.047506  -0.000314  -0.008516
     4  H   -0.006929   0.007718  -0.000360  -0.000120  -0.000022   0.000009
     5  H    0.009425  -0.005008  -0.000082   0.005738   0.000031   0.000023
     6  H   -0.035796  -0.033554  -0.000879  -0.002542   0.001030   0.000333
     7  H    0.623553  -0.035322  -0.010241   0.010263   0.000996   0.005410
     8  C   -0.035322   4.859318   0.368285   0.387177  -0.033227  -0.035543
     9  C   -0.010241   0.368285   4.998165  -0.053260   0.371231   0.394008
    10  H    0.010263   0.387177  -0.053260   0.641784  -0.001464   0.009474
    11  H    0.000996  -0.033227   0.371231  -0.001464   0.640574  -0.033612
    12  H    0.005410  -0.035543   0.394008   0.009474  -0.033612   0.595026
    13  O   -0.003343   0.285738  -0.043763  -0.034322   0.005378  -0.002368
    14  H    0.002861  -0.057567   0.000415   0.007332  -0.000838   0.002246
    15  C   -0.000259  -0.055336   0.359556  -0.007071  -0.035348  -0.041368
    16  H    0.000007  -0.004440  -0.033800   0.005401  -0.009235   0.009535
    17  H    0.000021   0.007781  -0.031454  -0.000102  -0.003841  -0.008119
    18  H    0.000001  -0.010793  -0.039314  -0.001527   0.010386  -0.006132
    19  H   -0.000001  -0.000002   0.000068   0.000000  -0.000006   0.000072
    20  C   -0.000069  -0.000005  -0.000390  -0.000003  -0.000048   0.000612
    21  C    0.000013   0.000012  -0.000000  -0.000000   0.000045  -0.001129
    22  H   -0.000020   0.000007  -0.000412  -0.000003  -0.000074  -0.000189
    23  H    0.000362   0.000048  -0.000651   0.000004   0.000060   0.002164
    24  H    0.000000   0.000001  -0.000016   0.000000   0.000001   0.000096
    25  H   -0.000005   0.000002  -0.000012  -0.000000   0.000000  -0.000048
    26  C   -0.000078   0.000532  -0.000893  -0.000025   0.000016  -0.001678
    27  C    0.000042   0.000075  -0.000110  -0.000005  -0.000004   0.000305
    28  H   -0.000042   0.000255  -0.001100   0.000154   0.000420  -0.002435
    29  H   -0.000005  -0.000002   0.000007  -0.000001  -0.000000  -0.000037
    30  H   -0.000005   0.000003  -0.000002  -0.000000   0.000000  -0.000028
    31  O    0.005567   0.001596  -0.002661  -0.000084   0.000053   0.005759
    32  H    0.000070  -0.000034   0.000045   0.000022   0.000000  -0.000088
    33  C    0.000007   0.000086   0.000036   0.000010  -0.000000   0.000019
    34  H   -0.000020  -0.000047   0.000039  -0.000114   0.000003  -0.000059
    35  H    0.000001  -0.000009   0.000001   0.000002   0.000000   0.000002
    36  H   -0.000089  -0.000046   0.000066  -0.000025  -0.000008  -0.000046
              13         14         15         16         17         18
     1  H    0.021611   0.001787  -0.000013   0.000002   0.000001  -0.000083
     2  C   -0.005474  -0.001118  -0.000317  -0.000007   0.000015  -0.000022
     3  C   -0.047456  -0.007813   0.008354  -0.000087  -0.000381   0.001382
     4  H    0.000047  -0.000033   0.000014   0.000000  -0.000001   0.000001
     5  H   -0.000530  -0.000125  -0.000007  -0.000009   0.000001  -0.000001
     6  H    0.005406   0.000755  -0.000461   0.000033  -0.000019  -0.000200
     7  H   -0.003343   0.002861  -0.000259   0.000007   0.000021   0.000001
     8  C    0.285738  -0.057567  -0.055336  -0.004440   0.007781  -0.010793
     9  C   -0.043763   0.000415   0.359556  -0.033800  -0.031454  -0.039314
    10  H   -0.034322   0.007332  -0.007071   0.005401  -0.000102  -0.001527
    11  H    0.005378  -0.000838  -0.035348  -0.009235  -0.003841   0.010386
    12  H   -0.002368   0.002246  -0.041368   0.009535  -0.008119  -0.006132
    13  O    7.899581   0.306522  -0.008215  -0.000384   0.000003   0.019986
    14  H    0.306522   0.461924   0.000383  -0.000106   0.000019  -0.002559
    15  C   -0.008215   0.000383   4.881594   0.395046   0.394339   0.394068
    16  H   -0.000384  -0.000106   0.395046   0.608038  -0.032700  -0.031502
    17  H    0.000003   0.000019   0.394339  -0.032700   0.611331  -0.032148
    18  H    0.019986  -0.002559   0.394068  -0.031502  -0.032148   0.588966
    19  H   -0.000000   0.000015  -0.000009   0.000000  -0.000016  -0.000004
    20  C   -0.000033   0.000094   0.000059   0.000007   0.000034  -0.000014
    21  C    0.000134   0.001290  -0.000036  -0.000005  -0.000041   0.000411
    22  H   -0.000033  -0.000016   0.000708  -0.000025   0.001394  -0.000214
    23  H    0.000005  -0.000358  -0.000011  -0.000003  -0.000002   0.000047
    24  H    0.000009  -0.000174  -0.000001  -0.000001   0.000007   0.000021
    25  H    0.000004  -0.000187  -0.000006   0.000000   0.000004  -0.000012
    26  C    0.004055  -0.008439  -0.001216   0.000088   0.000096  -0.000673
    27  C   -0.001502   0.000175   0.000088  -0.000006  -0.000006  -0.000243
    28  H    0.003613  -0.006141   0.000654   0.000018   0.000080   0.004368
    29  H   -0.000060   0.000085   0.000020   0.000000   0.000001  -0.000002
    30  H   -0.000014  -0.000318  -0.000002   0.000000   0.000001  -0.000021
    31  O   -0.013963   0.047643   0.000112  -0.000014  -0.000000   0.000238
    32  H    0.000674  -0.003483  -0.000026   0.000003   0.000000  -0.000041
    33  C   -0.001175  -0.000620  -0.000054   0.000002   0.000002   0.000041
    34  H    0.011639  -0.004659  -0.000326   0.000005  -0.000018   0.001987
    35  H    0.000098   0.000221  -0.000000   0.000000  -0.000000  -0.000009
    36  H    0.000184   0.001892   0.000033   0.000001   0.000001  -0.000126
              19         20         21         22         23         24
     1  H   -0.000000   0.000000  -0.000002   0.000000   0.000000  -0.000000
     2  C    0.000000   0.000000  -0.000000   0.000000  -0.000002   0.000000
     3  C   -0.000000   0.000006  -0.000005   0.000004  -0.000018  -0.000000
     4  H    0.000000   0.000000  -0.000000   0.000000  -0.000000  -0.000000
     5  H   -0.000000  -0.000000   0.000000  -0.000000   0.000000   0.000000
     6  H    0.000000   0.000000  -0.000001   0.000002  -0.000003   0.000000
     7  H   -0.000001  -0.000069   0.000013  -0.000020   0.000362   0.000000
     8  C   -0.000002  -0.000005   0.000012   0.000007   0.000048   0.000001
     9  C    0.000068  -0.000390  -0.000000  -0.000412  -0.000651  -0.000016
    10  H    0.000000  -0.000003  -0.000000  -0.000003   0.000004   0.000000
    11  H   -0.000006  -0.000048   0.000045  -0.000074   0.000060   0.000001
    12  H    0.000072   0.000612  -0.001129  -0.000189   0.002164   0.000096
    13  O   -0.000000  -0.000033   0.000134  -0.000033   0.000005   0.000009
    14  H    0.000015   0.000094   0.001290  -0.000016  -0.000358  -0.000174
    15  C   -0.000009   0.000059  -0.000036   0.000708  -0.000011  -0.000001
    16  H    0.000000   0.000007  -0.000005  -0.000025  -0.000003  -0.000001
    17  H   -0.000016   0.000034  -0.000041   0.001394  -0.000002   0.000007
    18  H   -0.000004  -0.000014   0.000411  -0.000214   0.000047   0.000021
    19  H    0.596537   0.395033  -0.029266  -0.030287  -0.030174  -0.005442
    20  C    0.395033   4.865931   0.362793   0.400209   0.395392  -0.033671
    21  C   -0.029266   0.362793   4.929075  -0.034556  -0.035539   0.385010
    22  H   -0.030287   0.400209  -0.034556   0.590935  -0.033371  -0.007774
    23  H   -0.030174   0.395392  -0.035539  -0.033371   0.584731   0.009976
    24  H   -0.005442  -0.033671   0.385010  -0.007774   0.009976   0.619503
    25  H   -0.006251  -0.040627   0.388398   0.009161  -0.006471  -0.034078
    26  C    0.007686  -0.052294   0.369443  -0.004775  -0.011424  -0.038117
    27  C   -0.000337   0.007782  -0.061315  -0.000120   0.000826  -0.000845
    28  H    0.000002  -0.009433  -0.044633   0.004836  -0.001081  -0.002529
    29  H   -0.000012  -0.000354  -0.000648   0.000053  -0.000131   0.001690
    30  H    0.000004  -0.000301  -0.007740   0.000037  -0.000051  -0.000125
    31  O   -0.000056  -0.008067  -0.038377  -0.001143   0.018169   0.005051
    32  H   -0.000050  -0.001006  -0.003278   0.000069  -0.000077  -0.000230
    33  C    0.000013  -0.000297   0.008252  -0.000008  -0.000019  -0.000228
    34  H    0.000001  -0.000001   0.000237  -0.000010   0.000006   0.000023
    35  H   -0.000001   0.000013  -0.000308   0.000000   0.000000  -0.000032
    36  H    0.000000   0.000003   0.000177   0.000007  -0.000050  -0.000062
              25         26         27         28         29         30
     1  H    0.000000  -0.000067   0.000022  -0.000021   0.000000   0.000002
     2  C   -0.000000   0.000003  -0.000001  -0.000008   0.000000  -0.000000
     3  C    0.000001   0.000113  -0.000018   0.000003   0.000000   0.000000
     4  H   -0.000000   0.000000  -0.000000  -0.000000   0.000000   0.000000
     5  H    0.000000   0.000000  -0.000000   0.000001   0.000000   0.000000
     6  H    0.000000  -0.000014   0.000002   0.000006   0.000000   0.000000
     7  H   -0.000005  -0.000078   0.000042  -0.000042  -0.000005  -0.000005
     8  C    0.000002   0.000532   0.000075   0.000255  -0.000002   0.000003
     9  C   -0.000012  -0.000893  -0.000110  -0.001100   0.000007  -0.000002
    10  H   -0.000000  -0.000025  -0.000005   0.000154  -0.000001  -0.000000
    11  H    0.000000   0.000016  -0.000004   0.000420  -0.000000   0.000000
    12  H   -0.000048  -0.001678   0.000305  -0.002435  -0.000037  -0.000028
    13  O    0.000004   0.004055  -0.001502   0.003613  -0.000060  -0.000014
    14  H   -0.000187  -0.008439   0.000175  -0.006141   0.000085  -0.000318
    15  C   -0.000006  -0.001216   0.000088   0.000654   0.000020  -0.000002
    16  H    0.000000   0.000088  -0.000006   0.000018   0.000000   0.000000
    17  H    0.000004   0.000096  -0.000006   0.000080   0.000001   0.000001
    18  H   -0.000012  -0.000673  -0.000243   0.004368  -0.000002  -0.000021
    19  H   -0.006251   0.007686  -0.000337   0.000002  -0.000012   0.000004
    20  C   -0.040627  -0.052294   0.007782  -0.009433  -0.000354  -0.000301
    21  C    0.388398   0.369443  -0.061315  -0.044633  -0.000648  -0.007740
    22  H    0.009161  -0.004775  -0.000120   0.004836   0.000053   0.000037
    23  H   -0.006471  -0.011424   0.000826  -0.001081  -0.000131  -0.000051
    24  H   -0.034078  -0.038117  -0.000845  -0.002529   0.001690  -0.000125
    25  H    0.628433  -0.037487  -0.008449   0.010030  -0.000213   0.007074
    26  C   -0.037487   4.966768   0.374619   0.386377  -0.034589  -0.040775
    27  C   -0.008449   0.374619   4.961626  -0.047920   0.380735   0.388915
    28  H    0.010030   0.386377  -0.047920   0.595831  -0.004783   0.010167
    29  H   -0.000213  -0.034589   0.380735  -0.004783   0.617861  -0.034900
    30  H    0.007074  -0.040775   0.388915   0.010167  -0.034900   0.633889
    31  O   -0.002328   0.230178  -0.040163  -0.042267   0.005071  -0.003019
    32  H    0.006173  -0.044670  -0.004833   0.012425  -0.000197   0.006630
    33  C   -0.000431  -0.055986   0.354448  -0.008416  -0.030201  -0.042930
    34  H    0.000036  -0.002447  -0.036950   0.004032  -0.006233   0.008479
    35  H    0.000000   0.007721  -0.029113   0.000055  -0.007132  -0.004646
    36  H   -0.000022  -0.011005  -0.032906  -0.001097   0.010130  -0.007731
              31         32         33         34         35         36
     1  H   -0.000006   0.000012  -0.000020  -0.000072  -0.000006   0.000380
     2  C   -0.000043  -0.000017  -0.000002   0.000011   0.000000  -0.000021
     3  C   -0.001594   0.000123   0.000006   0.000119   0.000000   0.000008
     4  H   -0.000005  -0.000002   0.000000   0.000001   0.000000  -0.000001
     5  H   -0.000003   0.000001   0.000000  -0.000001   0.000000   0.000000
     6  H   -0.000026   0.000008  -0.000001  -0.000012  -0.000000   0.000004
     7  H    0.005567   0.000070   0.000007  -0.000020   0.000001  -0.000089
     8  C    0.001596  -0.000034   0.000086  -0.000047  -0.000009  -0.000046
     9  C   -0.002661   0.000045   0.000036   0.000039   0.000001   0.000066
    10  H   -0.000084   0.000022   0.000010  -0.000114   0.000002  -0.000025
    11  H    0.000053   0.000000  -0.000000   0.000003   0.000000  -0.000008
    12  H    0.005759  -0.000088   0.000019  -0.000059   0.000002  -0.000046
    13  O   -0.013963   0.000674  -0.001175   0.011639   0.000098   0.000184
    14  H    0.047643  -0.003483  -0.000620  -0.004659   0.000221   0.001892
    15  C    0.000112  -0.000026  -0.000054  -0.000326  -0.000000   0.000033
    16  H   -0.000014   0.000003   0.000002   0.000005   0.000000   0.000001
    17  H   -0.000000   0.000000   0.000002  -0.000018  -0.000000   0.000001
    18  H    0.000238  -0.000041   0.000041   0.001987  -0.000009  -0.000126
    19  H   -0.000056  -0.000050   0.000013   0.000001  -0.000001   0.000000
    20  C   -0.008067  -0.001006  -0.000297  -0.000001   0.000013   0.000003
    21  C   -0.038377  -0.003278   0.008252   0.000237  -0.000308   0.000177
    22  H   -0.001143   0.000069  -0.000008  -0.000010   0.000000   0.000007
    23  H    0.018169  -0.000077  -0.000019   0.000006   0.000000  -0.000050
    24  H    0.005051  -0.000230  -0.000228   0.000023  -0.000032  -0.000062
    25  H   -0.002328   0.006173  -0.000431   0.000036   0.000000  -0.000022
    26  C    0.230178  -0.044670  -0.055986  -0.002447   0.007721  -0.011005
    27  C   -0.040163  -0.004833   0.354448  -0.036950  -0.029113  -0.032906
    28  H   -0.042267   0.012425  -0.008416   0.004032   0.000055  -0.001097
    29  H    0.005071  -0.000197  -0.030201  -0.006233  -0.007132   0.010130
    30  H   -0.003019   0.006630  -0.042930   0.008479  -0.004646  -0.007731
    31  O    7.938675   0.291172  -0.002380  -0.001534   0.000144   0.012107
    32  H    0.291172   0.502378  -0.000934  -0.000000  -0.000149   0.001169
    33  C   -0.002380  -0.000934   4.868827   0.401151   0.391541   0.396016
    34  H   -0.001534  -0.000000   0.401151   0.564633  -0.026843  -0.033590
    35  H    0.000144  -0.000149   0.391541  -0.026843   0.600442  -0.031760
    36  H    0.012107   0.001169   0.396016  -0.033590  -0.031760   0.600488
 Mulliken charges:
               1
     1  H    0.102260
     2  C   -0.271525
     3  C   -0.208549
     4  H    0.092881
     5  H    0.091854
     6  H    0.089268
     7  H    0.090873
     8  C    0.039803
     9  C   -0.219144
    10  H    0.090554
    11  H    0.088631
    12  H    0.116621
    13  O   -0.402049
    14  H    0.258896
    15  C   -0.284946
    16  H    0.094134
    17  H    0.093717
    18  H    0.103737
    19  H    0.102483
    20  C   -0.281355
    21  C   -0.188410
    22  H    0.105609
    23  H    0.107643
    24  H    0.101937
    25  H    0.087309
    26  C   -0.001043
    27  C   -0.204818
    28  H    0.138577
    29  H    0.103846
    30  H    0.087407
    31  O   -0.403803
    32  H    0.238141
    33  C   -0.276755
    34  H    0.120535
    35  H    0.099765
    36  H    0.095918
 Sum of Mulliken charges =  -0.00000
 Mulliken charges with hydrogens summed into heavy atoms:
               1
     2  C    0.015470
     3  C   -0.028408
     8  C    0.130357
     9  C   -0.013892
    13  O   -0.143153
    15  C    0.006642
    20  C    0.034380
    21  C    0.000836
    26  C    0.137534
    27  C   -0.013565
    31  O   -0.165662
    33  C    0.039462
 Electronic spatial extent (au):  <R**2>=           3193.5189
 Charge=              0.0000 electrons
 Dipole moment (field-independent basis, Debye):
    X=             -2.5434    Y=             -0.4134    Z=             -1.3739  Tot=              2.9202
 Quadrupole moment (field-independent basis, Debye-Ang):
   XX=            -78.0793   YY=            -82.6253   ZZ=            -80.3689
   XY=             -3.9059   XZ=              0.7957   YZ=             -3.0361
 Traceless Quadrupole moment (field-independent basis, Debye-Ang):
   XX=              2.2785   YY=             -2.2674   ZZ=             -0.0111
   XY=             -3.9059   XZ=              0.7957   YZ=             -3.0361
 Octapole moment (field-independent basis, Debye-Ang**2):
  XXX=             -7.9693  YYY=              7.0309  ZZZ=            -11.2154  XYY=             -7.2907
  XXY=             -3.4374  XXZ=              0.7146  XZZ=             -6.8415  YZZ=              6.7710
  YYZ=             -4.4670  XYZ=              0.3085
 Hexadecapole moment (field-independent basis, Debye-Ang**3):
 XXXX=          -2668.5707 YYYY=          -1174.9950 ZZZZ=           -654.1867 XXXY=            -13.7050
 XXXZ=             26.4151 YYYX=             -7.9188 YYYZ=             -1.1447 ZZZX=             19.6710
 ZZZY=             -6.7701 XXYY=           -642.9765 XXZZ=           -544.2662 YYZZ=           -305.2213
 XXYZ=             -0.9242 YYXZ=              3.9990 ZZXY=             -8.5607
 N-N= 7.961581703587D+02 E-N=-2.864650321736D+03  KE= 5.442281775766D+02
 No NMR shielding tensors so no spin-rotation constants.
 Leave Link  601 at Mon Feb 13 16:20:03 2023, MaxMem=   131072000 cpu:               1.1 elap:               0.2
 (Enter /dragofs/sw/campus/0.2/software/gaussian/16.gaussian/gaussian/g16_legacy/l9999.exe)
 1\1\GINC-DRAGO31030079\FOpt\RBLYP\6-311G(d,p)\C10H24O2\JRAMOS\13-Feb-2
 023\0\\#p opt=tight blyp/6-311G** int=ultrafine EmpiricalDispersion=GD
 3\\Conformer number 291. Energy MM = 0.000 kcal/mol\\0,1\H,20.58386112
 07,1.3336357835,4.8107957846\C,20.9563641305,0.9835366583,5.7826905\C,
 22.1150075143,1.8795751361,6.2639769069\H,20.1221225276,0.9822606766,6
 .4997041873\H,21.2921738202,-0.0572975242,5.6536670299\H,22.5212428013
 ,1.4967761012,7.215595157\H,21.7447127585,2.899389678,6.4684009321\C,2
 3.2635707054,1.9882623059,5.2331358463\C,24.4439709835,2.8395283314,5.
 761204378\H,23.630941325,0.9734548236,5.0002897428\H,24.7674864342,2.4
 397031106,6.7370733253\H,24.0705158336,3.859673688,5.9468174622\O,22.7
 790965483,2.4959635349,3.9658916589\H,22.4166387273,3.3914259852,4.144
 630572\C,25.6385266917,2.8803811964,4.7875524915\H,26.1051547467,1.887
 5912048,4.6925406875\H,26.412583909,3.5859054877,5.1244056458\H,25.302
 2737382,3.1807687076,3.7859188163\H,24.5565512259,7.9657946179,6.18832
 9387\C,24.2615204548,7.0080327725,5.7365584569\C,23.6967650888,7.20872
 90167,4.3159226237\H,25.1465247495,6.354181142,5.7181753291\H,23.51204
 25062,6.5345776757,6.384307385\H,24.4557835411,7.6767760572,3.66740166
 71\H,22.8402503577,7.9059608753,4.3423520955\C,23.2395096651,5.8932959
 072,3.6554651037\C,22.7479311339,6.0710576299,2.2049807625\H,24.071258
 7368,5.173883767,3.6662913593\H,23.575959074,6.5029581903,1.619079791\
 H,21.9396232878,6.8253901626,2.1932524486\O,22.2239523014,5.2320654244
 ,4.4827515064\H,21.4022287645,5.7516003241,4.4197039493\C,22.261485163
 1,4.7617599857,1.5486837933\H,23.0279568597,3.976730508,1.6089059002\H
 ,22.0074366627,4.9239660813,0.4916073785\H,21.3689761109,4.3717049763,
 2.0559399387\\Version=EM64L-G16RevA.03\State=1-A\HF=-545.8832819\RMSD=
 6.805e-09\RMSF=3.384e-07\Dipole=-0.1124424,1.1414579,0.0660591\Quadrup
 ole=0.6762485,0.5660701,-1.2423185,-2.5603778,-0.1148227,-3.000762\PG=
 C01 [X(C10H24O2)]\\@


 NOT WHAT WE DID SHALL BE THE TEST
 WHEN ACT AND WILL ARE DONE,
 BUT WHAT OUR LORD INFERS WE WOULD-
 HAD WE DIVINER BEEN.
           EMILY DICKINSON  POEMS NO. CLXXV
 Job cpu time:       0 days  5 hours 59 minutes 47.1 seconds.
 Elapsed time:       0 days  0 hours 45 minutes 26.8 seconds.
 File lengths (MBytes):  RWF=     86 Int=      0 D2E=      0 Chk=     11 Scr=      1
 Normal termination of Gaussian 16 at Mon Feb 13 16:20:03 2023.
