 Entering Gaussian System, Link 0=/dragofs/sw/campus/0.2/software/gaussian/16.gaussian/gaussian/g16_legacy/g16
 Input=C10H24O2_pair_010_021.com
 Output=C10H24O2_pair_010_021.log
 Initial command:
 /dragofs/sw/campus/0.2/software/gaussian/16.gaussian/gaussian/g16_legacy/l1.exe "/tmp/jramos/51271/Gau-1242456.inp" -scrdir="/tmp/jramos/51271/"
 Entering Link 1 = /dragofs/sw/campus/0.2/software/gaussian/16.gaussian/gaussian/g16_legacy/l1.exe PID=   1242457.
  
 Copyright (c) 1988,1990,1992,1993,1995,1998,2003,2009,2016,
            Gaussian, Inc.  All Rights Reserved.
  
 This is part of the Gaussian(R) 16 program.  It is based on
 the Gaussian(R) 09 system (copyright 2009, Gaussian, Inc.),
 the Gaussian(R) 03 system (copyright 2003, Gaussian, Inc.),
 the Gaussian(R) 98 system (copyright 1998, Gaussian, Inc.),
 the Gaussian(R) 94 system (copyright 1995, Gaussian, Inc.),
 the Gaussian 92(TM) system (copyright 1992, Gaussian, Inc.),
 the Gaussian 90(TM) system (copyright 1990, Gaussian, Inc.),
 the Gaussian 88(TM) system (copyright 1988, Gaussian, Inc.),
 the Gaussian 86(TM) system (copyright 1986, Carnegie Mellon
 University), and the Gaussian 82(TM) system (copyright 1983,
 Carnegie Mellon University). Gaussian is a federally registered
 trademark of Gaussian, Inc.
  
 This software contains proprietary and confidential information,
 including trade secrets, belonging to Gaussian, Inc.
  
 This software is provided under written license and may be
 used, copied, transmitted, or stored only in accord with that
 written license.
  
 The following legend is applicable only to US Government
 contracts under FAR:
  
                    RESTRICTED RIGHTS LEGEND
  
 Use, reproduction and disclosure by the US Government is
 subject to restrictions as set forth in subparagraphs (a)
 and (c) of the Commercial Computer Software - Restricted
 Rights clause in FAR 52.227-19.
  
 Gaussian, Inc.
 340 Quinnipiac St., Bldg. 40, Wallingford CT 06492
  
  
 ---------------------------------------------------------------
 Warning -- This program may not be used in any manner that
 competes with the business of Gaussian, Inc. or will provide
 assistance to any competitor of Gaussian, Inc.  The licensee
 of this program is prohibited from giving any competitor of
 Gaussian, Inc. access to this program.  By using this program,
 the user acknowledges that Gaussian, Inc. is engaged in the
 business of creating and licensing software in the field of
 computational chemistry and represents and warrants to the
 licensee that it is not a competitor of Gaussian, Inc. and that
 it will not use this program in any manner prohibited above.
 ---------------------------------------------------------------
  

 Cite this work as:
 Gaussian 16, Revision A.03,
 M. J. Frisch, G. W. Trucks, H. B. Schlegel, G. E. Scuseria, 
 M. A. Robb, J. R. Cheeseman, G. Scalmani, V. Barone, 
 G. A. Petersson, H. Nakatsuji, X. Li, M. Caricato, A. V. Marenich, 
 J. Bloino, B. G. Janesko, R. Gomperts, B. Mennucci, H. P. Hratchian, 
 J. V. Ortiz, A. F. Izmaylov, J. L. Sonnenberg, D. Williams-Young, 
 F. Ding, F. Lipparini, F. Egidi, J. Goings, B. Peng, A. Petrone, 
 T. Henderson, D. Ranasinghe, V. G. Zakrzewski, J. Gao, N. Rega, 
 G. Zheng, W. Liang, M. Hada, M. Ehara, K. Toyota, R. Fukuda, 
 J. Hasegawa, M. Ishida, T. Nakajima, Y. Honda, O. Kitao, H. Nakai, 
 T. Vreven, K. Throssell, J. A. Montgomery, Jr., J. E. Peralta, 
 F. Ogliaro, M. J. Bearpark, J. J. Heyd, E. N. Brothers, K. N. Kudin, 
 V. N. Staroverov, T. A. Keith, R. Kobayashi, J. Normand, 
 K. Raghavachari, A. P. Rendell, J. C. Burant, S. S. Iyengar, 
 J. Tomasi, M. Cossi, J. M. Millam, M. Klene, C. Adamo, R. Cammi, 
 J. W. Ochterski, R. L. Martin, K. Morokuma, O. Farkas, 
 J. B. Foresman, and D. J. Fox, Gaussian, Inc., Wallingford CT, 2016.
 
 ******************************************
 Gaussian 16:  EM64L-G16RevA.03 25-Dec-2016
                13-Feb-2023 
 ******************************************
 %chk=C10H24O2_pair_010_021.chk
 %nproc=8
 Will use up to    8 processors via shared memory.
 %mem=1000Mb
 ----------------------------------------------------------------
 #p opt=tight blyp/6-311G** int=ultrafine EmpiricalDispersion=GD3
 ----------------------------------------------------------------
 1/7=10,18=20,19=15,26=4,38=1/1,3;
 2/9=110,12=2,17=6,18=5,40=1/2;
 3/5=4,6=6,7=101,11=2,25=1,30=1,71=1,74=402,75=-5,124=31/1,2,3;
 4//1;
 5/5=2,38=5/2;
 6/7=2,8=2,9=2,10=2,28=1/1;
 7//1,2,3,16;
 1/7=10,18=20,19=15,26=4/3(2);
 2/9=110/2;
 99//99;
 2/9=110/2;
 3/5=4,6=6,7=101,11=2,25=1,30=1,71=1,74=402,75=-5,124=31/1,2,3;
 4/5=5,16=3,69=1/1;
 5/5=2,38=5/2;
 7//1,2,3,16;
 1/7=10,18=20,19=15,26=4/3(-5);
 2/9=110/2;
 6/7=2,8=2,9=2,10=2,19=2,28=1/1;
 99/9=1/99;
 Leave Link    1 at Mon Feb 13 12:24:46 2023, MaxMem=   131072000 cpu:               0.3 elap:               0.0
 (Enter /dragofs/sw/campus/0.2/software/gaussian/16.gaussian/gaussian/g16_legacy/l101.exe)
 ------------------------------------------------
 Conformer number 114. Energy MM = 0.000 kcal/mol
 ------------------------------------------------
 Symbolic Z-matrix:
 Charge =  0 Multiplicity = 1
 H                     2.054     1.899     14.716 
 C                     3.083     1.897     14.214 
 C                     2.992     2.129     12.709 
 H                     3.625     2.661     14.811 
 H                     3.621     0.922     14.375 
 H                     4.045     2.158     12.203 
 H                     2.549     3.104     12.523 
 C                     2.051     1.262     12.034 
 C                     2.313     1.157     10.6 
 H                     2.259     0.195     12.307 
 H                     3.391     1.077     10.496 
 H                     2.081     2.175     10.118 
 O                     0.808     1.665     12.461 
 H                     0.231     1.041     12.017 
 C                     1.665     0.066     9.735 
 H                     1.992    -0.963     9.732 
 H                     1.895     0.261     8.676 
 H                     0.594    -0.003     9.803 
 H                    -2.416     5.02      15.277 
 C                    -2.065     3.989     15.473 
 C                    -0.521     4.014     15.601 
 H                    -2.592     3.523     16.386 
 H                    -2.562     3.557     14.554 
 H                    -0.155     3.011     15.775 
 H                    -0.449     4.534     16.62 
 C                     0.285     4.535     14.533 
 C                     0.139     5.958     14.277 
 H                     1.359     4.581     14.879 
 H                     0.035     6.584     15.231 
 H                    -0.791     6.193     13.768 
 O                     0.172     3.889     13.255 
 H                     0.29      2.951     13.34 
 C                     1.226     6.592     13.383 
 H                     2.236     6.506     13.898 
 H                     0.934     7.568     12.983 
 H                     1.411     6.038     12.443 
 
 Add virtual bond connecting atoms H32        and O13        Dist= 3.10D+00.
 ITRead=  0  0  0  0  0  0  0  0  0  0  0  0  0  0  0  0  0  0  0  0
 ITRead=  0  0  0  0  0  0  0  0  0  0  0  0  0  0  0  0
 MicOpt= -1 -1 -1 -1 -1 -1 -1 -1 -1 -1 -1 -1 -1 -1 -1 -1 -1 -1 -1 -1
 MicOpt= -1 -1 -1 -1 -1 -1 -1 -1 -1 -1 -1 -1 -1 -1 -1 -1
 NAtoms=     36 NQM=       36 NQMF=       0 NMMI=      0 NMMIF=      0
                NMic=       0 NMicF=      0.
                    Isotopes and Nuclear Properties:
 (Nuclear quadrupole moments (NQMom) in fm**2, nuclear magnetic moments (NMagM)
  in nuclear magnetons)

  Atom         1           2           3           4           5           6           7           8           9          10
 IAtWgt=           1          12          12           1           1           1           1          12          12           1
 AtmWgt=   1.0078250  12.0000000  12.0000000   1.0078250   1.0078250   1.0078250   1.0078250  12.0000000  12.0000000   1.0078250
 NucSpn=           1           0           0           1           1           1           1           0           0           1
 AtZEff=  -0.0000000  -0.0000000  -0.0000000  -0.0000000  -0.0000000  -0.0000000  -0.0000000  -0.0000000  -0.0000000  -0.0000000
 NQMom=    0.0000000   0.0000000   0.0000000   0.0000000   0.0000000   0.0000000   0.0000000   0.0000000   0.0000000   0.0000000
 NMagM=    2.7928460   0.0000000   0.0000000   2.7928460   2.7928460   2.7928460   2.7928460   0.0000000   0.0000000   2.7928460
 AtZNuc=   1.0000000   6.0000000   6.0000000   1.0000000   1.0000000   1.0000000   1.0000000   6.0000000   6.0000000   1.0000000

  Atom        11          12          13          14          15          16          17          18          19          20
 IAtWgt=           1           1          16           1          12           1           1           1           1          12
 AtmWgt=   1.0078250   1.0078250  15.9949146   1.0078250  12.0000000   1.0078250   1.0078250   1.0078250   1.0078250  12.0000000
 NucSpn=           1           1           0           1           0           1           1           1           1           0
 AtZEff=  -0.0000000  -0.0000000  -0.0000000  -0.0000000  -0.0000000  -0.0000000  -0.0000000  -0.0000000  -0.0000000  -0.0000000
 NQMom=    0.0000000   0.0000000   0.0000000   0.0000000   0.0000000   0.0000000   0.0000000   0.0000000   0.0000000   0.0000000
 NMagM=    2.7928460   2.7928460   0.0000000   2.7928460   0.0000000   2.7928460   2.7928460   2.7928460   2.7928460   0.0000000
 AtZNuc=   1.0000000   1.0000000   8.0000000   1.0000000   6.0000000   1.0000000   1.0000000   1.0000000   1.0000000   6.0000000

  Atom        21          22          23          24          25          26          27          28          29          30
 IAtWgt=          12           1           1           1           1          12          12           1           1           1
 AtmWgt=  12.0000000   1.0078250   1.0078250   1.0078250   1.0078250  12.0000000  12.0000000   1.0078250   1.0078250   1.0078250
 NucSpn=           0           1           1           1           1           0           0           1           1           1
 AtZEff=  -0.0000000  -0.0000000  -0.0000000  -0.0000000  -0.0000000  -0.0000000  -0.0000000  -0.0000000  -0.0000000  -0.0000000
 NQMom=    0.0000000   0.0000000   0.0000000   0.0000000   0.0000000   0.0000000   0.0000000   0.0000000   0.0000000   0.0000000
 NMagM=    0.0000000   2.7928460   2.7928460   2.7928460   2.7928460   0.0000000   0.0000000   2.7928460   2.7928460   2.7928460
 AtZNuc=   6.0000000   1.0000000   1.0000000   1.0000000   1.0000000   6.0000000   6.0000000   1.0000000   1.0000000   1.0000000

  Atom        31          32          33          34          35          36
 IAtWgt=          16           1          12           1           1           1
 AtmWgt=  15.9949146   1.0078250  12.0000000   1.0078250   1.0078250   1.0078250
 NucSpn=           0           1           0           1           1           1
 AtZEff=  -0.0000000  -0.0000000  -0.0000000  -0.0000000  -0.0000000  -0.0000000
 NQMom=    0.0000000   0.0000000   0.0000000   0.0000000   0.0000000   0.0000000
 NMagM=    0.0000000   2.7928460   0.0000000   2.7928460   2.7928460   2.7928460
 AtZNuc=   8.0000000   1.0000000   6.0000000   1.0000000   1.0000000   1.0000000
 Leave Link  101 at Mon Feb 13 12:24:46 2023, MaxMem=   131072000 cpu:               0.9 elap:               0.1
 (Enter /dragofs/sw/campus/0.2/software/gaussian/16.gaussian/gaussian/g16_legacy/l103.exe)

 GradGradGradGradGradGradGradGradGradGradGradGradGradGradGradGradGradGrad
 Berny optimization.
 Initialization pass.
                           ----------------------------
                           !    Initial Parameters    !
                           ! (Angstroms and Degrees)  !
 --------------------------                            --------------------------
 ! Name  Definition              Value          Derivative Info.                !
 --------------------------------------------------------------------------------
 ! R1    R(1,2)                  1.1449         estimate D2E/DX2                !
 ! R2    R(2,3)                  1.5255         estimate D2E/DX2                !
 ! R3    R(2,4)                  1.1108         estimate D2E/DX2                !
 ! R4    R(2,5)                  1.1252         estimate D2E/DX2                !
 ! R5    R(3,6)                  1.1686         estimate D2E/DX2                !
 ! R6    R(3,7)                  1.087          estimate D2E/DX2                !
 ! R7    R(3,8)                  1.4466         estimate D2E/DX2                !
 ! R8    R(8,9)                  1.4615         estimate D2E/DX2                !
 ! R9    R(8,10)                 1.1208         estimate D2E/DX2                !
 ! R10   R(8,13)                 1.3747         estimate D2E/DX2                !
 ! R11   R(9,11)                 1.086          estimate D2E/DX2                !
 ! R12   R(9,12)                 1.15           estimate D2E/DX2                !
 ! R13   R(9,15)                 1.5357         estimate D2E/DX2                !
 ! R14   R(13,14)                0.9589         estimate D2E/DX2                !
 ! R15   R(13,32)                1.6416         estimate D2E/DX2                !
 ! R16   R(15,16)                1.0797         estimate D2E/DX2                !
 ! R17   R(15,17)                1.1011         estimate D2E/DX2                !
 ! R18   R(15,18)                1.0754         estimate D2E/DX2                !
 ! R19   R(19,20)                1.1066         estimate D2E/DX2                !
 ! R20   R(20,21)                1.5495         estimate D2E/DX2                !
 ! R21   R(20,22)                1.1526         estimate D2E/DX2                !
 ! R22   R(20,23)                1.1306         estimate D2E/DX2                !
 ! R23   R(21,24)                1.0818         estimate D2E/DX2                !
 ! R24   R(21,25)                1.1463         estimate D2E/DX2                !
 ! R25   R(21,26)                1.4359         estimate D2E/DX2                !
 ! R26   R(26,27)                1.4532         estimate D2E/DX2                !
 ! R27   R(26,28)                1.1293         estimate D2E/DX2                !
 ! R28   R(26,31)                1.4364         estimate D2E/DX2                !
 ! R29   R(27,29)                1.1458         estimate D2E/DX2                !
 ! R30   R(27,30)                1.0859         estimate D2E/DX2                !
 ! R31   R(27,33)                1.5436         estimate D2E/DX2                !
 ! R32   R(31,32)                0.9492         estimate D2E/DX2                !
 ! R33   R(33,34)                1.137          estimate D2E/DX2                !
 ! R34   R(33,35)                1.0945         estimate D2E/DX2                !
 ! R35   R(33,36)                1.1067         estimate D2E/DX2                !
 ! A1    A(1,2,3)              112.2525         estimate D2E/DX2                !
 ! A2    A(1,2,4)              101.6354         estimate D2E/DX2                !
 ! A3    A(1,2,5)              111.6241         estimate D2E/DX2                !
 ! A4    A(3,2,4)              117.0481         estimate D2E/DX2                !
 ! A5    A(3,2,5)              107.5463         estimate D2E/DX2                !
 ! A6    A(4,2,5)              106.606          estimate D2E/DX2                !
 ! A7    A(2,3,6)              112.16           estimate D2E/DX2                !
 ! A8    A(2,3,7)              109.2416         estimate D2E/DX2                !
 ! A9    A(2,3,8)              114.0783         estimate D2E/DX2                !
 ! A10   A(6,3,7)              105.7169         estimate D2E/DX2                !
 ! A11   A(6,3,8)              113.5127         estimate D2E/DX2                !
 ! A12   A(7,3,8)              101.1068         estimate D2E/DX2                !
 ! A13   A(3,8,9)              112.5979         estimate D2E/DX2                !
 ! A14   A(3,8,10)             109.6437         estimate D2E/DX2                !
 ! A15   A(3,8,13)             105.5173         estimate D2E/DX2                !
 ! A16   A(9,8,10)              97.8929         estimate D2E/DX2                !
 ! A17   A(9,8,13)             119.204          estimate D2E/DX2                !
 ! A18   A(10,8,13)            111.7906         estimate D2E/DX2                !
 ! A19   A(8,9,11)             106.0938         estimate D2E/DX2                !
 ! A20   A(8,9,12)             108.1485         estimate D2E/DX2                !
 ! A21   A(8,9,15)             121.8738         estimate D2E/DX2                !
 ! A22   A(11,9,12)            103.0227         estimate D2E/DX2                !
 ! A23   A(11,9,15)            108.2151         estimate D2E/DX2                !
 ! A24   A(12,9,15)            107.9193         estimate D2E/DX2                !
 ! A25   A(8,13,14)            102.0929         estimate D2E/DX2                !
 ! A26   A(8,13,32)            132.9453         estimate D2E/DX2                !
 ! A27   A(14,13,32)           124.6014         estimate D2E/DX2                !
 ! A28   A(9,15,16)            123.4236         estimate D2E/DX2                !
 ! A29   A(9,15,17)            109.1336         estimate D2E/DX2                !
 ! A30   A(9,15,18)            115.4806         estimate D2E/DX2                !
 ! A31   A(16,15,17)            95.903          estimate D2E/DX2                !
 ! A32   A(16,15,18)           103.9251         estimate D2E/DX2                !
 ! A33   A(17,15,18)           106.273          estimate D2E/DX2                !
 ! A34   A(19,20,21)           108.4006         estimate D2E/DX2                !
 ! A35   A(19,20,22)           111.8364         estimate D2E/DX2                !
 ! A36   A(19,20,23)            94.1629         estimate D2E/DX2                !
 ! A37   A(21,20,22)           113.3719         estimate D2E/DX2                !
 ! A38   A(21,20,23)           120.7541         estimate D2E/DX2                !
 ! A39   A(22,20,23)           106.7625         estimate D2E/DX2                !
 ! A40   A(20,21,24)           109.6005         estimate D2E/DX2                !
 ! A41   A(20,21,25)            98.2414         estimate D2E/DX2                !
 ! A42   A(20,21,26)           120.2487         estimate D2E/DX2                !
 ! A43   A(24,21,25)           104.8548         estimate D2E/DX2                !
 ! A44   A(24,21,26)           105.435          estimate D2E/DX2                !
 ! A45   A(25,21,26)           117.4746         estimate D2E/DX2                !
 ! A46   A(21,26,27)           115.4639         estimate D2E/DX2                !
 ! A47   A(21,26,28)           108.7076         estimate D2E/DX2                !
 ! A48   A(21,26,31)           117.0277         estimate D2E/DX2                !
 ! A49   A(27,26,28)            96.2943         estimate D2E/DX2                !
 ! A50   A(27,26,31)           106.0062         estimate D2E/DX2                !
 ! A51   A(28,26,31)           111.4521         estimate D2E/DX2                !
 ! A52   A(26,27,29)           113.4184         estimate D2E/DX2                !
 ! A53   A(26,27,30)           112.3663         estimate D2E/DX2                !
 ! A54   A(26,27,33)           115.6877         estimate D2E/DX2                !
 ! A55   A(29,27,30)           101.2041         estimate D2E/DX2                !
 ! A56   A(29,27,33)           108.768          estimate D2E/DX2                !
 ! A57   A(30,27,33)           104.0478         estimate D2E/DX2                !
 ! A58   A(26,31,32)           110.7911         estimate D2E/DX2                !
 ! A59   A(13,32,31)           139.9447         estimate D2E/DX2                !
 ! A60   A(27,33,34)           109.399          estimate D2E/DX2                !
 ! A61   A(27,33,35)           112.9583         estimate D2E/DX2                !
 ! A62   A(27,33,36)           113.831          estimate D2E/DX2                !
 ! A63   A(34,33,35)           118.0342         estimate D2E/DX2                !
 ! A64   A(34,33,36)           101.4418         estimate D2E/DX2                !
 ! A65   A(35,33,36)           100.4037         estimate D2E/DX2                !
 ! D1    D(1,2,3,6)            178.3185         estimate D2E/DX2                !
 ! D2    D(1,2,3,7)             61.4493         estimate D2E/DX2                !
 ! D3    D(1,2,3,8)            -50.8509         estimate D2E/DX2                !
 ! D4    D(4,2,3,6)             61.3446         estimate D2E/DX2                !
 ! D5    D(4,2,3,7)            -55.5245         estimate D2E/DX2                !
 ! D6    D(4,2,3,8)           -167.8248         estimate D2E/DX2                !
 ! D7    D(5,2,3,6)            -58.5221         estimate D2E/DX2                !
 ! D8    D(5,2,3,7)           -175.3913         estimate D2E/DX2                !
 ! D9    D(5,2,3,8)             72.3085         estimate D2E/DX2                !
 ! D10   D(2,3,8,9)           -159.5166         estimate D2E/DX2                !
 ! D11   D(2,3,8,10)           -51.6682         estimate D2E/DX2                !
 ! D12   D(2,3,8,13)            68.8738         estimate D2E/DX2                !
 ! D13   D(6,3,8,9)            -29.3531         estimate D2E/DX2                !
 ! D14   D(6,3,8,10)            78.4953         estimate D2E/DX2                !
 ! D15   D(6,3,8,13)          -160.9626         estimate D2E/DX2                !
 ! D16   D(7,3,8,9)             83.3814         estimate D2E/DX2                !
 ! D17   D(7,3,8,10)          -168.7702         estimate D2E/DX2                !
 ! D18   D(7,3,8,13)           -48.2281         estimate D2E/DX2                !
 ! D19   D(3,8,9,11)            41.5941         estimate D2E/DX2                !
 ! D20   D(3,8,9,12)           -68.3667         estimate D2E/DX2                !
 ! D21   D(3,8,9,15)           165.8234         estimate D2E/DX2                !
 ! D22   D(10,8,9,11)          -73.5762         estimate D2E/DX2                !
 ! D23   D(10,8,9,12)          176.463          estimate D2E/DX2                !
 ! D24   D(10,8,9,15)           50.6531         estimate D2E/DX2                !
 ! D25   D(13,8,9,11)          165.9707         estimate D2E/DX2                !
 ! D26   D(13,8,9,12)           56.0098         estimate D2E/DX2                !
 ! D27   D(13,8,9,15)          -69.8001         estimate D2E/DX2                !
 ! D28   D(3,8,13,14)         -177.7428         estimate D2E/DX2                !
 ! D29   D(3,8,13,32)            9.1448         estimate D2E/DX2                !
 ! D30   D(9,8,13,14)           54.5179         estimate D2E/DX2                !
 ! D31   D(9,8,13,32)         -118.5945         estimate D2E/DX2                !
 ! D32   D(10,8,13,14)         -58.6167         estimate D2E/DX2                !
 ! D33   D(10,8,13,32)         128.2709         estimate D2E/DX2                !
 ! D34   D(8,9,15,16)          -76.507          estimate D2E/DX2                !
 ! D35   D(8,9,15,17)          172.4299         estimate D2E/DX2                !
 ! D36   D(8,9,15,18)           52.833          estimate D2E/DX2                !
 ! D37   D(11,9,15,16)          46.7418         estimate D2E/DX2                !
 ! D38   D(11,9,15,17)         -64.3213         estimate D2E/DX2                !
 ! D39   D(11,9,15,18)         176.0818         estimate D2E/DX2                !
 ! D40   D(12,9,15,16)         157.5799         estimate D2E/DX2                !
 ! D41   D(12,9,15,17)          46.5168         estimate D2E/DX2                !
 ! D42   D(12,9,15,18)         -73.0801         estimate D2E/DX2                !
 ! D43   D(8,13,32,31)          71.7912         estimate D2E/DX2                !
 ! D44   D(14,13,32,31)       -100.0187         estimate D2E/DX2                !
 ! D45   D(19,20,21,24)       -178.9615         estimate D2E/DX2                !
 ! D46   D(19,20,21,25)         71.9787         estimate D2E/DX2                !
 ! D47   D(19,20,21,26)        -56.6379         estimate D2E/DX2                !
 ! D48   D(22,20,21,24)         56.2322         estimate D2E/DX2                !
 ! D49   D(22,20,21,25)        -52.8276         estimate D2E/DX2                !
 ! D50   D(22,20,21,26)        178.5558         estimate D2E/DX2                !
 ! D51   D(23,20,21,24)        -72.2847         estimate D2E/DX2                !
 ! D52   D(23,20,21,25)        178.6555         estimate D2E/DX2                !
 ! D53   D(23,20,21,26)         50.0389         estimate D2E/DX2                !
 ! D54   D(20,21,26,27)         66.1427         estimate D2E/DX2                !
 ! D55   D(20,21,26,28)        172.9684         estimate D2E/DX2                !
 ! D56   D(20,21,26,31)        -59.7156         estimate D2E/DX2                !
 ! D57   D(24,21,26,27)       -169.5333         estimate D2E/DX2                !
 ! D58   D(24,21,26,28)        -62.7075         estimate D2E/DX2                !
 ! D59   D(24,21,26,31)         64.6085         estimate D2E/DX2                !
 ! D60   D(25,21,26,27)        -53.2157         estimate D2E/DX2                !
 ! D61   D(25,21,26,28)         53.6101         estimate D2E/DX2                !
 ! D62   D(25,21,26,31)       -179.0739         estimate D2E/DX2                !
 ! D63   D(21,26,27,29)         39.1055         estimate D2E/DX2                !
 ! D64   D(21,26,27,30)        -74.9231         estimate D2E/DX2                !
 ! D65   D(21,26,27,33)        165.7897         estimate D2E/DX2                !
 ! D66   D(28,26,27,29)        -75.0949         estimate D2E/DX2                !
 ! D67   D(28,26,27,30)        170.8765         estimate D2E/DX2                !
 ! D68   D(28,26,27,33)         51.5893         estimate D2E/DX2                !
 ! D69   D(31,26,27,29)        170.4222         estimate D2E/DX2                !
 ! D70   D(31,26,27,30)         56.3935         estimate D2E/DX2                !
 ! D71   D(31,26,27,33)        -62.8937         estimate D2E/DX2                !
 ! D72   D(21,26,31,32)        -51.6516         estimate D2E/DX2                !
 ! D73   D(27,26,31,32)        177.9228         estimate D2E/DX2                !
 ! D74   D(28,26,31,32)         74.3153         estimate D2E/DX2                !
 ! D75   D(26,27,33,34)        -62.9102         estimate D2E/DX2                !
 ! D76   D(26,27,33,35)        163.4341         estimate D2E/DX2                !
 ! D77   D(26,27,33,36)         49.7617         estimate D2E/DX2                !
 ! D78   D(29,27,33,34)         66.0842         estimate D2E/DX2                !
 ! D79   D(29,27,33,35)        -67.5716         estimate D2E/DX2                !
 ! D80   D(29,27,33,36)        178.756          estimate D2E/DX2                !
 ! D81   D(30,27,33,34)        173.3357         estimate D2E/DX2                !
 ! D82   D(30,27,33,35)         39.6799         estimate D2E/DX2                !
 ! D83   D(30,27,33,36)        -73.9925         estimate D2E/DX2                !
 ! D84   D(26,31,32,13)       -152.2015         estimate D2E/DX2                !
 --------------------------------------------------------------------------------
 Trust Radius=3.00D-01 FncErr=1.00D-07 GrdErr=1.00D-06 EigMax=2.50D+02 EigMin=1.00D-04
 Number of steps in this run=    194 maximum allowed number of steps=    216.
 GradGradGradGradGradGradGradGradGradGradGradGradGradGradGradGradGradGrad

 Leave Link  103 at Mon Feb 13 12:24:46 2023, MaxMem=   131072000 cpu:               0.1 elap:               0.0
 (Enter /dragofs/sw/campus/0.2/software/gaussian/16.gaussian/gaussian/g16_legacy/l202.exe)
                          Input orientation:                          
 ---------------------------------------------------------------------
 Center     Atomic      Atomic             Coordinates (Angstroms)
 Number     Number       Type             X           Y           Z
 ---------------------------------------------------------------------
      1          1           0        2.054000    1.899000   14.716000
      2          6           0        3.083000    1.897000   14.214000
      3          6           0        2.992000    2.129000   12.709000
      4          1           0        3.625000    2.661000   14.811000
      5          1           0        3.621000    0.922000   14.375000
      6          1           0        4.045000    2.158000   12.203000
      7          1           0        2.549000    3.104000   12.523000
      8          6           0        2.051000    1.262000   12.034000
      9          6           0        2.313000    1.157000   10.600000
     10          1           0        2.259000    0.195000   12.307000
     11          1           0        3.391000    1.077000   10.496000
     12          1           0        2.081000    2.175000   10.118000
     13          8           0        0.808000    1.665000   12.461000
     14          1           0        0.231000    1.041000   12.017000
     15          6           0        1.665000    0.066000    9.735000
     16          1           0        1.992000   -0.963000    9.732000
     17          1           0        1.895000    0.261000    8.676000
     18          1           0        0.594000   -0.003000    9.803000
     19          1           0       -2.416000    5.020000   15.277000
     20          6           0       -2.065000    3.989000   15.473000
     21          6           0       -0.521000    4.014000   15.601000
     22          1           0       -2.592000    3.523000   16.386000
     23          1           0       -2.562000    3.557000   14.554000
     24          1           0       -0.155000    3.011000   15.775000
     25          1           0       -0.449000    4.534000   16.620000
     26          6           0        0.285000    4.535000   14.533000
     27          6           0        0.139000    5.958000   14.277000
     28          1           0        1.359000    4.581000   14.879000
     29          1           0        0.035000    6.584000   15.231000
     30          1           0       -0.791000    6.193000   13.768000
     31          8           0        0.172000    3.889000   13.255000
     32          1           0        0.290000    2.951000   13.340000
     33          6           0        1.226000    6.592000   13.383000
     34          1           0        2.236000    6.506000   13.898000
     35          1           0        0.934000    7.568000   12.983000
     36          1           0        1.411000    6.038000   12.443000
 ---------------------------------------------------------------------
                    Distance matrix (angstroms):
                    1          2          3          4          5
     1  H    0.000000
     2  C    1.144923   0.000000
     3  C    2.227284   1.525493   0.000000
     4  H    1.748631   1.110797   2.258787   0.000000
     5  H    1.877844   1.125162   2.151289   1.792828   0.000000
     6  H    3.216571   2.244479   1.168626   2.689065   2.534769
     7  H    2.550745   2.145107   1.086954   2.566899   3.056176
     8  C    2.756611   2.494123   1.446650   3.485169   2.839151
     9  C    4.190358   3.768487   2.419443   4.660030   4.002089
    10  H    2.957858   2.685597   2.106953   3.770561   2.580736
    11  H    4.502405   3.819789   2.482594   4.602503   3.888903
    12  H    4.606355   4.225932   2.746874   4.964311   4.697197
    13  O    2.586947   2.881399   2.246476   3.801316   3.482587
    14  H    3.368099   3.700466   3.047249   4.685090   4.131153
    15  C    5.321801   5.042294   3.855071   6.028383   5.107668
    16  H    5.747621   5.427541   4.407152   6.449520   5.269185
    17  H    6.260186   5.895531   4.577982   6.811103   5.991210
    18  H    5.466880   5.409440   4.329049   6.431479   5.560714
    19  H    5.480535   6.412651   6.648231   6.501978   7.352046
    20  C    4.680525   5.697670   6.055786   5.880300   6.553067
    21  C    3.447764   4.403893   4.925247   4.432158   5.312222
    22  H    5.197268   6.290237   6.829687   6.471071   7.029274
    23  H    4.907409   5.893829   6.024129   6.256823   6.723448
    24  H    2.690298   3.763291   4.481282   3.916656   4.536750
    25  H    4.102859   5.021716   5.737633   4.835089   5.886550
    26  C    3.179834   3.858706   4.055078   3.839891   4.920125
    27  C    4.509482   5.016256   5.025880   4.827790   6.123334
    28  H    2.775377   3.258567   3.658947   2.970821   4.331159
    29  H    5.127457   5.682654   5.911967   5.334269   6.756506
    30  H    5.237477   5.801931   5.652315   5.750124   6.900553
    31  O    3.104278   3.655361   3.368696   3.981498   4.685412
    32  H    2.472201   3.110569   2.893899   3.656524   4.035298
    33  C    4.948406   5.116838   4.846793   4.821529   6.234500
    34  H    4.682595   4.696823   4.598194   4.188904   5.772938
    35  H    6.032848   6.188199   5.821783   5.887420   7.302530
    36  H    4.765637   4.804155   4.224997   4.681170   5.898320
                    6          7          8          9         10
     6  H    0.000000
     7  H    1.798703   0.000000
     8  C    2.192581   1.969794   0.000000
     9  C    2.563481   2.746713   1.461515   0.000000
    10  H    2.655933   2.931388   1.120840   1.960155   0.000000
    11  H    2.123706   2.987712   2.048236   1.085956   2.310643
    12  H    2.864404   2.620322   2.122622   1.149988   2.956993
    13  O    3.284476   2.259568   1.374695   2.446714   2.071236
    14  H    3.978553   3.144062   1.833448   2.521125   2.216439
    15  C    4.016452   4.217090   2.620079   1.535712   2.642851
    16  H    4.478983   4.963912   3.202079   2.313194   2.835997
    17  H    4.545419   4.828020   3.507492   2.163173   3.649796
    18  H    4.726449   4.568793   2.949650   2.221659   3.013544
    19  H    7.706169   5.992228   6.677852   7.691589   7.345553
    20  C    7.167814   5.547497   6.017035   7.136753   6.566199
    21  C    5.986610   4.441518   5.187695   6.419035   5.758784
    22  H    7.963070   6.444239   6.753479   7.945740   7.158633
    23  H    7.151003   5.518378   5.735608   6.720100   6.292384
    24  H    5.579139   4.230339   4.681935   6.025692   5.077822
    25  H    6.734337   5.274307   6.163390   7.434593   6.690452
    26  C    5.021616   3.348665   4.480657   5.567060   5.261877
    27  C    5.830807   4.126734   5.544295   6.426212   6.448835
    28  H    4.499611   3.024626   4.425907   5.562709   5.163543
    29  H    6.696145   5.075811   6.527538   7.489177   7.369890
    30  H    6.489788   4.716730   5.949662   6.710614   6.885712
    31  O    4.370720   2.608099   3.452913   4.369981   4.347403
    32  H    4.002704   2.407069   2.767576   3.849489   3.541128
    33  C    5.385120   3.828325   5.559616   6.202087   6.568598
    34  H    5.005058   3.682689   5.568506   6.284468   6.508497
    35  H    6.289262   4.769394   6.474097   6.977195   7.521551
    36  H    4.695738   3.147983   4.836017   5.294753   5.905781
                   11         12         13         14         15
    11  H    0.000000
    12  H    1.750596   0.000000
    13  O    3.298311   2.714826   0.000000
    14  H    3.507184   2.883515   0.958875   0.000000
    15  C    2.140168   2.183489   3.274496   2.866096   0.000000
    16  H    2.588918   3.162904   3.969343   3.512600   1.079712
    17  H    2.493245   2.403613   4.180791   3.813080   1.101093
    18  H    3.077313   2.655951   3.145311   2.474571   1.075372
    19  H    8.492730   7.411634   5.438755   5.785037   8.480002
    20  C    7.938401   7.011130   4.767310   5.089819   7.888439
    21  C    7.070413   6.341578   4.140488   4.716915   7.401031
    22  H    8.744787   7.933590   5.515232   5.763490   8.620249
    23  H    7.619447   6.568521   4.395135   4.535138   7.299135
    24  H    6.646978   6.140052   3.704279   4.260570   6.961826
    25  H    8.012479   7.364902   5.206582   5.818166   8.475568
    26  C    6.156490   5.318594   3.578214   4.305950   6.700535
    27  C    6.978225   5.948087   4.709062   5.412296   7.594347
    28  H    5.968059   5.383051   3.827973   4.689886   6.851248
    29  H    8.000626   7.054656   5.697981   6.410387   8.680279
    30  H    7.373504   6.141271   4.976729   5.536568   7.735448
    31  O    5.087375   4.052511   2.445630   3.105999   5.406919
    32  H    4.606128   3.767113   1.641573   2.324201   4.817663
    33  C    6.590692   5.558879   5.029924   5.802550   7.489279
    34  H    6.510121   5.750651   5.247803   6.117549   7.689617
    35  H    7.372591   6.213556   5.927375   6.635442   8.207550
    36  H    5.685308   4.558212   4.414415   5.152076   6.562207
                   16         17         18         19         20
    16  H    0.000000
    17  H    1.619482   0.000000
    18  H    1.697364   1.741386   0.000000
    19  H    9.272205   9.209017   8.015941   0.000000
    20  C    8.598874   8.705102   7.426658   1.106607   0.000000
    21  C    8.095113   8.238792   7.141171   2.169801   1.549498
    22  H    9.241914   9.498311   8.119062   1.871327   1.152586
    23  H    8.026269   8.079564   6.723536   1.638418   1.130572
    24  H    7.544543   7.884212   6.731269   3.065323   2.166977
    25  H    9.144399   9.319871   8.254920   2.430830   2.055259
    26  C    7.496096   7.427222   6.562151   2.843266   2.589250
    27  C    8.484744   8.179887   7.467076   2.899633   3.188259
    28  H    7.591326   7.578054   6.882155   3.821224   3.525206
    29  H    9.540758   9.295588   8.553609   2.907854   3.347027
    30  H    8.674256   8.266298   7.485310   2.508712   3.063938
    31  O    6.266246   6.090842   5.219392   3.473527   3.151776
    32  H    5.588727   5.618276   4.618322   3.918567   3.342627
    33  C    8.425828   7.917384   7.530594   4.395746   4.687685
    34  H    8.555761   8.147735   7.863350   5.074539   5.226329
    35  H    9.190556   8.536159   8.218762   4.793458   5.291818
    36  H    7.530012   6.913630   6.643099   4.869683   5.045976
                   21         22         23         24         25
    21  C    0.000000
    22  H    2.268556   0.000000
    23  H    2.338961   1.832561   0.000000
    24  H    1.081777   2.564066   2.753653   0.000000
    25  H    1.146274   2.381035   3.112500   1.766349   0.000000
    26  C    1.435862   3.568597   3.010371   2.014631   2.212312
    27  C    2.442890   4.223206   3.624490   3.318923   2.804134
    28  H    2.092169   4.358992   4.065519   2.357947   2.510409
    29  H    2.655360   4.195816   4.045425   3.619166   2.523109
    30  H    2.860215   4.150473   3.271503   3.815451   3.317099
    31  O    2.449406   4.192471   3.045058   2.688534   3.482081
    32  H    2.626749   4.232165   3.158312   2.476055   3.716236
    33  C    3.823299   5.745772   4.993136   4.522431   4.185589
    34  H    4.087948   6.196613   5.669898   4.631958   4.302010
    35  H    4.647781   6.354141   5.547808   5.454121   4.934127
    36  H    4.219261   6.156012   5.137744   4.766268   4.813413
                   26         27         28         29         30
    26  C    0.000000
    27  C    1.453197   0.000000
    28  H    1.129295   1.935700   0.000000
    29  H    2.179015   1.145778   2.426703   0.000000
    30  H    2.119426   1.085913   2.907811   1.724971   0.000000
    31  O    1.436443   2.307885   2.127254   3.344603   2.549305
    32  H    1.983010   3.153224   2.483582   4.103608   3.444170
    33  C    2.537564   1.543619   2.509945   2.198556   2.091821
    34  H    2.845078   2.200308   2.331762   2.574369   3.045915
    35  H    3.467390   2.213269   3.563371   2.613419   2.341469
    36  H    2.809802   2.233370   2.838952   3.156649   2.574578
                   31         32         33         34         35
    31  O    0.000000
    32  H    0.949207   0.000000
    33  C    2.904050   3.759631   0.000000
    34  H    3.394442   4.091003   1.136979   0.000000
    35  H    3.766918   4.675347   1.094459   1.913184   0.000000
    36  H    2.610108   3.404529   1.106680   1.736858   1.691162
                   36
    36  H    0.000000
 Stoichiometry    C10H24O2
 Framework group  C1[X(C10H24O2)]
 Deg. of freedom   102
 Full point group                 C1      NOp   1
 Largest Abelian subgroup         C1      NOp   1
 Largest concise Abelian subgroup C1      NOp   1
                         Standard orientation:                         
 ---------------------------------------------------------------------
 Center     Atomic      Atomic             Coordinates (Angstroms)
 Number     Number       Type             X           Y           Z
 ---------------------------------------------------------------------
      1          1           0        0.323819   -0.306551    2.161064
      2          6           0        1.052679    0.562171    2.318965
      3          6           0        1.760303    0.964341    1.028748
      4          1           0        0.395881    1.322335    2.792923
      5          1           0        1.845584    0.305967    3.075041
      6          1           0        2.480296    1.871435    1.185198
      7          1           0        1.021741    1.296300    0.303627
      8          6           0        2.369233   -0.140386    0.320528
      9          6           0        3.410845    0.293743   -0.608235
     10          1           0        3.021186   -0.723665    1.021261
     11          1           0        3.974282    1.063997   -0.090018
     12          1           0        2.908010    0.872764   -1.465185
     13          8           0        1.322551   -0.896470   -0.151256
     14          1           0        1.777201   -1.626210   -0.575772
     15          6           0        4.408406   -0.695743   -1.228073
     16          1           0        5.249408   -1.107602   -0.690609
     17          1           0        5.006327   -0.174638   -1.991843
     18          1           0        3.971407   -1.547930   -1.717190
     19          1           0       -3.998308   -1.753159   -0.882421
     20          6           0       -3.265533   -2.191077   -0.178257
     21          6           0       -2.720362   -1.058278    0.727558
     22          1           0       -3.713341   -3.073519    0.412689
     23          1           0       -2.623784   -2.637724   -0.994872
     24          1           0       -1.987315   -1.462553    1.412718
     25          1           0       -3.658301   -0.891994    1.365183
     26          6           0       -2.101577    0.099095    0.145067
     27          6           0       -2.981579    0.951240   -0.636744
     28          1           0       -1.896274    0.850299    0.962899
     29          1           0       -4.025836    1.068451   -0.180020
     30          1           0       -3.221570    0.520451   -1.604231
     31          8           0       -0.938858   -0.122351   -0.668822
     32          1           0       -0.299476   -0.650017   -0.206489
     33          6           0       -2.428277    2.351551   -0.976957
     34          1           0       -2.260689    2.935167   -0.015693
     35          1           0       -2.976475    2.841835   -1.787475
     36          1           0       -1.408146    2.337194   -1.405755
 ---------------------------------------------------------------------
 Rotational constants (GHZ):           1.1807182           0.3665538           0.3498393
 Leave Link  202 at Mon Feb 13 12:24:46 2023, MaxMem=   131072000 cpu:               0.0 elap:               0.0
 (Enter /dragofs/sw/campus/0.2/software/gaussian/16.gaussian/gaussian/g16_legacy/l301.exe)
 Standard basis: 6-311G(d,p) (5D, 7F)
 Ernie: Thresh=  0.10000D-02 Tol=  0.10000D-05 Strict=F.
 There are   372 symmetry adapted cartesian basis functions of A   symmetry.
 There are   360 symmetry adapted basis functions of A   symmetry.
   360 basis functions,   576 primitive gaussians,   372 cartesian basis functions
    50 alpha electrons       50 beta electrons
       nuclear repulsion energy       788.4722061998 Hartrees.
 IExCor=  402 DFT=T Ex=B Corr=LYP ExCW=0 ScaHFX=  0.000000
 ScaDFX=  1.000000  1.000000  1.000000  1.000000 ScalE2=  1.000000  1.000000
 IRadAn=      5 IRanWt=     -1 IRanGd=            0 ICorTp=0 IEmpDi=131
 NAtoms=   36 NActive=   36 NUniq=   36 SFac= 1.00D+00 NAtFMM=   60 NAOKFM=F Big=F
 Integral buffers will be    131072 words long.
 Raffenetti 2 integral format.
 Two-electron integral symmetry is turned on.
 R6Disp:  Grimme-D3 Dispersion energy=       -0.0396153548 Hartrees.
 Nuclear repulsion after empirical dispersion term =      788.4325908450 Hartrees.
 Leave Link  301 at Mon Feb 13 12:24:46 2023, MaxMem=   131072000 cpu:               0.4 elap:               0.1
 (Enter /dragofs/sw/campus/0.2/software/gaussian/16.gaussian/gaussian/g16_legacy/l302.exe)
 NPDir=0 NMtPBC=     1 NCelOv=     1 NCel=       1 NClECP=     1 NCelD=      1
         NCelK=      1 NCelE2=     1 NClLst=     1 CellRange=     0.0.
 One-electron integrals computed using PRISM.
 One-electron integral symmetry used in STVInt
 NBasis=   360 RedAO= T EigKep=  1.22D-03  NBF=   360
 NBsUse=   360 1.00D-06 EigRej= -1.00D+00 NBFU=   360
 Precomputing XC quadrature grid using
 IXCGrd= 4 IRadAn=           5 IRanWt=          -1 IRanGd=           0 AccXCQ= 0.00D+00.
 Generated NRdTot=       0 NPtTot=           0 NUsed=           0 NTot=          32
 NSgBfM=   372   372   372   372   372 MxSgAt=    36 MxSgA2=    36.
 Leave Link  302 at Mon Feb 13 12:24:47 2023, MaxMem=   131072000 cpu:               3.3 elap:               0.4
 (Enter /dragofs/sw/campus/0.2/software/gaussian/16.gaussian/gaussian/g16_legacy/l303.exe)
 DipDrv:  MaxL=1.
 Leave Link  303 at Mon Feb 13 12:24:47 2023, MaxMem=   131072000 cpu:               0.3 elap:               0.1
 (Enter /dragofs/sw/campus/0.2/software/gaussian/16.gaussian/gaussian/g16_legacy/l401.exe)
 ExpMin= 1.03D-01 ExpMax= 8.59D+03 ExpMxC= 1.30D+03 IAcc=3 IRadAn=         5 AccDes= 0.00D+00
 Harris functional with IExCor=  402 and IRadAn=       5 diagonalized for initial guess.
 HarFok:  IExCor=  402 AccDes= 0.00D+00 IRadAn=         5 IDoV= 1 UseB2=F ITyADJ=14
 ICtDFT=  3500011 ScaDFX=  1.000000  1.000000  1.000000  1.000000
 FoFCou: FMM=F IPFlag=           0 FMFlag=      100000 FMFlg1=           0
         NFxFlg=           0 DoJE=T BraDBF=F KetDBF=T FulRan=T
         wScrn=  0.000000 ICntrl=       500 IOpCl=  0 I1Cent=   200000004 NGrid=           0
         NMat0=    1 NMatS0=      1 NMatT0=    0 NMatD0=    1 NMtDS0=    0 NMtDT0=    0
 Petite list used in FoFCou.
 Harris En= -546.235288656335    
 JPrj=0 DoOrth=F DoCkMO=F.
 Leave Link  401 at Mon Feb 13 12:24:49 2023, MaxMem=   131072000 cpu:              20.1 elap:               2.5
 (Enter /dragofs/sw/campus/0.2/software/gaussian/16.gaussian/gaussian/g16_legacy/l502.exe)
 Integral symmetry usage will be decided dynamically.
 Closed shell SCF:
 Using DIIS extrapolation, IDIIS=  1040.
 NGot=   131072000 LenX=   130788220 LenY=   130649395
 Requested convergence on RMS density matrix=1.00D-08 within 128 cycles.
 Requested convergence on MAX density matrix=1.00D-06.
 Requested convergence on             energy=1.00D-06.
 No special actions if energy rises.
 Fock matrices will be formed incrementally for  20 cycles.
 Integral accuracy reduced to 1.0D-05 until final iterations.

 Cycle   1  Pass 0  IDiag  1:
 FoFJK:  IHMeth= 1 ICntrl=     500 DoSepK=F KAlg= 0 I1Cent=           0 FoldK=F
 IRaf= 820000000 NMat=       1 IRICut=       1 DoRegI=T DoRafI=F ISym2E= 0 IDoP0=0 IntGTp=1.
 FoFCou: FMM=F IPFlag=           0 FMFlag=      100000 FMFlg1=           0
         NFxFlg=           0 DoJE=T BraDBF=F KetDBF=F FulRan=T
         wScrn=  0.000000 ICntrl=       500 IOpCl=  0 I1Cent=           0 NGrid=           0
         NMat0=    1 NMatS0=      1 NMatT0=    0 NMatD0=    1 NMtDS0=    0 NMtDT0=    0
 Symmetry not used in FoFCou.
 E= -545.250994434710    
 DIIS: error= 3.83D-02 at cycle   1 NSaved=   1.
 NSaved= 1 IEnMin= 1 EnMin= -545.250994434710     IErMin= 1 ErrMin= 3.83D-02
 ErrMax= 3.83D-02  0.00D+00 EMaxC= 1.00D-01 BMatC= 5.36D-01 BMatP= 5.36D-01
 IDIUse=3 WtCom= 6.17D-01 WtEn= 3.83D-01
 Coeff-Com:  0.100D+01
 Coeff-En:   0.100D+01
 Coeff:      0.100D+01
 Gap=     0.150 Goal=   None    Shift=    0.000
 GapD=    0.150 DampG=1.000 DampE=0.500 DampFc=0.5000 IDamp=-1.
 Damping current iteration by 5.00D-01
 RMSDP=5.76D-03 MaxDP=1.93D-01              OVMax= 2.95D-01

 Cycle   2  Pass 0  IDiag  1:
 RMSU=  2.86D-03    CP:  9.68D-01
 E= -545.340481896389     Delta-E=       -0.089487461680 Rises=F Damp=T
 DIIS: error= 1.27D-02 at cycle   2 NSaved=   2.
 NSaved= 2 IEnMin= 2 EnMin= -545.340481896389     IErMin= 2 ErrMin= 1.27D-02
 ErrMax= 1.27D-02  0.00D+00 EMaxC= 1.00D-01 BMatC= 8.76D-02 BMatP= 5.36D-01
 IDIUse=3 WtCom= 8.73D-01 WtEn= 1.27D-01
 Coeff-Com:  0.263D+00 0.737D+00
 Coeff-En:   0.426D+00 0.574D+00
 Coeff:      0.284D+00 0.716D+00
 Gap=     0.216 Goal=   None    Shift=    0.000
 RMSDP=1.76D-03 MaxDP=6.84D-02 DE=-8.95D-02 OVMax= 2.31D-01

 Cycle   3  Pass 0  IDiag  1:
 RMSU=  9.25D-04    CP:  9.77D-01  4.78D-01
 E= -545.769706268141     Delta-E=       -0.429224371751 Rises=F Damp=F
 DIIS: error= 6.43D-03 at cycle   3 NSaved=   3.
 NSaved= 3 IEnMin= 3 EnMin= -545.769706268141     IErMin= 3 ErrMin= 6.43D-03
 ErrMax= 6.43D-03  0.00D+00 EMaxC= 1.00D-01 BMatC= 2.06D-02 BMatP= 8.76D-02
 IDIUse=3 WtCom= 9.36D-01 WtEn= 6.43D-02
 Coeff-Com:  0.113D+00 0.370D+00 0.517D+00
 Coeff-En:   0.000D+00 0.000D+00 0.100D+01
 Coeff:      0.105D+00 0.346D+00 0.548D+00
 Gap=     0.197 Goal=   None    Shift=    0.000
 RMSDP=5.99D-04 MaxDP=2.09D-02 DE=-4.29D-01 OVMax= 4.85D-02

 Cycle   4  Pass 0  IDiag  1:
 RMSU=  4.14D-04    CP:  9.81D-01  5.66D-01  6.23D-01
 E= -545.781361943044     Delta-E=       -0.011655674903 Rises=F Damp=F
 DIIS: error= 4.67D-03 at cycle   4 NSaved=   4.
 NSaved= 4 IEnMin= 4 EnMin= -545.781361943044     IErMin= 4 ErrMin= 4.67D-03
 ErrMax= 4.67D-03  0.00D+00 EMaxC= 1.00D-01 BMatC= 7.43D-03 BMatP= 2.06D-02
 IDIUse=3 WtCom= 9.53D-01 WtEn= 4.67D-02
 Coeff-Com:  0.247D-01 0.113D+00 0.366D+00 0.496D+00
 Coeff-En:   0.000D+00 0.000D+00 0.275D+00 0.725D+00
 Coeff:      0.235D-01 0.108D+00 0.362D+00 0.507D+00
 Gap=     0.197 Goal=   None    Shift=    0.000
 RMSDP=2.33D-04 MaxDP=1.02D-02 DE=-1.17D-02 OVMax= 1.78D-02

 Cycle   5  Pass 0  IDiag  1:
 RMSU=  1.30D-04    CP:  9.78D-01  5.50D-01  7.27D-01  6.17D-01
 E= -545.787062050228     Delta-E=       -0.005700107185 Rises=F Damp=F
 DIIS: error= 9.22D-04 at cycle   5 NSaved=   5.
 NSaved= 5 IEnMin= 5 EnMin= -545.787062050228     IErMin= 5 ErrMin= 9.22D-04
 ErrMax= 9.22D-04  0.00D+00 EMaxC= 1.00D-01 BMatC= 3.00D-04 BMatP= 7.43D-03
 IDIUse=3 WtCom= 9.91D-01 WtEn= 9.22D-03
 Coeff-Com:  0.307D-02 0.235D-01 0.131D+00 0.251D+00 0.591D+00
 Coeff-En:   0.000D+00 0.000D+00 0.000D+00 0.000D+00 0.100D+01
 Coeff:      0.304D-02 0.233D-01 0.130D+00 0.249D+00 0.595D+00
 Gap=     0.195 Goal=   None    Shift=    0.000
 RMSDP=5.21D-05 MaxDP=2.13D-03 DE=-5.70D-03 OVMax= 2.82D-03

 Cycle   6  Pass 0  IDiag  1:
 RMSU=  3.03D-05    CP:  9.78D-01  5.49D-01  7.30D-01  6.38D-01  6.83D-01
 E= -545.787262353321     Delta-E=       -0.000200303093 Rises=F Damp=F
 DIIS: error= 2.32D-04 at cycle   6 NSaved=   6.
 NSaved= 6 IEnMin= 6 EnMin= -545.787262353321     IErMin= 6 ErrMin= 2.32D-04
 ErrMax= 2.32D-04  0.00D+00 EMaxC= 1.00D-01 BMatC= 5.63D-05 BMatP= 3.00D-04
 IDIUse=3 WtCom= 9.98D-01 WtEn= 2.32D-03
 Coeff-Com:  0.356D-03 0.565D-02 0.525D-01 0.116D+00 0.376D+00 0.450D+00
 Coeff-En:   0.000D+00 0.000D+00 0.000D+00 0.000D+00 0.127D+00 0.873D+00
 Coeff:      0.355D-03 0.563D-02 0.524D-01 0.116D+00 0.375D+00 0.451D+00
 Gap=     0.195 Goal=   None    Shift=    0.000
 RMSDP=1.65D-05 MaxDP=9.53D-04 DE=-2.00D-04 OVMax= 1.04D-03

 Cycle   7  Pass 0  IDiag  1:
 RMSU=  8.56D-06    CP:  9.78D-01  5.50D-01  7.30D-01  6.40D-01  7.21D-01
                    CP:  5.74D-01
 E= -545.787309800191     Delta-E=       -0.000047446870 Rises=F Damp=F
 DIIS: error= 6.57D-05 at cycle   7 NSaved=   7.
 NSaved= 7 IEnMin= 7 EnMin= -545.787309800191     IErMin= 7 ErrMin= 6.57D-05
 ErrMax= 6.57D-05  0.00D+00 EMaxC= 1.00D-01 BMatC= 1.63D-06 BMatP= 5.63D-05
 IDIUse=1 WtCom= 1.00D+00 WtEn= 0.00D+00
 Coeff-Com:  0.230D-03 0.112D-02 0.166D-01 0.391D-01 0.142D+00 0.218D+00
 Coeff-Com:  0.584D+00
 Coeff:      0.230D-03 0.112D-02 0.166D-01 0.391D-01 0.142D+00 0.218D+00
 Coeff:      0.584D+00
 Gap=     0.195 Goal=   None    Shift=    0.000
 RMSDP=3.91D-06 MaxDP=1.80D-04 DE=-4.74D-05 OVMax= 2.51D-04

 Initial convergence to 1.0D-05 achieved.  Increase integral accuracy.
 Cycle   8  Pass 1  IDiag  1:
 E= -545.787300562540     Delta-E=        0.000009237651 Rises=F Damp=F
 DIIS: error= 3.03D-05 at cycle   1 NSaved=   1.
 NSaved= 1 IEnMin= 1 EnMin= -545.787300562540     IErMin= 1 ErrMin= 3.03D-05
 ErrMax= 3.03D-05  0.00D+00 EMaxC= 1.00D-01 BMatC= 4.13D-07 BMatP= 4.13D-07
 IDIUse=1 WtCom= 1.00D+00 WtEn= 0.00D+00
 Coeff-Com:  0.100D+01
 Coeff:      0.100D+01
 Gap=     0.195 Goal=   None    Shift=    0.000
 RMSDP=3.91D-06 MaxDP=1.80D-04 DE= 9.24D-06 OVMax= 2.10D-04

 Cycle   9  Pass 1  IDiag  1:
 RMSU=  7.97D-06    CP:  1.00D+00
 E= -545.787300108902     Delta-E=        0.000000453638 Rises=F Damp=F
 DIIS: error= 6.15D-05 at cycle   2 NSaved=   2.
 NSaved= 2 IEnMin= 1 EnMin= -545.787300562540     IErMin= 1 ErrMin= 3.03D-05
 ErrMax= 6.15D-05  0.00D+00 EMaxC= 1.00D-01 BMatC= 1.09D-06 BMatP= 4.13D-07
 IDIUse=1 WtCom= 1.00D+00 WtEn= 0.00D+00
 Coeff-Com:  0.629D+00 0.371D+00
 Coeff:      0.629D+00 0.371D+00
 Gap=     0.195 Goal=   None    Shift=    0.000
 RMSDP=2.41D-06 MaxDP=1.14D-04 DE= 4.54D-07 OVMax= 1.44D-04

 Cycle  10  Pass 1  IDiag  1:
 RMSU=  2.20D-06    CP:  1.00D+00  8.79D-01
 E= -545.787300925398     Delta-E=       -0.000000816496 Rises=F Damp=F
 DIIS: error= 8.07D-06 at cycle   3 NSaved=   3.
 NSaved= 3 IEnMin= 3 EnMin= -545.787300925398     IErMin= 3 ErrMin= 8.07D-06
 ErrMax= 8.07D-06  0.00D+00 EMaxC= 1.00D-01 BMatC= 2.01D-08 BMatP= 4.13D-07
 IDIUse=1 WtCom= 1.00D+00 WtEn= 0.00D+00
 Coeff-Com:  0.114D+00 0.140D+00 0.746D+00
 Coeff:      0.114D+00 0.140D+00 0.746D+00
 Gap=     0.195 Goal=   None    Shift=    0.000
 RMSDP=5.05D-07 MaxDP=1.96D-05 DE=-8.16D-07 OVMax= 3.33D-05

 Cycle  11  Pass 1  IDiag  1:
 RMSU=  4.46D-07    CP:  1.00D+00  8.86D-01  8.96D-01
 E= -545.787300931360     Delta-E=       -0.000000005962 Rises=F Damp=F
 DIIS: error= 3.78D-06 at cycle   4 NSaved=   4.
 NSaved= 4 IEnMin= 4 EnMin= -545.787300931360     IErMin= 4 ErrMin= 3.78D-06
 ErrMax= 3.78D-06  0.00D+00 EMaxC= 1.00D-01 BMatC= 9.68D-09 BMatP= 2.01D-08
 IDIUse=1 WtCom= 1.00D+00 WtEn= 0.00D+00
 Coeff-Com:  0.897D-02 0.527D-01 0.488D+00 0.451D+00
 Coeff:      0.897D-02 0.527D-01 0.488D+00 0.451D+00
 Gap=     0.195 Goal=   None    Shift=    0.000
 RMSDP=2.26D-07 MaxDP=1.19D-05 DE=-5.96D-09 OVMax= 1.37D-05

 Cycle  12  Pass 1  IDiag  1:
 RMSU=  9.22D-08    CP:  1.00D+00  8.87D-01  9.06D-01  5.40D-01
 E= -545.787300939586     Delta-E=       -0.000000008226 Rises=F Damp=F
 DIIS: error= 5.53D-07 at cycle   5 NSaved=   5.
 NSaved= 5 IEnMin= 5 EnMin= -545.787300939586     IErMin= 5 ErrMin= 5.53D-07
 ErrMax= 5.53D-07  0.00D+00 EMaxC= 1.00D-01 BMatC= 2.20D-10 BMatP= 9.68D-09
 IDIUse=1 WtCom= 1.00D+00 WtEn= 0.00D+00
 Coeff-Com:  0.430D-03 0.231D-01 0.234D+00 0.241D+00 0.502D+00
 Coeff:      0.430D-03 0.231D-01 0.234D+00 0.241D+00 0.502D+00
 Gap=     0.195 Goal=   None    Shift=    0.000
 RMSDP=5.49D-08 MaxDP=1.52D-06 DE=-8.23D-09 OVMax= 2.73D-06

 Cycle  13  Pass 1  IDiag  1:
 RMSU=  1.89D-08    CP:  1.00D+00  8.88D-01  9.05D-01  5.09D-01  4.72D-01
 E= -545.787300939777     Delta-E=       -0.000000000191 Rises=F Damp=F
 DIIS: error= 1.99D-07 at cycle   6 NSaved=   6.
 NSaved= 6 IEnMin= 6 EnMin= -545.787300939777     IErMin= 6 ErrMin= 1.99D-07
 ErrMax= 1.99D-07  0.00D+00 EMaxC= 1.00D-01 BMatC= 2.40D-11 BMatP= 2.20D-10
 IDIUse=1 WtCom= 1.00D+00 WtEn= 0.00D+00
 Coeff-Com: -0.268D-03 0.118D-01 0.121D+00 0.127D+00 0.315D+00 0.425D+00
 Coeff:     -0.268D-03 0.118D-01 0.121D+00 0.127D+00 0.315D+00 0.425D+00
 Gap=     0.195 Goal=   None    Shift=    0.000
 RMSDP=1.32D-08 MaxDP=4.84D-07 DE=-1.91D-10 OVMax= 1.01D-06

 Cycle  14  Pass 1  IDiag  1:
 RMSU=  6.50D-09    CP:  1.00D+00  8.88D-01  9.06D-01  5.13D-01  5.13D-01
                    CP:  4.56D-01
 E= -545.787300939791     Delta-E=       -0.000000000014 Rises=F Damp=F
 DIIS: error= 4.53D-08 at cycle   7 NSaved=   7.
 NSaved= 7 IEnMin= 7 EnMin= -545.787300939791     IErMin= 7 ErrMin= 4.53D-08
 ErrMax= 4.53D-08  0.00D+00 EMaxC= 1.00D-01 BMatC= 1.00D-12 BMatP= 2.40D-11
 IDIUse=1 WtCom= 1.00D+00 WtEn= 0.00D+00
 Coeff-Com: -0.148D-03 0.522D-02 0.536D-01 0.564D-01 0.147D+00 0.244D+00
 Coeff-Com:  0.495D+00
 Coeff:     -0.148D-03 0.522D-02 0.536D-01 0.564D-01 0.147D+00 0.244D+00
 Coeff:      0.495D+00
 Gap=     0.195 Goal=   None    Shift=    0.000
 RMSDP=3.00D-09 MaxDP=1.04D-07 DE=-1.41D-11 OVMax= 1.87D-07

 SCF Done:  E(RB-LYP) =  -545.787300940     A.U. after   14 cycles
            NFock= 14  Conv=0.30D-08     -V/T= 2.0017
 KE= 5.448554729896D+02 PE=-2.849269717102D+03 EE= 9.701943523278D+02
 Leave Link  502 at Mon Feb 13 12:25:36 2023, MaxMem=   131072000 cpu:             372.4 elap:              46.8
 (Enter /dragofs/sw/campus/0.2/software/gaussian/16.gaussian/gaussian/g16_legacy/l601.exe)
 Copying SCF densities to generalized density rwf, IOpCl= 0 IROHF=0.

 **********************************************************************

            Population analysis using the SCF density.

 **********************************************************************

 Orbital symmetries:
       Occupied  (A) (A) (A) (A) (A) (A) (A) (A) (A) (A) (A) (A)
                 (A) (A) (A) (A) (A) (A) (A) (A) (A) (A) (A) (A)
                 (A) (A) (A) (A) (A) (A) (A) (A) (A) (A) (A) (A)
                 (A) (A) (A) (A) (A) (A) (A) (A) (A) (A) (A) (A)
                 (A) (A)
       Virtual   (A) (A) (A) (A) (A) (A) (A) (A) (A) (A) (A) (A)
                 (A) (A) (A) (A) (A) (A) (A) (A) (A) (A) (A) (A)
                 (A) (A) (A) (A) (A) (A) (A) (A) (A) (A) (A) (A)
                 (A) (A) (A) (A) (A) (A) (A) (A) (A) (A) (A) (A)
                 (A) (A) (A) (A) (A) (A) (A) (A) (A) (A) (A) (A)
                 (A) (A) (A) (A) (A) (A) (A) (A) (A) (A) (A) (A)
                 (A) (A) (A) (A) (A) (A) (A) (A) (A) (A) (A) (A)
                 (A) (A) (A) (A) (A) (A) (A) (A) (A) (A) (A) (A)
                 (A) (A) (A) (A) (A) (A) (A) (A) (A) (A) (A) (A)
                 (A) (A) (A) (A) (A) (A) (A) (A) (A) (A) (A) (A)
                 (A) (A) (A) (A) (A) (A) (A) (A) (A) (A) (A) (A)
                 (A) (A) (A) (A) (A) (A) (A) (A) (A) (A) (A) (A)
                 (A) (A) (A) (A) (A) (A) (A) (A) (A) (A) (A) (A)
                 (A) (A) (A) (A) (A) (A) (A) (A) (A) (A) (A) (A)
                 (A) (A) (A) (A) (A) (A) (A) (A) (A) (A) (A) (A)
                 (A) (A) (A) (A) (A) (A) (A) (A) (A) (A) (A) (A)
                 (A) (A) (A) (A) (A) (A) (A) (A) (A) (A) (A) (A)
                 (A) (A) (A) (A) (A) (A) (A) (A) (A) (A) (A) (A)
                 (A) (A) (A) (A) (A) (A) (A) (A) (A) (A) (A) (A)
                 (A) (A) (A) (A) (A) (A) (A) (A) (A) (A) (A) (A)
                 (A) (A) (A) (A) (A) (A) (A) (A) (A) (A) (A) (A)
                 (A) (A) (A) (A) (A) (A) (A) (A) (A) (A) (A) (A)
                 (A) (A) (A) (A) (A) (A) (A) (A) (A) (A) (A) (A)
                 (A) (A) (A) (A) (A) (A) (A) (A) (A) (A) (A) (A)
                 (A) (A) (A) (A) (A) (A) (A) (A) (A) (A) (A) (A)
                 (A) (A) (A) (A) (A) (A) (A) (A) (A) (A)
 The electronic state is 1-A.
 Alpha  occ. eigenvalues --  -18.78374 -18.72361  -9.94927  -9.92711  -9.90833
 Alpha  occ. eigenvalues --   -9.90222  -9.89953  -9.89743  -9.89322  -9.89251
 Alpha  occ. eigenvalues --   -9.87980  -9.87901  -0.97457  -0.89839  -0.73535
 Alpha  occ. eigenvalues --   -0.71320  -0.68529  -0.66199  -0.61913  -0.59388
 Alpha  occ. eigenvalues --   -0.55661  -0.54088  -0.51820  -0.49459  -0.48319
 Alpha  occ. eigenvalues --   -0.44488  -0.42493  -0.41024  -0.39329  -0.39059
 Alpha  occ. eigenvalues --   -0.37963  -0.37531  -0.36179  -0.35032  -0.33890
 Alpha  occ. eigenvalues --   -0.33555  -0.32550  -0.32211  -0.31117  -0.30286
 Alpha  occ. eigenvalues --   -0.30170  -0.29403  -0.29114  -0.28384  -0.27889
 Alpha  occ. eigenvalues --   -0.26411  -0.26129  -0.24839  -0.23209  -0.19842
 Alpha virt. eigenvalues --   -0.00340   0.01909   0.03226   0.03682   0.04563
 Alpha virt. eigenvalues --    0.04921   0.05355   0.06343   0.06643   0.07456
 Alpha virt. eigenvalues --    0.07922   0.08630   0.09190   0.09541   0.10330
 Alpha virt. eigenvalues --    0.11557   0.11666   0.12312   0.12500   0.12893
 Alpha virt. eigenvalues --    0.13741   0.15349   0.15878   0.16625   0.17097
 Alpha virt. eigenvalues --    0.18167   0.19178   0.20007   0.20503   0.21370
 Alpha virt. eigenvalues --    0.22371   0.22843   0.24131   0.26514   0.26671
 Alpha virt. eigenvalues --    0.27847   0.28534   0.28731   0.29240   0.30991
 Alpha virt. eigenvalues --    0.31276   0.32381   0.32853   0.33772   0.35029
 Alpha virt. eigenvalues --    0.36821   0.37385   0.39734   0.40249   0.40570
 Alpha virt. eigenvalues --    0.41292   0.42086   0.44313   0.47005   0.47382
 Alpha virt. eigenvalues --    0.48246   0.48603   0.49317   0.50187   0.50820
 Alpha virt. eigenvalues --    0.51669   0.52515   0.52985   0.53158   0.53803
 Alpha virt. eigenvalues --    0.54177   0.54298   0.54960   0.55428   0.55928
 Alpha virt. eigenvalues --    0.56065   0.56442   0.57087   0.57749   0.58011
 Alpha virt. eigenvalues --    0.58542   0.59219   0.59690   0.60338   0.60603
 Alpha virt. eigenvalues --    0.62010   0.62614   0.63972   0.64549   0.65479
 Alpha virt. eigenvalues --    0.66913   0.67560   0.69056   0.71481   0.73914
 Alpha virt. eigenvalues --    0.78479   0.80703   0.81650   0.83104   0.83987
 Alpha virt. eigenvalues --    0.86793   0.89090   0.90604   0.92563   0.95615
 Alpha virt. eigenvalues --    0.97140   0.97670   0.98960   1.00387   1.03701
 Alpha virt. eigenvalues --    1.04050   1.08258   1.09127   1.11565   1.13339
 Alpha virt. eigenvalues --    1.14222   1.15975   1.19066   1.20201   1.21641
 Alpha virt. eigenvalues --    1.23692   1.25862   1.28181   1.28475   1.30668
 Alpha virt. eigenvalues --    1.31500   1.33726   1.34612   1.36902   1.36988
 Alpha virt. eigenvalues --    1.37793   1.38723   1.39687   1.42191   1.42608
 Alpha virt. eigenvalues --    1.44046   1.44206   1.44556   1.44733   1.47257
 Alpha virt. eigenvalues --    1.48014   1.48836   1.48960   1.49446   1.50691
 Alpha virt. eigenvalues --    1.51181   1.51231   1.52304   1.53430   1.53657
 Alpha virt. eigenvalues --    1.54354   1.54694   1.56210   1.56855   1.57142
 Alpha virt. eigenvalues --    1.58299   1.59200   1.60527   1.62744   1.63016
 Alpha virt. eigenvalues --    1.63945   1.65326   1.66330   1.67145   1.68304
 Alpha virt. eigenvalues --    1.68473   1.69521   1.70056   1.71445   1.73130
 Alpha virt. eigenvalues --    1.74175   1.74910   1.76800   1.77686   1.78081
 Alpha virt. eigenvalues --    1.79565   1.79995   1.85285   1.86066   1.86780
 Alpha virt. eigenvalues --    1.88406   1.89740   1.93024   1.95220   1.95726
 Alpha virt. eigenvalues --    1.97396   1.97892   1.98613   1.99612   2.01798
 Alpha virt. eigenvalues --    2.03795   2.04277   2.04806   2.05589   2.06431
 Alpha virt. eigenvalues --    2.08912   2.10890   2.11734   2.12331   2.13329
 Alpha virt. eigenvalues --    2.13739   2.15642   2.17217   2.17525   2.20742
 Alpha virt. eigenvalues --    2.23113   2.23835   2.25360   2.26951   2.27235
 Alpha virt. eigenvalues --    2.28973   2.29374   2.29990   2.30462   2.31389
 Alpha virt. eigenvalues --    2.34509   2.35574   2.36791   2.39461   2.40382
 Alpha virt. eigenvalues --    2.41158   2.41300   2.43329   2.44364   2.45662
 Alpha virt. eigenvalues --    2.46053   2.46765   2.47195   2.47926   2.49090
 Alpha virt. eigenvalues --    2.50100   2.51131   2.52684   2.53642   2.54574
 Alpha virt. eigenvalues --    2.55444   2.56437   2.56808   2.57705   2.58041
 Alpha virt. eigenvalues --    2.60856   2.61566   2.62455   2.63763   2.66002
 Alpha virt. eigenvalues --    2.66149   2.67338   2.67861   2.71117   2.71816
 Alpha virt. eigenvalues --    2.74207   2.76182   2.76643   2.80624   2.82602
 Alpha virt. eigenvalues --    2.83571   2.87807   2.91507   2.93153   2.96512
 Alpha virt. eigenvalues --    2.97302   3.00396   3.05921   3.07632   3.13597
 Alpha virt. eigenvalues --    3.15551   3.20061   3.25214   3.26277   3.27072
 Alpha virt. eigenvalues --    3.37254   3.45683   3.46128   3.49700   3.56733
 Alpha virt. eigenvalues --    3.57307   3.57802   3.64047   3.64730   3.69562
 Alpha virt. eigenvalues --    3.70401   3.71453   3.73962   3.75239   3.76709
 Alpha virt. eigenvalues --    3.78686   3.80860   3.81860   3.87575   3.98832
 Alpha virt. eigenvalues --    4.02810   4.03914   4.05753   4.18387   4.20049
 Alpha virt. eigenvalues --    4.41037   4.42763   4.80301   4.87056   5.18933
 Alpha virt. eigenvalues --    5.37052   5.54552   5.66451  23.46162  23.49192
 Alpha virt. eigenvalues --   23.54372  23.55822  23.58728  23.60721  23.68086
 Alpha virt. eigenvalues --   23.68714  23.69813  23.70166  49.46947  49.53547
          Condensed to atoms (all electrons):
               1          2          3          4          5          6
     1  H    0.611194   0.388224  -0.030380  -0.042219  -0.024243   0.008527
     2  C    0.388224   4.867085   0.371386   0.395934   0.393720  -0.033285
     3  C   -0.030380   0.371386   5.005800  -0.022894  -0.047345   0.390103
     4  H   -0.042219   0.395934  -0.022894   0.598678  -0.033723  -0.004293
     5  H   -0.024243   0.393720  -0.047345  -0.033723   0.615908  -0.007765
     6  H    0.008527  -0.033285   0.390103  -0.004293  -0.007765   0.630142
     7  H   -0.004549  -0.041567   0.387570  -0.007410   0.009584  -0.023040
     8  C   -0.013305  -0.056956   0.371703   0.008639  -0.006567  -0.043492
     9  C    0.001317   0.010661  -0.051866  -0.000454  -0.000390  -0.007856
    10  H   -0.002995  -0.013920  -0.063031   0.000184   0.008049   0.000990
    11  H   -0.000132  -0.000174  -0.011384  -0.000121   0.000206   0.001840
    12  H   -0.000135  -0.000612  -0.009909   0.000056   0.000022   0.001453
    13  O    0.010356  -0.002959  -0.076325  -0.000174  -0.000447   0.004823
    14  H   -0.000812  -0.000370   0.015494   0.000087  -0.000027  -0.001156
    15  C    0.000008  -0.000387   0.009172   0.000013  -0.000020   0.000685
    16  H    0.000000  -0.000003   0.000001   0.000001  -0.000015   0.000053
    17  H    0.000002   0.000018  -0.000379  -0.000001   0.000002  -0.000088
    18  H   -0.000025  -0.000009  -0.000010  -0.000000   0.000008  -0.000023
    19  H    0.000015  -0.000002   0.000000   0.000000   0.000000  -0.000000
    20  C   -0.000272   0.000032  -0.000013   0.000008   0.000000  -0.000000
    21  C   -0.000453  -0.000533  -0.000029   0.000021  -0.000007  -0.000005
    22  H   -0.000001  -0.000000   0.000000  -0.000000  -0.000000  -0.000000
    23  H   -0.000064   0.000009  -0.000003   0.000001   0.000000  -0.000000
    24  H    0.005166  -0.000321   0.000174  -0.000089  -0.000035   0.000004
    25  H   -0.000087   0.000025   0.000007   0.000016   0.000001  -0.000000
    26  C    0.001446  -0.000293  -0.000181  -0.000063   0.000077   0.000033
    27  C    0.000301  -0.000017   0.000086  -0.000033  -0.000003   0.000002
    28  H   -0.005424   0.001911  -0.000720   0.002647   0.000049  -0.000154
    29  H   -0.000012   0.000000  -0.000004  -0.000001  -0.000000  -0.000000
    30  H   -0.000044   0.000004  -0.000014   0.000009   0.000000  -0.000001
    31  O    0.001640  -0.001065  -0.001498  -0.000251   0.000006   0.000137
    32  H   -0.000225   0.001288  -0.003777   0.000083  -0.000034   0.000055
    33  C    0.000048   0.000034  -0.000031   0.000010  -0.000001   0.000004
    34  H   -0.000002   0.000007   0.000020   0.000108   0.000001   0.000001
    35  H    0.000002  -0.000000   0.000006  -0.000002   0.000000   0.000000
    36  H   -0.000025  -0.000020  -0.000187   0.000004   0.000000  -0.000013
               7          8          9         10         11         12
     1  H   -0.004549  -0.013305   0.001317  -0.002995  -0.000132  -0.000135
     2  C   -0.041567  -0.056956   0.010661  -0.013920  -0.000174  -0.000612
     3  C    0.387570   0.371703  -0.051866  -0.063031  -0.011384  -0.009909
     4  H   -0.007410   0.008639  -0.000454   0.000184  -0.000121   0.000056
     5  H    0.009584  -0.006567  -0.000390   0.008049   0.000206   0.000022
     6  H   -0.023040  -0.043492  -0.007856   0.000990   0.001840   0.001453
     7  H    0.579041  -0.057074  -0.014204   0.014986   0.001440   0.006763
     8  C   -0.057074   4.891427   0.370715   0.389831  -0.037536  -0.049047
     9  C   -0.014204   0.370715   4.991161  -0.100197   0.385369   0.377919
    10  H    0.014986   0.389831  -0.100197   0.732169  -0.000162   0.019948
    11  H    0.001440  -0.037536   0.385369  -0.000162   0.618372  -0.031012
    12  H    0.006763  -0.049047   0.377919   0.019948  -0.031012   0.640127
    13  O   -0.001191   0.263336  -0.034543  -0.037472   0.005701   0.006682
    14  H    0.000517  -0.040199  -0.010923  -0.010253  -0.000114  -0.001167
    15  C   -0.000492  -0.043436   0.364042  -0.014393  -0.038941  -0.047342
    16  H    0.000005  -0.003500  -0.021916   0.005300  -0.008963   0.008481
    17  H    0.000015   0.007219  -0.026328  -0.000603  -0.003966  -0.012209
    18  H    0.000132  -0.005144  -0.038655   0.001299   0.010689  -0.003302
    19  H    0.000001   0.000000  -0.000000   0.000000   0.000000   0.000000
    20  C   -0.000046   0.000005  -0.000000   0.000000   0.000000   0.000000
    21  C    0.000497   0.000071   0.000000  -0.000010  -0.000000  -0.000001
    22  H    0.000001   0.000000   0.000000   0.000000  -0.000000   0.000000
    23  H   -0.000046   0.000002   0.000000  -0.000000   0.000000  -0.000000
    24  H    0.000037  -0.000033  -0.000004  -0.000017  -0.000000  -0.000002
    25  H   -0.000085  -0.000001  -0.000000   0.000000   0.000000  -0.000000
    26  C    0.003744  -0.000521  -0.000016   0.000016   0.000003  -0.000003
    27  C   -0.000984  -0.000006  -0.000001  -0.000002   0.000000  -0.000002
    28  H   -0.005919   0.000816  -0.000015   0.000018   0.000001   0.000022
    29  H    0.000008   0.000001   0.000000   0.000000  -0.000000   0.000000
    30  H   -0.000157   0.000011  -0.000000  -0.000000  -0.000000   0.000001
    31  O    0.023827  -0.001449  -0.000192  -0.000166   0.000002   0.000096
    32  H   -0.008193  -0.003983   0.001437   0.000695  -0.000153   0.000248
    33  C    0.000389  -0.000015  -0.000000  -0.000001   0.000000  -0.000012
    34  H    0.000148  -0.000004   0.000000  -0.000000  -0.000000  -0.000003
    35  H   -0.000007  -0.000001   0.000000   0.000000   0.000000  -0.000001
    36  H    0.001791   0.000051   0.000007   0.000004  -0.000005   0.000115
              13         14         15         16         17         18
     1  H    0.010356  -0.000812   0.000008   0.000000   0.000002  -0.000025
     2  C   -0.002959  -0.000370  -0.000387  -0.000003   0.000018  -0.000009
     3  C   -0.076325   0.015494   0.009172   0.000001  -0.000379  -0.000010
     4  H   -0.000174   0.000087   0.000013   0.000001  -0.000001  -0.000000
     5  H   -0.000447  -0.000027  -0.000020  -0.000015   0.000002   0.000008
     6  H    0.004823  -0.001156   0.000685   0.000053  -0.000088  -0.000023
     7  H   -0.001191   0.000517  -0.000492   0.000005   0.000015   0.000132
     8  C    0.263336  -0.040199  -0.043436  -0.003500   0.007219  -0.005144
     9  C   -0.034543  -0.010923   0.364042  -0.021916  -0.026328  -0.038655
    10  H   -0.037472  -0.010253  -0.014393   0.005300  -0.000603   0.001299
    11  H    0.005701  -0.000114  -0.038941  -0.008963  -0.003966   0.010689
    12  H    0.006682  -0.001167  -0.047342   0.008481  -0.012209  -0.003302
    13  O    7.902438   0.306055  -0.003199  -0.000108  -0.000124   0.002835
    14  H    0.306055   0.494865   0.006018  -0.000044  -0.000463   0.003490
    15  C   -0.003199   0.006018   4.879760   0.399914   0.396729   0.390285
    16  H   -0.000108  -0.000044   0.399914   0.605106  -0.050008  -0.041991
    17  H   -0.000124  -0.000463   0.396729  -0.050008   0.604920  -0.025449
    18  H    0.002835   0.003490   0.390285  -0.041991  -0.025449   0.618314
    19  H   -0.000000  -0.000000  -0.000000  -0.000000  -0.000000   0.000000
    20  C   -0.000019   0.000005  -0.000000  -0.000000  -0.000000  -0.000000
    21  C   -0.000294   0.000108   0.000000   0.000000  -0.000000  -0.000000
    22  H    0.000001  -0.000002  -0.000000  -0.000000   0.000000   0.000000
    23  H   -0.000018   0.000035  -0.000000  -0.000000   0.000000  -0.000000
    24  H   -0.000233   0.000123   0.000000   0.000000  -0.000000  -0.000000
    25  H    0.000003  -0.000003  -0.000000  -0.000000   0.000000   0.000000
    26  C    0.000404  -0.000093   0.000000   0.000000  -0.000000   0.000001
    27  C   -0.000057   0.000013   0.000000   0.000000  -0.000000   0.000000
    28  H   -0.000144  -0.000006  -0.000000  -0.000000  -0.000000  -0.000000
    29  H    0.000008  -0.000001  -0.000000   0.000000   0.000000  -0.000000
    30  H   -0.000013   0.000003  -0.000000  -0.000000  -0.000000  -0.000000
    31  O   -0.032364   0.001582   0.000006   0.000000  -0.000000   0.000007
    32  H    0.044515  -0.006340  -0.000131  -0.000001   0.000013  -0.000118
    33  C   -0.000014   0.000000  -0.000000  -0.000000   0.000000   0.000000
    34  H   -0.000001   0.000000  -0.000000  -0.000000   0.000000  -0.000000
    35  H    0.000000   0.000000   0.000000  -0.000000   0.000000   0.000000
    36  H    0.000038  -0.000004  -0.000000   0.000000  -0.000000  -0.000000
              19         20         21         22         23         24
     1  H    0.000015  -0.000272  -0.000453  -0.000001  -0.000064   0.005166
     2  C   -0.000002   0.000032  -0.000533  -0.000000   0.000009  -0.000321
     3  C    0.000000  -0.000013  -0.000029   0.000000  -0.000003   0.000174
     4  H    0.000000   0.000008   0.000021  -0.000000   0.000001  -0.000089
     5  H    0.000000   0.000000  -0.000007  -0.000000   0.000000  -0.000035
     6  H   -0.000000  -0.000000  -0.000005  -0.000000  -0.000000   0.000004
     7  H    0.000001  -0.000046   0.000497   0.000001  -0.000046   0.000037
     8  C    0.000000   0.000005   0.000071   0.000000   0.000002  -0.000033
     9  C   -0.000000  -0.000000   0.000000   0.000000   0.000000  -0.000004
    10  H    0.000000   0.000000  -0.000010   0.000000  -0.000000  -0.000017
    11  H    0.000000   0.000000  -0.000000  -0.000000   0.000000  -0.000000
    12  H    0.000000   0.000000  -0.000001   0.000000  -0.000000  -0.000002
    13  O   -0.000000  -0.000019  -0.000294   0.000001  -0.000018  -0.000233
    14  H   -0.000000   0.000005   0.000108  -0.000002   0.000035   0.000123
    15  C   -0.000000  -0.000000   0.000000  -0.000000  -0.000000   0.000000
    16  H   -0.000000  -0.000000   0.000000  -0.000000  -0.000000   0.000000
    17  H   -0.000000  -0.000000  -0.000000   0.000000   0.000000  -0.000000
    18  H    0.000000  -0.000000  -0.000000   0.000000  -0.000000  -0.000000
    19  H    0.629245   0.391278  -0.038084  -0.022549  -0.057721   0.010828
    20  C    0.391278   4.949927   0.315256   0.392106   0.389075  -0.049692
    21  C   -0.038084   0.315256   4.987553  -0.029223  -0.028063   0.406460
    22  H   -0.022549   0.392106  -0.029223   0.608096  -0.034440  -0.005193
    23  H   -0.057721   0.389075  -0.028063  -0.034440   0.629076  -0.006924
    24  H    0.010828  -0.049692   0.406460  -0.005193  -0.006924   0.633652
    25  H   -0.011928  -0.053251   0.371887  -0.007489   0.011255  -0.035876
    26  C   -0.006932  -0.052441   0.393017   0.006689  -0.004007  -0.045753
    27  C    0.008279  -0.019211  -0.054350  -0.000103  -0.002188   0.015291
    28  H   -0.000840   0.015943  -0.068610  -0.000364   0.000878  -0.020983
    29  H    0.001010  -0.000453  -0.003830  -0.000137   0.000037   0.000339
    30  H   -0.002138   0.007555  -0.014920  -0.000071   0.001689  -0.001319
    31  O   -0.000712   0.005308  -0.050272  -0.000042   0.008655  -0.003753
    32  H   -0.000308   0.001929  -0.007520  -0.000055   0.001989   0.001455
    33  C   -0.000221  -0.000400   0.010255   0.000010  -0.000080  -0.000505
    34  H   -0.000002   0.000022  -0.000534   0.000001   0.000004  -0.000029
    35  H    0.000043   0.000003  -0.000462  -0.000002  -0.000011   0.000049
    36  H    0.000005   0.000009   0.000992   0.000001  -0.000010  -0.000043
              25         26         27         28         29         30
     1  H   -0.000087   0.001446   0.000301  -0.005424  -0.000012  -0.000044
     2  C    0.000025  -0.000293  -0.000017   0.001911   0.000000   0.000004
     3  C    0.000007  -0.000181   0.000086  -0.000720  -0.000004  -0.000014
     4  H    0.000016  -0.000063  -0.000033   0.002647  -0.000001   0.000009
     5  H    0.000001   0.000077  -0.000003   0.000049  -0.000000   0.000000
     6  H   -0.000000   0.000033   0.000002  -0.000154  -0.000000  -0.000001
     7  H   -0.000085   0.003744  -0.000984  -0.005919   0.000008  -0.000157
     8  C   -0.000001  -0.000521  -0.000006   0.000816   0.000001   0.000011
     9  C   -0.000000  -0.000016  -0.000001  -0.000015   0.000000  -0.000000
    10  H    0.000000   0.000016  -0.000002   0.000018   0.000000  -0.000000
    11  H    0.000000   0.000003   0.000000   0.000001  -0.000000  -0.000000
    12  H   -0.000000  -0.000003  -0.000002   0.000022   0.000000   0.000001
    13  O    0.000003   0.000404  -0.000057  -0.000144   0.000008  -0.000013
    14  H   -0.000003  -0.000093   0.000013  -0.000006  -0.000001   0.000003
    15  C   -0.000000   0.000000   0.000000  -0.000000  -0.000000  -0.000000
    16  H   -0.000000   0.000000   0.000000  -0.000000   0.000000  -0.000000
    17  H    0.000000  -0.000000  -0.000000  -0.000000   0.000000  -0.000000
    18  H    0.000000   0.000001   0.000000  -0.000000  -0.000000  -0.000000
    19  H   -0.011928  -0.006932   0.008279  -0.000840   0.001010  -0.002138
    20  C   -0.053251  -0.052441  -0.019211   0.015943  -0.000453   0.007555
    21  C    0.371887   0.393017  -0.054350  -0.068610  -0.003830  -0.014920
    22  H   -0.007489   0.006689  -0.000103  -0.000364  -0.000137  -0.000071
    23  H    0.011255  -0.004007  -0.002188   0.000878   0.000037   0.001689
    24  H   -0.035876  -0.045753   0.015291  -0.020983   0.000339  -0.001319
    25  H    0.653049  -0.020292  -0.006004  -0.000896   0.001363   0.000235
    26  C   -0.020292   4.810805   0.360680   0.371351  -0.036656  -0.033868
    27  C   -0.006004   0.360680   4.989669  -0.088518   0.385165   0.378285
    28  H   -0.000896   0.371351  -0.088518   0.756625  -0.001687   0.020650
    29  H    0.001363  -0.036656   0.385165  -0.001687   0.656126  -0.042974
    30  H    0.000235  -0.033868   0.378285   0.020650  -0.042974   0.633862
    31  O    0.004721   0.302955  -0.063189  -0.038067   0.005390   0.005471
    32  H    0.000712  -0.048853   0.006085   0.007002  -0.000356   0.000943
    33  C   -0.000112  -0.046305   0.379258  -0.027473  -0.039343  -0.048925
    34  H    0.000004  -0.003522  -0.044834   0.010673  -0.010768   0.010840
    35  H   -0.000059   0.007155  -0.027328  -0.000216  -0.005013  -0.006978
    36  H   -0.000090  -0.008248  -0.031709   0.000670   0.009654  -0.005226
              31         32         33         34         35         36
     1  H    0.001640  -0.000225   0.000048  -0.000002   0.000002  -0.000025
     2  C   -0.001065   0.001288   0.000034   0.000007  -0.000000  -0.000020
     3  C   -0.001498  -0.003777  -0.000031   0.000020   0.000006  -0.000187
     4  H   -0.000251   0.000083   0.000010   0.000108  -0.000002   0.000004
[...]
    35  H    0.000000  -0.000002   0.000019  -0.000004   0.000000  -0.000002
    36  H    0.000010  -0.000005  -0.000447  -0.000003  -0.000001   0.000033
               7          8          9         10         11         12
     1  H   -0.006176  -0.010103   0.001001  -0.000629  -0.000112   0.000079
     2  C   -0.038594  -0.053682   0.008097  -0.008937  -0.000382  -0.000082
     3  C    0.389835   0.369265  -0.059175  -0.038876  -0.001895  -0.008983
     4  H   -0.007268   0.007902  -0.000302  -0.000269  -0.000024  -0.000006
     5  H    0.008364  -0.004999  -0.000080   0.005945   0.000019  -0.000018
     6  H   -0.030249  -0.038603  -0.001962  -0.003040   0.002676   0.000143
     7  H    0.573726  -0.035185  -0.011793   0.009477   0.000290   0.006407
     8  C   -0.035185   4.948902   0.365252   0.384397  -0.033155  -0.032349
     9  C   -0.011793   0.365252   4.985770  -0.054261   0.371522   0.394229
    10  H    0.009477   0.384397  -0.054261   0.634564  -0.001699   0.008717
    11  H    0.000290  -0.033155   0.371522  -0.001699   0.625224  -0.032717
    12  H    0.006407  -0.032349   0.394229   0.008717  -0.032717   0.569773
    13  O   -0.002869   0.222838  -0.046034  -0.028576   0.005300  -0.002857
    14  H   -0.000152  -0.027834  -0.002903  -0.010918  -0.000674  -0.000742
    15  C   -0.000019  -0.051983   0.347764  -0.007079  -0.031838  -0.036140
    16  H    0.000003  -0.004333  -0.040089   0.006574  -0.006777   0.008315
    17  H   -0.000010   0.006787  -0.024324  -0.000207  -0.006070  -0.004398
    18  H    0.000008  -0.008145  -0.042261   0.000702   0.011276  -0.008130
    19  H   -0.000001   0.000000  -0.000000  -0.000000   0.000000  -0.000000
    20  C   -0.000008   0.000001  -0.000002   0.000000   0.000000   0.000014
    21  C    0.000852   0.000130  -0.000023  -0.000006   0.000000   0.000171
    22  H    0.000002   0.000000  -0.000000   0.000000   0.000000   0.000001
    23  H   -0.000112  -0.000025   0.000016  -0.000002  -0.000000  -0.000070
    24  H    0.000027  -0.000087   0.000059   0.000013  -0.000004  -0.000011
    25  H   -0.000167  -0.000011   0.000002  -0.000001  -0.000000  -0.000019
    26  C    0.003327   0.000863   0.000222  -0.000021  -0.000020  -0.000441
    27  C   -0.002151  -0.000022   0.000021  -0.000001  -0.000001  -0.000172
    28  H   -0.011433  -0.000631   0.000038  -0.000064   0.000003  -0.000007
    29  H    0.000110  -0.000000  -0.000001   0.000000  -0.000000   0.000005
    30  H   -0.000218  -0.000004  -0.000000  -0.000000  -0.000000   0.000024
    31  O    0.019979   0.005017  -0.004438  -0.000055  -0.000012   0.014652
    32  H   -0.003895  -0.015897  -0.001090   0.002082   0.000663  -0.003985
    33  C    0.001698   0.000005   0.000006  -0.000001   0.000000  -0.000174
    34  H   -0.000325  -0.000013   0.000011  -0.000001  -0.000001  -0.000037
    35  H    0.000064  -0.000001   0.000000   0.000000   0.000000  -0.000008
    36  H    0.001695   0.000061  -0.000111   0.000002   0.000001   0.001211
              13         14         15         16         17         18
     1  H    0.015633  -0.000706  -0.000040  -0.000002   0.000001  -0.000052
     2  C   -0.003163   0.000068  -0.000341  -0.000012   0.000012  -0.000017
     3  C   -0.052834   0.008910   0.007553  -0.000016  -0.000264   0.000148
     4  H   -0.000003   0.000056   0.000013   0.000001  -0.000001   0.000000
     5  H   -0.000598  -0.000116  -0.000002  -0.000007   0.000000   0.000005
     6  H    0.004268  -0.000803  -0.000077   0.000010  -0.000020  -0.000005
     7  H   -0.002869  -0.000152  -0.000019   0.000003  -0.000010   0.000008
     8  C    0.222838  -0.027834  -0.051983  -0.004333   0.006787  -0.008145
     9  C   -0.046034  -0.002903   0.347764  -0.040089  -0.024324  -0.042261
    10  H   -0.028576  -0.010918  -0.007079   0.006574  -0.000207   0.000702
    11  H    0.005300  -0.000674  -0.031838  -0.006777  -0.006070   0.011276
    12  H   -0.002857  -0.000742  -0.036140   0.008315  -0.004398  -0.008130
    13  O    7.942534   0.295491  -0.001875  -0.000324   0.000147   0.009574
    14  H    0.295491   0.486235   0.006998  -0.000155  -0.000260   0.002384
    15  C   -0.001875   0.006998   4.891100   0.395942   0.396694   0.390412
    16  H   -0.000324  -0.000155   0.395942   0.608446  -0.029338  -0.036753
    17  H    0.000147  -0.000260   0.396694  -0.029338   0.574125  -0.028156
    18  H    0.009574   0.002384   0.390412  -0.036753  -0.028156   0.617970
    19  H   -0.000001   0.000001  -0.000000  -0.000000  -0.000000   0.000000
    20  C   -0.000010  -0.000020  -0.000000  -0.000000  -0.000000   0.000000
    21  C   -0.001541   0.000141  -0.000000  -0.000000  -0.000000   0.000005
    22  H   -0.000001  -0.000004  -0.000000  -0.000000  -0.000000   0.000000
    23  H   -0.000061   0.000002   0.000002   0.000000   0.000000   0.000016
    24  H    0.003791   0.000190  -0.000003  -0.000000   0.000000  -0.000040
    25  H   -0.000024   0.000003   0.000000   0.000000   0.000000   0.000000
    26  C    0.001069   0.000148   0.000004  -0.000000  -0.000000  -0.000066
    27  C    0.000013   0.000015  -0.000000   0.000000  -0.000000  -0.000001
    28  H    0.000018  -0.000199  -0.000001   0.000001   0.000000   0.000021
    29  H    0.000007  -0.000002   0.000000   0.000000  -0.000000   0.000000
    30  H    0.000002  -0.000002  -0.000000   0.000000  -0.000000   0.000001
    31  O   -0.016954   0.001129  -0.000041  -0.000009  -0.000014   0.000009
    32  H    0.061694  -0.004960  -0.000730   0.000014   0.000023   0.001904
    33  C   -0.000005   0.000002   0.000000  -0.000000   0.000000  -0.000000
    34  H    0.000001   0.000000  -0.000000   0.000000   0.000000   0.000000
    35  H   -0.000000   0.000000   0.000000   0.000000   0.000000   0.000000
    36  H    0.000011  -0.000007  -0.000006   0.000000  -0.000001   0.000002
              19         20         21         22         23         24
     1  H    0.000001  -0.000014   0.000027  -0.000000  -0.000006   0.000794
     2  C   -0.000000   0.000002  -0.000001  -0.000000   0.000002  -0.000090
     3  C   -0.000000  -0.000006  -0.000074   0.000000   0.000011   0.000046
     4  H   -0.000000   0.000000  -0.000018  -0.000000   0.000000  -0.000014
     5  H   -0.000000   0.000000  -0.000005  -0.000000   0.000000  -0.000005
     6  H    0.000000   0.000000  -0.000005  -0.000000  -0.000001   0.000001
     7  H   -0.000001  -0.000008   0.000852   0.000002  -0.000112   0.000027
     8  C    0.000000   0.000001   0.000130   0.000000  -0.000025  -0.000087
     9  C   -0.000000  -0.000002  -0.000023  -0.000000   0.000016   0.000059
    10  H   -0.000000   0.000000  -0.000006   0.000000  -0.000002   0.000013
    11  H    0.000000   0.000000   0.000000   0.000000  -0.000000  -0.000004
    12  H   -0.000000   0.000014   0.000171   0.000001  -0.000070  -0.000011
    13  O   -0.000001  -0.000010  -0.001541  -0.000001  -0.000061   0.003791
    14  H    0.000001  -0.000020   0.000141  -0.000004   0.000002   0.000190
    15  C   -0.000000  -0.000000  -0.000000  -0.000000   0.000002  -0.000003
    16  H   -0.000000  -0.000000  -0.000000  -0.000000   0.000000  -0.000000
    17  H   -0.000000  -0.000000  -0.000000  -0.000000   0.000000   0.000000
    18  H    0.000000   0.000000   0.000005   0.000000   0.000016  -0.000040
    19  H    0.606768   0.399891  -0.034656  -0.033785  -0.033113   0.009364
    20  C    0.399891   4.889913   0.349731   0.396138   0.394162  -0.042085
    21  C   -0.034656   0.349731   4.973398  -0.030190  -0.041913   0.397064
    22  H   -0.033785   0.396138  -0.030190   0.610158  -0.031249  -0.008502
    23  H   -0.033113   0.394162  -0.041913  -0.031249   0.587363  -0.006006
    24  H    0.009364  -0.042085   0.397064  -0.008502  -0.006006   0.624245
    25  H   -0.008949  -0.036629   0.369512  -0.003978   0.010656  -0.034887
    26  C   -0.004795  -0.056494   0.386682   0.007671  -0.013188  -0.033398
    27  C    0.004250  -0.012142  -0.054485   0.000002  -0.002867   0.009795
    28  H   -0.000443   0.010145  -0.058278  -0.000409   0.002124  -0.013298
    29  H    0.000459  -0.000558  -0.001183  -0.000113   0.000109   0.000032
    30  H   -0.000817   0.004420  -0.011002  -0.000060   0.002491  -0.000662
    31  O   -0.000636  -0.009109  -0.045040  -0.000135   0.023081  -0.003395
    32  H   -0.000152  -0.000969  -0.007332  -0.000038   0.002379   0.001669
    33  C   -0.000128  -0.000174   0.008049   0.000010  -0.000181  -0.000406
    34  H   -0.000010   0.000035  -0.000510   0.000002   0.000019  -0.000035
    35  H    0.000031   0.000009  -0.000321  -0.000002  -0.000010   0.000032
    36  H    0.000011  -0.000021   0.000745   0.000001  -0.000003  -0.000024
              25         26         27         28         29         30
     1  H   -0.000029   0.000744   0.000064  -0.000994  -0.000003  -0.000002
     2  C    0.000017  -0.000603   0.000004   0.002803  -0.000002   0.000002
     3  C    0.000029  -0.002217   0.000199   0.000527  -0.000017  -0.000006
     4  H    0.000009  -0.000008  -0.000013   0.000989  -0.000001   0.000003
     5  H    0.000002   0.000009  -0.000001   0.000182  -0.000000   0.000000
     6  H   -0.000000   0.000115   0.000002  -0.000076  -0.000000   0.000000
     7  H   -0.000167   0.003327  -0.002151  -0.011433   0.000110  -0.000218
     8  C   -0.000011   0.000863  -0.000022  -0.000631  -0.000000  -0.000004
     9  C    0.000002   0.000222   0.000021   0.000038  -0.000001  -0.000000
    10  H   -0.000001  -0.000021  -0.000001  -0.000064   0.000000  -0.000000
    11  H   -0.000000  -0.000020  -0.000001   0.000003  -0.000000  -0.000000
    12  H   -0.000019  -0.000441  -0.000172  -0.000007   0.000005   0.000024
    13  O   -0.000024   0.001069   0.000013   0.000018   0.000007   0.000002
    14  H    0.000003   0.000148   0.000015  -0.000199  -0.000002  -0.000002
    15  C    0.000000   0.000004  -0.000000  -0.000001   0.000000  -0.000000
    16  H    0.000000  -0.000000   0.000000   0.000001   0.000000   0.000000
    17  H    0.000000  -0.000000  -0.000000   0.000000  -0.000000  -0.000000
    18  H    0.000000  -0.000066  -0.000001   0.000021   0.000000   0.000001
    19  H   -0.008949  -0.004795   0.004250  -0.000443   0.000459  -0.000817
    20  C   -0.036629  -0.056494  -0.012142   0.010145  -0.000558   0.004420
    21  C    0.369512   0.386682  -0.054485  -0.058278  -0.001183  -0.011002
    22  H   -0.003978   0.007671   0.000002  -0.000409  -0.000113  -0.000060
    23  H    0.010656  -0.013188  -0.002867   0.002124   0.000109   0.002491
    24  H   -0.034887  -0.033398   0.009795  -0.013298   0.000032  -0.000662
    25  H    0.641856  -0.033475  -0.002890   0.001931   0.001852   0.000457
    26  C   -0.033475   4.923955   0.358058   0.370408  -0.038904  -0.035806
    27  C   -0.002890   0.358058   4.949861  -0.057429   0.387741   0.390436
    28  H    0.001931   0.370408  -0.057429   0.688523  -0.001618   0.011877
    29  H    0.001852  -0.038904   0.387741  -0.001618   0.631220  -0.035334
    30  H    0.000457  -0.035806   0.390436   0.011877  -0.035334   0.603956
    31  O    0.005522   0.258585  -0.055460  -0.036537   0.004729   0.003772
    32  H    0.000812  -0.049205   0.008098   0.002621  -0.000613   0.000134
    33  C   -0.000454  -0.050211   0.369641  -0.013689  -0.036119  -0.037415
    34  H    0.000095  -0.005049  -0.036564   0.007711  -0.007727   0.009522
    35  H   -0.000032   0.007507  -0.029904  -0.000346  -0.005822  -0.005908
    36  H   -0.000099  -0.009373  -0.037224   0.000379   0.009731  -0.006287
              31         32         33         34         35         36
     1  H    0.000260  -0.000790   0.000005  -0.000019   0.000000   0.000010
     2  C   -0.000356  -0.000139   0.000004   0.000144  -0.000002  -0.000005
     3  C   -0.005334  -0.000106  -0.000183   0.000224   0.000019  -0.000447
     4  H   -0.000069   0.000037   0.000025   0.000292  -0.000004  -0.000003
     5  H   -0.000027   0.000082  -0.000001  -0.000001   0.000000  -0.000001
     6  H    0.000103   0.000087   0.000014   0.000021  -0.000002   0.000033
     7  H    0.019979  -0.003895   0.001698  -0.000325   0.000064   0.001695
     8  C    0.005017  -0.015897   0.000005  -0.000013  -0.000001   0.000061
     9  C   -0.004438  -0.001090   0.000006   0.000011   0.000000  -0.000111
    10  H   -0.000055   0.002082  -0.000001  -0.000001   0.000000   0.000002
    11  H   -0.000012   0.000663   0.000000  -0.000001   0.000000   0.000001
    12  H    0.014652  -0.003985  -0.000174  -0.000037  -0.000008   0.001211
    13  O   -0.016954   0.061694  -0.000005   0.000001  -0.000000   0.000011
    14  H    0.001129  -0.004960   0.000002   0.000000   0.000000  -0.000007
    15  C   -0.000041  -0.000730   0.000000  -0.000000   0.000000  -0.000006
    16  H   -0.000009   0.000014  -0.000000   0.000000   0.000000   0.000000
    17  H   -0.000014   0.000023   0.000000   0.000000   0.000000  -0.000001
    18  H    0.000009   0.001904  -0.000000   0.000000   0.000000   0.000002
    19  H   -0.000636  -0.000152  -0.000128  -0.000010   0.000031   0.000011
    20  C   -0.009109  -0.000969  -0.000174   0.000035   0.000009  -0.000021
    21  C   -0.045040  -0.007332   0.008049  -0.000510  -0.000321   0.000745
    22  H   -0.000135  -0.000038   0.000010   0.000002  -0.000002   0.000001
    23  H    0.023081   0.002379  -0.000181   0.000019  -0.000010  -0.000003
    24  H   -0.003395   0.001669  -0.000406  -0.000035   0.000032  -0.000024
    25  H    0.005522   0.000812  -0.000454   0.000095  -0.000032  -0.000099
    26  C    0.258585  -0.049205  -0.050211  -0.005049   0.007507  -0.009373
    27  C   -0.055460   0.008098   0.369641  -0.036564  -0.029904  -0.037224
    28  H   -0.036537   0.002621  -0.013689   0.007711  -0.000346   0.000379
    29  H    0.004729  -0.000613  -0.036119  -0.007727  -0.005822   0.009731
    30  H    0.003772   0.000134  -0.037415   0.009522  -0.005908  -0.006287
    31  O    7.936885   0.300474  -0.005326  -0.001549  -0.000033   0.014948
    32  H    0.300474   0.463977  -0.000698   0.000040   0.000039  -0.001269
    33  C   -0.005326  -0.000698   4.866201   0.394766   0.395618   0.398402
    34  H   -0.001549   0.000040   0.394766   0.620366  -0.033713  -0.034352
    35  H   -0.000033   0.000039   0.395618  -0.033713   0.608217  -0.030617
    36  H    0.014948  -0.001269   0.398402  -0.034352  -0.030617   0.576673
 Mulliken charges:
               1
     1  H    0.115529
     2  C   -0.282614
     3  C   -0.212981
     4  H    0.101383
     5  H    0.090319
     6  H    0.098564
     7  H    0.134759
     8  C    0.005643
     9  C   -0.185161
    10  H    0.102170
    11  H    0.098408
    12  H    0.127603
    13  O   -0.404662
    14  H    0.248683
    15  C   -0.306308
    16  H    0.098511
    17  H    0.115272
    18  H    0.089191
    19  H    0.096708
    20  C   -0.286222
    21  C   -0.199924
    22  H    0.094479
    23  H    0.106375
    24  H    0.095832
    25  H    0.088891
    26  C    0.013907
    27  C   -0.186875
    28  H    0.095150
    29  H    0.092017
    30  H    0.106427
    31  O   -0.404616
    32  H    0.245038
    33  C   -0.289281
    34  H    0.086658
    35  H    0.095190
    36  H    0.115935
 Sum of Mulliken charges =   0.00000
 Mulliken charges with hydrogens summed into heavy atoms:
               1
     2  C    0.024616
     3  C    0.020342
     8  C    0.107813
     9  C    0.040850
    13  O   -0.155979
    15  C   -0.003333
    20  C    0.011341
    21  C   -0.015201
    26  C    0.109057
    27  C    0.011570
    31  O   -0.159578
    33  C    0.008501
 Electronic spatial extent (au):  <R**2>=           3323.6522
 Charge=             -0.0000 electrons
 Dipole moment (field-independent basis, Debye):
    X=              2.4497    Y=             -0.1873    Z=              0.8770  Tot=              2.6087
 Quadrupole moment (field-independent basis, Debye-Ang):
   XX=            -75.4442   YY=            -79.9970   ZZ=            -83.1276
   XY=             -3.3426   XZ=             -0.7048   YZ=             -1.6710
 Traceless Quadrupole moment (field-independent basis, Debye-Ang):
   XX=              4.0787   YY=             -0.4741   ZZ=             -3.6047
   XY=             -3.3426   XZ=             -0.7048   YZ=             -1.6710
 Octapole moment (field-independent basis, Debye-Ang**2):
  XXX=             23.0381  YYY=            -10.3344  ZZZ=             -0.2404  XYY=             10.9669
  XXY=             -2.4556  XXZ=              1.8411  XZZ=              5.3341  YZZ=             -6.3931
  YYZ=              5.9283  XYZ=             -2.9179
 Hexadecapole moment (field-independent basis, Debye-Ang**3):
 XXXX=          -2840.2146 YYYY=          -1090.6158 ZZZZ=           -726.0161 XXXY=            -20.5145
 XXXZ=             21.2738 YYYX=            -16.2249 YYYZ=             -9.3488 ZZZX=              3.6796
 ZZZY=             -3.9652 XXYY=           -663.8197 XXZZ=           -587.6140 YYZZ=           -299.4273
 XXYZ=             -6.2391 YYXZ=              4.6003 ZZXY=            -10.0241
 N-N= 7.904053878878D+02 E-N=-2.853191558971D+03  KE= 5.442209724117D+02
 No NMR shielding tensors so no spin-rotation constants.
 Leave Link  601 at Mon Feb 13 13:04:56 2023, MaxMem=   131072000 cpu:               1.1 elap:               0.2
 (Enter /dragofs/sw/campus/0.2/software/gaussian/16.gaussian/gaussian/g16_legacy/l9999.exe)
 1\1\GINC-DRAGO31050157\FOpt\RBLYP\6-311G(d,p)\C10H24O2\JRAMOS\13-Feb-2
 023\0\\#p opt=tight blyp/6-311G** int=ultrafine EmpiricalDispersion=GD
 3\\Conformer number 114. Energy MM = 0.000 kcal/mol\\0,1\H,2.843094834
 6,1.8605191143,14.9712179661\C,3.7097373218,2.019620898,14.3168661723\
 C,3.2515921852,2.3557026742,12.8836433155\H,4.3152700549,2.835221562,1
 4.7373633567\H,4.3193349409,1.1025194592,14.3359443929\H,4.126442982,2
 .5023171047,12.2299357714\H,2.6853231669,3.2987341274,12.8745327199\C,
 2.3681819888,1.2694161351,12.2489422153\C,1.9339998977,1.6212586695,10
 .8103020136\H,2.9138243803,0.3059112317,12.2474274318\H,2.8443465898,1
 .7572818439,10.2037207156\H,1.4130013808,2.590549115,10.8392603902\O,1
 .1967189962,1.1203338975,13.127443938\H,0.6937710711,0.3428311846,12.8
 321265495\C,1.0315122337,0.5544838043,10.1556705765\H,1.5207086251,-0.
 4326577164,10.1408817095\H,0.7894417459,0.8227389633,9.1179860738\H,0.
 0738818102,0.4552860046,10.6899426115\H,-2.5314532747,5.0742020139,14.
 8835224035\C,-2.2842451182,4.0040439322,14.8308784943\C,-0.8325976343,
 3.7311929055,15.2770308589\H,-3.0021274437,3.4656631618,15.4668484267\
 H,-2.4250953524,3.6767737867,13.7917567966\H,-0.6733185105,2.642925196
 7,15.3621694065\H,-0.6526115951,4.1503550866,16.2821416395\C,0.2462680
 731,4.2796033946,14.3071674225\C,0.2224558637,5.8096670241,14.13679166
 78\H,1.2373197915,3.9970184086,14.7182336712\H,0.2259202619,6.27619589
 88,15.1358017207\H,-0.7245114188,6.0925885484,13.6518983496\O,0.095046
 2788,3.7058842391,12.9858703081\H,0.3166799885,2.7512480547,13.0598033
 072\C,1.4073853089,6.3312093839,13.2983990365\H,2.3688353775,6.0835113
 039,13.7760571513\H,1.3640419996,7.4234149869,13.1754700279\H,1.396823
 1984,5.8684346008,12.3029513912\\Version=EM64L-G16RevA.03\State=1-A\HF
 =-545.8822522\RMSD=7.971e-09\RMSF=5.641e-07\Dipole=0.4431909,-0.897180
 2,-0.2280303\Quadrupole=-1.8131278,2.2878344,-0.4747066,0.5599064,-1.2
 981203,3.142125\PG=C01 [X(C10H24O2)]\\@


 IT WAS AN ACT OF DESPARATION. FOR SIX YEARS I HAD STRUGGLED WITH THE
 BLACKBODY THEORY. I KNEW THE PROBLEM WAS FUNDAMENTAL, AND I KNEW
 THE ANSWER. I HAD TO FIND A THEORETICAL EXPLANATION AT ANY COST,
 EXCEPT FOR THE INVIOLABLITY OF THE TWO LAWS OF THERMODYNAMICS.
   -- MAX PLANCK, 1931
 Job cpu time:       0 days  5 hours 18 minutes 12.1 seconds.
 Elapsed time:       0 days  0 hours 40 minutes  7.5 seconds.
 File lengths (MBytes):  RWF=     86 Int=      0 D2E=      0 Chk=     11 Scr=      1
 Normal termination of Gaussian 16 at Mon Feb 13 13:04:56 2023.
