 Entering Gaussian System, Link 0=/opt/g16/g16
 Input=04-IsoP_036_gaussian.com
 Output=04-IsoP_036_gaussian.log
 Initial command:
 /opt/g16/l1.exe "/tmp/Gau-2766648.inp" -scrdir="/tmp/"
 Entering Link 1 = /opt/g16/l1.exe PID=   2766650.
  
 Copyright (c) 1988,1990,1992,1993,1995,1998,2003,2009,2016,
            Gaussian, Inc.  All Rights Reserved.
  
 This is part of the Gaussian(R) 16 program.  It is based on
 the Gaussian(R) 09 system (copyright 2009, Gaussian, Inc.),
 the Gaussian(R) 03 system (copyright 2003, Gaussian, Inc.),
 the Gaussian(R) 98 system (copyright 1998, Gaussian, Inc.),
 the Gaussian(R) 94 system (copyright 1995, Gaussian, Inc.),
 the Gaussian 92(TM) system (copyright 1992, Gaussian, Inc.),
 the Gaussian 90(TM) system (copyright 1990, Gaussian, Inc.),
 the Gaussian 88(TM) system (copyright 1988, Gaussian, Inc.),
 the Gaussian 86(TM) system (copyright 1986, Carnegie Mellon
 University), and the Gaussian 82(TM) system (copyright 1983,
 Carnegie Mellon University). Gaussian is a federally registered
 trademark of Gaussian, Inc.
  
 This software contains proprietary and confidential information,
 including trade secrets, belonging to Gaussian, Inc.
  
 This software is provided under written license and may be
 used, copied, transmitted, or stored only in accord with that
 written license.
  
 The following legend is applicable only to US Government
 contracts under FAR:
  
                    RESTRICTED RIGHTS LEGEND
  
 Use, reproduction and disclosure by the US Government is
 subject to restrictions as set forth in subparagraphs (a)
 and (c) of the Commercial Computer Software - Restricted
 Rights clause in FAR 52.227-19.
  
 Gaussian, Inc.
 340 Quinnipiac St., Bldg. 40, Wallingford CT 06492
  
  
 ---------------------------------------------------------------
 Warning -- This program may not be used in any manner that
 competes with the business of Gaussian, Inc. or will provide
 assistance to any competitor of Gaussian, Inc.  The licensee
 of this program is prohibited from giving any competitor of
 Gaussian, Inc. access to this program.  By using this program,
 the user acknowledges that Gaussian, Inc. is engaged in the
 business of creating and licensing software in the field of
 computational chemistry and represents and warrants to the
 licensee that it is not a competitor of Gaussian, Inc. and that
 it will not use this program in any manner prohibited above.
 ---------------------------------------------------------------
  

 Cite this work as:
 Gaussian 16, Revision A.03,
 M. J. Frisch, G. W. Trucks, H. B. Schlegel, G. E. Scuseria, 
 M. A. Robb, J. R. Cheeseman, G. Scalmani, V. Barone, 
 G. A. Petersson, H. Nakatsuji, X. Li, M. Caricato, A. V. Marenich, 
 J. Bloino, B. G. Janesko, R. Gomperts, B. Mennucci, H. P. Hratchian, 
 J. V. Ortiz, A. F. Izmaylov, J. L. Sonnenberg, D. Williams-Young, 
 F. Ding, F. Lipparini, F. Egidi, J. Goings, B. Peng, A. Petrone, 
 T. Henderson, D. Ranasinghe, V. G. Zakrzewski, J. Gao, N. Rega, 
 G. Zheng, W. Liang, M. Hada, M. Ehara, K. Toyota, R. Fukuda, 
 J. Hasegawa, M. Ishida, T. Nakajima, Y. Honda, O. Kitao, H. Nakai, 
 T. Vreven, K. Throssell, J. A. Montgomery, Jr., J. E. Peralta, 
 F. Ogliaro, M. J. Bearpark, J. J. Heyd, E. N. Brothers, K. N. Kudin, 
 V. N. Staroverov, T. A. Keith, R. Kobayashi, J. Normand, 
 K. Raghavachari, A. P. Rendell, J. C. Burant, S. S. Iyengar, 
 J. Tomasi, M. Cossi, J. M. Millam, M. Klene, C. Adamo, R. Cammi, 
 J. W. Ochterski, R. L. Martin, K. Morokuma, O. Farkas, 
 J. B. Foresman, and D. J. Fox, Gaussian, Inc., Wallingford CT, 2016.
 
 ******************************************
 Gaussian 16:  ES64L-G16RevA.03 25-Dec-2016
                27-Jul-2021 
 ******************************************
 %chk=04-IsoP_036_gaussian.chk
 %nproc=1
 Will use up to    1 processors via shared memory.
 %mem=1000Mb
 ----------
 #p opt pm3
 ----------
 1/18=20,19=15,26=1,38=1/1,3;
 2/9=110,12=2,17=6,18=5,40=1/2;
 3/5=2,25=1,41=800000,71=1/1,2,3;
 4/35=1/1;
 5/5=2,35=1,38=5/2;
 6/7=2,8=2,9=2,10=2,28=1/1;
 7//1,2,3,16;
 1/18=20,19=15,26=1/3(2);
 2/9=110/2;
 99//99;
 2/9=110/2;
 3/5=2,25=1,41=800000,71=1,135=20/1,2,3;
 4/5=5,16=3,35=1/1;
 5/5=2,35=1,38=5/2;
 7//1,2,3,16;
 1/18=20,19=15,26=1/3(-5);
 2/9=110/2;
 6/7=2,8=2,9=2,10=2,19=2,28=1/1;
 99/9=1/99;
 Leave Link    1 at Tue Jul 27 12:13:49 2021, MaxMem=   131072000 cpu:               0.0 elap:               0.0
 (Enter /opt/g16/l101.exe)
 -------------------------------------------------
 Conformer number 036. Energy MM = 25.902 kcal/mol
 -------------------------------------------------
 Symbolic Z-matrix:
 Charge =  0 Multiplicity = 1
 C                     2.1473    1.1736   -9.0074 
 H                     1.8248    0.1341   -9.1552 
 H                     1.8964    1.6919   -9.9404 
 C                     3.6516    1.2307   -8.7904 
 C                     4.3058    2.5412   -9.1336 
 H                     5.3862    2.4501   -9.2741 
 H                     3.9055    2.9348   -10.0738 
 H                     4.1212    3.2789   -8.3478 
 C                     4.2995    0.1614   -8.2879 
 H                     3.7216   -0.7376   -8.0742 
 C                     5.7306    0.0675   -7.8667 
 H                     6.2788    1.0062   -7.9659 
 H                     5.7742   -0.223    -6.8114 
 H                     6.2452   -0.7003   -8.452 
 C                     2.4638    0.3547   -4.3768 
 H                     1.7774   -0.496    -4.451 
 H                     3.4822   -0.0433   -4.3352 
 H                     2.2536    0.8705   -3.4334 
 C                     2.3297    1.3021   -5.5378 
 C                     3.2351    2.502    -5.4655 
 H                     2.9508    3.2983   -6.1562 
 H                     3.2111    2.9368   -4.461 
 H                     4.2658    2.2076   -5.6858 
 C                     1.5012    1.0228   -6.5645 
 H                     0.9107    0.1077   -6.5205 
 C                     1.3442    1.7957   -7.8507 
 H                     0.2795    1.7872   -8.1175 
 H                     1.6067    2.8507   -7.73 
 
 ITRead=  0  0  0  0  0  0  0  0  0  0  0  0  0  0  0  0  0  0  0  0
 ITRead=  0  0  0  0  0  0  0  0
 MicOpt= -1 -1 -1 -1 -1 -1 -1 -1 -1 -1 -1 -1 -1 -1 -1 -1 -1 -1 -1 -1
 MicOpt= -1 -1 -1 -1 -1 -1 -1 -1
 NAtoms=     28 NQM=       28 NQMF=       0 NMMI=      0 NMMIF=      0
                NMic=       0 NMicF=      0.
                    Isotopes and Nuclear Properties:
 (Nuclear quadrupole moments (NQMom) in fm**2, nuclear magnetic moments (NMagM)
  in nuclear magnetons)

  Atom         1           2           3           4           5           6           7           8           9          10
 IAtWgt=          12           1           1          12          12           1           1           1          12           1
 AtmWgt=  12.0000000   1.0078250   1.0078250  12.0000000  12.0000000   1.0078250   1.0078250   1.0078250  12.0000000   1.0078250
 NucSpn=           0           1           1           0           0           1           1           1           0           1
 AtZEff=  -0.0000000  -0.0000000  -0.0000000  -0.0000000  -0.0000000  -0.0000000  -0.0000000  -0.0000000  -0.0000000  -0.0000000
 NQMom=    0.0000000   0.0000000   0.0000000   0.0000000   0.0000000   0.0000000   0.0000000   0.0000000   0.0000000   0.0000000
 NMagM=    0.0000000   2.7928460   2.7928460   0.0000000   0.0000000   2.7928460   2.7928460   2.7928460   0.0000000   2.7928460
 AtZNuc=   6.0000000   1.0000000   1.0000000   6.0000000   6.0000000   1.0000000   1.0000000   1.0000000   6.0000000   1.0000000

  Atom        11          12          13          14          15          16          17          18          19          20
 IAtWgt=          12           1           1           1          12           1           1           1          12          12
 AtmWgt=  12.0000000   1.0078250   1.0078250   1.0078250  12.0000000   1.0078250   1.0078250   1.0078250  12.0000000  12.0000000
 NucSpn=           0           1           1           1           0           1           1           1           0           0
 AtZEff=  -0.0000000  -0.0000000  -0.0000000  -0.0000000  -0.0000000  -0.0000000  -0.0000000  -0.0000000  -0.0000000  -0.0000000
 NQMom=    0.0000000   0.0000000   0.0000000   0.0000000   0.0000000   0.0000000   0.0000000   0.0000000   0.0000000   0.0000000
 NMagM=    0.0000000   2.7928460   2.7928460   2.7928460   0.0000000   2.7928460   2.7928460   2.7928460   0.0000000   0.0000000
 AtZNuc=   6.0000000   1.0000000   1.0000000   1.0000000   6.0000000   1.0000000   1.0000000   1.0000000   6.0000000   6.0000000

  Atom        21          22          23          24          25          26          27          28
 IAtWgt=           1           1           1          12           1          12           1           1
 AtmWgt=   1.0078250   1.0078250   1.0078250  12.0000000   1.0078250  12.0000000   1.0078250   1.0078250
 NucSpn=           1           1           1           0           1           0           1           1
 AtZEff=  -0.0000000  -0.0000000  -0.0000000  -0.0000000  -0.0000000  -0.0000000  -0.0000000  -0.0000000
 NQMom=    0.0000000   0.0000000   0.0000000   0.0000000   0.0000000   0.0000000   0.0000000   0.0000000
 NMagM=    2.7928460   2.7928460   2.7928460   0.0000000   2.7928460   0.0000000   2.7928460   2.7928460
 AtZNuc=   1.0000000   1.0000000   1.0000000   6.0000000   1.0000000   6.0000000   1.0000000   1.0000000
 Leave Link  101 at Tue Jul 27 12:13:49 2021, MaxMem=   131072000 cpu:               0.2 elap:               0.3
 (Enter /opt/g16/l103.exe)

 GradGradGradGradGradGradGradGradGradGradGradGradGradGradGradGradGradGrad
 Berny optimization.
 Initialization pass.
                           ----------------------------
                           !    Initial Parameters    !
                           ! (Angstroms and Degrees)  !
 --------------------------                            --------------------------
 ! Name  Definition              Value          Derivative Info.                !
 --------------------------------------------------------------------------------
 ! R1    R(1,2)                  1.0984         estimate D2E/DX2                !
 ! R2    R(1,3)                  1.0964         estimate D2E/DX2                !
 ! R3    R(1,4)                  1.5209         estimate D2E/DX2                !
 ! R4    R(1,26)                 1.5395         estimate D2E/DX2                !
 ! R5    R(4,5)                  1.5044         estimate D2E/DX2                !
 ! R6    R(4,9)                  1.3475         estimate D2E/DX2                !
 ! R7    R(5,6)                  1.0933         estimate D2E/DX2                !
 ! R8    R(5,7)                  1.0951         estimate D2E/DX2                !
 ! R9    R(5,8)                  1.0935         estimate D2E/DX2                !
 ! R10   R(9,10)                 1.0899         estimate D2E/DX2                !
 ! R11   R(9,11)                 1.4947         estimate D2E/DX2                !
 ! R12   R(11,12)                1.0916         estimate D2E/DX2                !
 ! R13   R(11,13)                1.0954         estimate D2E/DX2                !
 ! R14   R(11,14)                1.094          estimate D2E/DX2                !
 ! R15   R(15,16)                1.0956         estimate D2E/DX2                !
 ! R16   R(15,17)                1.0942         estimate D2E/DX2                !
 ! R17   R(15,18)                1.0956         estimate D2E/DX2                !
 ! R18   R(15,19)                1.5045         estimate D2E/DX2                !
 ! R19   R(19,20)                1.5049         estimate D2E/DX2                !
 ! R20   R(19,24)                1.3485         estimate D2E/DX2                !
 ! R21   R(20,21)                1.0918         estimate D2E/DX2                !
 ! R22   R(20,22)                1.0948         estimate D2E/DX2                !
 ! R23   R(20,23)                1.0943         estimate D2E/DX2                !
 ! R24   R(24,25)                1.09           estimate D2E/DX2                !
 ! R25   R(24,26)                1.5088         estimate D2E/DX2                !
 ! R26   R(26,27)                1.0977         estimate D2E/DX2                !
 ! R27   R(26,28)                1.0938         estimate D2E/DX2                !
 ! A1    A(2,1,3)              105.4082         estimate D2E/DX2                !
 ! A2    A(2,1,4)              110.19           estimate D2E/DX2                !
 ! A3    A(2,1,26)             109.2917         estimate D2E/DX2                !
 ! A4    A(3,1,4)              109.2689         estimate D2E/DX2                !
 ! A5    A(3,1,26)             109.2069         estimate D2E/DX2                !
 ! A6    A(4,1,26)             113.1785         estimate D2E/DX2                !
 ! A7    A(1,4,5)              115.484          estimate D2E/DX2                !
 ! A8    A(1,4,9)              119.9324         estimate D2E/DX2                !
 ! A9    A(5,4,9)              124.5599         estimate D2E/DX2                !
 ! A10   A(4,5,6)              112.7345         estimate D2E/DX2                !
 ! A11   A(4,5,7)              110.4885         estimate D2E/DX2                !
 ! A12   A(4,5,8)              110.5072         estimate D2E/DX2                !
 ! A13   A(6,5,7)              106.3111         estimate D2E/DX2                !
 ! A14   A(6,5,8)              108.384          estimate D2E/DX2                !
 ! A15   A(7,5,8)              108.2277         estimate D2E/DX2                !
 ! A16   A(4,9,10)             118.2126         estimate D2E/DX2                !
 ! A17   A(4,9,11)             127.9728         estimate D2E/DX2                !
 ! A18   A(10,9,11)            113.6153         estimate D2E/DX2                !
 ! A19   A(9,11,12)            113.6531         estimate D2E/DX2                !
 ! A20   A(9,11,13)            109.0402         estimate D2E/DX2                !
 ! A21   A(9,11,14)            110.1009         estimate D2E/DX2                !
 ! A22   A(12,11,13)           107.1945         estimate D2E/DX2                !
 ! A23   A(12,11,14)           108.583          estimate D2E/DX2                !
 ! A24   A(13,11,14)           108.093          estimate D2E/DX2                !
 ! A25   A(16,15,17)           107.6529         estimate D2E/DX2                !
 ! A26   A(16,15,18)           107.6791         estimate D2E/DX2                !
 ! A27   A(16,15,19)           112.3864         estimate D2E/DX2                !
 ! A28   A(17,15,18)           108.4869         estimate D2E/DX2                !
 ! A29   A(17,15,19)           109.9591         estimate D2E/DX2                !
 ! A30   A(18,15,19)           110.5447         estimate D2E/DX2                !
 ! A31   A(15,19,20)           114.2922         estimate D2E/DX2                !
 ! A32   A(15,19,24)           120.7881         estimate D2E/DX2                !
 ! A33   A(20,19,24)           124.8439         estimate D2E/DX2                !
 ! A34   A(19,20,21)           113.2334         estimate D2E/DX2                !
 ! A35   A(19,20,22)           110.337          estimate D2E/DX2                !
 ! A36   A(19,20,23)           110.0282         estimate D2E/DX2                !
 ! A37   A(21,20,22)           106.5633         estimate D2E/DX2                !
 ! A38   A(21,20,23)           108.3076         estimate D2E/DX2                !
 ! A39   A(22,20,23)           108.1912         estimate D2E/DX2                !
 ! A40   A(19,24,25)           118.424          estimate D2E/DX2                !
 ! A41   A(19,24,26)           127.3638         estimate D2E/DX2                !
 ! A42   A(25,24,26)           114.0873         estimate D2E/DX2                !
 ! A43   A(1,26,24)            112.2864         estimate D2E/DX2                !
 ! A44   A(1,26,27)            108.6784         estimate D2E/DX2                !
 ! A45   A(1,26,28)            110.3326         estimate D2E/DX2                !
 ! A46   A(24,26,27)           107.7088         estimate D2E/DX2                !
 ! A47   A(24,26,28)           112.0271         estimate D2E/DX2                !
 ! A48   A(27,26,28)           105.4896         estimate D2E/DX2                !
 ! D1    D(2,1,4,5)            155.8227         estimate D2E/DX2                !
 ! D2    D(2,1,4,9)            -25.8654         estimate D2E/DX2                !
 ! D3    D(3,1,4,5)             40.454          estimate D2E/DX2                !
 ! D4    D(3,1,4,9)           -141.2341         estimate D2E/DX2                !
 ! D5    D(26,1,4,5)           -81.4691         estimate D2E/DX2                !
 ! D6    D(26,1,4,9)            96.8428         estimate D2E/DX2                !
 ! D7    D(2,1,26,24)           57.8417         estimate D2E/DX2                !
 ! D8    D(2,1,26,27)          -61.208          estimate D2E/DX2                !
 ! D9    D(2,1,26,28)         -176.4167         estimate D2E/DX2                !
 ! D10   D(3,1,26,24)          172.6785         estimate D2E/DX2                !
 ! D11   D(3,1,26,27)           53.6288         estimate D2E/DX2                !
 ! D12   D(3,1,26,28)          -61.5798         estimate D2E/DX2                !
 ! D13   D(4,1,26,24)          -65.3637         estimate D2E/DX2                !
 ! D14   D(4,1,26,27)          175.5866         estimate D2E/DX2                !
 ! D15   D(4,1,26,28)           60.3779         estimate D2E/DX2                !
 ! D16   D(1,4,5,6)           -161.5217         estimate D2E/DX2                !
 ! D17   D(1,4,5,7)            -42.7289         estimate D2E/DX2                !
 ! D18   D(1,4,5,8)             77.0245         estimate D2E/DX2                !
 ! D19   D(9,4,5,6)             20.2548         estimate D2E/DX2                !
 ! D20   D(9,4,5,7)            139.0476         estimate D2E/DX2                !
 ! D21   D(9,4,5,8)           -101.1991         estimate D2E/DX2                !
 ! D22   D(1,4,9,10)             1.708          estimate D2E/DX2                !
 ! D23   D(1,4,9,11)          -172.8028         estimate D2E/DX2                !
 ! D24   D(5,4,9,10)           179.8576         estimate D2E/DX2                !
 ! D25   D(5,4,9,11)             5.3468         estimate D2E/DX2                !
 ! D26   D(4,9,11,12)            1.8797         estimate D2E/DX2                !
 ! D27   D(4,9,11,13)          121.3889         estimate D2E/DX2                !
 ! D28   D(4,9,11,14)         -120.1772         estimate D2E/DX2                !
 ! D29   D(10,9,11,12)        -172.8417         estimate D2E/DX2                !
 ! D30   D(10,9,11,13)         -53.3324         estimate D2E/DX2                !
 ! D31   D(10,9,11,14)          65.1015         estimate D2E/DX2                !
 ! D32   D(16,15,19,20)        178.8581         estimate D2E/DX2                !
 ! D33   D(16,15,19,24)         -4.1593         estimate D2E/DX2                !
 ! D34   D(17,15,19,20)        -61.2406         estimate D2E/DX2                !
 ! D35   D(17,15,19,24)        115.742          estimate D2E/DX2                !
 ! D36   D(18,15,19,20)         58.5194         estimate D2E/DX2                !
 ! D37   D(18,15,19,24)       -124.4981         estimate D2E/DX2                !
 ! D38   D(15,19,20,21)       -164.845          estimate D2E/DX2                !
 ! D39   D(15,19,20,22)        -45.5063         estimate D2E/DX2                !
 ! D40   D(15,19,20,23)         73.8005         estimate D2E/DX2                !
 ! D41   D(24,19,20,21)         18.3136         estimate D2E/DX2                !
 ! D42   D(24,19,20,22)        137.6523         estimate D2E/DX2                !
 ! D43   D(24,19,20,23)       -103.0409         estimate D2E/DX2                !
 ! D44   D(15,19,24,25)          1.6398         estimate D2E/DX2                !
 ! D45   D(15,19,24,26)       -174.0381         estimate D2E/DX2                !
 ! D46   D(20,19,24,25)        178.2883         estimate D2E/DX2                !
 ! D47   D(20,19,24,26)          2.6105         estimate D2E/DX2                !
 ! D48   D(19,24,26,1)          98.2159         estimate D2E/DX2                !
 ! D49   D(19,24,26,27)       -142.1673         estimate D2E/DX2                !
 ! D50   D(19,24,26,28)        -26.5977         estimate D2E/DX2                !
 ! D51   D(25,24,26,1)         -77.6208         estimate D2E/DX2                !
 ! D52   D(25,24,26,27)         41.996          estimate D2E/DX2                !
 ! D53   D(25,24,26,28)        157.5657         estimate D2E/DX2                !
 --------------------------------------------------------------------------------
 Trust Radius=3.00D-01 FncErr=1.00D-07 GrdErr=1.00D-07 EigMax=2.50D+02 EigMin=1.00D-04
 Number of steps in this run=    138 maximum allowed number of steps=    168.
 GradGradGradGradGradGradGradGradGradGradGradGradGradGradGradGradGradGrad

 Leave Link  103 at Tue Jul 27 12:13:49 2021, MaxMem=   131072000 cpu:               0.0 elap:               0.0
 (Enter /opt/g16/l202.exe)
                          Input orientation:                          
 ---------------------------------------------------------------------
 Center     Atomic      Atomic             Coordinates (Angstroms)
 Number     Number       Type             X           Y           Z
 ---------------------------------------------------------------------
      1          6           0        2.147300    1.173600   -9.007400
      2          1           0        1.824800    0.134100   -9.155200
      3          1           0        1.896400    1.691900   -9.940400
      4          6           0        3.651600    1.230700   -8.790400
      5          6           0        4.305800    2.541200   -9.133600
      6          1           0        5.386200    2.450100   -9.274100
      7          1           0        3.905500    2.934800  -10.073800
      8          1           0        4.121200    3.278900   -8.347800
      9          6           0        4.299500    0.161400   -8.287900
     10          1           0        3.721600   -0.737600   -8.074200
     11          6           0        5.730600    0.067500   -7.866700
     12          1           0        6.278800    1.006200   -7.965900
     13          1           0        5.774200   -0.223000   -6.811400
     14          1           0        6.245200   -0.700300   -8.452000
     15          6           0        2.463800    0.354700   -4.376800
     16          1           0        1.777400   -0.496000   -4.451000
     17          1           0        3.482200   -0.043300   -4.335200
     18          1           0        2.253600    0.870500   -3.433400
     19          6           0        2.329700    1.302100   -5.537800
     20          6           0        3.235100    2.502000   -5.465500
     21          1           0        2.950800    3.298300   -6.156200
     22          1           0        3.211100    2.936800   -4.461000
     23          1           0        4.265800    2.207600   -5.685800
     24          6           0        1.501200    1.022800   -6.564500
     25          1           0        0.910700    0.107700   -6.520500
     26          6           0        1.344200    1.795700   -7.850700
     27          1           0        0.279500    1.787200   -8.117500
     28          1           0        1.606700    2.850700   -7.730000
 ---------------------------------------------------------------------
                    Distance matrix (angstroms):
                    1          2          3          4          5
     1  C    0.000000
     2  H    1.098368   0.000000
     3  H    1.096392   1.745969   0.000000
     4  C    1.520943   2.161668   2.148472   0.000000
     5  C    2.558394   3.456871   2.679075   1.504385   0.000000
     6  H    3.491569   4.249890   3.632840   2.174796   1.093299
     7  H    2.707453   3.607916   2.366237   2.148380   1.095051
     8  H    2.960345   3.976822   3.163017   2.147450   1.093508
     9  C    2.484793   2.622422   3.293642   1.347473   2.525608
    10  H    2.646123   2.350802   3.566024   2.095721   3.494874
    11  C    3.919782   4.113386   4.651881   2.555092   3.123185
    12  H    4.264040   4.691813   4.855334   2.762676   2.759072
    13  H    4.464002   4.606374   5.338054   3.245784   3.897385
    14  H    4.540127   4.553092   5.181700   3.251159   3.838382
    15  C    4.713091   4.825981   5.750104   4.653827   5.549855
    16  H    4.866741   4.746448   5.910548   5.032346   6.127327
    17  H    5.009217   5.100083   6.078153   4.636872   5.512041
    18  H    5.583247   5.784907   6.568359   5.548117   6.284508
    19  C    3.476767   3.834675   4.441011   3.511684   4.286038
    20  C    3.936116   4.605408   4.740581   3.583941   3.821373
    21  H    3.645450   4.502670   4.244108   3.421272   3.357698
    22  H    4.991022   5.640254   5.770792   4.674240   4.815398
    23  H    4.073110   4.721718   4.897104   3.312117   3.464132
    24  C    2.531392   2.757940   3.464185   3.101947   4.095314
    25  H    2.974894   2.788892   3.895768   3.731770   4.927161
    26  C    1.539459   2.166474   2.163919   2.554673   3.312503
    27  H    2.158032   2.489480   2.438527   3.483324   4.220434
    28  H    2.176388   3.075496   2.512491   2.816108   3.057944
                    6          7          8          9         10
     6  H    0.000000
     7  H    1.751264   0.000000
     8  H    1.773462   1.773135   0.000000
     9  C    2.718760   3.322111   3.123169   0.000000
    10  H    3.791053   4.185540   4.045591   1.089879   0.000000
    11  C    2.788578   4.052615   3.624185   1.494749   2.174241
    12  H    2.143121   3.714202   3.156937   2.176005   3.097069
    13  H    3.655256   4.909887   4.166082   2.121923   2.464273
    14  H    3.367306   4.617183   4.511792   2.134292   2.551996
    15  C    6.075744   6.418039   5.202573   4.324796   4.055360
    16  H    6.705612   6.922072   5.910019   4.638423   4.118964
    17  H    5.851068   6.479181   5.248456   4.041500   3.810444
    18  H    6.813376   7.147379   5.782702   5.315515   5.126211
    19  C    4.961858   5.071898   3.874701   3.569924   3.539927
    20  C    4.374398   4.676877   3.113904   3.818023   4.187721
    21  H    4.046223   4.048601   2.484617   4.025330   4.534462
    22  H    5.304137   5.655592   4.006561   4.851044   5.178517
    23  H    3.766962   4.462419   2.873123   3.310437   3.830772
    24  C    4.946953   4.663860   3.890314   3.397440   3.210666
    25  H    5.753195   5.439417   4.868557   3.822375   3.321095
    26  C    4.334982   3.577706   3.187275   3.405272   3.481320
    27  H    5.277835   4.276911   4.127574   4.339661   4.269021
    28  H    4.102359   3.284045   2.624451   3.846396   4.179375
                   11         12         13         14         15
    11  C    0.000000
    12  H    1.091568   0.000000
    13  H    1.095422   1.760234   0.000000
    14  H    1.094032   1.774701   1.772350   0.000000
    15  C    4.788932   5.278287   4.149670   5.658557   0.000000
    16  H    5.254743   5.905398   4.649777   6.000915   1.095601
    17  H    4.187967   4.701532   3.378923   5.001386   1.094200
    18  H    5.691088   6.063349   5.000125   6.602017   1.095553
    19  C    4.302805   4.645279   3.976502   5.275728   1.504483
    20  C    4.233211   4.213494   3.960316   5.313625   2.528056
    21  H    4.592512   4.427677   4.560749   5.666795   3.473934
    22  H    5.116596   5.042055   4.698744   6.193734   2.689384
    23  H    3.388509   3.270227   3.074095   4.475016   2.897227
    24  C    4.527267   4.978921   4.457747   5.388624   2.481731
    25  H    5.004529   5.631428   4.883402   5.730658   2.658680
    26  C    4.714598   4.998686   4.977971   5.532755   3.924024
    27  H    5.721430   6.051822   5.994875   6.472181   4.562462
    28  H    4.977092   5.028553   5.259231   5.886133   4.267152
                   16         17         18         19         20
    16  H    0.000000
    17  H    1.767679   0.000000
    18  H    1.769067   1.777001   0.000000
    19  C    2.172403   2.141169   2.149551   0.000000
    20  C    3.484552   2.795924   2.784702   1.504904   0.000000
    21  H    4.322185   3.842488   3.714019   2.180137   1.091781
    22  H    3.720176   2.995049   2.498472   2.146767   1.094828
    23  H    3.876380   2.739471   3.303043   2.142503   1.094324
    24  C    2.617236   3.167129   3.223831   1.348530   2.530265
    25  H    2.323457   3.378010   3.451873   2.099012   3.499790
    26  C    4.122804   4.506851   4.603862   2.562100   3.124667
    27  H    4.571644   5.283352   5.165095   3.330690   4.034800
    28  H    4.688430   4.839153   4.774981   2.779682   2.810914
                   21         22         23         24         25
    21  H    0.000000
    22  H    1.752753   0.000000
    23  H    1.772041   1.773206   0.000000
    24  C    2.728727   3.318413   3.133509   0.000000
    25  H    3.804557   4.187742   4.045121   1.089970   0.000000
    26  C    2.776743   4.034537   3.659536   1.508752   2.192418
    27  H    3.642247   4.825542   4.688335   2.118648   2.401987
    28  H    2.117498   3.642509   3.415135   2.170424   3.077557
                   26         27         28
    26  C    0.000000
    27  H    1.097652   0.000000
    28  H    1.093846   1.744319   0.000000
 Stoichiometry    C10H18
 Framework group  C1[X(C10H18)]
 Deg. of freedom    78
 Full point group                 C1      NOp   1
 Largest Abelian subgroup         C1      NOp   1
 Largest concise Abelian subgroup C1      NOp   1
                         Standard orientation:                         
 ---------------------------------------------------------------------
 Center     Atomic      Atomic             Coordinates (Angstroms)
 Number     Number       Type             X           Y           Z
 ---------------------------------------------------------------------
      1          6           0       -1.020159   -1.588072   -0.711608
      2          1           0       -0.966084   -1.538280   -1.807513
      3          1           0       -1.718498   -2.404043   -0.491179
      4          6           0       -1.576339   -0.286989   -0.153830
      5          6           0       -2.227082   -0.388361    1.198735
      6          1           0       -2.881136    0.459945    1.417582
      7          1           0       -2.855063   -1.283637    1.255815
      8          1           0       -1.469365   -0.451377    1.984645
      9          6           0       -1.436079    0.857710   -0.850732
     10          1           0       -0.944742    0.812377   -1.822519
     11          6           0       -1.775262    2.246875   -0.415475
     12          1           0       -2.153299    2.305470    0.606864
     13          1           0       -0.873252    2.866592   -0.463205
     14          1           0       -2.521167    2.680157   -1.088378
     15          6           0        2.865801    1.066809   -0.458344
     16          1           0        3.159493    0.785121   -1.475565
     17          1           0        2.407470    2.059145   -0.508087
     18          1           0        3.778068    1.135326    0.144410
     19          6           0        1.902049    0.086011    0.152136
     20          6           0        1.490698    0.417616    1.561237
     21          1           0        1.013251   -0.417083    2.078255
     22          1           0        2.365836    0.694816    2.157844
     23          1           0        0.796381    1.263470    1.559761
     24          6           0        1.425501   -0.951357   -0.565710
     25          1           0        1.775948   -1.077983   -1.590009
     26          6           0        0.368145   -1.943890   -0.149524
     27          1           0        0.662696   -2.927711   -0.537051
     28          1           0        0.319828   -2.060419    0.937023
 ---------------------------------------------------------------------
 Rotational constants (GHZ):           1.5168999           0.9354519           0.7603383
 Leave Link  202 at Tue Jul 27 12:13:49 2021, MaxMem=   131072000 cpu:               0.0 elap:               0.0
 (Enter /opt/g16/l301.exe)
 Standard basis: VSTO-6G (5D, 7F)
 Ernie: Thresh=  0.10000D-02 Tol=  0.10000D-05 Strict=F.
  NNHCO=     0 NNPyr=     0 NCTC=     0               EPep=         0.000000000
    EC=       260.950235475  ECS=         3.522316002   EG=         0.891974065
   EHC=         0.000000000  EAt=       -49.524085099  AtH=         4.217842293
 EPDDG=         0.000000000  ECC=       265.364525542 EAtT=        53.741927392
 There are    58 symmetry adapted cartesian basis functions of A   symmetry.
 There are    58 symmetry adapted basis functions of A   symmetry.
    58 basis functions,   348 primitive gaussians,    58 cartesian basis functions
    29 alpha electrons       29 beta electrons
       nuclear repulsion energy       319.1064529339 Hartrees.
 IExCor=    0 DFT=F Ex=HF Corr=None ExCW=0 ScaHFX=  1.000000
 ScaDFX=  1.000000  1.000000  1.000000  1.000000 ScalE2=  1.000000  1.000000
 IRadAn=      5 IRanWt=     -1 IRanGd=            0 ICorTp=0 IEmpDi=  4
 Integral buffers will be    131072 words long.
 Regular integral format.
 Two-electron integral symmetry is turned off.
 Leave Link  301 at Tue Jul 27 12:13:49 2021, MaxMem=   131072000 cpu:               0.0 elap:               0.1
 (Enter /opt/g16/l302.exe)
 Do NDO integrals.
 NPDir=0 NMtPBC=     1 NCelOv=     1 NCel=       1 NClECP=     1 NCelD=      1
         NCelK=      1 NCelE2=     1 NClLst=     1 CellRange=     0.0.
 One-electron integrals computed using PRISM.
 NBasis=    58 RedAO= F EigKep=  0.00D+00  NBF=    58
 NBsUse=    58 1.00D-04 EigRej=  0.00D+00 NBFU=    58
 Leave Link  302 at Tue Jul 27 12:13:49 2021, MaxMem=   131072000 cpu:               0.1 elap:               0.1
 (Enter /opt/g16/l303.exe)
 DipDrv:  MaxL=1.
 Leave Link  303 at Tue Jul 27 12:13:49 2021, MaxMem=   131072000 cpu:               0.0 elap:               0.0
 (Enter /opt/g16/l401.exe)
 Simple Huckel Guess.
 JPrj=0 DoOrth=F DoCkMO=F.
 Leave Link  401 at Tue Jul 27 12:13:49 2021, MaxMem=   131072000 cpu:               0.1 elap:               0.1
 (Enter /opt/g16/l502.exe)
 Keep J ints in memory in canonical form, NReq=866866.
 FoFCou: FMM=F IPFlag=           0 FMFlag=           0 FMFlg1=           0
         NFxFlg=           0 DoJE=F BraDBF=F KetDBF=F FulRan=T
         wScrn=  0.000000 ICntrl=       600 IOpCl=  2 I1Cent=           0 NGrid=           0
         NMat0=    1 NMatS0=    118 NMatT0=    0 NMatD0=    1 NMtDS0=    0 NMtDT0=    0
 Symmetry not used in FoFCou.
 Two-electron integral symmetry not used.
 Closed shell SCF:
 Using DIIS extrapolation, IDIIS=  1040.
 Overlap will be assumed to be unity.
 NGot=   131072000 LenX=   130997697 LenY=   130993892
 Requested convergence on RMS density matrix=1.00D-08 within 128 cycles.
 Requested convergence on MAX density matrix=1.00D-06.
 Requested convergence on             energy=1.00D-06.
 No special actions if energy rises.

 Cycle   1  Pass 1  IDiag  1:
 E= 0.218689855547893    
 DIIS: error= 2.75D-02 at cycle   1 NSaved=   1.
 NSaved= 1 IEnMin= 1 EnMin= 0.218689855547893     IErMin= 1 ErrMin= 2.75D-02
 ErrMax= 2.75D-02  0.00D+00 EMaxC= 1.00D-01 BMatC= 9.43D-02 BMatP= 9.43D-02
 IDIUse=3 WtCom= 7.25D-01 WtEn= 2.75D-01
 Coeff-Com:  0.100D+01
 Coeff-En:   0.100D+01
 Coeff:      0.100D+01
 GapD=    2.000 DampG=2.000 DampE=0.500 DampFc=1.0000 IDamp=-1.
 RMSDP=7.15D-03 MaxDP=8.52D-02              OVMax= 0.00D+00

 Cycle   2  Pass 1  IDiag  1:
 E=-0.661259816638449E-03 Delta-E=       -0.219351115365 Rises=F Damp=F
 DIIS: error= 7.93D-03 at cycle   2 NSaved=   2.
 NSaved= 2 IEnMin= 2 EnMin=-0.661259816638449E-03 IErMin= 2 ErrMin= 7.93D-03
 ErrMax= 7.93D-03  0.00D+00 EMaxC= 1.00D-01 BMatC= 6.03D-03 BMatP= 9.43D-02
 IDIUse=3 WtCom= 9.21D-01 WtEn= 7.93D-02
 Coeff-Com: -0.316D+00 0.132D+01
 Coeff-En:   0.000D+00 0.100D+01
 Coeff:     -0.291D+00 0.129D+01
 RMSDP=2.60D-03 MaxDP=2.86D-02 DE=-2.19D-01 OVMax= 0.00D+00

 Cycle   3  Pass 1  IDiag  3:
 E=-0.179879570599724E-01 Delta-E=       -0.017326697243 Rises=F Damp=F
 DIIS: error= 9.37D-04 at cycle   3 NSaved=   3.
 NSaved= 3 IEnMin= 3 EnMin=-0.179879570599724E-01 IErMin= 3 ErrMin= 9.37D-04
 ErrMax= 9.37D-04  0.00D+00 EMaxC= 1.00D-01 BMatC= 7.45D-05 BMatP= 6.03D-03
 IDIUse=3 WtCom= 9.91D-01 WtEn= 9.37D-03
 Coeff-Com:  0.109D+00-0.509D+00 0.140D+01
 Coeff-En:   0.000D+00 0.000D+00 0.100D+01
 Coeff:      0.108D+00-0.504D+00 0.140D+01
 Gap=     0.379 Goal=   None    Shift=    0.000
 RMSDP=4.38D-04 MaxDP=4.10D-03 DE=-1.73D-02 OVMax= 6.63D-03

 Cycle   4  Pass 1  IDiag  3:
 E=-0.183341020180592E-01 Delta-E=       -0.000346144958 Rises=F Damp=F
 DIIS: error= 1.78D-04 at cycle   4 NSaved=   4.
 NSaved= 4 IEnMin= 4 EnMin=-0.183341020180592E-01 IErMin= 4 ErrMin= 1.78D-04
 ErrMax= 1.78D-04  0.00D+00 EMaxC= 1.00D-01 BMatC= 3.24D-06 BMatP= 7.45D-05
 IDIUse=3 WtCom= 9.98D-01 WtEn= 1.78D-03
 Coeff-Com: -0.470D-01 0.226D+00-0.734D+00 0.155D+01
 Coeff-En:   0.000D+00 0.000D+00 0.000D+00 0.100D+01
 Coeff:     -0.469D-01 0.226D+00-0.732D+00 0.155D+01
 Gap=     0.379 Goal=   None    Shift=    0.000
 RMSDP=1.10D-04 MaxDP=1.15D-03 DE=-3.46D-04 OVMax= 1.16D-03

 Cycle   5  Pass 1  IDiag  3:
 E=-0.183525476793420E-01 Delta-E=       -0.000018445661 Rises=F Damp=F
 DIIS: error= 5.00D-05 at cycle   5 NSaved=   5.
 NSaved= 5 IEnMin= 5 EnMin=-0.183525476793420E-01 IErMin= 5 ErrMin= 5.00D-05
 ErrMax= 5.00D-05  0.00D+00 EMaxC= 1.00D-01 BMatC= 1.79D-07 BMatP= 3.24D-06
 IDIUse=1 WtCom= 1.00D+00 WtEn= 0.00D+00
 Coeff-Com:  0.123D-01-0.592D-01 0.200D+00-0.564D+00 0.141D+01
 Coeff:      0.123D-01-0.592D-01 0.200D+00-0.564D+00 0.141D+01
 Gap=     0.379 Goal=   None    Shift=    0.000
 RMSDP=2.61D-05 MaxDP=3.02D-04 DE=-1.84D-05 OVMax= 2.00D-04

 Cycle   6  Pass 1  IDiag  3:
 E=-0.183536322795703E-01 Delta-E=       -0.000001084600 Rises=F Damp=F
 DIIS: error= 1.73D-05 at cycle   6 NSaved=   6.
 NSaved= 6 IEnMin= 6 EnMin=-0.183536322795703E-01 IErMin= 6 ErrMin= 1.73D-05
 ErrMax= 1.73D-05  0.00D+00 EMaxC= 1.00D-01 BMatC= 1.56D-08 BMatP= 1.79D-07
 IDIUse=1 WtCom= 1.00D+00 WtEn= 0.00D+00
 Coeff-Com: -0.423D-02 0.202D-01-0.669D-01 0.192D+00-0.693D+00 0.155D+01
 Coeff:     -0.423D-02 0.202D-01-0.669D-01 0.192D+00-0.693D+00 0.155D+01
 Gap=     0.379 Goal=   None    Shift=    0.000
 RMSDP=9.06D-06 MaxDP=1.13D-04 DE=-1.08D-06 OVMax= 9.12D-05

 Cycle   7  Pass 1  IDiag  3:
 E=-0.183537394756854E-01 Delta-E=       -0.000000107196 Rises=F Damp=F
 DIIS: error= 3.75D-06 at cycle   7 NSaved=   7.
 NSaved= 7 IEnMin= 7 EnMin=-0.183537394756854E-01 IErMin= 7 ErrMin= 3.75D-06
 ErrMax= 3.75D-06  0.00D+00 EMaxC= 1.00D-01 BMatC= 1.15D-09 BMatP= 1.56D-08
 IDIUse=1 WtCom= 1.00D+00 WtEn= 0.00D+00
 Coeff-Com:  0.965D-03-0.455D-02 0.146D-01-0.424D-01 0.220D+00-0.759D+00
 Coeff-Com:  0.157D+01
 Coeff:      0.965D-03-0.455D-02 0.146D-01-0.424D-01 0.220D+00-0.759D+00
 Coeff:      0.157D+01
 Gap=     0.379 Goal=   None    Shift=    0.000
 RMSDP=2.60D-06 MaxDP=2.79D-05 DE=-1.07D-07 OVMax= 3.51D-05

 Cycle   8  Pass 1  IDiag  3:
 E=-0.183537473661772E-01 Delta-E=       -0.000000007890 Rises=F Damp=F
 DIIS: error= 1.10D-06 at cycle   8 NSaved=   8.
 NSaved= 8 IEnMin= 8 EnMin=-0.183537473661772E-01 IErMin= 8 ErrMin= 1.10D-06
 ErrMax= 1.10D-06  0.00D+00 EMaxC= 1.00D-01 BMatC= 5.75D-11 BMatP= 1.15D-09
 IDIUse=1 WtCom= 1.00D+00 WtEn= 0.00D+00
 Coeff-Com: -0.816D-04 0.364D-03-0.101D-02 0.325D-02-0.394D-01 0.194D+00
 Coeff-Com: -0.591D+00 0.143D+01
 Coeff:     -0.816D-04 0.364D-03-0.101D-02 0.325D-02-0.394D-01 0.194D+00
 Coeff:     -0.591D+00 0.143D+01
 Gap=     0.379 Goal=   None    Shift=    0.000
 RMSDP=5.41D-07 MaxDP=7.04D-06 DE=-7.89D-09 OVMax= 8.44D-06

 Cycle   9  Pass 1  IDiag  3:
 E=-0.183537477505524E-01 Delta-E=       -0.000000000384 Rises=F Damp=F
 DIIS: error= 3.58D-07 at cycle   9 NSaved=   9.
 NSaved= 9 IEnMin= 9 EnMin=-0.183537477505524E-01 IErMin= 9 ErrMin= 3.58D-07
 ErrMax= 3.58D-07  0.00D+00 EMaxC= 1.00D-01 BMatC= 4.76D-12 BMatP= 5.75D-11
 IDIUse=1 WtCom= 1.00D+00 WtEn= 0.00D+00
 Coeff-Com:  0.223D-04-0.921D-04 0.180D-03-0.555D-03 0.151D-01-0.855D-01
 Coeff-Com:  0.284D+00-0.882D+00 0.167D+01
 Coeff:      0.223D-04-0.921D-04 0.180D-03-0.555D-03 0.151D-01-0.855D-01
 Coeff:      0.284D+00-0.882D+00 0.167D+01
 Gap=     0.379 Goal=   None    Shift=    0.000
 RMSDP=1.74D-07 MaxDP=2.40D-06 DE=-3.84D-10 OVMax= 2.61D-06

 Cycle  10  Pass 1  IDiag  3:
 E=-0.183537477846016E-01 Delta-E=       -0.000000000034 Rises=F Damp=F
 DIIS: error= 6.45D-08 at cycle  10 NSaved=  10.
 NSaved=10 IEnMin=10 EnMin=-0.183537477846016E-01 IErMin=10 ErrMin= 6.45D-08
 ErrMax= 6.45D-08  0.00D+00 EMaxC= 1.00D-01 BMatC= 2.43D-13 BMatP= 4.76D-12
 IDIUse=1 WtCom= 1.00D+00 WtEn= 0.00D+00
 Coeff-Com: -0.683D-06-0.198D-05 0.486D-04-0.105D-03-0.415D-02 0.268D-01
 Coeff-Com: -0.940D-01 0.323D+00-0.792D+00 0.154D+01
 Coeff:     -0.683D-06-0.198D-05 0.486D-04-0.105D-03-0.415D-02 0.268D-01
 Coeff:     -0.940D-01 0.323D+00-0.792D+00 0.154D+01
 Gap=     0.379 Goal=   None    Shift=    0.000
 RMSDP=3.71D-08 MaxDP=4.91D-07 DE=-3.40D-11 OVMax= 4.49D-07

 Cycle  11  Pass 1  IDiag  3:
 E=-0.183537477856817E-01 Delta-E=       -0.000000000001 Rises=F Damp=F
 DIIS: error= 1.17D-08 at cycle  11 NSaved=  11.
 NSaved=11 IEnMin=11 EnMin=-0.183537477856817E-01 IErMin=11 ErrMin= 1.17D-08
 ErrMax= 1.17D-08  0.00D+00 EMaxC= 1.00D-01 BMatC= 8.69D-15 BMatP= 2.43D-13
 IDIUse=1 WtCom= 1.00D+00 WtEn= 0.00D+00
 Coeff-Com: -0.160D-06 0.265D-05-0.237D-04 0.570D-04 0.141D-02-0.938D-02
 Coeff-Com:  0.333D-01-0.117D+00 0.301D+00-0.699D+00 0.149D+01
 Coeff:     -0.160D-06 0.265D-05-0.237D-04 0.570D-04 0.141D-02-0.938D-02
 Coeff:      0.333D-01-0.117D+00 0.301D+00-0.699D+00 0.149D+01
 Gap=     0.379 Goal=   None    Shift=    0.000
 RMSDP=6.14D-09 MaxDP=8.80D-08 DE=-1.08D-12 OVMax= 6.11D-08

 Cycle  12  Pass 2  IDiag  1:
 SCF Done:  E(RPM3) = -0.183537477857E-01 A.U. after   12 cycles
            NFock= 11  Conv=0.61D-08     -V/T= 0.9998
 KE=-7.900865507901D+01 PE=-5.205991188560D+02 EE= 2.804829672533D+02
 Leave Link  502 at Tue Jul 27 12:13:49 2021, MaxMem=   131072000 cpu:               0.1 elap:               0.1
 (Enter /opt/g16/l601.exe)
 Copying SCF densities to generalized density rwf, IOpCl= 0 IROHF=0.

 **********************************************************************

            Population analysis using the SCF density.

 **********************************************************************

 Orbital symmetries:
       Occupied  (A) (A) (A) (A) (A) (A) (A) (A) (A) (A) (A) (A)
                 (A) (A) (A) (A) (A) (A) (A) (A) (A) (A) (A) (A)
                 (A) (A) (A) (A) (A)
       Virtual   (A) (A) (A) (A) (A) (A) (A) (A) (A) (A) (A) (A)
                 (A) (A) (A) (A) (A) (A) (A) (A) (A) (A) (A) (A)
                 (A) (A) (A) (A) (A)
 The electronic state is 1-A.
 Alpha  occ. eigenvalues --   -1.46378  -1.32816  -1.19772  -1.08134  -1.01224
 Alpha  occ. eigenvalues --   -0.95763  -0.88815  -0.78155  -0.66124  -0.65101
 Alpha  occ. eigenvalues --   -0.61046  -0.58411  -0.57354  -0.56125  -0.54750
 Alpha  occ. eigenvalues --   -0.53569  -0.51584  -0.50331  -0.49211  -0.48458
 Alpha  occ. eigenvalues --   -0.47978  -0.47426  -0.46829  -0.46159  -0.45272
 Alpha  occ. eigenvalues --   -0.43733  -0.42397  -0.34966  -0.34212
 Alpha virt. eigenvalues --    0.03665   0.04385   0.12203   0.12319   0.13390
 Alpha virt. eigenvalues --    0.13844   0.14005   0.14266   0.14906   0.15279
 Alpha virt. eigenvalues --    0.15689   0.15753   0.16007   0.16110   0.16439
 Alpha virt. eigenvalues --    0.16590   0.16692   0.16766   0.16956   0.17157
 Alpha virt. eigenvalues --    0.17199   0.17347   0.17721   0.17997   0.18166
 Alpha virt. eigenvalues --    0.20879   0.21379   0.22441   0.22707
          Condensed to atoms (all electrons):
               1          2          3          4          5          6
     1  C    4.047338   0.000000   0.000000   0.000000   0.000000   0.000000
     2  H    0.000000   0.949596   0.000000   0.000000   0.000000   0.000000
     3  H    0.000000   0.000000   0.950718   0.000000   0.000000   0.000000
     4  C    0.000000   0.000000   0.000000   4.124254   0.000000   0.000000
     5  C    0.000000   0.000000   0.000000   0.000000   4.066876   0.000000
     6  H    0.000000   0.000000   0.000000   0.000000   0.000000   0.956228
     7  H    0.000000   0.000000   0.000000   0.000000   0.000000   0.000000
     8  H    0.000000   0.000000   0.000000   0.000000   0.000000   0.000000
     9  C    0.000000   0.000000   0.000000   0.000000   0.000000   0.000000
    10  H    0.000000   0.000000   0.000000   0.000000   0.000000   0.000000
    11  C    0.000000   0.000000   0.000000   0.000000   0.000000   0.000000
    12  H    0.000000   0.000000   0.000000   0.000000   0.000000   0.000000
    13  H    0.000000   0.000000   0.000000   0.000000   0.000000   0.000000
    14  H    0.000000   0.000000   0.000000   0.000000   0.000000   0.000000
    15  C    0.000000   0.000000   0.000000   0.000000   0.000000   0.000000
    16  H    0.000000   0.000000   0.000000   0.000000   0.000000   0.000000
    17  H    0.000000   0.000000   0.000000   0.000000   0.000000   0.000000
    18  H    0.000000   0.000000   0.000000   0.000000   0.000000   0.000000
    19  C    0.000000   0.000000   0.000000   0.000000   0.000000   0.000000
    20  C    0.000000   0.000000   0.000000   0.000000   0.000000   0.000000
    21  H    0.000000   0.000000   0.000000   0.000000   0.000000   0.000000
    22  H    0.000000   0.000000   0.000000   0.000000   0.000000   0.000000
    23  H    0.000000   0.000000   0.000000   0.000000   0.000000   0.000000
    24  C    0.000000   0.000000   0.000000   0.000000   0.000000   0.000000
    25  H    0.000000   0.000000   0.000000   0.000000   0.000000   0.000000
    26  C    0.000000   0.000000   0.000000   0.000000   0.000000   0.000000
    27  H    0.000000   0.000000   0.000000   0.000000   0.000000   0.000000
    28  H    0.000000   0.000000   0.000000   0.000000   0.000000   0.000000
               7          8          9         10         11         12
     1  C    0.000000   0.000000   0.000000   0.000000   0.000000   0.000000
     2  H    0.000000   0.000000   0.000000   0.000000   0.000000   0.000000
     3  H    0.000000   0.000000   0.000000   0.000000   0.000000   0.000000
     4  C    0.000000   0.000000   0.000000   0.000000   0.000000   0.000000
     5  C    0.000000   0.000000   0.000000   0.000000   0.000000   0.000000
     6  H    0.000000   0.000000   0.000000   0.000000   0.000000   0.000000
     7  H    0.958435   0.000000   0.000000   0.000000   0.000000   0.000000
     8  H    0.000000   0.952591   0.000000   0.000000   0.000000   0.000000
     9  C    0.000000   0.000000   4.150413   0.000000   0.000000   0.000000
    10  H    0.000000   0.000000   0.000000   0.905042   0.000000   0.000000
    11  C    0.000000   0.000000   0.000000   0.000000   4.066625   0.000000
    12  H    0.000000   0.000000   0.000000   0.000000   0.000000   0.958040
    13  H    0.000000   0.000000   0.000000   0.000000   0.000000   0.000000
    14  H    0.000000   0.000000   0.000000   0.000000   0.000000   0.000000
    15  C    0.000000   0.000000   0.000000   0.000000   0.000000   0.000000
    16  H    0.000000   0.000000   0.000000   0.000000   0.000000   0.000000
    17  H    0.000000   0.000000   0.000000   0.000000   0.000000   0.000000
    18  H    0.000000   0.000000   0.000000   0.000000   0.000000   0.000000
    19  C    0.000000   0.000000   0.000000   0.000000   0.000000   0.000000
    20  C    0.000000   0.000000   0.000000   0.000000   0.000000   0.000000
    21  H    0.000000   0.000000   0.000000   0.000000   0.000000   0.000000
    22  H    0.000000   0.000000   0.000000   0.000000   0.000000   0.000000
    23  H    0.000000   0.000000   0.000000   0.000000   0.000000   0.000000
    24  C    0.000000   0.000000   0.000000   0.000000   0.000000   0.000000
    25  H    0.000000   0.000000   0.000000   0.000000   0.000000   0.000000
    26  C    0.000000   0.000000   0.000000   0.000000   0.000000   0.000000
    27  H    0.000000   0.000000   0.000000   0.000000   0.000000   0.000000
    28  H    0.000000   0.000000   0.000000   0.000000   0.000000   0.000000
              13         14         15         16         17         18
     1  C    0.000000   0.000000   0.000000   0.000000   0.000000   0.000000
     2  H    0.000000   0.000000   0.000000   0.000000   0.000000   0.000000
     3  H    0.000000   0.000000   0.000000   0.000000   0.000000   0.000000
     4  C    0.000000   0.000000   0.000000   0.000000   0.000000   0.000000
     5  C    0.000000   0.000000   0.000000   0.000000   0.000000   0.000000
     6  H    0.000000   0.000000   0.000000   0.000000   0.000000   0.000000
     7  H    0.000000   0.000000   0.000000   0.000000   0.000000   0.000000
     8  H    0.000000   0.000000   0.000000   0.000000   0.000000   0.000000
     9  C    0.000000   0.000000   0.000000   0.000000   0.000000   0.000000
    10  H    0.000000   0.000000   0.000000   0.000000   0.000000   0.000000
    11  C    0.000000   0.000000   0.000000   0.000000   0.000000   0.000000
    12  H    0.000000   0.000000   0.000000   0.000000   0.000000   0.000000
    13  H    0.957811   0.000000   0.000000   0.000000   0.000000   0.000000
    14  H    0.000000   0.956402   0.000000   0.000000   0.000000   0.000000
    15  C    0.000000   0.000000   4.068581   0.000000   0.000000   0.000000
    16  H    0.000000   0.000000   0.000000   0.959549   0.000000   0.000000
    17  H    0.000000   0.000000   0.000000   0.000000   0.955346   0.000000
    18  H    0.000000   0.000000   0.000000   0.000000   0.000000   0.956574
    19  C    0.000000   0.000000   0.000000   0.000000   0.000000   0.000000
    20  C    0.000000   0.000000   0.000000   0.000000   0.000000   0.000000
    21  H    0.000000   0.000000   0.000000   0.000000   0.000000   0.000000
    22  H    0.000000   0.000000   0.000000   0.000000   0.000000   0.000000
    23  H    0.000000   0.000000   0.000000   0.000000   0.000000   0.000000
    24  C    0.000000   0.000000   0.000000   0.000000   0.000000   0.000000
    25  H    0.000000   0.000000   0.000000   0.000000   0.000000   0.000000
    26  C    0.000000   0.000000   0.000000   0.000000   0.000000   0.000000
    27  H    0.000000   0.000000   0.000000   0.000000   0.000000   0.000000
    28  H    0.000000   0.000000   0.000000   0.000000   0.000000   0.000000
              19         20         21         22         23         24
     1  C    0.000000   0.000000   0.000000   0.000000   0.000000   0.000000
     2  H    0.000000   0.000000   0.000000   0.000000   0.000000   0.000000
     3  H    0.000000   0.000000   0.000000   0.000000   0.000000   0.000000
     4  C    0.000000   0.000000   0.000000   0.000000   0.000000   0.000000
     5  C    0.000000   0.000000   0.000000   0.000000   0.000000   0.000000
     6  H    0.000000   0.000000   0.000000   0.000000   0.000000   0.000000
     7  H    0.000000   0.000000   0.000000   0.000000   0.000000   0.000000
     8  H    0.000000   0.000000   0.000000   0.000000   0.000000   0.000000
     9  C    0.000000   0.000000   0.000000   0.000000   0.000000   0.000000
    10  H    0.000000   0.000000   0.000000   0.000000   0.000000   0.000000
    11  C    0.000000   0.000000   0.000000   0.000000   0.000000   0.000000
    12  H    0.000000   0.000000   0.000000   0.000000   0.000000   0.000000
    13  H    0.000000   0.000000   0.000000   0.000000   0.000000   0.000000
    14  H    0.000000   0.000000   0.000000   0.000000   0.000000   0.000000
    15  C    0.000000   0.000000   0.000000   0.000000   0.000000   0.000000
    16  H    0.000000   0.000000   0.000000   0.000000   0.000000   0.000000
    17  H    0.000000   0.000000   0.000000   0.000000   0.000000   0.000000
    18  H    0.000000   0.000000   0.000000   0.000000   0.000000   0.000000
    19  C    4.113948   0.000000   0.000000   0.000000   0.000000   0.000000
    20  C    0.000000   4.070429   0.000000   0.000000   0.000000   0.000000
    21  H    0.000000   0.000000   0.953859   0.000000   0.000000   0.000000
    22  H    0.000000   0.000000   0.000000   0.959640   0.000000   0.000000
    23  H    0.000000   0.000000   0.000000   0.000000   0.950189   0.000000
    24  C    0.000000   0.000000   0.000000   0.000000   0.000000   4.158377
    25  H    0.000000   0.000000   0.000000   0.000000   0.000000   0.000000
    26  C    0.000000   0.000000   0.000000   0.000000   0.000000   0.000000
    27  H    0.000000   0.000000   0.000000   0.000000   0.000000   0.000000
    28  H    0.000000   0.000000   0.000000   0.000000   0.000000   0.000000
              25         26         27         28
     1  C    0.000000   0.000000   0.000000   0.000000
     2  H    0.000000   0.000000   0.000000   0.000000
     3  H    0.000000   0.000000   0.000000   0.000000
     4  C    0.000000   0.000000   0.000000   0.000000
     5  C    0.000000   0.000000   0.000000   0.000000
     6  H    0.000000   0.000000   0.000000   0.000000
     7  H    0.000000   0.000000   0.000000   0.000000
     8  H    0.000000   0.000000   0.000000   0.000000
     9  C    0.000000   0.000000   0.000000   0.000000
    10  H    0.000000   0.000000   0.000000   0.000000
    11  C    0.000000   0.000000   0.000000   0.000000
    12  H    0.000000   0.000000   0.000000   0.000000
    13  H    0.000000   0.000000   0.000000   0.000000
    14  H    0.000000   0.000000   0.000000   0.000000
    15  C    0.000000   0.000000   0.000000   0.000000
    16  H    0.000000   0.000000   0.000000   0.000000
    17  H    0.000000   0.000000   0.000000   0.000000
    18  H    0.000000   0.000000   0.000000   0.000000
    19  C    0.000000   0.000000   0.000000   0.000000
    20  C    0.000000   0.000000   0.000000   0.000000
    21  H    0.000000   0.000000   0.000000   0.000000
    22  H    0.000000   0.000000   0.000000   0.000000
    23  H    0.000000   0.000000   0.000000   0.000000
    24  C    0.000000   0.000000   0.000000   0.000000
    25  H    0.905357   0.000000   0.000000   0.000000
    26  C    0.000000   4.048661   0.000000   0.000000
    27  H    0.000000   0.000000   0.953617   0.000000
    28  H    0.000000   0.000000   0.000000   0.945505
 Mulliken charges:
               1
     1  C   -0.047338
     2  H    0.050404
     3  H    0.049282
     4  C   -0.124254
     5  C   -0.066876
     6  H    0.043772
     7  H    0.041565
     8  H    0.047409
     9  C   -0.150413
    10  H    0.094958
    11  C   -0.066625
    12  H    0.041960
    13  H    0.042189
    14  H    0.043598
    15  C   -0.068581
    16  H    0.040451
    17  H    0.044654
    18  H    0.043426
    19  C   -0.113948
    20  C   -0.070429
    21  H    0.046141
    22  H    0.040360
    23  H    0.049811
    24  C   -0.158377
    25  H    0.094643
    26  C   -0.048661
    27  H    0.046383
    28  H    0.054495
 Sum of Mulliken charges =  -0.00000
 Mulliken charges with hydrogens summed into heavy atoms:
               1
     1  C    0.052348
     4  C   -0.124254
     5  C    0.065870
     9  C   -0.055455
    11  C    0.061123
    15  C    0.059951
    19  C   -0.113948
    20  C    0.065883
    24  C   -0.063734
    26  C    0.052217
 Charge=             -0.0000 electrons
 Dipole moment (field-independent basis, Debye):
    X=              0.0219    Y=              0.2686    Z=              0.2753  Tot=              0.3852
 N-N= 3.191064529339D+02 E-N=-5.205991190849D+02  KE=-7.900865507901D+01
 Leave Link  601 at Tue Jul 27 12:13:49 2021, MaxMem=   131072000 cpu:               0.0 elap:               0.1
 (Enter /opt/g16/l701.exe)
 ... and contract with generalized density number  0.
 Compute integral first derivatives.
 Leave Link  701 at Tue Jul 27 12:13:49 2021, MaxMem=   131072000 cpu:               0.1 elap:               0.1
 (Enter /opt/g16/l702.exe)
 L702 exits ... SP integral derivatives will be done elsewhere.
 Leave Link  702 at Tue Jul 27 12:13:49 2021, MaxMem=   131072000 cpu:               0.0 elap:               0.0
 (Enter /opt/g16/l703.exe)
 Integral derivatives from FoFJK, PRISM(SPDF).
 Compute integral first derivatives, UseDBF=F ICtDFT=           0.
 Calling FoFJK, ICntrl=      2127 FMM=F ISym2X=0 I1Cent= 0 IOpClX= 0 NMat=1 NMatS=1 NMatT=0.
 FoFJK:  IHMeth= 9 ICntrl=    2127 DoSepK=F KAlg= 0 I1Cent=           0 FoldK=F
 IRaf=         0 NMat=       1 IRICut=       1 DoRegI=T DoRafI=F ISym2E= 0 IDoP0=3 IntGTp=3.
 FoFCou: FMM=F IPFlag=           0 FMFlag=      100000 FMFlg1=         800
         NFxFlg=           0 DoJE=F BraDBF=F KetDBF=F FulRan=T
         wScrn=  0.000000 ICntrl=      2127 IOpCl=  0 I1Cent=           0 NGrid=           0
         NMat0=    1 NMatS0=      1 NMatT0=    0 NMatD0=    1 NMtDS0=    0 NMtDT0=    0
 Symmetry not used in FoFCou.
 Leave Link  703 at Tue Jul 27 12:13:49 2021, MaxMem=   131072000 cpu:               0.0 elap:               0.0
 (Enter /opt/g16/l716.exe)
 Dipole        = 8.63098381D-03 1.05656546D-01 1.08306134D-01
 ***** Axes restored to original set *****
 -------------------------------------------------------------------
 Center     Atomic                   Forces (Hartrees/Bohr)
 Number     Number              X              Y              Z
 -------------------------------------------------------------------
      1        6           0.013481119    0.002934485    0.013014810
      2        1          -0.001114591   -0.006451012    0.000202806
      3        1          -0.001320023    0.004532728   -0.005910633
      4        6           0.000172854    0.002667148    0.002004597
      5        6          -0.006965493   -0.016001622    0.000657499
      6        1           0.003838066   -0.001658559    0.002170593
      7        1          -0.002046997    0.001557464   -0.001585607
      8        1          -0.000860302    0.001872816    0.002901912
      9        6           0.003644649    0.013240405    0.001890732
     10        1          -0.002910979   -0.005100296   -0.000183589
     11        6          -0.015730364    0.002381868   -0.006658483
     12        1           0.001517559    0.003911070   -0.002286963
     13        1           0.000425404   -0.000932519    0.002191116
     14        1           0.001726095   -0.001062515   -0.001180690
     15        6          -0.004865368    0.009166991   -0.010354216
     16        1          -0.001000049   -0.001156749   -0.000013143
     17        1           0.002365690   -0.000327079    0.000604593
     18        1           0.000398378    0.000376077    0.001543770
     19        6           0.001877122    0.002723535   -0.005820241
     20        6          -0.011977431   -0.012711728    0.002277996
     21        1          -0.001937963    0.001522588   -0.005614269
     22        1           0.000781747    0.000251519    0.002931488
     23        1           0.002389806   -0.000669102   -0.001178321
     24        6           0.012957654    0.009653863   -0.002626729
     25        1          -0.003346104   -0.003983091    0.000292858
     26        6           0.009877273   -0.014952632    0.009772374
     27        1          -0.006670416   -0.000041878   -0.001933805
     28        1           0.005292662    0.008256227    0.002889546
 -------------------------------------------------------------------
 Cartesian Forces:  Max     0.016001622 RMS     0.005853729
 Leave Link  716 at Tue Jul 27 12:13:49 2021, MaxMem=   131072000 cpu:               0.0 elap:               0.0
 (Enter /opt/g16/l103.exe)

 GradGradGradGradGradGradGradGradGradGradGradGradGradGradGradGradGradGrad
 Berny optimization.
 FormGI is forming the generalized inverse of G from B-inverse, IUseBI=4.
 Internal  Forces:  Max     0.019417534 RMS     0.004967857
 Search for a local minimum.
 Step number   1 out of a maximum of  138
 All quantities printed in internal units (Hartrees-Bohrs-Radians)
 RMS Force = .49679D-02 SwitMx=.10000D-02 MixMth= 1
 Mixed Optimization -- RFO/linear search
 Second derivative matrix not updated -- first step.
 ITU=  0
     Eigenvalues ---    0.00244   0.00489   0.00650   0.00701   0.00707
     Eigenvalues ---    0.00708   0.00835   0.01206   0.01290   0.01544
     Eigenvalues ---    0.01663   0.02770   0.02784   0.03885   0.03975
     Eigenvalues ---    0.05310   0.05391   0.06984   0.07019   0.07026
     Eigenvalues ---    0.07094   0.07278   0.07321   0.07325   0.07538
     Eigenvalues ---    0.09345   0.09425   0.12854   0.12907   0.15965
     Eigenvalues ---    0.15977   0.16000   0.16000   0.16000   0.16000
     Eigenvalues ---    0.16000   0.16000   0.16000   0.16000   0.16000
     Eigenvalues ---    0.16000   0.16000   0.16000   0.21890   0.21904
     Eigenvalues ---    0.22007   0.22012   0.24956   0.24978   0.24987
     Eigenvalues ---    0.24993   0.28567   0.30276   0.31476   0.31868
     Eigenvalues ---    0.31911   0.31922   0.32935   0.33863   0.33943
     Eigenvalues ---    0.34084   0.34173   0.34179   0.34194   0.34235
     Eigenvalues ---    0.34261   0.34318   0.34332   0.34351   0.34372
     Eigenvalues ---    0.34410   0.34434   0.34608   0.34632   0.34816
     Eigenvalues ---    0.34827   0.55335   0.55563
 RFO step:  Lambda=-1.09049071D-02 EMin= 2.43985341D-03
 Linear search not attempted -- first point.
 Iteration  1 RMS(Cart)=  0.09294546 RMS(Int)=  0.00193453
 Iteration  2 RMS(Cart)=  0.00356434 RMS(Int)=  0.00015408
 Iteration  3 RMS(Cart)=  0.00000527 RMS(Int)=  0.00015404
 Iteration  4 RMS(Cart)=  0.00000000 RMS(Int)=  0.00015404
 ITry= 1 IFail=0 DXMaxC= 3.40D-01 DCOld= 1.00D+10 DXMaxT= 3.00D-01 DXLimC= 3.00D+00 Rises=F
 Variable       Old X    -DE/DX   Delta X   Delta X   Delta X     New X
                                 (Linear)    (Quad)   (Total)
    R1        2.07561   0.00641   0.00000   0.01832   0.01832   2.09394
    R2        2.07188   0.00747   0.00000   0.02125   0.02125   2.09313
    R3        2.87417  -0.01698   0.00000  -0.05413  -0.05413   2.82003
    R4        2.90916  -0.00940   0.00000  -0.03170  -0.03170   2.87746
    R5        2.84288  -0.01597   0.00000  -0.04836  -0.04836   2.79451
    R6        2.54635  -0.01764   0.00000  -0.03114  -0.03114   2.51522
    R7        2.06604   0.00365   0.00000   0.01028   0.01028   2.07632
    R8        2.06935   0.00267   0.00000   0.00756   0.00756   2.07690
    R9        2.06643   0.00349   0.00000   0.00984   0.00984   2.07627
   R10        2.05957   0.00571   0.00000   0.01591   0.01591   2.07548
   R11        2.82467  -0.01405   0.00000  -0.04130  -0.04130   2.78336
   R12        2.06277   0.00433   0.00000   0.01213   0.01213   2.07490
   R13        2.07005   0.00238   0.00000   0.00673   0.00673   2.07678
   R14        2.06742   0.00219   0.00000   0.00618   0.00618   2.07360
   R15        2.07039   0.00153   0.00000   0.00433   0.00433   2.07471
   R16        2.06774   0.00234   0.00000   0.00662   0.00662   2.07435
   R17        2.07030   0.00143   0.00000   0.00405   0.00405   2.07435
   R18        2.84306  -0.01169   0.00000  -0.03543  -0.03543   2.80763
   R19        2.84386  -0.01579   0.00000  -0.04792  -0.04792   2.79594
   R20        2.54835  -0.01942   0.00000  -0.03441  -0.03441   2.51394
   R21        2.06317   0.00517   0.00000   0.01447   0.01447   2.07764
   R22        2.06892   0.00277   0.00000   0.00784   0.00784   2.07677
   R23        2.06797   0.00267   0.00000   0.00754   0.00754   2.07551
   R24        2.05974   0.00517   0.00000   0.01439   0.01439   2.07414
   R25        2.85113  -0.01804   0.00000  -0.05538  -0.05538   2.79575
   R26        2.07426   0.00694   0.00000   0.01981   0.01981   2.09407
   R27        2.06707   0.00955   0.00000   0.02694   0.02694   2.09401
    A1        1.83972   0.00038   0.00000   0.01269   0.01272   1.85244
    A2        1.92318   0.00079   0.00000   0.00626   0.00632   1.92950
    A3        1.90750   0.00128   0.00000   0.01071   0.01075   1.91825
    A4        1.90710   0.00044   0.00000  -0.00618  -0.00637   1.90073
    A5        1.90602   0.00007   0.00000  -0.00655  -0.00672   1.89930
    A6        1.97534  -0.00275   0.00000  -0.01509  -0.01519   1.96015
    A7        2.01558   0.00129   0.00000   0.00507   0.00504   2.02061
    A8        2.09322   0.00357   0.00000   0.01382   0.01378   2.10700
    A9        2.17398  -0.00485   0.00000  -0.01847  -0.01851   2.15547
   A10        1.96759  -0.00234   0.00000  -0.01344  -0.01354   1.95405
   A11        1.92839   0.00097   0.00000   0.00959   0.00961   1.93799
   A12        1.92871  -0.00114   0.00000  -0.01087  -0.01098   1.91774
   A13        1.85548   0.00226   0.00000   0.02104   0.02105   1.87653
   A14        1.89166   0.00048   0.00000  -0.00424  -0.00445   1.88720
   A15        1.88893  -0.00004   0.00000  -0.00075  -0.00073   1.88821
   A16        2.06320   0.00518   0.00000   0.02385   0.02331   2.08651
   A17        2.23355  -0.01086   0.00000  -0.04600  -0.04654   2.18700
   A18        1.98296   0.00578   0.00000   0.02695   0.02641   2.00937
   A19        1.98362  -0.00231   0.00000  -0.01501  -0.01502   1.96860
   A20        1.90311   0.00108   0.00000   0.00922   0.00921   1.91232
   A21        1.92162   0.00099   0.00000   0.00429   0.00424   1.92587
   A22        1.87090   0.00107   0.00000   0.00886   0.00889   1.87979
   A23        1.89513  -0.00038   0.00000  -0.00741  -0.00746   1.88767
   A24        1.88658  -0.00038   0.00000   0.00078   0.00073   1.88731
   A25        1.87890   0.00021   0.00000   0.00230   0.00230   1.88119
   A26        1.87935  -0.00013   0.00000   0.00064   0.00063   1.87999
   A27        1.96151   0.00015   0.00000   0.00216   0.00216   1.96367
   A28        1.89345  -0.00078   0.00000  -0.00712  -0.00712   1.88633
   A29        1.91915  -0.00011   0.00000  -0.00136  -0.00136   1.91779
   A30        1.92937   0.00061   0.00000   0.00304   0.00303   1.93240
   A31        1.99478   0.00357   0.00000   0.01415   0.01396   2.00874
   A32        2.10815   0.00205   0.00000   0.00845   0.00826   2.11641
   A33        2.17894  -0.00558   0.00000  -0.02084  -0.02105   2.15789
   A34        1.97630  -0.00360   0.00000  -0.02221  -0.02228   1.95401
   A35        1.92574   0.00100   0.00000   0.01018   0.01022   1.93596
   A36        1.92035   0.00002   0.00000  -0.00314  -0.00326   1.91709
   A37        1.85988   0.00248   0.00000   0.02030   0.02037   1.88025
   A38        1.89032   0.00034   0.00000  -0.00584  -0.00606   1.88426
   A39        1.88829  -0.00005   0.00000   0.00197   0.00196   1.89025
   A40        2.06689   0.00510   0.00000   0.02394   0.02336   2.09025
   A41        2.22292  -0.00972   0.00000  -0.04126  -0.04185   2.18107
   A42        1.99120   0.00471   0.00000   0.02124   0.02065   2.01185
   A43        1.95977  -0.00022   0.00000  -0.00437  -0.00446   1.95531
   A44        1.89680  -0.00027   0.00000   0.00264   0.00264   1.89943
   A45        1.92567   0.00036   0.00000  -0.00202  -0.00217   1.92350
   A46        1.87987   0.00060   0.00000   0.00738   0.00742   1.88729
   A47        1.95524  -0.00133   0.00000  -0.01698  -0.01705   1.93819
   A48        1.84114   0.00096   0.00000   0.01550   0.01554   1.85668
    D1        2.71962   0.00056   0.00000   0.02026   0.02017   2.73979
    D2       -0.45144   0.00081   0.00000   0.03474   0.03483  -0.41661
    D3        0.70606  -0.00060   0.00000   0.00500   0.00496   0.71101
    D4       -2.46500  -0.00035   0.00000   0.01948   0.01961  -2.44539
    D5       -1.42190   0.00085   0.00000   0.02810   0.02797  -1.39394
    D6        1.69023   0.00110   0.00000   0.04258   0.04262   1.73285
    D7        1.00953  -0.00002   0.00000  -0.01664  -0.01665   0.99287
    D8       -1.06828  -0.00046   0.00000  -0.02486  -0.02487  -1.09315
    D9       -3.07905  -0.00166   0.00000  -0.04384  -0.04385  -3.12290
   D10        3.01381   0.00118   0.00000   0.00076   0.00072   3.01452
   D11        0.93600   0.00074   0.00000  -0.00746  -0.00750   0.92850
   D12       -1.07477  -0.00046   0.00000  -0.02644  -0.02648  -1.10125
   D13       -1.14081  -0.00007   0.00000  -0.02212  -0.02207  -1.16288
   D14        3.06456  -0.00050   0.00000  -0.03034  -0.03028   3.03428
   D15        1.05379  -0.00171   0.00000  -0.04932  -0.04927   1.00453
   D16       -2.81908  -0.00132   0.00000  -0.02211  -0.02209  -2.84117
   D17       -0.74576   0.00067   0.00000   0.00228   0.00222  -0.74354
   D18        1.34433   0.00051   0.00000   0.00052   0.00036   1.34470
   D19        0.35351  -0.00175   0.00000  -0.03799  -0.03783   0.31568
   D20        2.42684   0.00024   0.00000  -0.01359  -0.01352   2.41331
   D21       -1.76626   0.00008   0.00000  -0.01535  -0.01538  -1.78163
   D22        0.02981  -0.00076   0.00000  -0.01216  -0.01212   0.01769
   D23       -3.01598  -0.00257   0.00000  -0.07992  -0.07991  -3.09589
   D24        3.13911  -0.00036   0.00000   0.00420   0.00419  -3.13989
   D25        0.09332  -0.00217   0.00000  -0.06356  -0.06361   0.02971
   D26        0.03281  -0.00001   0.00000   0.01284   0.01287   0.04567
   D27        2.11864   0.00062   0.00000   0.02083   0.02079   2.13942
   D28       -2.09749   0.00138   0.00000   0.02987   0.02986  -2.06762
   D29       -3.01666  -0.00178   0.00000  -0.05240  -0.05235  -3.06901
   D30       -0.93083  -0.00115   0.00000  -0.04440  -0.04443  -0.97526
   D31        1.13623  -0.00038   0.00000  -0.03536  -0.03535   1.10088
   D32        3.12166  -0.00028   0.00000  -0.01577  -0.01600   3.10566
   D33       -0.07259   0.00037   0.00000   0.01862   0.01886  -0.05373
   D34       -1.06885   0.00001   0.00000  -0.01238  -0.01261  -1.08146
   D35        2.02008   0.00066   0.00000   0.02202   0.02225   2.04233
   D36        1.02136  -0.00065   0.00000  -0.02017  -0.02041   1.00095
   D37       -2.17290   0.00001   0.00000   0.01423   0.01446  -2.15844
   D38       -2.87709  -0.00076   0.00000  -0.00045  -0.00046  -2.87754
   D39       -0.79423   0.00070   0.00000   0.01779   0.01764  -0.77660
   D40        1.28806   0.00127   0.00000   0.02462   0.02442   1.31248
   D41        0.31963  -0.00173   0.00000  -0.03754  -0.03731   0.28232
   D42        2.40249  -0.00027   0.00000  -0.01930  -0.01922   2.38327
   D43       -1.79840   0.00030   0.00000  -0.01246  -0.01243  -1.81083
   D44        0.02862  -0.00047   0.00000  -0.00668  -0.00646   0.02216
   D45       -3.03754  -0.00223   0.00000  -0.07555  -0.07546  -3.11300
   D46        3.11172   0.00058   0.00000   0.03276   0.03267  -3.13879
   D47        0.04556  -0.00118   0.00000  -0.03611  -0.03633   0.00923
   D48        1.71419   0.00126   0.00000   0.06025   0.06025   1.77444
   D49       -2.48129   0.00119   0.00000   0.06570   0.06568  -2.41561
   D50       -0.46422   0.00199   0.00000   0.07959   0.07947  -0.38475
   D51       -1.35474  -0.00048   0.00000  -0.00634  -0.00623  -1.36097
   D52        0.73297  -0.00055   0.00000  -0.00088  -0.00081   0.73216
   D53        2.75004   0.00025   0.00000   0.01301   0.01298   2.76302
         Item               Value     Threshold  Converged?
 Maximum Force            0.019418     0.000450     NO 
 RMS     Force            0.004968     0.000300     NO 
 Maximum Displacement     0.339847     0.001800     NO 
 RMS     Displacement     0.093718     0.001200     NO 
 Predicted change in Energy=-5.940982D-03
 Lowest energy point so far.  Saving SCF results.
 GradGradGradGradGradGradGradGradGradGradGradGradGradGradGradGradGradGrad

 Leave Link  103 at Tue Jul 27 12:13:50 2021, MaxMem=   131072000 cpu:               0.0 elap:               0.0
 (Enter /opt/g16/l202.exe)
                          Input orientation:                          
 ---------------------------------------------------------------------
 Center     Atomic      Atomic             Coordinates (Angstroms)
 Number     Number       Type             X           Y           Z
 ---------------------------------------------------------------------
      1          6           0        2.176403    1.163164   -8.968407
      2          1           0        1.839381    0.121414   -9.138645
      3          1           0        1.938981    1.719089   -9.896543
      4          6           0        3.650890    1.206488   -8.742660
      5          6           0        4.306904    2.501261   -9.025565
      6          1           0        5.394902    2.395108   -9.136120
      7          1           0        3.921618    2.944084   -9.954743
      8          1           0        4.113784    3.205218   -8.204391
      9          6           0        4.302361    0.134731   -8.297156
     10          1           0        3.749924   -0.795860   -8.109874
     11          6           0        5.741443    0.080819   -7.988048
     12          1           0        6.241355    1.049496   -8.119694
     13          1           0        5.882094   -0.228550   -6.942929
     14          1           0        6.242684   -0.652911   -8.631839
     15          6           0        2.414037    0.415327   -4.355029
     16          1           0        1.729021   -0.441028   -4.407681
     17          1           0        3.434555    0.022858   -4.257778
     18          1           0        2.176764    0.977243   -3.442399
     19          6           0        2.321675    1.291976   -5.551005
     20          6           0        3.187363    2.491375   -5.518152
     21          1           0        2.895010    3.230300   -6.277948
     22          1           0        3.139060    2.983470   -4.536693
     23          1           0        4.230071    2.203866   -5.708906
     24          6           0        1.525957    0.985222   -6.572026
     25          1           0        0.907665    0.079425   -6.527929
     26          6           0        1.396642    1.778309   -7.814223
     27          1           0        0.323633    1.817571   -8.088222
     28          1           0        1.716324    2.826834   -7.652094
 ---------------------------------------------------------------------
                    Distance matrix (angstroms):
                    1          2          3          4          5
     1  C    0.000000
     2  H    1.108065   0.000000
     3  H    1.107637   1.771128   0.000000
     4  C    1.492297   2.148430   2.127167   0.000000
     5  C    2.516507   3.430033   2.641488   1.478792   0.000000
     6  H    3.450296   4.220357   3.602587   2.146906   1.098740
     7  H    2.681475   3.601277   2.331277   2.135809   1.099050
     8  H    2.916702   3.944057   3.130771   2.121067   1.098716
     9  C    2.455188   2.602797   3.264015   1.330996   2.476098
    10  H    2.655338   2.355830   3.577243   2.102290   3.466947
    11  C    3.852542   4.068366   4.559057   2.491381   2.998813
    12  H    4.154162   4.612696   4.702762   2.668940   2.582696
    13  H    4.446524   4.613802   5.297667   3.205719   3.777626
    14  H    4.466099   4.499500   5.074221   3.191714   3.721701
    15  C    4.679635   4.826965   5.712605   4.626775   5.454170
    16  H    4.855287   4.765558   5.902356   5.019954   6.052058
    17  H    5.007321   5.135869   6.075328   4.643484   5.443828
    18  H    5.529135   5.770051   6.500989   5.506212   6.166999
    19  C    3.422913   3.804469   4.383216   3.458437   4.180440
    20  C    3.832811   4.532299   4.617921   3.501892   3.681768
    21  H    3.468143   4.354666   4.036333   3.277496   3.174011
    22  H    4.886748   5.573014   5.636208   4.594539   4.663298
    23  H    3.990609   4.670665   4.797959   3.245594   3.330852
    24  C    2.489455   2.726157   3.429513   3.045645   4.006482
    25  H    2.956369   2.772309   3.885830   3.701430   4.863980
    26  C    1.522686   2.166891   2.152603   2.504119   3.234136
    27  H    2.153075   2.505560   2.426741   3.445628   4.148794
    28  H    2.170749   3.089381   2.512813   2.749073   2.950174
                    6          7          8          9         10
     6  H    0.000000
     7  H    1.772592   0.000000
     8  H    1.779230   1.780127   0.000000
     9  C    2.647038   3.284057   3.077671   0.000000
    10  H    3.733820   4.173752   4.018700   1.098299   0.000000
    11  C    2.606548   3.921472   3.529581   1.472892   2.179347
    12  H    1.886870   3.512556   3.029995   2.151275   3.100429
    13  H    3.454132   4.793756   4.063123   2.112217   2.495947
    14  H    3.203663   4.480602   4.427198   2.120671   2.550830
    15  C    5.971928   6.326469   5.048784   4.380054   4.165384
    16  H    6.621215   6.858307   5.779032   4.699106   4.232751
    17  H    5.767907   6.420763   5.115126   4.133059   3.950746
    18  H    6.692176   7.023077   5.602900   5.366252   5.234887
    19  C    4.849194   4.968118   3.729961   3.578223   3.598161
    20  C    4.239362   4.519670   2.929796   3.810493   4.223672
    21  H    3.887950   3.828141   2.279742   3.954793   4.505196
    22  H    5.156522   5.474414   3.801482   4.858978   5.236803
    23  H    3.624804   4.320903   2.691408   3.314451   3.872150
    24  C    4.850886   4.584660   3.780191   3.377548   3.237786
    25  H    5.683339   5.388250   4.781245   3.828470   3.368546
    26  C    4.256047   3.509468   3.093729   3.373096   3.500242
    27  H    5.210509   4.206950   4.037859   4.325030   4.309287
    28  H    3.990070   3.190496   2.489181   3.788286   4.179593
                   11         12         13         14         15
    11  C    0.000000
    12  H    1.097988   0.000000
    13  H    1.098984   1.774047   0.000000
    14  H    1.097301   1.777775   1.778349   0.000000
    15  C    4.937849   5.405852   4.374840   5.838730   0.000000
    16  H    5.402859   6.030079   4.870385   6.185593   1.097890
    17  H    4.386343   4.883288   3.641935   5.241627   1.097701
    18  H    5.845805   6.197032   5.238046   6.791127   1.097699
    19  C    4.370457   4.692638   4.114127   5.352423   1.485732
    20  C    4.293541   4.263086   4.085286   5.377413   2.502172
    21  H    4.576664   4.398404   4.618281   5.641547   3.442823
    22  H    5.206691   5.118826   4.861201   6.294916   2.674700
    23  H    3.462090   3.345106   3.188831   4.555801   2.886145
    24  C    4.537994   4.963304   4.537262   5.401280   2.455309
    25  H    5.049490   5.650044   5.001201   5.781451   2.665235
    26  C    4.667867   4.908739   4.990583   5.483015   3.854716
    27  H    5.690255   5.967442   6.032810   6.436922   4.502533
    28  H    4.884162   4.884003   5.214588   5.792794   4.144008
                   16         17         18         19         20
    16  H    0.000000
    17  H    1.773840   0.000000
    18  H    1.773059   1.777002   0.000000
    19  C    2.159104   2.126405   2.136884   0.000000
    20  C    3.458164   2.782665   2.760916   1.479545   0.000000
    21  H    4.282066   3.828822   3.692219   2.148084   1.099441
    22  H    3.705677   2.988367   2.479605   2.134971   1.098978
    23  H    3.865735   2.737775   3.295107   2.120956   1.098312
    24  C    2.599965   3.150339   3.196589   1.330320   2.477785
    25  H    2.332584   3.397346   3.455023   2.103351   3.469031
    26  C    4.079273   4.459035   4.512554   2.492862   2.997846
    27  H    4.541230   5.250822   5.071875   3.271986   3.906433
    28  H    4.604922   4.726095   4.621095   2.671482   2.613464
                   21         22         23         24         25
    21  H    0.000000
    22  H    1.775515   0.000000
    23  H    1.777573   1.781058   0.000000
    24  C    2.645972   3.276840   3.089062   0.000000
    25  H    3.733637   4.168647   4.027708   1.097587   0.000000
    26  C    2.591047   3.902644   3.555528   1.479446   2.186289
    27  H    3.447445   4.679669   4.590275   2.106475   2.407647
    28  H    1.854822   3.428474   3.237745   2.143436   3.076675
                   26         27         28
    26  C    0.000000
    27  H    1.108136   0.000000
[...]
                   16         17         18         19         20
    16  H    0.000000
    17  H    1.772041   0.000000
    18  H    1.772410   1.772211   0.000000
    19  C    2.163726   2.138142   2.138401   0.000000
    20  C    3.468597   2.801135   2.767059   1.486073   0.000000
    21  H    4.305026   3.758118   3.812114   2.156139   1.103062
    22  H    3.834111   3.291310   2.677396   2.136470   1.098155
    23  H    3.758037   2.564592   3.015089   2.140271   1.097981
    24  C    2.608671   3.175265   3.199861   1.339846   2.492187
    25  H    2.344878   3.416741   3.464408   2.113609   3.484279
    26  C    4.094344   4.498714   4.508504   2.502392   3.006397
    27  H    4.541690   5.190017   4.844148   3.107193   3.588377
    28  H    4.619580   4.630604   4.690347   2.651012   2.552887
                   21         22         23         24         25
    21  H    0.000000
    22  H    1.777881   0.000000
    23  H    1.777417   1.773515   0.000000
    24  C    2.648002   3.154606   3.260524   0.000000
    25  H    3.739894   4.085934   4.160530   1.098302   0.000000
    26  C    2.570313   3.648912   3.856129   1.486133   2.196462
    27  H    3.174036   3.951512   4.579354   2.110702   2.611968
    28  H    1.771891   3.203276   3.345626   2.154743   3.110902
                   26         27         28
    26  C    0.000000
    27  H    1.107857   0.000000
    28  H    1.119412   1.781103   0.000000
 Stoichiometry    C10H18
 Framework group  C1[X(C10H18)]
 Deg. of freedom    78
 Full point group                 C1      NOp   1
 RotChk:  IX=0 Diff= 5.23D-15
 Largest Abelian subgroup         C1      NOp   1
 Largest concise Abelian subgroup C1      NOp   1
                         Standard orientation:                         
 ---------------------------------------------------------------------
 Center     Atomic      Atomic             Coordinates (Angstroms)
 Number     Number       Type             X           Y           Z
 ---------------------------------------------------------------------
      1          6           0       -0.897427   -1.312506   -0.968230
      2          1           0       -0.878262   -0.973383   -2.023688
      3          1           0       -1.412830   -2.294206   -0.976540
      4          6           0       -1.697804   -0.374943   -0.117578
      5          6           0       -1.876299   -0.791117    1.298109
      6          1           0       -2.283764    0.023001    1.918559
      7          1           0       -2.563673   -1.644227    1.368424
      8          1           0       -0.906883   -1.102675    1.724040
      9          6           0       -2.211094    0.753957   -0.624355
     10          1           0       -2.042018    1.007537   -1.678842
     11          6           0       -3.016129    1.726103    0.146136
     12          1           0       -3.049563    1.481533    1.220997
     13          1           0       -2.602767    2.738144    0.046272
     14          1           0       -4.049819    1.749995   -0.223580
     15          6           0        3.117824    1.378939   -0.457469
     16          1           0        3.028086    1.560601   -1.536635
     17          1           0        2.870018    2.316926    0.058079
     18          1           0        4.171737    1.153217   -0.245303
     19          6           0        2.239691    0.274275    0.014334
     20          6           0        2.356490   -0.053715    1.459046
     21          1           0        1.573103   -0.758093    1.786004
     22          1           0        3.330469   -0.513150    1.674054
     23          1           0        2.270510    0.851005    2.075205
     24          6           0        1.414424   -0.362507   -0.827470
     25          1           0        1.371201   -0.062116   -1.883009
     26          6           0        0.523629   -1.488476   -0.443716
     27          1           0        0.960745   -2.423796   -0.845527
     28          1           0        0.493882   -1.610373    0.668642
 ---------------------------------------------------------------------
 Rotational constants (GHZ):           1.8144349           0.6781035           0.6298496
 Leave Link  202 at Tue Jul 27 12:14:12 2021, MaxMem=   131072000 cpu:               0.0 elap:               0.0
 (Enter /opt/g16/l601.exe)
 Copying SCF densities to generalized density rwf, IOpCl= 0 IROHF=0.

 **********************************************************************

            Population analysis using the SCF density.

 **********************************************************************

 Orbital symmetries:
       Occupied  (A) (A) (A) (A) (A) (A) (A) (A) (A) (A) (A) (A)
                 (A) (A) (A) (A) (A) (A) (A) (A) (A) (A) (A) (A)
                 (A) (A) (A) (A) (A)
       Virtual   (A) (A) (A) (A) (A) (A) (A) (A) (A) (A) (A) (A)
                 (A) (A) (A) (A) (A) (A) (A) (A) (A) (A) (A) (A)
                 (A) (A) (A) (A) (A)
 The electronic state is 1-A.
 Alpha  occ. eigenvalues --   -1.47633  -1.35658  -1.19647  -1.06538  -1.01662
 Alpha  occ. eigenvalues --   -0.96578  -0.88345  -0.77245  -0.66513  -0.65097
 Alpha  occ. eigenvalues --   -0.62185  -0.58700  -0.57770  -0.56403  -0.55191
 Alpha  occ. eigenvalues --   -0.54162  -0.51516  -0.49659  -0.49009  -0.48239
 Alpha  occ. eigenvalues --   -0.47891  -0.47546  -0.46854  -0.46280  -0.44979
 Alpha  occ. eigenvalues --   -0.43544  -0.42431  -0.34832  -0.34139
 Alpha virt. eigenvalues --    0.03898   0.04305   0.12265   0.12679   0.13213
 Alpha virt. eigenvalues --    0.13681   0.13849   0.14292   0.14735   0.15305
 Alpha virt. eigenvalues --    0.15526   0.15788   0.15974   0.16205   0.16458
 Alpha virt. eigenvalues --    0.16496   0.16545   0.16666   0.16777   0.16979
 Alpha virt. eigenvalues --    0.17134   0.17291   0.17876   0.17937   0.18125
 Alpha virt. eigenvalues --    0.21117   0.21545   0.22491   0.22705
          Condensed to atoms (all electrons):
               1          2          3          4          5          6
     1  C    4.050101   0.000000   0.000000   0.000000   0.000000   0.000000
     2  H    0.000000   0.945490   0.000000   0.000000   0.000000   0.000000
     3  H    0.000000   0.000000   0.949150   0.000000   0.000000   0.000000
     4  C    0.000000   0.000000   0.000000   4.126001   0.000000   0.000000
     5  C    0.000000   0.000000   0.000000   0.000000   4.083833   0.000000
     6  H    0.000000   0.000000   0.000000   0.000000   0.000000   0.948281
     7  H    0.000000   0.000000   0.000000   0.000000   0.000000   0.000000
     8  H    0.000000   0.000000   0.000000   0.000000   0.000000   0.000000
     9  C    0.000000   0.000000   0.000000   0.000000   0.000000   0.000000
    10  H    0.000000   0.000000   0.000000   0.000000   0.000000   0.000000
    11  C    0.000000   0.000000   0.000000   0.000000   0.000000   0.000000
    12  H    0.000000   0.000000   0.000000   0.000000   0.000000   0.000000
    13  H    0.000000   0.000000   0.000000   0.000000   0.000000   0.000000
    14  H    0.000000   0.000000   0.000000   0.000000   0.000000   0.000000
    15  C    0.000000   0.000000   0.000000   0.000000   0.000000   0.000000
    16  H    0.000000   0.000000   0.000000   0.000000   0.000000   0.000000
    17  H    0.000000   0.000000   0.000000   0.000000   0.000000   0.000000
    18  H    0.000000   0.000000   0.000000   0.000000   0.000000   0.000000
    19  C    0.000000   0.000000   0.000000   0.000000   0.000000   0.000000
    20  C    0.000000   0.000000   0.000000   0.000000   0.000000   0.000000
    21  H    0.000000   0.000000   0.000000   0.000000   0.000000   0.000000
    22  H    0.000000   0.000000   0.000000   0.000000   0.000000   0.000000
    23  H    0.000000   0.000000   0.000000   0.000000   0.000000   0.000000
    24  C    0.000000   0.000000   0.000000   0.000000   0.000000   0.000000
    25  H    0.000000   0.000000   0.000000   0.000000   0.000000   0.000000
    26  C    0.000000   0.000000   0.000000   0.000000   0.000000   0.000000
    27  H    0.000000   0.000000   0.000000   0.000000   0.000000   0.000000
    28  H    0.000000   0.000000   0.000000   0.000000   0.000000   0.000000
               7          8          9         10         11         12
     1  C    0.000000   0.000000   0.000000   0.000000   0.000000   0.000000
     2  H    0.000000   0.000000   0.000000   0.000000   0.000000   0.000000
     3  H    0.000000   0.000000   0.000000   0.000000   0.000000   0.000000
     4  C    0.000000   0.000000   0.000000   0.000000   0.000000   0.000000
     5  C    0.000000   0.000000   0.000000   0.000000   0.000000   0.000000
     6  H    0.000000   0.000000   0.000000   0.000000   0.000000   0.000000
     7  H    0.953841   0.000000   0.000000   0.000000   0.000000   0.000000
     8  H    0.000000   0.948310   0.000000   0.000000   0.000000   0.000000
     9  C    0.000000   0.000000   4.149739   0.000000   0.000000   0.000000
    10  H    0.000000   0.000000   0.000000   0.901573   0.000000   0.000000
    11  C    0.000000   0.000000   0.000000   0.000000   4.078714   0.000000
    12  H    0.000000   0.000000   0.000000   0.000000   0.000000   0.952726
    13  H    0.000000   0.000000   0.000000   0.000000   0.000000   0.000000
    14  H    0.000000   0.000000   0.000000   0.000000   0.000000   0.000000
    15  C    0.000000   0.000000   0.000000   0.000000   0.000000   0.000000
    16  H    0.000000   0.000000   0.000000   0.000000   0.000000   0.000000
    17  H    0.000000   0.000000   0.000000   0.000000   0.000000   0.000000
    18  H    0.000000   0.000000   0.000000   0.000000   0.000000   0.000000
    19  C    0.000000   0.000000   0.000000   0.000000   0.000000   0.000000
    20  C    0.000000   0.000000   0.000000   0.000000   0.000000   0.000000
    21  H    0.000000   0.000000   0.000000   0.000000   0.000000   0.000000
    22  H    0.000000   0.000000   0.000000   0.000000   0.000000   0.000000
    23  H    0.000000   0.000000   0.000000   0.000000   0.000000   0.000000
    24  C    0.000000   0.000000   0.000000   0.000000   0.000000   0.000000
    25  H    0.000000   0.000000   0.000000   0.000000   0.000000   0.000000
    26  C    0.000000   0.000000   0.000000   0.000000   0.000000   0.000000
    27  H    0.000000   0.000000   0.000000   0.000000   0.000000   0.000000
    28  H    0.000000   0.000000   0.000000   0.000000   0.000000   0.000000
              13         14         15         16         17         18
     1  C    0.000000   0.000000   0.000000   0.000000   0.000000   0.000000
     2  H    0.000000   0.000000   0.000000   0.000000   0.000000   0.000000
     3  H    0.000000   0.000000   0.000000   0.000000   0.000000   0.000000
     4  C    0.000000   0.000000   0.000000   0.000000   0.000000   0.000000
     5  C    0.000000   0.000000   0.000000   0.000000   0.000000   0.000000
     6  H    0.000000   0.000000   0.000000   0.000000   0.000000   0.000000
     7  H    0.000000   0.000000   0.000000   0.000000   0.000000   0.000000
     8  H    0.000000   0.000000   0.000000   0.000000   0.000000   0.000000
     9  C    0.000000   0.000000   0.000000   0.000000   0.000000   0.000000
    10  H    0.000000   0.000000   0.000000   0.000000   0.000000   0.000000
    11  C    0.000000   0.000000   0.000000   0.000000   0.000000   0.000000
    12  H    0.000000   0.000000   0.000000   0.000000   0.000000   0.000000
    13  H    0.956289   0.000000   0.000000   0.000000   0.000000   0.000000
    14  H    0.000000   0.955721   0.000000   0.000000   0.000000   0.000000
    15  C    0.000000   0.000000   4.067708   0.000000   0.000000   0.000000
    16  H    0.000000   0.000000   0.000000   0.958747   0.000000   0.000000
    17  H    0.000000   0.000000   0.000000   0.000000   0.955854   0.000000
    18  H    0.000000   0.000000   0.000000   0.000000   0.000000   0.957525
    19  C    0.000000   0.000000   0.000000   0.000000   0.000000   0.000000
    20  C    0.000000   0.000000   0.000000   0.000000   0.000000   0.000000
    21  H    0.000000   0.000000   0.000000   0.000000   0.000000   0.000000
    22  H    0.000000   0.000000   0.000000   0.000000   0.000000   0.000000
    23  H    0.000000   0.000000   0.000000   0.000000   0.000000   0.000000
    24  C    0.000000   0.000000   0.000000   0.000000   0.000000   0.000000
    25  H    0.000000   0.000000   0.000000   0.000000   0.000000   0.000000
    26  C    0.000000   0.000000   0.000000   0.000000   0.000000   0.000000
    27  H    0.000000   0.000000   0.000000   0.000000   0.000000   0.000000
    28  H    0.000000   0.000000   0.000000   0.000000   0.000000   0.000000
              19         20         21         22         23         24
     1  C    0.000000   0.000000   0.000000   0.000000   0.000000   0.000000
     2  H    0.000000   0.000000   0.000000   0.000000   0.000000   0.000000
     3  H    0.000000   0.000000   0.000000   0.000000   0.000000   0.000000
     4  C    0.000000   0.000000   0.000000   0.000000   0.000000   0.000000
     5  C    0.000000   0.000000   0.000000   0.000000   0.000000   0.000000
     6  H    0.000000   0.000000   0.000000   0.000000   0.000000   0.000000
     7  H    0.000000   0.000000   0.000000   0.000000   0.000000   0.000000
     8  H    0.000000   0.000000   0.000000   0.000000   0.000000   0.000000
     9  C    0.000000   0.000000   0.000000   0.000000   0.000000   0.000000
    10  H    0.000000   0.000000   0.000000   0.000000   0.000000   0.000000
    11  C    0.000000   0.000000   0.000000   0.000000   0.000000   0.000000
    12  H    0.000000   0.000000   0.000000   0.000000   0.000000   0.000000
    13  H    0.000000   0.000000   0.000000   0.000000   0.000000   0.000000
    14  H    0.000000   0.000000   0.000000   0.000000   0.000000   0.000000
    15  C    0.000000   0.000000   0.000000   0.000000   0.000000   0.000000
    16  H    0.000000   0.000000   0.000000   0.000000   0.000000   0.000000
    17  H    0.000000   0.000000   0.000000   0.000000   0.000000   0.000000
    18  H    0.000000   0.000000   0.000000   0.000000   0.000000   0.000000
    19  C    4.125087   0.000000   0.000000   0.000000   0.000000   0.000000
    20  C    0.000000   4.075479   0.000000   0.000000   0.000000   0.000000
    21  H    0.000000   0.000000   0.951184   0.000000   0.000000   0.000000
    22  H    0.000000   0.000000   0.000000   0.954666   0.000000   0.000000
    23  H    0.000000   0.000000   0.000000   0.000000   0.954536   0.000000
    24  C    0.000000   0.000000   0.000000   0.000000   0.000000   4.150352
    25  H    0.000000   0.000000   0.000000   0.000000   0.000000   0.000000
    26  C    0.000000   0.000000   0.000000   0.000000   0.000000   0.000000
    27  H    0.000000   0.000000   0.000000   0.000000   0.000000   0.000000
    28  H    0.000000   0.000000   0.000000   0.000000   0.000000   0.000000
              25         26         27         28
     1  C    0.000000   0.000000   0.000000   0.000000
     2  H    0.000000   0.000000   0.000000   0.000000
     3  H    0.000000   0.000000   0.000000   0.000000
     4  C    0.000000   0.000000   0.000000   0.000000
     5  C    0.000000   0.000000   0.000000   0.000000
     6  H    0.000000   0.000000   0.000000   0.000000
     7  H    0.000000   0.000000   0.000000   0.000000
     8  H    0.000000   0.000000   0.000000   0.000000
     9  C    0.000000   0.000000   0.000000   0.000000
    10  H    0.000000   0.000000   0.000000   0.000000
    11  C    0.000000   0.000000   0.000000   0.000000
    12  H    0.000000   0.000000   0.000000   0.000000
    13  H    0.000000   0.000000   0.000000   0.000000
    14  H    0.000000   0.000000   0.000000   0.000000
    15  C    0.000000   0.000000   0.000000   0.000000
    16  H    0.000000   0.000000   0.000000   0.000000
    17  H    0.000000   0.000000   0.000000   0.000000
    18  H    0.000000   0.000000   0.000000   0.000000
    19  C    0.000000   0.000000   0.000000   0.000000
    20  C    0.000000   0.000000   0.000000   0.000000
    21  H    0.000000   0.000000   0.000000   0.000000
    22  H    0.000000   0.000000   0.000000   0.000000
    23  H    0.000000   0.000000   0.000000   0.000000
    24  C    0.000000   0.000000   0.000000   0.000000
    25  H    0.898917   0.000000   0.000000   0.000000
    26  C    0.000000   4.075006   0.000000   0.000000
    27  H    0.000000   0.000000   0.944805   0.000000
    28  H    0.000000   0.000000   0.000000   0.930364
 Mulliken charges:
               1
     1  C   -0.050101
     2  H    0.054510
     3  H    0.050850
     4  C   -0.126001
     5  C   -0.083833
     6  H    0.051719
     7  H    0.046159
     8  H    0.051690
     9  C   -0.149739
    10  H    0.098427
    11  C   -0.078714
    12  H    0.047274
    13  H    0.043711
    14  H    0.044279
    15  C   -0.067708
    16  H    0.041253
    17  H    0.044146
    18  H    0.042475
    19  C   -0.125087
    20  C   -0.075479
    21  H    0.048816
    22  H    0.045334
    23  H    0.045464
    24  C   -0.150352
    25  H    0.101083
    26  C   -0.075006
    27  H    0.055195
    28  H    0.069636
 Sum of Mulliken charges =  -0.00000
 Mulliken charges with hydrogens summed into heavy atoms:
               1
     1  C    0.055258
     4  C   -0.126001
     5  C    0.065735
     9  C   -0.051313
    11  C    0.056550
    15  C    0.060166
    19  C   -0.125087
    20  C    0.064135
    24  C   -0.049269
    26  C    0.049825
 Charge=              0.0000 electrons
 Dipole moment (field-independent basis, Debye):
    X=              0.0786    Y=             -0.0516    Z=              0.3662  Tot=              0.3781
 N-N= 3.125638963900D+02 E-N=-5.073457045416D+02  KE=-7.911216609070D+01
 Leave Link  601 at Tue Jul 27 12:14:13 2021, MaxMem=   131072000 cpu:               0.0 elap:               0.0
 (Enter /opt/g16/l9999.exe)
 1\1\GINC-TOTEM\FOpt\RPM3\ZDO\C10H18\JRAMOS\27-Jul-2021\0\\#p opt pm3\\
 Conformer number 036. Energy MM = 25.902 kcal/mol\\0,1\C,2.2726073118,
 1.0198435699,-8.8764472099\H,1.8885002855,-0.0202464963,-8.8826323271\
 H,1.9179614834,1.4775871239,-9.8220385505\C,3.7702072788,1.0390989961,
 -8.8842150196\C,4.3913594206,2.3858772577,-8.9821444092\H,5.4726760249
 ,2.3569831741,-8.773114159\H,4.2539747006,2.8047701115,-9.9875683005\H
 ,3.9150439248,3.0734435122,-8.2619858058\C,4.4783850851,-0.0957520733,
 -8.8113962113\H,3.9606041109,-1.0608337476,-8.7382276538\C,5.955680883
 6,-0.1615287581,-8.8200513062\H,6.4183619099,0.8384196938,-8.772210106
 8\H,6.3235198876,-0.7413989861,-7.9635972658\H,6.3146537159,-0.6525828
 59,-9.7342616326\C,2.1321603178,0.6096922169,-4.0350595953\H,1.6926363
 947,-0.379587095,-4.2189044997\H,3.1486633558,0.4538970493,-3.64845004
 13\H,1.546042501,1.090898117,-3.2403234389\C,2.1606119157,1.4615702911
 ,-5.2546877488\C,2.6968600621,2.8331995805,-5.0559831873\H,2.848551336
 2,3.3587636063,-6.0138543508\H,2.006236273,3.434681899,-4.4500118275\H
 ,3.6622562672,2.8054333542,-4.5336783945\C,1.7247034313,0.9981525502,-
 6.4338467041\H,1.3491301669,-0.0309645589,-6.5121380605\C,1.6971598286
 ,1.7887678338,-7.6919241134\H,0.6451048716,2.067682548,-7.8986460028\H
 ,2.2568472545,2.7504320887,-7.569302077\\Version=ES64L-G16RevA.03\Stat
 e=1-A\HF=-0.0274831\RMSD=3.184e-09\RMSF=1.046e-06\Dipole=0.0511008,0.1
 33127,0.0423221\PG=C01 [X(C10H18)]\\@


 GOD GAVE US TWO ENDS... ONE TO SIT ON...    
 AND THE OTHER TO THINK WITH...              
 YOUR SUCCESS DEPENDS UPON WHICH END YOU     
 USE THE MOST...                             
                                             
 IT'S A CASE OF HEADS YOU WIN TAILS YOU LOSE.
          SOURCE UNKNOWN(IT'S JUST AS WELL.) 
 Job cpu time:       0 days  0 hours  0 minutes 22.8 seconds.
 Elapsed time:       0 days  0 hours  0 minutes 20.2 seconds.
 File lengths (MBytes):  RWF=      6 Int=      0 D2E=      0 Chk=      2 Scr=      1
 Normal termination of Gaussian 16 at Tue Jul 27 12:14:13 2021.
