 Entering Gaussian System, Link 0=/opt/g16/g16
 Input=04-IsoP_000_gaussian.com
 Output=04-IsoP_000_gaussian.log
 Initial command:
 /opt/g16/l1.exe "/tmp/Gau-2765810.inp" -scrdir="/tmp/"
 Entering Link 1 = /opt/g16/l1.exe PID=   2765819.
  
 Copyright (c) 1988,1990,1992,1993,1995,1998,2003,2009,2016,
            Gaussian, Inc.  All Rights Reserved.
  
 This is part of the Gaussian(R) 16 program.  It is based on
 the Gaussian(R) 09 system (copyright 2009, Gaussian, Inc.),
 the Gaussian(R) 03 system (copyright 2003, Gaussian, Inc.),
 the Gaussian(R) 98 system (copyright 1998, Gaussian, Inc.),
 the Gaussian(R) 94 system (copyright 1995, Gaussian, Inc.),
 the Gaussian 92(TM) system (copyright 1992, Gaussian, Inc.),
 the Gaussian 90(TM) system (copyright 1990, Gaussian, Inc.),
 the Gaussian 88(TM) system (copyright 1988, Gaussian, Inc.),
 the Gaussian 86(TM) system (copyright 1986, Carnegie Mellon
 University), and the Gaussian 82(TM) system (copyright 1983,
 Carnegie Mellon University). Gaussian is a federally registered
 trademark of Gaussian, Inc.
  
 This software contains proprietary and confidential information,
 including trade secrets, belonging to Gaussian, Inc.
  
 This software is provided under written license and may be
 used, copied, transmitted, or stored only in accord with that
 written license.
  
 The following legend is applicable only to US Government
 contracts under FAR:
  
                    RESTRICTED RIGHTS LEGEND
  
 Use, reproduction and disclosure by the US Government is
 subject to restrictions as set forth in subparagraphs (a)
 and (c) of the Commercial Computer Software - Restricted
 Rights clause in FAR 52.227-19.
  
 Gaussian, Inc.
 340 Quinnipiac St., Bldg. 40, Wallingford CT 06492
  
  
 ---------------------------------------------------------------
 Warning -- This program may not be used in any manner that
 competes with the business of Gaussian, Inc. or will provide
 assistance to any competitor of Gaussian, Inc.  The licensee
 of this program is prohibited from giving any competitor of
 Gaussian, Inc. access to this program.  By using this program,
 the user acknowledges that Gaussian, Inc. is engaged in the
 business of creating and licensing software in the field of
 computational chemistry and represents and warrants to the
 licensee that it is not a competitor of Gaussian, Inc. and that
 it will not use this program in any manner prohibited above.
 ---------------------------------------------------------------
  

 Cite this work as:
 Gaussian 16, Revision A.03,
 M. J. Frisch, G. W. Trucks, H. B. Schlegel, G. E. Scuseria, 
 M. A. Robb, J. R. Cheeseman, G. Scalmani, V. Barone, 
 G. A. Petersson, H. Nakatsuji, X. Li, M. Caricato, A. V. Marenich, 
 J. Bloino, B. G. Janesko, R. Gomperts, B. Mennucci, H. P. Hratchian, 
 J. V. Ortiz, A. F. Izmaylov, J. L. Sonnenberg, D. Williams-Young, 
 F. Ding, F. Lipparini, F. Egidi, J. Goings, B. Peng, A. Petrone, 
 T. Henderson, D. Ranasinghe, V. G. Zakrzewski, J. Gao, N. Rega, 
 G. Zheng, W. Liang, M. Hada, M. Ehara, K. Toyota, R. Fukuda, 
 J. Hasegawa, M. Ishida, T. Nakajima, Y. Honda, O. Kitao, H. Nakai, 
 T. Vreven, K. Throssell, J. A. Montgomery, Jr., J. E. Peralta, 
 F. Ogliaro, M. J. Bearpark, J. J. Heyd, E. N. Brothers, K. N. Kudin, 
 V. N. Staroverov, T. A. Keith, R. Kobayashi, J. Normand, 
 K. Raghavachari, A. P. Rendell, J. C. Burant, S. S. Iyengar, 
 J. Tomasi, M. Cossi, J. M. Millam, M. Klene, C. Adamo, R. Cammi, 
 J. W. Ochterski, R. L. Martin, K. Morokuma, O. Farkas, 
 J. B. Foresman, and D. J. Fox, Gaussian, Inc., Wallingford CT, 2016.
 
 ******************************************
 Gaussian 16:  ES64L-G16RevA.03 25-Dec-2016
                27-Jul-2021 
 ******************************************
 %chk=04-IsoP_000_gaussian.chk
 %nproc=1
 Will use up to    1 processors via shared memory.
 %mem=1000Mb
 ----------
 #p opt pm3
 ----------
 1/18=20,19=15,26=1,38=1/1,3;
 2/9=110,12=2,17=6,18=5,40=1/2;
 3/5=2,25=1,41=800000,71=1/1,2,3;
 4/35=1/1;
 5/5=2,35=1,38=5/2;
 6/7=2,8=2,9=2,10=2,28=1/1;
 7//1,2,3,16;
 1/18=20,19=15,26=1/3(2);
 2/9=110/2;
 99//99;
 2/9=110/2;
 3/5=2,25=1,41=800000,71=1,135=20/1,2,3;
 4/5=5,16=3,35=1/1;
 5/5=2,35=1,38=5/2;
 7//1,2,3,16;
 1/18=20,19=15,26=1/3(-5);
 2/9=110/2;
 6/7=2,8=2,9=2,10=2,19=2,28=1/1;
 99/9=1/99;
 Leave Link    1 at Tue Jul 27 12:13:28 2021, MaxMem=   131072000 cpu:               0.0 elap:               0.0
 (Enter /opt/g16/l101.exe)
 -------------------------------------------------
 Conformer number 000. Energy MM = 24.913 kcal/mol
 -------------------------------------------------
 Symbolic Z-matrix:
 Charge =  0 Multiplicity = 1
 C                     2.1492    1.2616   -8.9453 
 H                     1.8551    0.2555   -9.2739 
 H                     1.9878    1.9199   -9.8092 
 C                     3.6219    1.2955   -8.5786 
 C                     4.1775    2.6561   -8.2493 
 H                     5.2182    2.7671   -8.5655 
 H                     3.6142    3.4422   -8.7638 
 H                     4.1122    2.8387   -7.1718 
 C                     4.3597    0.1679   -8.5683 
 H                     3.8827   -0.7743   -8.835 
 C                     5.8022    0.04     -8.1917 
 H                     6.2538    0.9819   -7.8715 
 H                     5.9023   -0.6693   -7.3642 
 H                     6.3758   -0.341    -9.0418 
 C                    -2.3876    2.8919   -8.5691 
 H                    -2.7347    1.8801   -8.8036 
 H                    -2.9938    3.2683   -7.7386 
 H                    -2.5708    3.5187   -9.4479 
 C                    -0.9289    2.9238   -8.2006 
 C                    -0.3871    4.2839   -7.8603 
 H                     0.6525    4.405    -8.1799 
 H                    -0.9575    5.0708   -8.3673 
 H                    -0.4515    4.4575   -6.7819 
 C                    -0.1894    1.7953   -8.1819 
 H                    -0.6625    0.8518   -8.4479 
 C                     1.2554    1.6855   -7.7742 
 H                     1.6098    2.6276   -7.3456 
 H                     1.3301    0.946    -6.9679 
 
 ITRead=  0  0  0  0  0  0  0  0  0  0  0  0  0  0  0  0  0  0  0  0
 ITRead=  0  0  0  0  0  0  0  0
 MicOpt= -1 -1 -1 -1 -1 -1 -1 -1 -1 -1 -1 -1 -1 -1 -1 -1 -1 -1 -1 -1
 MicOpt= -1 -1 -1 -1 -1 -1 -1 -1
 NAtoms=     28 NQM=       28 NQMF=       0 NMMI=      0 NMMIF=      0
                NMic=       0 NMicF=      0.
                    Isotopes and Nuclear Properties:
 (Nuclear quadrupole moments (NQMom) in fm**2, nuclear magnetic moments (NMagM)
  in nuclear magnetons)

  Atom         1           2           3           4           5           6           7           8           9          10
 IAtWgt=          12           1           1          12          12           1           1           1          12           1
 AtmWgt=  12.0000000   1.0078250   1.0078250  12.0000000  12.0000000   1.0078250   1.0078250   1.0078250  12.0000000   1.0078250
 NucSpn=           0           1           1           0           0           1           1           1           0           1
 AtZEff=  -0.0000000  -0.0000000  -0.0000000  -0.0000000  -0.0000000  -0.0000000  -0.0000000  -0.0000000  -0.0000000  -0.0000000
 NQMom=    0.0000000   0.0000000   0.0000000   0.0000000   0.0000000   0.0000000   0.0000000   0.0000000   0.0000000   0.0000000
 NMagM=    0.0000000   2.7928460   2.7928460   0.0000000   0.0000000   2.7928460   2.7928460   2.7928460   0.0000000   2.7928460
 AtZNuc=   6.0000000   1.0000000   1.0000000   6.0000000   6.0000000   1.0000000   1.0000000   1.0000000   6.0000000   1.0000000

  Atom        11          12          13          14          15          16          17          18          19          20
 IAtWgt=          12           1           1           1          12           1           1           1          12          12
 AtmWgt=  12.0000000   1.0078250   1.0078250   1.0078250  12.0000000   1.0078250   1.0078250   1.0078250  12.0000000  12.0000000
 NucSpn=           0           1           1           1           0           1           1           1           0           0
 AtZEff=  -0.0000000  -0.0000000  -0.0000000  -0.0000000  -0.0000000  -0.0000000  -0.0000000  -0.0000000  -0.0000000  -0.0000000
 NQMom=    0.0000000   0.0000000   0.0000000   0.0000000   0.0000000   0.0000000   0.0000000   0.0000000   0.0000000   0.0000000
 NMagM=    0.0000000   2.7928460   2.7928460   2.7928460   0.0000000   2.7928460   2.7928460   2.7928460   0.0000000   0.0000000
 AtZNuc=   6.0000000   1.0000000   1.0000000   1.0000000   6.0000000   1.0000000   1.0000000   1.0000000   6.0000000   6.0000000

  Atom        21          22          23          24          25          26          27          28
 IAtWgt=           1           1           1          12           1          12           1           1
 AtmWgt=   1.0078250   1.0078250   1.0078250  12.0000000   1.0078250  12.0000000   1.0078250   1.0078250
 NucSpn=           1           1           1           0           1           0           1           1
 AtZEff=  -0.0000000  -0.0000000  -0.0000000  -0.0000000  -0.0000000  -0.0000000  -0.0000000  -0.0000000
 NQMom=    0.0000000   0.0000000   0.0000000   0.0000000   0.0000000   0.0000000   0.0000000   0.0000000
 NMagM=    2.7928460   2.7928460   2.7928460   0.0000000   2.7928460   0.0000000   2.7928460   2.7928460
 AtZNuc=   1.0000000   1.0000000   1.0000000   6.0000000   1.0000000   6.0000000   1.0000000   1.0000000
 Leave Link  101 at Tue Jul 27 12:13:28 2021, MaxMem=   131072000 cpu:               0.2 elap:               0.2
 (Enter /opt/g16/l103.exe)

 GradGradGradGradGradGradGradGradGradGradGradGradGradGradGradGradGradGrad
 Berny optimization.
 Initialization pass.
                           ----------------------------
                           !    Initial Parameters    !
                           ! (Angstroms and Degrees)  !
 --------------------------                            --------------------------
 ! Name  Definition              Value          Derivative Info.                !
 --------------------------------------------------------------------------------
 ! R1    R(1,2)                  1.0985         estimate D2E/DX2                !
 ! R2    R(1,3)                  1.0981         estimate D2E/DX2                !
 ! R3    R(1,4)                  1.518          estimate D2E/DX2                !
 ! R4    R(1,26)                 1.533          estimate D2E/DX2                !
 ! R5    R(4,5)                  1.5061         estimate D2E/DX2                !
 ! R6    R(4,9)                  1.3476         estimate D2E/DX2                !
 ! R7    R(5,6)                  1.0933         estimate D2E/DX2                !
 ! R8    R(5,7)                  1.0954         estimate D2E/DX2                !
 ! R9    R(5,8)                  1.0948         estimate D2E/DX2                !
 ! R10   R(9,10)                 1.0892         estimate D2E/DX2                !
 ! R11   R(9,11)                 1.4963         estimate D2E/DX2                !
 ! R12   R(11,12)                1.0925         estimate D2E/DX2                !
 ! R13   R(11,13)                1.0945         estimate D2E/DX2                !
 ! R14   R(11,14)                1.094          estimate D2E/DX2                !
 ! R15   R(15,16)                1.0951         estimate D2E/DX2                !
 ! R16   R(15,17)                1.0949         estimate D2E/DX2                !
 ! R17   R(15,18)                1.0949         estimate D2E/DX2                !
 ! R18   R(15,19)                1.5049         estimate D2E/DX2                !
 ! R19   R(19,20)                1.5031         estimate D2E/DX2                !
 ! R20   R(19,24)                1.3493         estimate D2E/DX2                !
 ! R21   R(20,21)                1.0943         estimate D2E/DX2                !
 ! R22   R(20,22)                1.0962         estimate D2E/DX2                !
 ! R23   R(20,23)                1.0942         estimate D2E/DX2                !
 ! R24   R(24,25)                1.0885         estimate D2E/DX2                !
 ! R25   R(24,26)                1.5052         estimate D2E/DX2                !
 ! R26   R(26,27)                1.094          estimate D2E/DX2                !
 ! R27   R(26,28)                1.0966         estimate D2E/DX2                !
 ! A1    A(2,1,3)              105.9254         estimate D2E/DX2                !
 ! A2    A(2,1,4)              110.6368         estimate D2E/DX2                !
 ! A3    A(2,1,26)             109.0068         estimate D2E/DX2                !
 ! A4    A(3,1,4)              108.618          estimate D2E/DX2                !
 ! A5    A(3,1,26)             110.4598         estimate D2E/DX2                !
 ! A6    A(4,1,26)             112.0192         estimate D2E/DX2                !
 ! A7    A(1,4,5)              115.5226         estimate D2E/DX2                !
 ! A8    A(1,4,9)              120.9514         estimate D2E/DX2                !
 ! A9    A(5,4,9)              123.5236         estimate D2E/DX2                !
 ! A10   A(4,5,6)              112.3104         estimate D2E/DX2                !
 ! A11   A(4,5,7)              110.8485         estimate D2E/DX2                !
 ! A12   A(4,5,8)              110.112          estimate D2E/DX2                !
 ! A13   A(6,5,7)              106.307          estimate D2E/DX2                !
 ! A14   A(6,5,8)              108.9339         estimate D2E/DX2                !
 ! A15   A(7,5,8)              108.1732         estimate D2E/DX2                !
 ! A16   A(4,9,10)             118.8281         estimate D2E/DX2                !
 ! A17   A(4,9,11)             126.96           estimate D2E/DX2                !
 ! A18   A(10,9,11)            114.1962         estimate D2E/DX2                !
 ! A19   A(9,11,12)            113.4877         estimate D2E/DX2                !
 ! A20   A(9,11,13)            109.5028         estimate D2E/DX2                !
 ! A21   A(9,11,14)            109.8554         estimate D2E/DX2                !
 ! A22   A(12,11,13)           107.4169         estimate D2E/DX2                !
 ! A23   A(12,11,14)           108.135          estimate D2E/DX2                !
 ! A24   A(13,11,14)           108.2916         estimate D2E/DX2                !
 ! A25   A(16,15,17)           107.7317         estimate D2E/DX2                !
 ! A26   A(16,15,18)           107.7001         estimate D2E/DX2                !
 ! A27   A(16,15,19)           112.2879         estimate D2E/DX2                !
 ! A28   A(17,15,18)           108.6247         estimate D2E/DX2                !
 ! A29   A(17,15,19)           110.0985         estimate D2E/DX2                !
 ! A30   A(18,15,19)           110.2799         estimate D2E/DX2                !
 ! A31   A(15,19,20)           115.089          estimate D2E/DX2                !
 ! A32   A(15,19,24)           121.1244         estimate D2E/DX2                !
 ! A33   A(20,19,24)           123.7862         estimate D2E/DX2                !
 ! A34   A(19,20,21)           112.1137         estimate D2E/DX2                !
 ! A35   A(19,20,22)           110.9339         estimate D2E/DX2                !
 ! A36   A(19,20,23)           110.2116         estimate D2E/DX2                !
 ! A37   A(21,20,22)           106.2488         estimate D2E/DX2                !
 ! A38   A(21,20,23)           109.0378         estimate D2E/DX2                !
 ! A39   A(22,20,23)           108.1391         estimate D2E/DX2                !
 ! A40   A(19,24,25)           118.9045         estimate D2E/DX2                !
 ! A41   A(19,24,26)           126.214          estimate D2E/DX2                !
 ! A42   A(25,24,26)           114.8445         estimate D2E/DX2                !
 ! A43   A(1,26,24)            111.8941         estimate D2E/DX2                !
 ! A44   A(1,26,27)            110.3977         estimate D2E/DX2                !
 ! A45   A(1,26,28)            109.6033         estimate D2E/DX2                !
 ! A46   A(24,26,27)           110.7467         estimate D2E/DX2                !
 ! A47   A(24,26,28)           108.2839         estimate D2E/DX2                !
 ! A48   A(27,26,28)           105.6995         estimate D2E/DX2                !
 ! D1    D(2,1,4,5)            173.8874         estimate D2E/DX2                !
 ! D2    D(2,1,4,9)             -5.5762         estimate D2E/DX2                !
 ! D3    D(3,1,4,5)             58.0216         estimate D2E/DX2                !
 ! D4    D(3,1,4,9)           -121.442          estimate D2E/DX2                !
 ! D5    D(26,1,4,5)           -64.2625         estimate D2E/DX2                !
 ! D6    D(26,1,4,9)           116.274          estimate D2E/DX2                !
 ! D7    D(2,1,26,24)          -63.413          estimate D2E/DX2                !
 ! D8    D(2,1,26,27)          172.7555         estimate D2E/DX2                !
 ! D9    D(2,1,26,28)           56.7223         estimate D2E/DX2                !
 ! D10   D(3,1,26,24)           52.58           estimate D2E/DX2                !
 ! D11   D(3,1,26,27)          -71.2515         estimate D2E/DX2                !
 ! D12   D(3,1,26,28)          172.7153         estimate D2E/DX2                !
 ! D13   D(4,1,26,24)          173.808          estimate D2E/DX2                !
 ! D14   D(4,1,26,27)           49.9765         estimate D2E/DX2                !
 ! D15   D(4,1,26,28)          -66.0567         estimate D2E/DX2                !
 ! D16   D(1,4,5,6)           -146.0172         estimate D2E/DX2                !
 ! D17   D(1,4,5,7)            -27.2639         estimate D2E/DX2                !
 ! D18   D(1,4,5,8)             92.3973         estimate D2E/DX2                !
 ! D19   D(9,4,5,6)             33.4309         estimate D2E/DX2                !
 ! D20   D(9,4,5,7)            152.1843         estimate D2E/DX2                !
 ! D21   D(9,4,5,8)            -88.1545         estimate D2E/DX2                !
 ! D22   D(1,4,9,10)             0.3948         estimate D2E/DX2                !
 ! D23   D(1,4,9,11)          -178.0738         estimate D2E/DX2                !
 ! D24   D(5,4,9,10)          -179.0245         estimate D2E/DX2                !
 ! D25   D(5,4,9,11)             2.507          estimate D2E/DX2                !
 ! D26   D(4,9,11,12)            1.8356         estimate D2E/DX2                !
 ! D27   D(4,9,11,13)          121.8446         estimate D2E/DX2                !
 ! D28   D(4,9,11,14)         -119.3459         estimate D2E/DX2                !
 ! D29   D(10,9,11,12)        -176.6935         estimate D2E/DX2                !
 ! D30   D(10,9,11,13)         -56.6845         estimate D2E/DX2                !
 ! D31   D(10,9,11,14)          62.125          estimate D2E/DX2                !
 ! D32   D(16,15,19,20)       -179.7446         estimate D2E/DX2                !
 ! D33   D(16,15,19,24)          0.0364         estimate D2E/DX2                !
 ! D34   D(17,15,19,20)        -59.7129         estimate D2E/DX2                !
 ! D35   D(17,15,19,24)        120.0681         estimate D2E/DX2                !
 ! D36   D(18,15,19,20)         60.1391         estimate D2E/DX2                !
 ! D37   D(18,15,19,24)       -120.0798         estimate D2E/DX2                !
 ! D38   D(15,19,20,21)       -145.57           estimate D2E/DX2                !
 ! D39   D(15,19,20,22)        -26.9622         estimate D2E/DX2                !
 ! D40   D(15,19,20,23)         92.7757         estimate D2E/DX2                !
 ! D41   D(24,19,20,21)         34.6555         estimate D2E/DX2                !
 ! D42   D(24,19,20,22)        153.2633         estimate D2E/DX2                !
 ! D43   D(24,19,20,23)        -86.9987         estimate D2E/DX2                !
 ! D44   D(15,19,24,25)          0.545          estimate D2E/DX2                !
 ! D45   D(15,19,24,26)       -177.1221         estimate D2E/DX2                !
 ! D46   D(20,19,24,25)       -179.6936         estimate D2E/DX2                !
 ! D47   D(20,19,24,26)          2.6393         estimate D2E/DX2                !
 ! D48   D(19,24,26,1)        -115.2978         estimate D2E/DX2                !
 ! D49   D(19,24,26,27)          8.3376         estimate D2E/DX2                !
 ! D50   D(19,24,26,28)        123.7986         estimate D2E/DX2                !
 ! D51   D(25,24,26,1)          66.9528         estimate D2E/DX2                !
 ! D52   D(25,24,26,27)       -169.4119         estimate D2E/DX2                !
 ! D53   D(25,24,26,28)        -53.9508         estimate D2E/DX2                !
 --------------------------------------------------------------------------------
 Trust Radius=3.00D-01 FncErr=1.00D-07 GrdErr=1.00D-07 EigMax=2.50D+02 EigMin=1.00D-04
 Number of steps in this run=    138 maximum allowed number of steps=    168.
 GradGradGradGradGradGradGradGradGradGradGradGradGradGradGradGradGradGrad

 Leave Link  103 at Tue Jul 27 12:13:28 2021, MaxMem=   131072000 cpu:               0.0 elap:               0.0
 (Enter /opt/g16/l202.exe)
                          Input orientation:                          
 ---------------------------------------------------------------------
 Center     Atomic      Atomic             Coordinates (Angstroms)
 Number     Number       Type             X           Y           Z
 ---------------------------------------------------------------------
      1          6           0        2.149200    1.261600   -8.945300
      2          1           0        1.855100    0.255500   -9.273900
      3          1           0        1.987800    1.919900   -9.809200
      4          6           0        3.621900    1.295500   -8.578600
      5          6           0        4.177500    2.656100   -8.249300
      6          1           0        5.218200    2.767100   -8.565500
      7          1           0        3.614200    3.442200   -8.763800
      8          1           0        4.112200    2.838700   -7.171800
      9          6           0        4.359700    0.167900   -8.568300
     10          1           0        3.882700   -0.774300   -8.835000
     11          6           0        5.802200    0.040000   -8.191700
     12          1           0        6.253800    0.981900   -7.871500
     13          1           0        5.902300   -0.669300   -7.364200
     14          1           0        6.375800   -0.341000   -9.041800
     15          6           0       -2.387600    2.891900   -8.569100
     16          1           0       -2.734700    1.880100   -8.803600
     17          1           0       -2.993800    3.268300   -7.738600
     18          1           0       -2.570800    3.518700   -9.447900
     19          6           0       -0.928900    2.923800   -8.200600
     20          6           0       -0.387100    4.283900   -7.860300
     21          1           0        0.652500    4.405000   -8.179900
     22          1           0       -0.957500    5.070800   -8.367300
     23          1           0       -0.451500    4.457500   -6.781900
     24          6           0       -0.189400    1.795300   -8.181900
     25          1           0       -0.662500    0.851800   -8.447900
     26          6           0        1.255400    1.685500   -7.774200
     27          1           0        1.609800    2.627600   -7.345600
     28          1           0        1.330100    0.946000   -6.967900
 ---------------------------------------------------------------------
                    Distance matrix (angstroms):
                    1          2          3          4          5
     1  C    0.000000
     2  H    1.098504   0.000000
     3  H    1.098058   1.753392   0.000000
     4  C    1.518046   2.164861   2.138816   0.000000
     5  C    2.557938   3.493741   2.787484   1.506108   0.000000
     6  H    3.439410   4.256807   3.563709   2.171164   1.093325
     7  H    2.633284   3.675553   2.460779   2.154688   1.095432
     8  H    3.079921   4.023214   3.509009   2.144982   1.094812
     9  C    2.494919   2.603568   3.199257   1.347567   2.515173
    10  H    2.676206   2.316092   3.434884   2.101863   3.492506
    11  C    3.924873   4.098438   4.549723   2.545522   3.080089
    12  H    4.251943   4.673644   4.778418   2.743216   2.693826
    13  H    4.507107   4.569687   5.292003   3.245833   3.849237
    14  H    4.521259   4.565787   4.995510   3.236766   3.800419
    15  C    4.835490   5.044586   4.650458   6.217932   6.577113
    16  H    4.924947   4.891500   4.828542   6.387390   6.977674
    17  H    5.650966   5.911509   5.560747   6.954497   7.215480
    18  H    5.255997   5.501576   4.844330   6.636854   6.907986
    19  C    3.576617   4.002806   3.478872   4.848095   5.113644
    20  C    4.091985   4.822212   3.876449   5.051591   4.861751
    21  H    3.564676   4.456617   3.257816   4.318019   3.935618
    22  H    4.949310   5.649757   4.547751   5.938724   5.675643
    23  H    4.653785   5.402525   4.642644   5.460674   5.179377
    24  C    2.517273   2.782702   2.720998   3.864347   4.451442
    25  H    2.884614   2.715909   3.165133   4.309296   5.169191
    26  C    1.532986   2.157230   2.175449   2.529720   3.115518
    27  H    2.171623   3.066818   2.590955   2.709857   2.722236
    28  H    2.163478   2.463747   3.074742   2.822916   3.560072
                    6          7          8          9         10
     6  H    0.000000
     7  H    1.751542   0.000000
     8  H    1.780663   1.773888   0.000000
     9  C    2.737311   3.363782   3.024011   0.000000
    10  H    3.794431   4.225640   3.984052   1.089219   0.000000
    11  C    2.813869   4.085292   3.424765   1.496326   2.182063
    12  H    2.177393   3.717091   2.919544   2.176176   3.103979
    13  H    3.704046   4.909044   3.943037   2.128468   2.500612
    14  H    3.350699   4.692155   4.327965   2.132567   2.538910
    15  C    7.606825   6.030120   6.648509   7.276416   7.268314
    16  H    8.005753   6.538369   7.103642   7.301884   7.129994
    17  H    8.268731   6.689315   7.141502   8.023394   8.051768
    18  H    7.874773   6.223188   7.092638   7.748122   7.775163
    19  C    6.159914   4.607135   5.145713   5.974904   6.101631
    20  C    5.849562   4.187502   4.775598   6.322565   6.690786
    21  H    4.865904   3.168531   3.929260   5.643333   6.139096
    22  H    6.594360   4.869291   5.666864   7.235430   7.603386
    23  H    6.179335   4.635588   4.857972   6.688762   7.097340
    24  C    5.507602   4.185482   4.540126   4.846859   4.859154
    25  H    6.185858   5.010003   5.326722   5.069981   4.842818
    26  C    4.183276   3.103102   3.139118   3.545474   3.752148
    27  H    3.811583   2.586984   2.517295   3.886781   4.353999
    28  H    4.581054   3.830585   3.371049   3.513573   3.600175
                   11         12         13         14         15
    11  C    0.000000
    12  H    1.092541   0.000000
    13  H    1.094478   1.762773   0.000000
    14  H    1.094005   1.770466   1.773788   0.000000
    15  C    8.680356   8.877417   9.102548   9.352661   0.000000
    16  H    8.754373   9.081228   9.119708   9.380364   1.095084
    17  H    9.380663   9.526982   9.735783  10.124958   1.094936
    18  H    9.153498   9.316327   9.678563   9.752120   1.094865
    19  C    7.322847   7.447849   7.763712   8.045196   1.504864
    20  C    7.511854   7.416528   8.021026   8.277829   2.538122
    21  H    6.750761   6.571703   7.346719   7.484888   3.418063
    22  H    8.428127   8.304684   9.000656   9.138918   2.614099
    23  H    7.785281   7.630732   8.184982   8.645506   3.064910
    24  C    6.243432   6.501753   6.622061   6.957374   2.486873
    25  H    6.520506   6.941496   6.825302   7.163320   2.674447
    26  C    4.853387   5.048616   5.225597   5.650841   3.919020
    27  H    4.998778   4.954961   5.412527   5.865530   4.188796
    28  H    4.724214   5.006057   4.865312   5.605044   4.491287
                   16         17         18         19         20
    16  H    0.000000
    17  H    1.768744   0.000000
    18  H    1.768331   1.778577   0.000000
    19  C    2.171136   2.143813   2.146043   0.000000
    20  C    3.489885   2.800203   2.806163   1.503071   0.000000
    21  H    4.270509   3.844780   3.575334   2.166843   1.094339
    22  H    3.678228   2.791198   2.485849   2.153652   1.096183
    23  H    3.992902   2.965259   3.532752   2.143095   1.094180
    24  C    2.621498   3.198578   3.200614   1.349341   2.517070
    25  H    2.340499   3.431842   3.428406   2.103642   3.492911
    26  C    4.125340   4.534559   4.560888   2.546835   3.075208
    27  H    4.643189   4.664556   4.763522   2.695136   2.644968
    28  H    4.556856   4.968216   5.290199   3.245662   3.858333
                   21         22         23         24         25
    21  H    0.000000
    22  H    1.752287   0.000000
    23  H    1.782127   1.773603   0.000000
    24  C    2.742140   3.369459   3.019272   0.000000
    25  H    3.798194   4.230069   3.977581   1.088472   0.000000
    26  C    2.814918   4.087658   3.403256   1.505232   2.197104
    27  H    2.184406   3.688377   2.813405   2.151567   3.087374
    28  H    3.727300   4.919899   3.941995   2.122260   2.483894
                   26         27         28
    26  C    0.000000
    27  H    1.094006   0.000000
    28  H    1.096613   1.746044   0.000000
 Stoichiometry    C10H18
 Framework group  C1[X(C10H18)]
 Deg. of freedom    78
 Full point group                 C1      NOp   1
 Largest Abelian subgroup         C1      NOp   1
 Largest concise Abelian subgroup C1      NOp   1
                         Standard orientation:                         
 ---------------------------------------------------------------------
 Center     Atomic      Atomic             Coordinates (Angstroms)
 Number     Number       Type             X           Y           Z
 ---------------------------------------------------------------------
      1          6           0        0.622747   -0.601625   -0.528545
      2          1           0        0.722739   -1.688593   -0.651878
      3          1           0        0.247698   -0.222716   -1.488492
      4          6           0        1.974230    0.032032   -0.252075
      5          6           0        1.988027    1.537390   -0.206560
      6          1           0        2.921744    1.955744   -0.591934
      7          1           0        1.185876    1.953518   -0.825721
      8          1           0        1.840878    1.884304    0.821356
      9          6           0        3.072779   -0.728007   -0.074687
     10          1           0        2.978075   -1.811174   -0.139319
     11          6           0        4.455110   -0.251090    0.242650
     12          1           0        4.525311    0.832730    0.361195
     13          1           0        4.792413   -0.705634    1.179399
     14          1           0        5.143670   -0.551978   -0.552459
     15          6           0       -4.202085   -0.685396   -0.218800
     16          1           0       -4.151049   -1.778953   -0.245925
     17          1           0       -4.918945   -0.404220    0.559620
     18          1           0       -4.585638   -0.345951   -1.186475
     19          6           0       -2.862933   -0.058294    0.060538
     20          6           0       -2.861996    1.443691    0.117668
     21          1           0       -1.932932    1.870222   -0.272831
     22          1           0       -3.671184    1.859398   -0.493903
     23          1           0       -3.005035    1.782888    1.148065
     24          6           0       -1.762625   -0.816949    0.246247
     25          1           0       -1.853238   -1.899758    0.182335
     26          6           0       -0.385336   -0.316793    0.590690
     27          1           0       -0.407643    0.752522    0.820727
     28          1           0       -0.060247   -0.812112    1.513477
 ---------------------------------------------------------------------
 Rotational constants (GHZ):           3.5828227           0.4560453           0.4205699
 Leave Link  202 at Tue Jul 27 12:13:28 2021, MaxMem=   131072000 cpu:               0.0 elap:               0.0
 (Enter /opt/g16/l301.exe)
 Standard basis: VSTO-6G (5D, 7F)
 Ernie: Thresh=  0.10000D-02 Tol=  0.10000D-05 Strict=F.
  NNHCO=     0 NNPyr=     0 NCTC=     0               EPep=         0.000000000
    EC=       244.513915704  ECS=         3.524439438   EG=         0.891583902
   EHC=         0.000000000  EAt=       -49.524085099  AtH=         4.217842293
 EPDDG=         0.000000000  ECC=       248.929939044 EAtT=        53.741927392
 There are    58 symmetry adapted cartesian basis functions of A   symmetry.
 There are    58 symmetry adapted basis functions of A   symmetry.
    58 basis functions,   348 primitive gaussians,    58 cartesian basis functions
    29 alpha electrons       29 beta electrons
       nuclear repulsion energy       302.6718664363 Hartrees.
 IExCor=    0 DFT=F Ex=HF Corr=None ExCW=0 ScaHFX=  1.000000
 ScaDFX=  1.000000  1.000000  1.000000  1.000000 ScalE2=  1.000000  1.000000
 IRadAn=      5 IRanWt=     -1 IRanGd=            0 ICorTp=0 IEmpDi=  4
 Integral buffers will be    131072 words long.
 Regular integral format.
 Two-electron integral symmetry is turned off.
 Leave Link  301 at Tue Jul 27 12:13:28 2021, MaxMem=   131072000 cpu:               0.1 elap:               0.0
 (Enter /opt/g16/l302.exe)
 Do NDO integrals.
 NPDir=0 NMtPBC=     1 NCelOv=     1 NCel=       1 NClECP=     1 NCelD=      1
         NCelK=      1 NCelE2=     1 NClLst=     1 CellRange=     0.0.
 One-electron integrals computed using PRISM.
 NBasis=    58 RedAO= F EigKep=  0.00D+00  NBF=    58
 NBsUse=    58 1.00D-04 EigRej=  0.00D+00 NBFU=    58
 Leave Link  302 at Tue Jul 27 12:13:28 2021, MaxMem=   131072000 cpu:               0.1 elap:               0.1
 (Enter /opt/g16/l303.exe)
 DipDrv:  MaxL=1.
 Leave Link  303 at Tue Jul 27 12:13:28 2021, MaxMem=   131072000 cpu:               0.0 elap:               0.0
 (Enter /opt/g16/l401.exe)
 Simple Huckel Guess.
 JPrj=0 DoOrth=F DoCkMO=F.
 Leave Link  401 at Tue Jul 27 12:13:28 2021, MaxMem=   131072000 cpu:               0.0 elap:               0.0
 (Enter /opt/g16/l502.exe)
 Keep J ints in memory in canonical form, NReq=866866.
 FoFCou: FMM=F IPFlag=           0 FMFlag=           0 FMFlg1=           0
         NFxFlg=           0 DoJE=F BraDBF=F KetDBF=F FulRan=T
         wScrn=  0.000000 ICntrl=       600 IOpCl=  2 I1Cent=           0 NGrid=           0
         NMat0=    1 NMatS0=    118 NMatT0=    0 NMatD0=    1 NMtDS0=    0 NMtDT0=    0
 Symmetry not used in FoFCou.
 Two-electron integral symmetry not used.
 Closed shell SCF:
 Using DIIS extrapolation, IDIIS=  1040.
 Overlap will be assumed to be unity.
 NGot=   131072000 LenX=   130997697 LenY=   130993892
 Requested convergence on RMS density matrix=1.00D-08 within 128 cycles.
 Requested convergence on MAX density matrix=1.00D-06.
 Requested convergence on             energy=1.00D-06.
 No special actions if energy rises.

 Cycle   1  Pass 1  IDiag  1:
 E= 0.216355993138563    
 DIIS: error= 2.75D-02 at cycle   1 NSaved=   1.
 NSaved= 1 IEnMin= 1 EnMin= 0.216355993138563     IErMin= 1 ErrMin= 2.75D-02
 ErrMax= 2.75D-02  0.00D+00 EMaxC= 1.00D-01 BMatC= 9.45D-02 BMatP= 9.45D-02
 IDIUse=3 WtCom= 7.25D-01 WtEn= 2.75D-01
 Coeff-Com:  0.100D+01
 Coeff-En:   0.100D+01
 Coeff:      0.100D+01
 GapD=    2.000 DampG=2.000 DampE=0.500 DampFc=1.0000 IDamp=-1.
 RMSDP=7.16D-03 MaxDP=8.50D-02              OVMax= 0.00D+00

 Cycle   2  Pass 1  IDiag  1:
 E=-0.360806412913917E-02 Delta-E=       -0.219964057268 Rises=F Damp=F
 DIIS: error= 7.95D-03 at cycle   2 NSaved=   2.
 NSaved= 2 IEnMin= 2 EnMin=-0.360806412913917E-02 IErMin= 2 ErrMin= 7.95D-03
 ErrMax= 7.95D-03  0.00D+00 EMaxC= 1.00D-01 BMatC= 6.06D-03 BMatP= 9.45D-02
 IDIUse=3 WtCom= 9.21D-01 WtEn= 7.95D-02
 Coeff-Com: -0.317D+00 0.132D+01
 Coeff-En:   0.000D+00 0.100D+01
 Coeff:     -0.292D+00 0.129D+01
 RMSDP=2.59D-03 MaxDP=2.87D-02 DE=-2.20D-01 OVMax= 0.00D+00

 Cycle   3  Pass 1  IDiag  3:
 E=-0.208985915417088E-01 Delta-E=       -0.017290527413 Rises=F Damp=F
 DIIS: error= 9.22D-04 at cycle   3 NSaved=   3.
 NSaved= 3 IEnMin= 3 EnMin=-0.208985915417088E-01 IErMin= 3 ErrMin= 9.22D-04
 ErrMax= 9.22D-04  0.00D+00 EMaxC= 1.00D-01 BMatC= 7.17D-05 BMatP= 6.06D-03
 IDIUse=3 WtCom= 9.91D-01 WtEn= 9.22D-03
 Coeff-Com:  0.107D+00-0.500D+00 0.139D+01
 Coeff-En:   0.000D+00 0.000D+00 0.100D+01
 Coeff:      0.106D+00-0.496D+00 0.139D+01
 Gap=     0.377 Goal=   None    Shift=    0.000
 RMSDP=4.18D-04 MaxDP=4.08D-03 DE=-1.73D-02 OVMax= 6.27D-03

 Cycle   4  Pass 1  IDiag  3:
 E=-0.212231549342050E-01 Delta-E=       -0.000324563392 Rises=F Damp=F
 DIIS: error= 1.97D-04 at cycle   4 NSaved=   4.
 NSaved= 4 IEnMin= 4 EnMin=-0.212231549342050E-01 IErMin= 4 ErrMin= 1.97D-04
 ErrMax= 1.97D-04  0.00D+00 EMaxC= 1.00D-01 BMatC= 3.08D-06 BMatP= 7.17D-05
 IDIUse=3 WtCom= 9.98D-01 WtEn= 1.97D-03
 Coeff-Com: -0.466D-01 0.224D+00-0.731D+00 0.155D+01
 Coeff-En:   0.000D+00 0.000D+00 0.000D+00 0.100D+01
 Coeff:     -0.465D-01 0.223D+00-0.729D+00 0.155D+01
 Gap=     0.378 Goal=   None    Shift=    0.000
 RMSDP=1.06D-04 MaxDP=1.12D-03 DE=-3.25D-04 OVMax= 9.45D-04

 Cycle   5  Pass 1  IDiag  3:
 E=-0.212405320079370E-01 Delta-E=       -0.000017377074 Rises=F Damp=F
 DIIS: error= 5.78D-05 at cycle   5 NSaved=   5.
 NSaved= 5 IEnMin= 5 EnMin=-0.212405320079370E-01 IErMin= 5 ErrMin= 5.78D-05
 ErrMax= 5.78D-05  0.00D+00 EMaxC= 1.00D-01 BMatC= 1.79D-07 BMatP= 3.08D-06
 IDIUse=1 WtCom= 1.00D+00 WtEn= 0.00D+00
 Coeff-Com:  0.131D-01-0.627D-01 0.213D+00-0.595D+00 0.143D+01
 Coeff:      0.131D-01-0.627D-01 0.213D+00-0.595D+00 0.143D+01
 Gap=     0.378 Goal=   None    Shift=    0.000
 RMSDP=2.65D-05 MaxDP=3.17D-04 DE=-1.74D-05 OVMax= 2.27D-04

 Cycle   6  Pass 1  IDiag  3:
 E=-0.212416383790810E-01 Delta-E=       -0.000001106371 Rises=F Damp=F
 DIIS: error= 1.91D-05 at cycle   6 NSaved=   6.
 NSaved= 6 IEnMin= 6 EnMin=-0.212416383790810E-01 IErMin= 6 ErrMin= 1.91D-05
 ErrMax= 1.91D-05  0.00D+00 EMaxC= 1.00D-01 BMatC= 1.59D-08 BMatP= 1.79D-07
 IDIUse=1 WtCom= 1.00D+00 WtEn= 0.00D+00
 Coeff-Com: -0.477D-02 0.228D-01-0.760D-01 0.216D+00-0.742D+00 0.158D+01
 Coeff:     -0.477D-02 0.228D-01-0.760D-01 0.216D+00-0.742D+00 0.158D+01
 Gap=     0.378 Goal=   None    Shift=    0.000
 RMSDP=9.38D-06 MaxDP=1.23D-04 DE=-1.11D-06 OVMax= 9.34D-05

 Cycle   7  Pass 1  IDiag  3:
 E=-0.212417485619198E-01 Delta-E=       -0.000000110183 Rises=F Damp=F
 DIIS: error= 4.64D-06 at cycle   7 NSaved=   7.
 NSaved= 7 IEnMin= 7 EnMin=-0.212417485619198E-01 IErMin= 7 ErrMin= 4.64D-06
 ErrMax= 4.64D-06  0.00D+00 EMaxC= 1.00D-01 BMatC= 1.03D-09 BMatP= 1.59D-08
 IDIUse=1 WtCom= 1.00D+00 WtEn= 0.00D+00
 Coeff-Com:  0.117D-02-0.558D-02 0.180D-01-0.512D-01 0.236D+00-0.746D+00
 Coeff-Com:  0.155D+01
 Coeff:      0.117D-02-0.558D-02 0.180D-01-0.512D-01 0.236D+00-0.746D+00
 Coeff:      0.155D+01
 Gap=     0.378 Goal=   None    Shift=    0.000
 RMSDP=2.40D-06 MaxDP=3.31D-05 DE=-1.10D-07 OVMax= 2.95D-05

 Cycle   8  Pass 1  IDiag  3:
 E=-0.212417554327544E-01 Delta-E=       -0.000000006871 Rises=F Damp=F
 DIIS: error= 1.21D-06 at cycle   8 NSaved=   8.
 NSaved= 8 IEnMin= 8 EnMin=-0.212417554327544E-01 IErMin= 8 ErrMin= 1.21D-06
 ErrMax= 1.21D-06  0.00D+00 EMaxC= 1.00D-01 BMatC= 4.86D-11 BMatP= 1.03D-09
 IDIUse=1 WtCom= 1.00D+00 WtEn= 0.00D+00
 Coeff-Com: -0.103D-03 0.478D-03-0.138D-02 0.371D-02-0.338D-01 0.154D+00
 Coeff-Com: -0.501D+00 0.138D+01
 Coeff:     -0.103D-03 0.478D-03-0.138D-02 0.371D-02-0.338D-01 0.154D+00
 Coeff:     -0.501D+00 0.138D+01
 Gap=     0.378 Goal=   None    Shift=    0.000
 RMSDP=4.73D-07 MaxDP=8.14D-06 DE=-6.87D-09 OVMax= 7.10D-06

 Cycle   9  Pass 1  IDiag  3:
 E=-0.212417557464732E-01 Delta-E=       -0.000000000314 Rises=F Damp=F
 DIIS: error= 3.65D-07 at cycle   9 NSaved=   9.
 NSaved= 9 IEnMin= 9 EnMin=-0.212417557464732E-01 IErMin= 9 ErrMin= 3.65D-07
 ErrMax= 3.65D-07  0.00D+00 EMaxC= 1.00D-01 BMatC= 4.48D-12 BMatP= 4.86D-11
 IDIUse=1 WtCom= 1.00D+00 WtEn= 0.00D+00
 Coeff-Com:  0.358D-04-0.162D-03 0.412D-03-0.898D-03 0.122D-01-0.641D-01
 Coeff-Com:  0.230D+00-0.835D+00 0.166D+01
 Coeff:      0.358D-04-0.162D-03 0.412D-03-0.898D-03 0.122D-01-0.641D-01
 Coeff:      0.230D+00-0.835D+00 0.166D+01
 Gap=     0.378 Goal=   None    Shift=    0.000
 RMSDP=1.64D-07 MaxDP=2.69D-06 DE=-3.14D-10 OVMax= 2.37D-06

 Cycle  10  Pass 1  IDiag  3:
 E=-0.212417557772255E-01 Delta-E=       -0.000000000031 Rises=F Damp=F
 DIIS: error= 7.09D-08 at cycle  10 NSaved=  10.
 NSaved=10 IEnMin=10 EnMin=-0.212417557772255E-01 IErMin=10 ErrMin= 7.09D-08
 ErrMax= 7.09D-08  0.00D+00 EMaxC= 1.00D-01 BMatC= 2.41D-13 BMatP= 4.48D-12
 IDIUse=1 WtCom= 1.00D+00 WtEn= 0.00D+00
 Coeff-Com: -0.383D-05 0.152D-04-0.104D-04-0.427D-04-0.270D-02 0.173D-01
 Coeff-Com: -0.675D-01 0.282D+00-0.757D+00 0.153D+01
 Coeff:     -0.383D-05 0.152D-04-0.104D-04-0.427D-04-0.270D-02 0.173D-01
 Coeff:     -0.675D-01 0.282D+00-0.757D+00 0.153D+01
 Gap=     0.378 Goal=   None    Shift=    0.000
 RMSDP=3.71D-08 MaxDP=5.33D-07 DE=-3.08D-11 OVMax= 4.12D-07

 Cycle  11  Pass 1  IDiag  3:
 E=-0.212417557784761E-01 Delta-E=       -0.000000000001 Rises=F Damp=F
 DIIS: error= 1.19D-08 at cycle  11 NSaved=  11.
 NSaved=11 IEnMin=11 EnMin=-0.212417557784761E-01 IErMin=11 ErrMin= 1.19D-08
 ErrMax= 1.19D-08  0.00D+00 EMaxC= 1.00D-01 BMatC= 8.06D-15 BMatP= 2.41D-13
 IDIUse=1 WtCom= 1.00D+00 WtEn= 0.00D+00
 Coeff-Com:  0.438D-06-0.113D-05-0.891D-05 0.487D-04 0.724D-03-0.512D-02
 Coeff-Com:  0.205D-01-0.893D-01 0.259D+00-0.640D+00 0.145D+01
 Coeff:      0.438D-06-0.113D-05-0.891D-05 0.487D-04 0.724D-03-0.512D-02
 Coeff:      0.205D-01-0.893D-01 0.259D+00-0.640D+00 0.145D+01
 Gap=     0.378 Goal=   None    Shift=    0.000
 RMSDP=5.65D-09 MaxDP=7.98D-08 DE=-1.25D-12 OVMax= 4.72D-08

 Cycle  12  Pass 2  IDiag  1:
 SCF Done:  E(RPM3) = -0.212417557785E-01 A.U. after   12 cycles
            NFock= 11  Conv=0.57D-08     -V/T= 0.9997
 KE=-7.903193606997D+01 PE=-4.876281390050D+02 EE= 2.639669668828D+02
 Leave Link  502 at Tue Jul 27 12:13:28 2021, MaxMem=   131072000 cpu:               0.1 elap:               0.0
 (Enter /opt/g16/l601.exe)
 Copying SCF densities to generalized density rwf, IOpCl= 0 IROHF=0.

 **********************************************************************

            Population analysis using the SCF density.

 **********************************************************************

 Orbital symmetries:
       Occupied  (A) (A) (A) (A) (A) (A) (A) (A) (A) (A) (A) (A)
                 (A) (A) (A) (A) (A) (A) (A) (A) (A) (A) (A) (A)
                 (A) (A) (A) (A) (A)
       Virtual   (A) (A) (A) (A) (A) (A) (A) (A) (A) (A) (A) (A)
                 (A) (A) (A) (A) (A) (A) (A) (A) (A) (A) (A) (A)
                 (A) (A) (A) (A) (A)
 The electronic state is 1-A.
 Alpha  occ. eigenvalues --   -1.45663  -1.35287  -1.19220  -1.07340  -1.01530
 Alpha  occ. eigenvalues --   -0.96935  -0.87445  -0.78512  -0.66892  -0.64899
 Alpha  occ. eigenvalues --   -0.60690  -0.59459  -0.56907  -0.55999  -0.54889
 Alpha  occ. eigenvalues --   -0.53602  -0.51316  -0.50642  -0.49339  -0.49055
 Alpha  occ. eigenvalues --   -0.48571  -0.47919  -0.46888  -0.46602  -0.44872
 Alpha  occ. eigenvalues --   -0.43861  -0.42402  -0.35274  -0.34297
 Alpha virt. eigenvalues --    0.03474   0.04146   0.11640   0.12451   0.13333
 Alpha virt. eigenvalues --    0.13690   0.14055   0.14268   0.14822   0.14948
 Alpha virt. eigenvalues --    0.15502   0.15777   0.16023   0.16118   0.16292
 Alpha virt. eigenvalues --    0.16363   0.16479   0.16677   0.16746   0.17018
 Alpha virt. eigenvalues --    0.17153   0.17206   0.17774   0.17904   0.18198
 Alpha virt. eigenvalues --    0.20793   0.21156   0.22193   0.22438
          Condensed to atoms (all electrons):
               1          2          3          4          5          6
     1  C    4.048000   0.000000   0.000000   0.000000   0.000000   0.000000
     2  H    0.000000   0.949938   0.000000   0.000000   0.000000   0.000000
     3  H    0.000000   0.000000   0.943599   0.000000   0.000000   0.000000
     4  C    0.000000   0.000000   0.000000   4.126980   0.000000   0.000000
     5  C    0.000000   0.000000   0.000000   0.000000   4.067377   0.000000
     6  H    0.000000   0.000000   0.000000   0.000000   0.000000   0.954564
     7  H    0.000000   0.000000   0.000000   0.000000   0.000000   0.000000
     8  H    0.000000   0.000000   0.000000   0.000000   0.000000   0.000000
     9  C    0.000000   0.000000   0.000000   0.000000   0.000000   0.000000
    10  H    0.000000   0.000000   0.000000   0.000000   0.000000   0.000000
    11  C    0.000000   0.000000   0.000000   0.000000   0.000000   0.000000
    12  H    0.000000   0.000000   0.000000   0.000000   0.000000   0.000000
    13  H    0.000000   0.000000   0.000000   0.000000   0.000000   0.000000
    14  H    0.000000   0.000000   0.000000   0.000000   0.000000   0.000000
    15  C    0.000000   0.000000   0.000000   0.000000   0.000000   0.000000
    16  H    0.000000   0.000000   0.000000   0.000000   0.000000   0.000000
    17  H    0.000000   0.000000   0.000000   0.000000   0.000000   0.000000
    18  H    0.000000   0.000000   0.000000   0.000000   0.000000   0.000000
    19  C    0.000000   0.000000   0.000000   0.000000   0.000000   0.000000
    20  C    0.000000   0.000000   0.000000   0.000000   0.000000   0.000000
    21  H    0.000000   0.000000   0.000000   0.000000   0.000000   0.000000
    22  H    0.000000   0.000000   0.000000   0.000000   0.000000   0.000000
    23  H    0.000000   0.000000   0.000000   0.000000   0.000000   0.000000
    24  C    0.000000   0.000000   0.000000   0.000000   0.000000   0.000000
    25  H    0.000000   0.000000   0.000000   0.000000   0.000000   0.000000
    26  C    0.000000   0.000000   0.000000   0.000000   0.000000   0.000000
    27  H    0.000000   0.000000   0.000000   0.000000   0.000000   0.000000
    28  H    0.000000   0.000000   0.000000   0.000000   0.000000   0.000000
               7          8          9         10         11         12
     1  C    0.000000   0.000000   0.000000   0.000000   0.000000   0.000000
     2  H    0.000000   0.000000   0.000000   0.000000   0.000000   0.000000
     3  H    0.000000   0.000000   0.000000   0.000000   0.000000   0.000000
     4  C    0.000000   0.000000   0.000000   0.000000   0.000000   0.000000
     5  C    0.000000   0.000000   0.000000   0.000000   0.000000   0.000000
     6  H    0.000000   0.000000   0.000000   0.000000   0.000000   0.000000
     7  H    0.957444   0.000000   0.000000   0.000000   0.000000   0.000000
     8  H    0.000000   0.953088   0.000000   0.000000   0.000000   0.000000
     9  C    0.000000   0.000000   4.153872   0.000000   0.000000   0.000000
    10  H    0.000000   0.000000   0.000000   0.905340   0.000000   0.000000
    11  C    0.000000   0.000000   0.000000   0.000000   4.067587   0.000000
    12  H    0.000000   0.000000   0.000000   0.000000   0.000000   0.957316
    13  H    0.000000   0.000000   0.000000   0.000000   0.000000   0.000000
    14  H    0.000000   0.000000   0.000000   0.000000   0.000000   0.000000
    15  C    0.000000   0.000000   0.000000   0.000000   0.000000   0.000000
    16  H    0.000000   0.000000   0.000000   0.000000   0.000000   0.000000
    17  H    0.000000   0.000000   0.000000   0.000000   0.000000   0.000000
    18  H    0.000000   0.000000   0.000000   0.000000   0.000000   0.000000
    19  C    0.000000   0.000000   0.000000   0.000000   0.000000   0.000000
    20  C    0.000000   0.000000   0.000000   0.000000   0.000000   0.000000
    21  H    0.000000   0.000000   0.000000   0.000000   0.000000   0.000000
    22  H    0.000000   0.000000   0.000000   0.000000   0.000000   0.000000
    23  H    0.000000   0.000000   0.000000   0.000000   0.000000   0.000000
    24  C    0.000000   0.000000   0.000000   0.000000   0.000000   0.000000
    25  H    0.000000   0.000000   0.000000   0.000000   0.000000   0.000000
    26  C    0.000000   0.000000   0.000000   0.000000   0.000000   0.000000
    27  H    0.000000   0.000000   0.000000   0.000000   0.000000   0.000000
    28  H    0.000000   0.000000   0.000000   0.000000   0.000000   0.000000
              13         14         15         16         17         18
     1  C    0.000000   0.000000   0.000000   0.000000   0.000000   0.000000
     2  H    0.000000   0.000000   0.000000   0.000000   0.000000   0.000000
     3  H    0.000000   0.000000   0.000000   0.000000   0.000000   0.000000
     4  C    0.000000   0.000000   0.000000   0.000000   0.000000   0.000000
     5  C    0.000000   0.000000   0.000000   0.000000   0.000000   0.000000
     6  H    0.000000   0.000000   0.000000   0.000000   0.000000   0.000000
     7  H    0.000000   0.000000   0.000000   0.000000   0.000000   0.000000
     8  H    0.000000   0.000000   0.000000   0.000000   0.000000   0.000000
     9  C    0.000000   0.000000   0.000000   0.000000   0.000000   0.000000
    10  H    0.000000   0.000000   0.000000   0.000000   0.000000   0.000000
    11  C    0.000000   0.000000   0.000000   0.000000   0.000000   0.000000
    12  H    0.000000   0.000000   0.000000   0.000000   0.000000   0.000000
    13  H    0.956945   0.000000   0.000000   0.000000   0.000000   0.000000
    14  H    0.000000   0.956514   0.000000   0.000000   0.000000   0.000000
    15  C    0.000000   0.000000   4.065569   0.000000   0.000000   0.000000
    16  H    0.000000   0.000000   0.000000   0.959212   0.000000   0.000000
    17  H    0.000000   0.000000   0.000000   0.000000   0.955614   0.000000
    18  H    0.000000   0.000000   0.000000   0.000000   0.000000   0.955277
    19  C    0.000000   0.000000   0.000000   0.000000   0.000000   0.000000
    20  C    0.000000   0.000000   0.000000   0.000000   0.000000   0.000000
    21  H    0.000000   0.000000   0.000000   0.000000   0.000000   0.000000
    22  H    0.000000   0.000000   0.000000   0.000000   0.000000   0.000000
    23  H    0.000000   0.000000   0.000000   0.000000   0.000000   0.000000
    24  C    0.000000   0.000000   0.000000   0.000000   0.000000   0.000000
    25  H    0.000000   0.000000   0.000000   0.000000   0.000000   0.000000
    26  C    0.000000   0.000000   0.000000   0.000000   0.000000   0.000000
    27  H    0.000000   0.000000   0.000000   0.000000   0.000000   0.000000
    28  H    0.000000   0.000000   0.000000   0.000000   0.000000   0.000000
              19         20         21         22         23         24
     1  C    0.000000   0.000000   0.000000   0.000000   0.000000   0.000000
     2  H    0.000000   0.000000   0.000000   0.000000   0.000000   0.000000
     3  H    0.000000   0.000000   0.000000   0.000000   0.000000   0.000000
     4  C    0.000000   0.000000   0.000000   0.000000   0.000000   0.000000
     5  C    0.000000   0.000000   0.000000   0.000000   0.000000   0.000000
     6  H    0.000000   0.000000   0.000000   0.000000   0.000000   0.000000
     7  H    0.000000   0.000000   0.000000   0.000000   0.000000   0.000000
     8  H    0.000000   0.000000   0.000000   0.000000   0.000000   0.000000
     9  C    0.000000   0.000000   0.000000   0.000000   0.000000   0.000000
    10  H    0.000000   0.000000   0.000000   0.000000   0.000000   0.000000
    11  C    0.000000   0.000000   0.000000   0.000000   0.000000   0.000000
    12  H    0.000000   0.000000   0.000000   0.000000   0.000000   0.000000
    13  H    0.000000   0.000000   0.000000   0.000000   0.000000   0.000000
    14  H    0.000000   0.000000   0.000000   0.000000   0.000000   0.000000
    15  C    0.000000   0.000000   0.000000   0.000000   0.000000   0.000000
    16  H    0.000000   0.000000   0.000000   0.000000   0.000000   0.000000
    17  H    0.000000   0.000000   0.000000   0.000000   0.000000   0.000000
    18  H    0.000000   0.000000   0.000000   0.000000   0.000000   0.000000
    19  C    4.121009   0.000000   0.000000   0.000000   0.000000   0.000000
    20  C    0.000000   4.068424   0.000000   0.000000   0.000000   0.000000
    21  H    0.000000   0.000000   0.953676   0.000000   0.000000   0.000000
    22  H    0.000000   0.000000   0.000000   0.958610   0.000000   0.000000
    23  H    0.000000   0.000000   0.000000   0.000000   0.952829   0.000000
    24  C    0.000000   0.000000   0.000000   0.000000   0.000000   4.159586
    25  H    0.000000   0.000000   0.000000   0.000000   0.000000   0.000000
    26  C    0.000000   0.000000   0.000000   0.000000   0.000000   0.000000
    27  H    0.000000   0.000000   0.000000   0.000000   0.000000   0.000000
    28  H    0.000000   0.000000   0.000000   0.000000   0.000000   0.000000
              25         26         27         28
     1  C    0.000000   0.000000   0.000000   0.000000
     2  H    0.000000   0.000000   0.000000   0.000000
     3  H    0.000000   0.000000   0.000000   0.000000
     4  C    0.000000   0.000000   0.000000   0.000000
     5  C    0.000000   0.000000   0.000000   0.000000
     6  H    0.000000   0.000000   0.000000   0.000000
     7  H    0.000000   0.000000   0.000000   0.000000
     8  H    0.000000   0.000000   0.000000   0.000000
     9  C    0.000000   0.000000   0.000000   0.000000
    10  H    0.000000   0.000000   0.000000   0.000000
    11  C    0.000000   0.000000   0.000000   0.000000
    12  H    0.000000   0.000000   0.000000   0.000000
    13  H    0.000000   0.000000   0.000000   0.000000
    14  H    0.000000   0.000000   0.000000   0.000000
    15  C    0.000000   0.000000   0.000000   0.000000
    16  H    0.000000   0.000000   0.000000   0.000000
    17  H    0.000000   0.000000   0.000000   0.000000
    18  H    0.000000   0.000000   0.000000   0.000000
    19  C    0.000000   0.000000   0.000000   0.000000
    20  C    0.000000   0.000000   0.000000   0.000000
    21  H    0.000000   0.000000   0.000000   0.000000
    22  H    0.000000   0.000000   0.000000   0.000000
    23  H    0.000000   0.000000   0.000000   0.000000
    24  C    0.000000   0.000000   0.000000   0.000000
    25  H    0.903044   0.000000   0.000000   0.000000
    26  C    0.000000   4.059912   0.000000   0.000000
    27  H    0.000000   0.000000   0.942944   0.000000
    28  H    0.000000   0.000000   0.000000   0.945729
 Mulliken charges:
               1
     1  C   -0.048000
     2  H    0.050062
     3  H    0.056401
     4  C   -0.126980
     5  C   -0.067377
     6  H    0.045436
     7  H    0.042556
     8  H    0.046912
     9  C   -0.153872
    10  H    0.094660
    11  C   -0.067587
    12  H    0.042684
    13  H    0.043055
    14  H    0.043486
    15  C   -0.065569
    16  H    0.040788
    17  H    0.044386
    18  H    0.044723
    19  C   -0.121009
    20  C   -0.068424
    21  H    0.046324
    22  H    0.041390
    23  H    0.047171
    24  C   -0.159586
    25  H    0.096956
    26  C   -0.059912
    27  H    0.057056
    28  H    0.054271
 Sum of Mulliken charges =   0.00000
 Mulliken charges with hydrogens summed into heavy atoms:
               1
     1  C    0.058463
     4  C   -0.126980
     5  C    0.067527
     9  C   -0.059212
    11  C    0.061638
    15  C    0.064327
    19  C   -0.121009
    20  C    0.066460
    24  C   -0.062630
    26  C    0.051415
 Charge=              0.0000 electrons
 Dipole moment (field-independent basis, Debye):
    X=             -0.1650    Y=              0.3351    Z=              0.0618  Tot=              0.3786
 N-N= 3.026718664363D+02 E-N=-4.876281392515D+02  KE=-7.903193606997D+01
 Leave Link  601 at Tue Jul 27 12:13:28 2021, MaxMem=   131072000 cpu:               0.0 elap:               0.0
 (Enter /opt/g16/l701.exe)
 ... and contract with generalized density number  0.
 Compute integral first derivatives.
 Leave Link  701 at Tue Jul 27 12:13:28 2021, MaxMem=   131072000 cpu:               0.1 elap:               0.1
 (Enter /opt/g16/l702.exe)
 L702 exits ... SP integral derivatives will be done elsewhere.
 Leave Link  702 at Tue Jul 27 12:13:28 2021, MaxMem=   131072000 cpu:               0.0 elap:               0.0
 (Enter /opt/g16/l703.exe)
 Integral derivatives from FoFJK, PRISM(SPDF).
 Compute integral first derivatives, UseDBF=F ICtDFT=           0.
 Calling FoFJK, ICntrl=      2127 FMM=F ISym2X=0 I1Cent= 0 IOpClX= 0 NMat=1 NMatS=1 NMatT=0.
 FoFJK:  IHMeth= 9 ICntrl=    2127 DoSepK=F KAlg= 0 I1Cent=           0 FoldK=F
 IRaf=         0 NMat=       1 IRICut=       1 DoRegI=T DoRafI=F ISym2E= 0 IDoP0=3 IntGTp=3.
 FoFCou: FMM=F IPFlag=           0 FMFlag=      100000 FMFlg1=         800
         NFxFlg=           0 DoJE=F BraDBF=F KetDBF=F FulRan=T
         wScrn=  0.000000 ICntrl=      2127 IOpCl=  0 I1Cent=           0 NGrid=           0
         NMat0=    1 NMatS0=      1 NMatT0=    0 NMatD0=    1 NMtDS0=    0 NMtDT0=    0
 Symmetry not used in FoFCou.
 Leave Link  703 at Tue Jul 27 12:13:28 2021, MaxMem=   131072000 cpu:               0.0 elap:               0.0
 (Enter /opt/g16/l716.exe)
 Dipole        =-6.49282016D-02 1.31844044D-01 2.43080777D-02
 ***** Axes restored to original set *****
 -------------------------------------------------------------------
 Center     Atomic                   Forces (Hartrees/Bohr)
 Number     Number              X              Y              Z
 -------------------------------------------------------------------
      1        6           0.010324715    0.001901604    0.011329330
      2        1          -0.001183588   -0.005707943   -0.002205068
      3        1          -0.000969740    0.004450052   -0.004294138
      4        6           0.002118214    0.002820054    0.001480805
      5        6          -0.007471907   -0.014503564   -0.005333169
      6        1           0.003860467   -0.001520839    0.001007301
      7        1          -0.002371800    0.001861214    0.000056641
      8        1           0.000853087    0.000715878    0.001656794
      9        6           0.002881204    0.012423206    0.005323129
     10        1          -0.002485460   -0.004859901   -0.001487291
     11        6          -0.016780356    0.003427582   -0.004514292
     12        1           0.000897958    0.003705890    0.000185288
     13        1           0.000647249   -0.001919935    0.001456305
     14        1           0.001712225   -0.000865886   -0.001483414
     15        6           0.015325504   -0.001656706    0.003593554
     16        1          -0.000663218   -0.001628455   -0.000365941
     17        1          -0.001156455    0.001311810    0.000699316
     18        1          -0.000956305    0.001511854   -0.001023114
     19        6           0.005270474   -0.001567680   -0.000039279
     20        6          -0.006811522   -0.012440411   -0.005799722
     21        1           0.003470288   -0.001142980    0.001254050
     22        1          -0.001970920    0.001251951    0.000333036
     23        1           0.000856781    0.000601949    0.001769026
     24        6           0.003774504    0.013682362    0.003949064
     25        1          -0.001815105   -0.005202133   -0.002243275
     26        6          -0.010984221   -0.000428159   -0.013290508
     27        1           0.003551005    0.008900184    0.002568638
     28        1           0.000076920   -0.005120998    0.005416933
 -------------------------------------------------------------------
 Cartesian Forces:  Max     0.016780356 RMS     0.005428907
 Leave Link  716 at Tue Jul 27 12:13:29 2021, MaxMem=   131072000 cpu:               0.0 elap:               0.0
 (Enter /opt/g16/l103.exe)

 GradGradGradGradGradGradGradGradGradGradGradGradGradGradGradGradGradGrad
 Berny optimization.
 FormGI is forming the generalized inverse of G from B-inverse, IUseBI=4.
 Internal  Forces:  Max     0.018837094 RMS     0.004484899
 Search for a local minimum.
 Step number   1 out of a maximum of  138
 All quantities printed in internal units (Hartrees-Bohrs-Radians)
 RMS Force = .44849D-02 SwitMx=.10000D-02 MixMth= 1
 Mixed Optimization -- RFO/linear search
 Second derivative matrix not updated -- first step.
 ITU=  0
     Eigenvalues ---    0.00330   0.00527   0.00685   0.00697   0.00702
     Eigenvalues ---    0.00725   0.00815   0.01207   0.01281   0.01560
     Eigenvalues ---    0.01641   0.02759   0.02782   0.04068   0.04103
     Eigenvalues ---    0.05365   0.05391   0.07045   0.07069   0.07107
     Eigenvalues ---    0.07115   0.07271   0.07281   0.07325   0.07488
     Eigenvalues ---    0.09276   0.09338   0.12786   0.12810   0.15993
     Eigenvalues ---    0.15997   0.16000   0.16000   0.16000   0.16000
     Eigenvalues ---    0.16000   0.16000   0.16000   0.16000   0.16000
     Eigenvalues ---    0.16000   0.16000   0.16000   0.21886   0.21895
     Eigenvalues ---    0.22001   0.22002   0.24999   0.24999   0.25000
     Eigenvalues ---    0.25000   0.29149   0.30556   0.31745   0.31835
     Eigenvalues ---    0.31872   0.32057   0.32766   0.33848   0.33898
     Eigenvalues ---    0.34059   0.34108   0.34192   0.34232   0.34248
     Eigenvalues ---    0.34256   0.34262   0.34300   0.34316   0.34334
     Eigenvalues ---    0.34354   0.34354   0.34431   0.34521   0.34903
     Eigenvalues ---    0.34990   0.55162   0.55542
 RFO step:  Lambda=-7.80830063D-03 EMin= 3.29611231D-03
 Linear search not attempted -- first point.
 Iteration  1 RMS(Cart)=  0.07057371 RMS(Int)=  0.00069801
 Iteration  2 RMS(Cart)=  0.00116594 RMS(Int)=  0.00004406
 Iteration  3 RMS(Cart)=  0.00000084 RMS(Int)=  0.00004406
 ITry= 1 IFail=0 DXMaxC= 2.17D-01 DCOld= 1.00D+10 DXMaxT= 3.00D-01 DXLimC= 3.00D+00 Rises=F
 Variable       Old X    -DE/DX   Delta X   Delta X   Delta X     New X
                                 (Linear)    (Quad)   (Total)
    R1        2.07587   0.00620   0.00000   0.01792   0.01792   2.09379
    R2        2.07503   0.00619   0.00000   0.01785   0.01785   2.09288
    R3        2.86869  -0.01603   0.00000  -0.05115  -0.05115   2.81754
    R4        2.89692  -0.00761   0.00000  -0.02541  -0.02541   2.87151
    R5        2.84613  -0.01461   0.00000  -0.04492  -0.04492   2.80121
    R6        2.54653  -0.01716   0.00000  -0.03046  -0.03046   2.51607
    R7        2.06609   0.00323   0.00000   0.00917   0.00917   2.07526
    R8        2.07007   0.00253   0.00000   0.00723   0.00723   2.07730
    R9        2.06889   0.00170   0.00000   0.00485   0.00485   2.07374
   R10        2.05833   0.00566   0.00000   0.01585   0.01585   2.07418
   R11        2.82765  -0.01450   0.00000  -0.04324  -0.04324   2.78441
   R12        2.06460   0.00362   0.00000   0.01026   0.01026   2.07486
   R13        2.06826   0.00240   0.00000   0.00685   0.00685   2.07512
   R14        2.06737   0.00235   0.00000   0.00669   0.00669   2.07406
   R15        2.06941   0.00179   0.00000   0.00512   0.00512   2.07453
   R16        2.06913   0.00162   0.00000   0.00463   0.00463   2.07376
   R17        2.06900   0.00185   0.00000   0.00527   0.00527   2.07427
   R18        2.84378  -0.01287   0.00000  -0.03940  -0.03940   2.80438
   R19        2.84039  -0.01277   0.00000  -0.03890  -0.03890   2.80150
   R20        2.54989  -0.01884   0.00000  -0.03367  -0.03367   2.51621
   R21        2.06800   0.00280   0.00000   0.00799   0.00799   2.07599
   R22        2.07149   0.00177   0.00000   0.00507   0.00507   2.07656
   R23        2.06770   0.00179   0.00000   0.00509   0.00509   2.07279
   R24        2.05691   0.00585   0.00000   0.01634   0.01634   2.07326
   R25        2.84448  -0.01567   0.00000  -0.04804  -0.04804   2.79643
   R26        2.06737   0.00982   0.00000   0.02795   0.02795   2.09532
   R27        2.07230   0.00744   0.00000   0.02136   0.02136   2.09366
    A1        1.84875  -0.00021   0.00000   0.00527   0.00525   1.85400
    A2        1.93098   0.00054   0.00000   0.00122   0.00125   1.93223
    A3        1.90253   0.00145   0.00000   0.00882   0.00882   1.91135
    A4        1.89574   0.00118   0.00000   0.00317   0.00311   1.89885
    A5        1.92789   0.00029   0.00000  -0.00193  -0.00197   1.92592
    A6        1.95510  -0.00309   0.00000  -0.01544  -0.01545   1.93965
    A7        2.01625   0.00266   0.00000   0.01030   0.01030   2.02656
    A8        2.11100  -0.00149   0.00000  -0.00579  -0.00579   2.10521
    A9        2.15589  -0.00116   0.00000  -0.00452  -0.00452   2.15138
   A10        1.96019  -0.00162   0.00000  -0.00972  -0.00977   1.95042
   A11        1.93467   0.00055   0.00000   0.00744   0.00744   1.94211
   A12        1.92182   0.00074   0.00000   0.00031   0.00026   1.92208
   A13        1.85541   0.00200   0.00000   0.01953   0.01953   1.87493
   A14        1.90126  -0.00099   0.00000  -0.01345  -0.01354   1.88772
   A15        1.88798  -0.00066   0.00000  -0.00377  -0.00378   1.88420
   A16        2.07394   0.00357   0.00000   0.01578   0.01569   2.08964
   A17        2.21587  -0.00723   0.00000  -0.03163  -0.03172   2.18415
   A18        1.99310   0.00368   0.00000   0.01639   0.01630   2.00940
   A19        1.98073  -0.00159   0.00000  -0.00987  -0.00987   1.97087
   A20        1.91118   0.00083   0.00000   0.00626   0.00626   1.91745
   A21        1.91734   0.00083   0.00000   0.00397   0.00396   1.92130
   A22        1.87478   0.00070   0.00000   0.00591   0.00593   1.88071
   A23        1.88731  -0.00009   0.00000  -0.00294  -0.00295   1.88436
   A24        1.89005  -0.00067   0.00000  -0.00325  -0.00327   1.88678
   A25        1.88027   0.00003   0.00000   0.00155   0.00155   1.88182
   A26        1.87972  -0.00007   0.00000   0.00118   0.00117   1.88089
   A27        1.95979   0.00017   0.00000   0.00259   0.00258   1.96237
   A28        1.89586  -0.00103   0.00000  -0.00924  -0.00924   1.88662
   A29        1.92158   0.00029   0.00000   0.00089   0.00089   1.92247
   A30        1.92475   0.00055   0.00000   0.00256   0.00256   1.92730
   A31        2.00868   0.00152   0.00000   0.00591   0.00590   2.01458
   A32        2.11402  -0.00041   0.00000  -0.00161  -0.00162   2.11240
   A33        2.16048  -0.00111   0.00000  -0.00431  -0.00431   2.15616
   A34        1.95675  -0.00094   0.00000  -0.00540  -0.00546   1.95130
   A35        1.93616   0.00038   0.00000   0.00625   0.00624   1.94240
   A36        1.92356   0.00048   0.00000  -0.00131  -0.00135   1.92221
   A37        1.85439   0.00179   0.00000   0.01846   0.01843   1.87282
   A38        1.90307  -0.00117   0.00000  -0.01426  -0.01433   1.88874
   A39        1.88738  -0.00053   0.00000  -0.00345  -0.00345   1.88393
   A40        2.07528   0.00358   0.00000   0.01704   0.01686   2.09214
   A41        2.20285  -0.00603   0.00000  -0.02620  -0.02638   2.17647
   A42        2.00441   0.00247   0.00000   0.01034   0.01015   2.01457
   A43        1.95292  -0.00565   0.00000  -0.02845  -0.02851   1.92441
   A44        1.92680   0.00078   0.00000  -0.00171  -0.00179   1.92501
   A45        1.91294   0.00192   0.00000   0.01005   0.01004   1.92298
   A46        1.93290   0.00221   0.00000   0.00725   0.00707   1.93996
   A47        1.88991   0.00136   0.00000   0.00464   0.00466   1.89457
   A48        1.84480  -0.00027   0.00000   0.01082   0.01076   1.85556
    D1        3.03491   0.00002   0.00000  -0.01167  -0.01168   3.02323
    D2       -0.09732   0.00003   0.00000  -0.01167  -0.01167  -0.10899
    D3        1.01267  -0.00071   0.00000  -0.02054  -0.02054   0.99212
    D4       -2.11956  -0.00070   0.00000  -0.02054  -0.02054  -2.14010
    D5       -1.12159   0.00012   0.00000  -0.01021  -0.01020  -1.13179
    D6        2.02936   0.00013   0.00000  -0.01020  -0.01020   2.01917
    D7       -1.10677  -0.00024   0.00000   0.00410   0.00415  -1.10261
    D8        3.01515   0.00037   0.00000   0.01637   0.01632   3.03147
    D9        0.98999  -0.00089   0.00000  -0.00168  -0.00171   0.98828
   D10        0.91769   0.00051   0.00000   0.01452   0.01457   0.93226
   D11       -1.24357   0.00112   0.00000   0.02678   0.02673  -1.21684
   D12        3.01445  -0.00013   0.00000   0.00873   0.00870   3.02315
   D13        3.03352   0.00012   0.00000   0.00670   0.00679   3.04031
   D14        0.87225   0.00073   0.00000   0.01897   0.01895   0.89121
   D15       -1.15291  -0.00052   0.00000   0.00092   0.00092  -1.15199
   D16       -2.54848  -0.00130   0.00000  -0.02071  -0.02068  -2.56916
   D17       -0.47584   0.00054   0.00000   0.00265   0.00265  -0.47320
   D18        1.61264   0.00055   0.00000   0.00290   0.00287   1.61551
   D19        0.58348  -0.00131   0.00000  -0.02072  -0.02068   0.56280
   D20        2.65612   0.00053   0.00000   0.00264   0.00264   2.65875
   D21       -1.53859   0.00054   0.00000   0.00289   0.00286  -1.53573
   D22        0.00689  -0.00052   0.00000  -0.01019  -0.01018  -0.00329
   D23       -3.10797  -0.00115   0.00000  -0.03698  -0.03699   3.13822
   D24       -3.12457  -0.00053   0.00000  -0.01026  -0.01025  -3.13482
   D25        0.04375  -0.00117   0.00000  -0.03706  -0.03707   0.00669
   D26        0.03204  -0.00012   0.00000   0.00281   0.00281   0.03485
   D27        2.12659   0.00030   0.00000   0.00825   0.00823   2.13482
   D28       -2.08298   0.00048   0.00000   0.01047   0.01047  -2.07251
   D29       -3.08388  -0.00074   0.00000  -0.02296  -0.02294  -3.10683
   D30       -0.98933  -0.00032   0.00000  -0.01752  -0.01752  -1.00685
   D31        1.08429  -0.00014   0.00000  -0.01529  -0.01528   1.06900
   D32       -3.13714   0.00013   0.00000   0.00668   0.00668  -3.13045
   D33        0.00064   0.00002   0.00000   0.00135   0.00134   0.00198
   D34       -1.04219   0.00048   0.00000   0.01096   0.01097  -1.03122
   D35        2.09558   0.00037   0.00000   0.00563   0.00563   2.10121
   D36        1.04963  -0.00027   0.00000   0.00170   0.00170   1.05132
   D37       -2.09579  -0.00038   0.00000  -0.00363  -0.00364  -2.09943
   D38       -2.54068  -0.00137   0.00000  -0.02382  -0.02381  -2.56449
   D39       -0.47058   0.00053   0.00000   0.00015   0.00016  -0.47042
   D40        1.61924   0.00043   0.00000  -0.00100  -0.00103   1.61822
   D41        0.60485  -0.00126   0.00000  -0.01834  -0.01833   0.58653
   D42        2.67495   0.00064   0.00000   0.00563   0.00565   2.68060
   D43       -1.51841   0.00054   0.00000   0.00448   0.00446  -1.51396
   D44        0.00951   0.00009   0.00000   0.01047   0.01051   0.02002
   D45       -3.09136  -0.00077   0.00000  -0.02716  -0.02722  -3.11859
   D46       -3.13625  -0.00003   0.00000   0.00468   0.00474  -3.13150
   D47        0.04606  -0.00088   0.00000  -0.03295  -0.03299   0.01308
   D48       -2.01233   0.00072   0.00000   0.01580   0.01578  -1.99654
   D49        0.14552  -0.00072   0.00000  -0.00165  -0.00171   0.14381
   D50        2.16069   0.00095   0.00000   0.01799   0.01796   2.17865
   D51        1.16855  -0.00014   0.00000  -0.02069  -0.02063   1.14791
   D52       -2.95679  -0.00157   0.00000  -0.03813  -0.03813  -2.99492
   D53       -0.94162   0.00009   0.00000  -0.01850  -0.01846  -0.96007
         Item               Value     Threshold  Converged?
 Maximum Force            0.018837     0.000450     NO 
 RMS     Force            0.004485     0.000300     NO 
 Maximum Displacement     0.217030     0.001800     NO 
 RMS     Displacement     0.070742     0.001200     NO 
 Predicted change in Energy=-4.049297D-03
 Lowest energy point so far.  Saving SCF results.
 GradGradGradGradGradGradGradGradGradGradGradGradGradGradGradGradGradGrad

 Leave Link  103 at Tue Jul 27 12:13:29 2021, MaxMem=   131072000 cpu:               0.0 elap:               0.0
 (Enter /opt/g16/l202.exe)
                          Input orientation:                          
 ---------------------------------------------------------------------
 Center     Atomic      Atomic             Coordinates (Angstroms)
 Number     Number       Type             X           Y           Z
 ---------------------------------------------------------------------
      1          6           0        2.120335    1.262742   -8.924386
      2          1           0        1.826130    0.246984   -9.255003
      3          1           0        1.947551    1.932009   -9.789712
      4          6           0        3.567468    1.302586   -8.567677
      5          6           0        4.126474    2.640052   -8.257812
      6          1           0        5.177611    2.722876   -8.564807
      7          1           0        3.569180    3.434621   -8.774001
      8          1           0        4.069091    2.832604   -7.178984
      9          6           0        4.292108    0.185776   -8.548144
     10          1           0        3.819615   -0.773974   -8.793853
     11          6           0        5.725449    0.110481   -8.215112
     12          1           0        6.152712    1.084286   -7.941829
     13          1           0        5.876216   -0.571138   -7.367469
     14          1           0        6.291251   -0.279281   -9.071012
     15          6           0       -2.302040    2.888544   -8.603082
     16          1           0       -2.662423    1.880104   -8.844586
     17          1           0       -2.925589    3.282368   -7.790465
     18          1           0       -2.455952    3.520008   -9.487621
     19          6           0       -0.873314    2.898442   -8.201907
     20          6           0       -0.321191    4.227554   -7.846392
     21          1           0        0.738990    4.315534   -8.120480
     22          1           0       -0.860172    5.034443   -8.362087
     23          1           0       -0.411411    4.397320   -6.766496
     24          6           0       -0.163545    1.772545   -8.162703
     25          1           0       -0.630850    0.821810   -8.448019
     26          6           0        1.254541    1.684568   -7.749033
     27          1           0        1.611247    2.649491   -7.335368
     28          1           0        1.337118    0.944647   -6.928561
 ---------------------------------------------------------------------
                    Distance matrix (angstroms):
                    1          2          3          4          5
     1  C    0.000000
     2  H    1.107985   0.000000
     3  H    1.107502   1.771995   0.000000
     4  C    1.490980   2.149180   2.124541   0.000000
     5  C    2.523072   3.465941   2.756038   1.482336   0.000000
     6  H    3.407084   4.223605   3.543889   2.147042   1.098178
     7  H    2.615114   3.664781   2.432939   2.141996   1.099258
     8  H    3.050990   4.003268   3.482514   2.126275   1.097378
     9  C    2.453164   2.566018   3.176125   1.331446   2.476933
    10  H    2.655712   2.286700   3.437834   2.104005   3.469449
    11  C    3.850664   4.037907   4.479937   2.490440   2.992870
    12  H    4.154194   4.598349   4.670833   2.668862   2.574081
    13  H    4.460241   4.542611   5.250468   3.206502   3.763781
    14  H    4.449255   4.499791   4.926872   3.189771   3.724253
    15  C    4.722698   4.944151   4.514651   6.080103   6.442574
    16  H    4.823099   4.794020   4.706147   6.262727   6.856453
    17  H    5.552118   5.825569   5.437642   6.832524   7.096660
    18  H    5.133701   5.394722   4.690825   6.484200   6.753895
    19  C    3.487037   3.927625   3.378224   4.732979   5.006773
    20  C    3.989139   4.737099   3.767388   4.919081   4.740375
    21  H    3.445855   4.361434   3.150896   4.156697   3.781686
    22  H    4.839972   5.561769   4.421144   5.794223   5.532686
    23  H    4.570755   5.331467   4.558760   5.352860   5.089638
    24  C    2.460929   2.734824   2.670078   3.782238   4.377885
    25  H    2.826724   2.649225   3.111404   4.227450   5.096500
    26  C    1.519537   2.159007   2.169300   2.483087   3.069170
    27  H    2.169614   3.082728   2.579086   2.675732   2.679060
    28  H    2.167471   2.477539   3.087669   2.790929   3.524459
                    6          7          8          9         10
     6  H    0.000000
     7  H    1.771268   0.000000
     8  H    1.778022   1.776630   0.000000
     9  C    2.687242   3.335960   2.988316   0.000000
    10  H    3.758268   4.216086   3.959475   1.097608   0.000000
    11  C    2.692029   4.001469   3.350676   1.473446   2.179313
    12  H    2.005966   3.590434   2.824893   2.153320   3.102003
    13  H    3.573821   4.831858   3.858327   2.115730   2.511040
    14  H    3.241818   4.614212   4.266332   2.118075   2.535848
    15  C    7.481583   5.899038   6.528591   7.126764   7.136182
    16  H    7.890163   6.422958   6.999626   7.164087   7.004536
    17  H    8.159319   6.570583   7.035748   7.890381   7.934637
    18  H    7.730349   6.067847   6.955467   7.585252   7.635597
    19  C    6.064339   4.511157   5.047581   5.844658   5.988374
    20  C    5.746042   4.077278   4.654664   6.173407   6.561954
    21  H    4.736596   3.035305   3.764979   5.464654   5.987217
    22  H    6.468327   4.727395   5.526795   7.077442   7.471582
    23  H    6.105313   4.560918   4.763757   6.560066   6.982409
    24  C    5.439923   4.131516   4.472878   4.745445   4.769557
    25  H    6.112765   4.957146   5.267179   4.964884   4.740544
    26  C    4.139329   3.077466   3.092674   3.480197   3.703469
    27  H    3.773044   2.553351   2.469612   3.837674   4.327145
    28  H    4.537487   3.819388   3.330281   3.454114   3.549051
                   11         12         13         14         15
    11  C    0.000000
    12  H    1.097968   0.000000
    13  H    1.098105   1.773914   0.000000
    14  H    1.097548   1.775827   1.777496   0.000000
    15  C    8.503454   8.670377   8.965490   9.170536   0.000000
    16  H    8.595592   8.896904   9.005489   9.213170   1.097794
    17  H    9.223971   9.341843   9.617703   9.963698   1.097386
    18  H    8.954299   9.079169   9.521426   9.545770   1.097654
    19  C    7.163558   7.261119   7.634817   7.885700   1.484014
    20  C    7.324486   7.197268   7.852686   8.095409   2.507845
    21  H    6.523511   6.307239   7.130055   7.269349   3.393680
    22  H    8.224196   8.059832   8.819905   8.937622   2.596525
    23  H    7.624731   7.446161   8.036230   8.491588   3.037092
    24  C    6.119268   6.357483   6.527171   6.833697   2.452050
    25  H    6.400216   6.807483   6.741647   7.036761   2.662388
    26  C    4.762772   4.938582   5.156907   5.565320   3.850744
    27  H    4.913978   4.841753   5.344479   5.787280   4.120444
    28  H    4.648493   4.923023   4.805586   5.534576   4.452665
                   16         17         18         19         20
    16  H    0.000000
    17  H    1.773913   0.000000
    18  H    1.773530   1.776899   0.000000
    19  C    2.156608   2.128031   2.131701   0.000000
    20  C    3.462409   2.771172   2.784144   1.482488   0.000000
    21  H    4.245616   3.821712   3.565052   2.148093   1.098567
    22  H    3.664801   2.768116   2.471205   2.142039   1.098868
    23  H    3.965084   2.934744   3.514876   2.126123   1.096876
    24  C    2.592475   3.169702   3.172407   1.331523   2.480317
    25  H    2.324767   3.428199   3.419363   2.105174   3.472309
    26  C    4.071987   4.475284   4.489910   2.491255   2.993190
    27  H    4.597167   4.603316   4.683172   2.643087   2.546712
    28  H    4.532390   4.937458   5.250586   3.213213   3.790763
                   21         22         23         24         25
    21  H    0.000000
    22  H    1.769893   0.000000
    23  H    1.778591   1.775732   0.000000
    24  C    2.698730   3.341410   2.983333   0.000000
    25  H    3.766941   4.219745   3.957264   1.097121   0.000000
    26  C    2.706611   4.008678   3.331635   1.479808   2.188066
    27  H    2.037874   3.584697   2.733068   2.145554   3.099259
    28  H    3.625094   4.858962   3.873573   2.111992   2.489324
                   26         27         28
    26  C    0.000000
    27  H    1.108798   0.000000
    28  H    1.107916   1.774016   0.000000
 Stoichiometry    C10H18
[...]
    25  H    6.239149   6.710455   6.602739   6.821051   2.676121
    26  C    4.632514   4.903095   4.964757   5.438091   3.867242
    27  H    4.822521   4.859760   5.132033   5.739741   4.132110
    28  H    4.366048   4.790139   4.468707   5.207612   4.407603
                   16         17         18         19         20
    16  H    0.000000
    17  H    1.772316   0.000000
    18  H    1.772195   1.772115   0.000000
    19  C    2.163893   2.138180   2.138388   0.000000
    20  C    3.468736   2.773190   2.794207   1.486005   0.000000
    21  H    4.306574   3.807983   3.769471   2.156211   1.102495
    22  H    3.768196   3.060010   2.573812   2.139643   1.098012
    23  H    3.821426   2.654113   3.246588   2.136185   1.098183
    24  C    2.608500   3.194219   3.180925   1.339732   2.492230
    25  H    2.344898   3.454368   3.428204   2.113859   3.484493
    26  C    4.094646   4.505710   4.502588   2.502973   3.007586
    27  H    4.616864   4.684313   4.634438   2.648858   2.552501
    28  H    4.559294   4.860916   5.209372   3.126086   3.611266
                   21         22         23         24         25
    21  H    0.000000
    22  H    1.777719   0.000000
    23  H    1.777137   1.773382   0.000000
    24  C    2.645801   3.246552   3.171213   0.000000
    25  H    3.739055   4.151462   4.096491   1.098263   0.000000
    26  C    2.564993   3.830228   3.684313   1.486373   2.195739
    27  H    1.768633   3.319390   3.233930   2.151447   3.107776
    28  H    3.171066   4.580681   4.020338   2.120214   2.610968
                   26         27         28
    26  C    0.000000
    27  H    1.114162   0.000000
    28  H    1.108653   1.772175   0.000000
 Stoichiometry    C10H18
 Framework group  C1[X(C10H18)]
 Deg. of freedom    78
 Full point group                 C1      NOp   1
 RotChk:  IX=2 Diff= 2.53D-15
 Largest Abelian subgroup         C1      NOp   1
 Largest concise Abelian subgroup C1      NOp   1
                         Standard orientation:                         
 ---------------------------------------------------------------------
 Center     Atomic      Atomic             Coordinates (Angstroms)
 Number     Number       Type             X           Y           Z
 ---------------------------------------------------------------------
      1          6           0        0.643739   -0.481038   -0.740223
      2          1           0        0.695918   -1.565421   -0.966364
      3          1           0        0.306542    0.003410   -1.678221
      4          6           0        1.994975    0.040890   -0.359478
      5          6           0        2.245879    1.472624   -0.666289
      6          1           0        3.232632    1.804335   -0.303530
      7          1           0        2.211024    1.649447   -1.749690
      8          1           0        1.483379    2.111000   -0.199209
      9          6           0        2.899132   -0.760501    0.220079
     10          1           0        2.648379   -1.811190    0.415905
     11          6           0        4.254536   -0.339813    0.634779
     12          1           0        4.438508    0.730579    0.444360
     13          1           0        4.403442   -0.518793    1.707741
     14          1           0        5.018781   -0.911845    0.092250
     15          6           0       -4.159069   -0.659263   -0.267355
     16          1           0       -4.062913   -1.696873   -0.613460
     17          1           0       -4.849255   -0.657161    0.587276
     18          1           0       -4.630824   -0.082798   -1.074887
     19          6           0       -2.852769   -0.056578    0.112774
     20          6           0       -2.923680    1.338245    0.620368
     21          1           0       -1.922049    1.770928    0.778529
     22          1           0       -3.460651    1.985266   -0.085790
     23          1           0       -3.458303    1.374127    1.578959
     24          6           0       -1.711186   -0.748313   -0.001998
     25          1           0       -1.730192   -1.776197   -0.388359
     26          6           0       -0.369128   -0.229398    0.370711
     27          1           0       -0.416797    0.857974    0.608842
     28          1           0       -0.042204   -0.727913    1.305439
 ---------------------------------------------------------------------
 Rotational constants (GHZ):           3.3762083           0.4582953           0.4338032
 Leave Link  202 at Tue Jul 27 12:13:43 2021, MaxMem=   131072000 cpu:               0.0 elap:               0.0
 (Enter /opt/g16/l601.exe)
 Copying SCF densities to generalized density rwf, IOpCl= 0 IROHF=0.

 **********************************************************************

            Population analysis using the SCF density.

 **********************************************************************

 Orbital symmetries:
       Occupied  (A) (A) (A) (A) (A) (A) (A) (A) (A) (A) (A) (A)
                 (A) (A) (A) (A) (A) (A) (A) (A) (A) (A) (A) (A)
                 (A) (A) (A) (A) (A)
       Virtual   (A) (A) (A) (A) (A) (A) (A) (A) (A) (A) (A) (A)
                 (A) (A) (A) (A) (A) (A) (A) (A) (A) (A) (A) (A)
                 (A) (A) (A) (A) (A)
 The electronic state is 1-A.
 Alpha  occ. eigenvalues --   -1.46958  -1.36638  -1.19414  -1.07498  -1.01533
 Alpha  occ. eigenvalues --   -0.96532  -0.86780  -0.78717  -0.67181  -0.64778
 Alpha  occ. eigenvalues --   -0.61274  -0.59495  -0.57495  -0.56755  -0.55161
 Alpha  occ. eigenvalues --   -0.53463  -0.51324  -0.50624  -0.49068  -0.48372
 Alpha  occ. eigenvalues --   -0.48326  -0.47750  -0.47349  -0.46846  -0.44569
 Alpha  occ. eigenvalues --   -0.43746  -0.42173  -0.35072  -0.34364
 Alpha virt. eigenvalues --    0.03532   0.04202   0.12017   0.12730   0.13351
 Alpha virt. eigenvalues --    0.13582   0.13721   0.14241   0.14793   0.14885
 Alpha virt. eigenvalues --    0.15501   0.15795   0.15930   0.16324   0.16347
 Alpha virt. eigenvalues --    0.16488   0.16503   0.16586   0.16624   0.16810
 Alpha virt. eigenvalues --    0.17064   0.17102   0.17773   0.17971   0.18089
 Alpha virt. eigenvalues --    0.20994   0.21370   0.22280   0.22544
          Condensed to atoms (all electrons):
               1          2          3          4          5          6
     1  C    4.053895   0.000000   0.000000   0.000000   0.000000   0.000000
     2  H    0.000000   0.947276   0.000000   0.000000   0.000000   0.000000
     3  H    0.000000   0.000000   0.944147   0.000000   0.000000   0.000000
     4  C    0.000000   0.000000   0.000000   4.128110   0.000000   0.000000
     5  C    0.000000   0.000000   0.000000   0.000000   4.075262   0.000000
     6  H    0.000000   0.000000   0.000000   0.000000   0.000000   0.950550
     7  H    0.000000   0.000000   0.000000   0.000000   0.000000   0.000000
     8  H    0.000000   0.000000   0.000000   0.000000   0.000000   0.000000
     9  C    0.000000   0.000000   0.000000   0.000000   0.000000   0.000000
    10  H    0.000000   0.000000   0.000000   0.000000   0.000000   0.000000
    11  C    0.000000   0.000000   0.000000   0.000000   0.000000   0.000000
    12  H    0.000000   0.000000   0.000000   0.000000   0.000000   0.000000
    13  H    0.000000   0.000000   0.000000   0.000000   0.000000   0.000000
    14  H    0.000000   0.000000   0.000000   0.000000   0.000000   0.000000
    15  C    0.000000   0.000000   0.000000   0.000000   0.000000   0.000000
    16  H    0.000000   0.000000   0.000000   0.000000   0.000000   0.000000
    17  H    0.000000   0.000000   0.000000   0.000000   0.000000   0.000000
    18  H    0.000000   0.000000   0.000000   0.000000   0.000000   0.000000
    19  C    0.000000   0.000000   0.000000   0.000000   0.000000   0.000000
    20  C    0.000000   0.000000   0.000000   0.000000   0.000000   0.000000
    21  H    0.000000   0.000000   0.000000   0.000000   0.000000   0.000000
    22  H    0.000000   0.000000   0.000000   0.000000   0.000000   0.000000
    23  H    0.000000   0.000000   0.000000   0.000000   0.000000   0.000000
    24  C    0.000000   0.000000   0.000000   0.000000   0.000000   0.000000
    25  H    0.000000   0.000000   0.000000   0.000000   0.000000   0.000000
    26  C    0.000000   0.000000   0.000000   0.000000   0.000000   0.000000
    27  H    0.000000   0.000000   0.000000   0.000000   0.000000   0.000000
    28  H    0.000000   0.000000   0.000000   0.000000   0.000000   0.000000
               7          8          9         10         11         12
     1  C    0.000000   0.000000   0.000000   0.000000   0.000000   0.000000
     2  H    0.000000   0.000000   0.000000   0.000000   0.000000   0.000000
     3  H    0.000000   0.000000   0.000000   0.000000   0.000000   0.000000
     4  C    0.000000   0.000000   0.000000   0.000000   0.000000   0.000000
     5  C    0.000000   0.000000   0.000000   0.000000   0.000000   0.000000
     6  H    0.000000   0.000000   0.000000   0.000000   0.000000   0.000000
     7  H    0.953252   0.000000   0.000000   0.000000   0.000000   0.000000
     8  H    0.000000   0.953625   0.000000   0.000000   0.000000   0.000000
     9  C    0.000000   0.000000   4.150547   0.000000   0.000000   0.000000
    10  H    0.000000   0.000000   0.000000   0.901422   0.000000   0.000000
    11  C    0.000000   0.000000   0.000000   0.000000   4.078859   0.000000
    12  H    0.000000   0.000000   0.000000   0.000000   0.000000   0.952247
    13  H    0.000000   0.000000   0.000000   0.000000   0.000000   0.000000
    14  H    0.000000   0.000000   0.000000   0.000000   0.000000   0.000000
    15  C    0.000000   0.000000   0.000000   0.000000   0.000000   0.000000
    16  H    0.000000   0.000000   0.000000   0.000000   0.000000   0.000000
    17  H    0.000000   0.000000   0.000000   0.000000   0.000000   0.000000
    18  H    0.000000   0.000000   0.000000   0.000000   0.000000   0.000000
    19  C    0.000000   0.000000   0.000000   0.000000   0.000000   0.000000
    20  C    0.000000   0.000000   0.000000   0.000000   0.000000   0.000000
    21  H    0.000000   0.000000   0.000000   0.000000   0.000000   0.000000
    22  H    0.000000   0.000000   0.000000   0.000000   0.000000   0.000000
    23  H    0.000000   0.000000   0.000000   0.000000   0.000000   0.000000
    24  C    0.000000   0.000000   0.000000   0.000000   0.000000   0.000000
    25  H    0.000000   0.000000   0.000000   0.000000   0.000000   0.000000
    26  C    0.000000   0.000000   0.000000   0.000000   0.000000   0.000000
    27  H    0.000000   0.000000   0.000000   0.000000   0.000000   0.000000
    28  H    0.000000   0.000000   0.000000   0.000000   0.000000   0.000000
              13         14         15         16         17         18
     1  C    0.000000   0.000000   0.000000   0.000000   0.000000   0.000000
     2  H    0.000000   0.000000   0.000000   0.000000   0.000000   0.000000
     3  H    0.000000   0.000000   0.000000   0.000000   0.000000   0.000000
     4  C    0.000000   0.000000   0.000000   0.000000   0.000000   0.000000
     5  C    0.000000   0.000000   0.000000   0.000000   0.000000   0.000000
     6  H    0.000000   0.000000   0.000000   0.000000   0.000000   0.000000
     7  H    0.000000   0.000000   0.000000   0.000000   0.000000   0.000000
     8  H    0.000000   0.000000   0.000000   0.000000   0.000000   0.000000
     9  C    0.000000   0.000000   0.000000   0.000000   0.000000   0.000000
    10  H    0.000000   0.000000   0.000000   0.000000   0.000000   0.000000
    11  C    0.000000   0.000000   0.000000   0.000000   0.000000   0.000000
    12  H    0.000000   0.000000   0.000000   0.000000   0.000000   0.000000
    13  H    0.955790   0.000000   0.000000   0.000000   0.000000   0.000000
    14  H    0.000000   0.955200   0.000000   0.000000   0.000000   0.000000
    15  C    0.000000   0.000000   4.068708   0.000000   0.000000   0.000000
    16  H    0.000000   0.000000   0.000000   0.958390   0.000000   0.000000
    17  H    0.000000   0.000000   0.000000   0.000000   0.956438   0.000000
    18  H    0.000000   0.000000   0.000000   0.000000   0.000000   0.956039
    19  C    0.000000   0.000000   0.000000   0.000000   0.000000   0.000000
    20  C    0.000000   0.000000   0.000000   0.000000   0.000000   0.000000
    21  H    0.000000   0.000000   0.000000   0.000000   0.000000   0.000000
    22  H    0.000000   0.000000   0.000000   0.000000   0.000000   0.000000
    23  H    0.000000   0.000000   0.000000   0.000000   0.000000   0.000000
    24  C    0.000000   0.000000   0.000000   0.000000   0.000000   0.000000
    25  H    0.000000   0.000000   0.000000   0.000000   0.000000   0.000000
    26  C    0.000000   0.000000   0.000000   0.000000   0.000000   0.000000
    27  H    0.000000   0.000000   0.000000   0.000000   0.000000   0.000000
    28  H    0.000000   0.000000   0.000000   0.000000   0.000000   0.000000
              19         20         21         22         23         24
     1  C    0.000000   0.000000   0.000000   0.000000   0.000000   0.000000
     2  H    0.000000   0.000000   0.000000   0.000000   0.000000   0.000000
     3  H    0.000000   0.000000   0.000000   0.000000   0.000000   0.000000
     4  C    0.000000   0.000000   0.000000   0.000000   0.000000   0.000000
     5  C    0.000000   0.000000   0.000000   0.000000   0.000000   0.000000
     6  H    0.000000   0.000000   0.000000   0.000000   0.000000   0.000000
     7  H    0.000000   0.000000   0.000000   0.000000   0.000000   0.000000
     8  H    0.000000   0.000000   0.000000   0.000000   0.000000   0.000000
     9  C    0.000000   0.000000   0.000000   0.000000   0.000000   0.000000
    10  H    0.000000   0.000000   0.000000   0.000000   0.000000   0.000000
    11  C    0.000000   0.000000   0.000000   0.000000   0.000000   0.000000
    12  H    0.000000   0.000000   0.000000   0.000000   0.000000   0.000000
    13  H    0.000000   0.000000   0.000000   0.000000   0.000000   0.000000
    14  H    0.000000   0.000000   0.000000   0.000000   0.000000   0.000000
    15  C    0.000000   0.000000   0.000000   0.000000   0.000000   0.000000
    16  H    0.000000   0.000000   0.000000   0.000000   0.000000   0.000000
    17  H    0.000000   0.000000   0.000000   0.000000   0.000000   0.000000
    18  H    0.000000   0.000000   0.000000   0.000000   0.000000   0.000000
    19  C    4.122911   0.000000   0.000000   0.000000   0.000000   0.000000
    20  C    0.000000   4.076305   0.000000   0.000000   0.000000   0.000000
    21  H    0.000000   0.000000   0.950038   0.000000   0.000000   0.000000
    22  H    0.000000   0.000000   0.000000   0.954662   0.000000   0.000000
    23  H    0.000000   0.000000   0.000000   0.000000   0.953715   0.000000
    24  C    0.000000   0.000000   0.000000   0.000000   0.000000   4.156865
    25  H    0.000000   0.000000   0.000000   0.000000   0.000000   0.000000
    26  C    0.000000   0.000000   0.000000   0.000000   0.000000   0.000000
    27  H    0.000000   0.000000   0.000000   0.000000   0.000000   0.000000
    28  H    0.000000   0.000000   0.000000   0.000000   0.000000   0.000000
              25         26         27         28
     1  C    0.000000   0.000000   0.000000   0.000000
     2  H    0.000000   0.000000   0.000000   0.000000
     3  H    0.000000   0.000000   0.000000   0.000000
     4  C    0.000000   0.000000   0.000000   0.000000
     5  C    0.000000   0.000000   0.000000   0.000000
     6  H    0.000000   0.000000   0.000000   0.000000
     7  H    0.000000   0.000000   0.000000   0.000000
     8  H    0.000000   0.000000   0.000000   0.000000
     9  C    0.000000   0.000000   0.000000   0.000000
    10  H    0.000000   0.000000   0.000000   0.000000
    11  C    0.000000   0.000000   0.000000   0.000000
    12  H    0.000000   0.000000   0.000000   0.000000
    13  H    0.000000   0.000000   0.000000   0.000000
    14  H    0.000000   0.000000   0.000000   0.000000
    15  C    0.000000   0.000000   0.000000   0.000000
    16  H    0.000000   0.000000   0.000000   0.000000
    17  H    0.000000   0.000000   0.000000   0.000000
    18  H    0.000000   0.000000   0.000000   0.000000
    19  C    0.000000   0.000000   0.000000   0.000000
    20  C    0.000000   0.000000   0.000000   0.000000
    21  H    0.000000   0.000000   0.000000   0.000000
    22  H    0.000000   0.000000   0.000000   0.000000
    23  H    0.000000   0.000000   0.000000   0.000000
    24  C    0.000000   0.000000   0.000000   0.000000
    25  H    0.898767   0.000000   0.000000   0.000000
    26  C    0.000000   4.068712   0.000000   0.000000
    27  H    0.000000   0.000000   0.937088   0.000000
    28  H    0.000000   0.000000   0.000000   0.941178
 Mulliken charges:
               1
     1  C   -0.053895
     2  H    0.052724
     3  H    0.055853
     4  C   -0.128110
     5  C   -0.075262
     6  H    0.049450
     7  H    0.046748
     8  H    0.046375
     9  C   -0.150547
    10  H    0.098578
    11  C   -0.078859
    12  H    0.047753
    13  H    0.044210
    14  H    0.044800
    15  C   -0.068708
    16  H    0.041610
    17  H    0.043562
    18  H    0.043961
    19  C   -0.122911
    20  C   -0.076305
    21  H    0.049962
    22  H    0.045338
    23  H    0.046285
    24  C   -0.156865
    25  H    0.101233
    26  C   -0.068712
    27  H    0.062912
    28  H    0.058822
 Sum of Mulliken charges =  -0.00000
 Mulliken charges with hydrogens summed into heavy atoms:
               1
     1  C    0.054682
     4  C   -0.128110
     5  C    0.067309
     9  C   -0.051968
    11  C    0.057904
    15  C    0.060426
    19  C   -0.122911
    20  C    0.065279
    24  C   -0.055632
    26  C    0.053022
 Charge=              0.0000 electrons
 Dipole moment (field-independent basis, Debye):
    X=             -0.0869    Y=              0.3354    Z=              0.0726  Tot=              0.3540
 N-N= 3.036101939173D+02 E-N=-4.893840688748D+02  KE=-7.910787978432D+01
 Leave Link  601 at Tue Jul 27 12:13:43 2021, MaxMem=   131072000 cpu:               0.0 elap:               0.1
 (Enter /opt/g16/l9999.exe)
 1\1\GINC-TOTEM\FOpt\RPM3\ZDO\C10H18\JRAMOS\27-Jul-2021\0\\#p opt pm3\\
 Conformer number 000. Energy MM = 24.913 kcal/mol\\0,1\C,2.2151210443,
 1.4138858898,-9.1466802582\H,1.891074561,0.4391250603,-9.5645129666\H,
 2.0952007418,2.1460272216,-9.9699788031\C,3.6522760216,1.353841128,-8.
 7293124796\C,4.3966216894,2.6382963817,-8.7847542523\H,5.4264441902,2.
 5337276985,-8.405493353\H,4.4563164316,3.0082168872,-9.8171471329\H,3.
 8927361153,3.407321416,-8.183261235\C,4.2023419575,0.1969515057,-8.336
 0614036\H,3.5945341255,-0.7171254795,-8.3217396993\C,5.6070337401,0.03
 62285638,-7.9035309507\H,6.1590456424,0.9907532362,-7.9065410908\H,5.6
 536769645,-0.3735901334,-6.8860208374\H,6.1378811285,-0.6588000866,-8.
 5674327029\C,-2.3579536153,2.840599418,-8.5352864872\H,-2.6210841578,1
 .9151179689,-9.0643569382\H,-3.0275718711,2.9294192569,-7.6689848291\H
 ,-2.5753645963,3.6808179603,-9.2088874032\C,-0.9346150442,2.8706165856
 ,-8.1024429286\C,-0.5274519394,4.086725044,-7.3517701188\H,0.557376712
 5,4.1066787077,-7.1562088866\H,-0.7841072961,4.9963275609,-7.910681765
 2\H,-1.0425082086,4.1336067955,-6.3829950354\C,-0.1043271624,1.8567919
 643,-8.3811253813\H,-0.4707632328,0.9876887499,-8.9437663732\C,1.32340
 50118,1.7986258965,-7.9718557689\H,1.6523829881,2.772402941,-7.5418684
 97\H,1.428878058,1.0577218614,-7.1539024219\\Version=ES64L-G16RevA.03\
 State=1-A\HF=-0.0283334\RMSD=2.935e-09\RMSF=2.099e-06\Dipole=0.0133444
 ,0.1281577,0.0528963\PG=C01 [X(C10H18)]\\@


 Any fool can criticize, condemn, and complain -- and most do.
 -- Dale Carnegie
 Job cpu time:       0 days  0 hours  0 minutes 13.7 seconds.
 Elapsed time:       0 days  0 hours  0 minutes 12.8 seconds.
 File lengths (MBytes):  RWF=      6 Int=      0 D2E=      0 Chk=      2 Scr=      1
 Normal termination of Gaussian 16 at Tue Jul 27 12:13:43 2021.
