 Entering Gaussian System, Link 0=/opt/g16/g16
 Input=04-IsoP_041_gaussian.com
 Output=04-IsoP_041_gaussian.log
 Initial command:
 /opt/g16/l1.exe "/tmp/Gau-171868.inp" -scrdir="/tmp/"
 Entering Link 1 = /opt/g16/l1.exe PID=    171870.
  
 Copyright (c) 1988,1990,1992,1993,1995,1998,2003,2009,2016,
            Gaussian, Inc.  All Rights Reserved.
  
 This is part of the Gaussian(R) 16 program.  It is based on
 the Gaussian(R) 09 system (copyright 2009, Gaussian, Inc.),
 the Gaussian(R) 03 system (copyright 2003, Gaussian, Inc.),
 the Gaussian(R) 98 system (copyright 1998, Gaussian, Inc.),
 the Gaussian(R) 94 system (copyright 1995, Gaussian, Inc.),
 the Gaussian 92(TM) system (copyright 1992, Gaussian, Inc.),
 the Gaussian 90(TM) system (copyright 1990, Gaussian, Inc.),
 the Gaussian 88(TM) system (copyright 1988, Gaussian, Inc.),
 the Gaussian 86(TM) system (copyright 1986, Carnegie Mellon
 University), and the Gaussian 82(TM) system (copyright 1983,
 Carnegie Mellon University). Gaussian is a federally registered
 trademark of Gaussian, Inc.
  
 This software contains proprietary and confidential information,
 including trade secrets, belonging to Gaussian, Inc.
  
 This software is provided under written license and may be
 used, copied, transmitted, or stored only in accord with that
 written license.
  
 The following legend is applicable only to US Government
 contracts under FAR:
  
                    RESTRICTED RIGHTS LEGEND
  
 Use, reproduction and disclosure by the US Government is
 subject to restrictions as set forth in subparagraphs (a)
 and (c) of the Commercial Computer Software - Restricted
 Rights clause in FAR 52.227-19.
  
 Gaussian, Inc.
 340 Quinnipiac St., Bldg. 40, Wallingford CT 06492
  
  
 ---------------------------------------------------------------
 Warning -- This program may not be used in any manner that
 competes with the business of Gaussian, Inc. or will provide
 assistance to any competitor of Gaussian, Inc.  The licensee
 of this program is prohibited from giving any competitor of
 Gaussian, Inc. access to this program.  By using this program,
 the user acknowledges that Gaussian, Inc. is engaged in the
 business of creating and licensing software in the field of
 computational chemistry and represents and warrants to the
 licensee that it is not a competitor of Gaussian, Inc. and that
 it will not use this program in any manner prohibited above.
 ---------------------------------------------------------------
  

 Cite this work as:
 Gaussian 16, Revision A.03,
 M. J. Frisch, G. W. Trucks, H. B. Schlegel, G. E. Scuseria, 
 M. A. Robb, J. R. Cheeseman, G. Scalmani, V. Barone, 
 G. A. Petersson, H. Nakatsuji, X. Li, M. Caricato, A. V. Marenich, 
 J. Bloino, B. G. Janesko, R. Gomperts, B. Mennucci, H. P. Hratchian, 
 J. V. Ortiz, A. F. Izmaylov, J. L. Sonnenberg, D. Williams-Young, 
 F. Ding, F. Lipparini, F. Egidi, J. Goings, B. Peng, A. Petrone, 
 T. Henderson, D. Ranasinghe, V. G. Zakrzewski, J. Gao, N. Rega, 
 G. Zheng, W. Liang, M. Hada, M. Ehara, K. Toyota, R. Fukuda, 
 J. Hasegawa, M. Ishida, T. Nakajima, Y. Honda, O. Kitao, H. Nakai, 
 T. Vreven, K. Throssell, J. A. Montgomery, Jr., J. E. Peralta, 
 F. Ogliaro, M. J. Bearpark, J. J. Heyd, E. N. Brothers, K. N. Kudin, 
 V. N. Staroverov, T. A. Keith, R. Kobayashi, J. Normand, 
 K. Raghavachari, A. P. Rendell, J. C. Burant, S. S. Iyengar, 
 J. Tomasi, M. Cossi, J. M. Millam, M. Klene, C. Adamo, R. Cammi, 
 J. W. Ochterski, R. L. Martin, K. Morokuma, O. Farkas, 
 J. B. Foresman, and D. J. Fox, Gaussian, Inc., Wallingford CT, 2016.
 
 ******************************************
 Gaussian 16:  ES64L-G16RevA.03 25-Dec-2016
                17-Sep-2021 
 ******************************************
 %chk=04-IsoP_041_gaussian.chk
 %nproc=1
 Will use up to    1 processors via shared memory.
 %mem=1000Mb
 ----------
 #p opt pm3
 ----------
 1/18=20,19=15,26=1,38=1/1,3;
 2/9=110,12=2,17=6,18=5,40=1/2;
 3/5=2,25=1,41=800000,71=1/1,2,3;
 4/35=1/1;
 5/5=2,35=1,38=5/2;
 6/7=2,8=2,9=2,10=2,28=1/1;
 7//1,2,3,16;
 1/18=20,19=15,26=1/3(2);
 2/9=110/2;
 99//99;
 2/9=110/2;
 3/5=2,25=1,41=800000,71=1,135=20/1,2,3;
 4/5=5,16=3,35=1/1;
 5/5=2,35=1,38=5/2;
 7//1,2,3,16;
 1/18=20,19=15,26=1/3(-5);
 2/9=110/2;
 6/7=2,8=2,9=2,10=2,19=2,28=1/1;
 99/9=1/99;
 Leave Link    1 at Fri Sep 17 19:56:08 2021, MaxMem=   131072000 cpu:               0.0 elap:               0.0
 (Enter /opt/g16/l101.exe)
 -------------------------------------------------
 Conformer number 041. Energy MM = 26.841 kcal/mol
 -------------------------------------------------
 Symbolic Z-matrix:
 Charge =  0 Multiplicity = 1
 C                     2.174     1.2648   -9.0656 
 H                     1.8241    0.2567   -9.3255 
 H                     1.9748    1.8757   -9.9554 
 C                     3.6682    1.2234   -8.7905 
 C                     4.4511    2.4459   -9.1926 
 H                     5.4467    2.1835   -9.5649 
 H                     3.9518    2.9874   -10.003 
 H                     4.5671    3.1302   -8.3484 
 C                     4.2246    0.1497   -8.195 
 H                     3.5874   -0.6971   -7.9435 
 C                     5.642     0.0159   -7.7351 
 H                     6.2268    0.9309   -7.8673 
 H                     5.6537   -0.2222   -6.6671 
 H                     6.1392   -0.7943   -8.2743 
 C                     2.8621    4.9045   -6.0837 
 H                     2.2973    5.6071   -6.7031 
 H                     2.6542    5.1393   -5.0354 
 H                     3.9275    5.0727   -6.2735 
 C                     2.5119    3.4707   -6.3808 
 C                     3.1887    2.4719   -5.4815 
 H                     3.0669    1.4383   -5.8044 
 H                     4.2656    2.6685   -5.4423 
 H                     2.7864    2.5483   -4.4638 
 C                     1.7109    3.1559   -7.4204 
 H                     1.3011    3.9616   -8.0282 
 C                     1.3322    1.774    -7.8816 
 H                     1.3746    1.0521   -7.0565 
 H                     0.2793    1.7964   -8.1862 
 
 ITRead=  0  0  0  0  0  0  0  0  0  0  0  0  0  0  0  0  0  0  0  0
 ITRead=  0  0  0  0  0  0  0  0
 MicOpt= -1 -1 -1 -1 -1 -1 -1 -1 -1 -1 -1 -1 -1 -1 -1 -1 -1 -1 -1 -1
 MicOpt= -1 -1 -1 -1 -1 -1 -1 -1
 NAtoms=     28 NQM=       28 NQMF=       0 NMMI=      0 NMMIF=      0
                NMic=       0 NMicF=      0.
                    Isotopes and Nuclear Properties:
 (Nuclear quadrupole moments (NQMom) in fm**2, nuclear magnetic moments (NMagM)
  in nuclear magnetons)

  Atom         1           2           3           4           5           6           7           8           9          10
 IAtWgt=          12           1           1          12          12           1           1           1          12           1
 AtmWgt=  12.0000000   1.0078250   1.0078250  12.0000000  12.0000000   1.0078250   1.0078250   1.0078250  12.0000000   1.0078250
 NucSpn=           0           1           1           0           0           1           1           1           0           1
 AtZEff=  -0.0000000  -0.0000000  -0.0000000  -0.0000000  -0.0000000  -0.0000000  -0.0000000  -0.0000000  -0.0000000  -0.0000000
 NQMom=    0.0000000   0.0000000   0.0000000   0.0000000   0.0000000   0.0000000   0.0000000   0.0000000   0.0000000   0.0000000
 NMagM=    0.0000000   2.7928460   2.7928460   0.0000000   0.0000000   2.7928460   2.7928460   2.7928460   0.0000000   2.7928460
 AtZNuc=   6.0000000   1.0000000   1.0000000   6.0000000   6.0000000   1.0000000   1.0000000   1.0000000   6.0000000   1.0000000

  Atom        11          12          13          14          15          16          17          18          19          20
 IAtWgt=          12           1           1           1          12           1           1           1          12          12
 AtmWgt=  12.0000000   1.0078250   1.0078250   1.0078250  12.0000000   1.0078250   1.0078250   1.0078250  12.0000000  12.0000000
 NucSpn=           0           1           1           1           0           1           1           1           0           0
 AtZEff=  -0.0000000  -0.0000000  -0.0000000  -0.0000000  -0.0000000  -0.0000000  -0.0000000  -0.0000000  -0.0000000  -0.0000000
 NQMom=    0.0000000   0.0000000   0.0000000   0.0000000   0.0000000   0.0000000   0.0000000   0.0000000   0.0000000   0.0000000
 NMagM=    0.0000000   2.7928460   2.7928460   2.7928460   0.0000000   2.7928460   2.7928460   2.7928460   0.0000000   0.0000000
 AtZNuc=   6.0000000   1.0000000   1.0000000   1.0000000   6.0000000   1.0000000   1.0000000   1.0000000   6.0000000   6.0000000

  Atom        21          22          23          24          25          26          27          28
 IAtWgt=           1           1           1          12           1          12           1           1
 AtmWgt=   1.0078250   1.0078250   1.0078250  12.0000000   1.0078250  12.0000000   1.0078250   1.0078250
 NucSpn=           1           1           1           0           1           0           1           1
 AtZEff=  -0.0000000  -0.0000000  -0.0000000  -0.0000000  -0.0000000  -0.0000000  -0.0000000  -0.0000000
 NQMom=    0.0000000   0.0000000   0.0000000   0.0000000   0.0000000   0.0000000   0.0000000   0.0000000
 NMagM=    2.7928460   2.7928460   2.7928460   0.0000000   2.7928460   0.0000000   2.7928460   2.7928460
 AtZNuc=   1.0000000   1.0000000   1.0000000   6.0000000   1.0000000   6.0000000   1.0000000   1.0000000
 Leave Link  101 at Fri Sep 17 19:56:09 2021, MaxMem=   131072000 cpu:               0.3 elap:               0.3
 (Enter /opt/g16/l103.exe)

 GradGradGradGradGradGradGradGradGradGradGradGradGradGradGradGradGradGrad
 Berny optimization.
 Initialization pass.
                           ----------------------------
                           !    Initial Parameters    !
                           ! (Angstroms and Degrees)  !
 --------------------------                            --------------------------
 ! Name  Definition              Value          Derivative Info.                !
 --------------------------------------------------------------------------------
 ! R1    R(1,2)                  1.0983         estimate D2E/DX2                !
 ! R2    R(1,3)                  1.0976         estimate D2E/DX2                !
 ! R3    R(1,4)                  1.5199         estimate D2E/DX2                !
 ! R4    R(1,26)                 1.5394         estimate D2E/DX2                !
 ! R5    R(4,5)                  1.5064         estimate D2E/DX2                !
 ! R6    R(4,9)                  1.348          estimate D2E/DX2                !
 ! R7    R(5,6)                  1.0948         estimate D2E/DX2                !
 ! R8    R(5,7)                  1.0951         estimate D2E/DX2                !
 ! R9    R(5,8)                  1.0929         estimate D2E/DX2                !
 ! R10   R(9,10)                 1.0892         estimate D2E/DX2                !
 ! R11   R(9,11)                 1.4961         estimate D2E/DX2                !
 ! R12   R(11,12)                1.0939         estimate D2E/DX2                !
 ! R13   R(11,13)                1.0943         estimate D2E/DX2                !
 ! R14   R(11,14)                1.0929         estimate D2E/DX2                !
 ! R15   R(15,16)                1.0938         estimate D2E/DX2                !
 ! R16   R(15,17)                1.0942         estimate D2E/DX2                !
 ! R17   R(15,18)                1.0952         estimate D2E/DX2                !
 ! R18   R(15,19)                1.5056         estimate D2E/DX2                !
 ! R19   R(19,20)                1.5048         estimate D2E/DX2                !
 ! R20   R(19,24)                1.3496         estimate D2E/DX2                !
 ! R21   R(20,21)                1.0897         estimate D2E/DX2                !
 ! R22   R(20,22)                1.0954         estimate D2E/DX2                !
 ! R23   R(20,23)                1.097          estimate D2E/DX2                !
 ! R24   R(24,25)                1.0893         estimate D2E/DX2                !
 ! R25   R(24,26)                1.5052         estimate D2E/DX2                !
 ! R26   R(26,27)                1.0971         estimate D2E/DX2                !
 ! R27   R(26,28)                1.0963         estimate D2E/DX2                !
 ! A1    A(2,1,3)              105.1428         estimate D2E/DX2                !
 ! A2    A(2,1,4)              109.3315         estimate D2E/DX2                !
 ! A3    A(2,1,26)             108.144          estimate D2E/DX2                !
 ! A4    A(3,1,4)              109.897          estimate D2E/DX2                !
 ! A5    A(3,1,26)             109.888          estimate D2E/DX2                !
 ! A6    A(4,1,26)             114.0412         estimate D2E/DX2                !
 ! A7    A(1,4,5)              116.1375         estimate D2E/DX2                !
 ! A8    A(1,4,9)              120.4943         estimate D2E/DX2                !
 ! A9    A(5,4,9)              123.3552         estimate D2E/DX2                !
 ! A10   A(4,5,6)              111.6468         estimate D2E/DX2                !
 ! A11   A(4,5,7)              111.2147         estimate D2E/DX2                !
 ! A12   A(4,5,8)              110.9235         estimate D2E/DX2                !
 ! A13   A(6,5,7)              106.3482         estimate D2E/DX2                !
 ! A14   A(6,5,8)              108.4344         estimate D2E/DX2                !
 ! A15   A(7,5,8)              108.084          estimate D2E/DX2                !
 ! A16   A(4,9,10)             118.6721         estimate D2E/DX2                !
 ! A17   A(4,9,11)             126.7322         estimate D2E/DX2                !
 ! A18   A(10,9,11)            114.439          estimate D2E/DX2                !
 ! A19   A(9,11,12)            113.2348         estimate D2E/DX2                !
 ! A20   A(9,11,13)            109.2443         estimate D2E/DX2                !
 ! A21   A(9,11,14)            110.2211         estimate D2E/DX2                !
 ! A22   A(12,11,13)           107.1111         estimate D2E/DX2                !
 ! A23   A(12,11,14)           108.497          estimate D2E/DX2                !
 ! A24   A(13,11,14)           108.3824         estimate D2E/DX2                !
 ! A25   A(16,15,17)           107.8538         estimate D2E/DX2                !
 ! A26   A(16,15,18)           107.7911         estimate D2E/DX2                !
 ! A27   A(16,15,19)           112.327          estimate D2E/DX2                !
 ! A28   A(17,15,18)           108.5369         estimate D2E/DX2                !
 ! A29   A(17,15,19)           110.4396         estimate D2E/DX2                !
 ! A30   A(18,15,19)           109.7762         estimate D2E/DX2                !
 ! A31   A(15,19,20)           114.1773         estimate D2E/DX2                !
 ! A32   A(15,19,24)           120.81           estimate D2E/DX2                !
 ! A33   A(20,19,24)           124.922          estimate D2E/DX2                !
 ! A34   A(19,20,21)           113.7169         estimate D2E/DX2                !
 ! A35   A(19,20,22)           110.1468         estimate D2E/DX2                !
 ! A36   A(19,20,23)           110.0755         estimate D2E/DX2                !
 ! A37   A(21,20,22)           106.9017         estimate D2E/DX2                !
 ! A38   A(21,20,23)           107.4559         estimate D2E/DX2                !
 ! A39   A(22,20,23)           108.351          estimate D2E/DX2                !
 ! A40   A(19,24,25)           118.7226         estimate D2E/DX2                !
 ! A41   A(19,24,26)           126.8318         estimate D2E/DX2                !
 ! A42   A(25,24,26)           114.4213         estimate D2E/DX2                !
 ! A43   A(1,26,24)            113.6878         estimate D2E/DX2                !
 ! A44   A(1,26,27)            109.8549         estimate D2E/DX2                !
 ! A45   A(1,26,28)            108.5569         estimate D2E/DX2                !
 ! A46   A(24,26,27)           111.341          estimate D2E/DX2                !
 ! A47   A(24,26,28)           107.9386         estimate D2E/DX2                !
 ! A48   A(27,26,28)           105.041          estimate D2E/DX2                !
 ! D1    D(2,1,4,5)            145.9031         estimate D2E/DX2                !
 ! D2    D(2,1,4,9)            -35.3659         estimate D2E/DX2                !
 ! D3    D(3,1,4,5)             30.9814         estimate D2E/DX2                !
 ! D4    D(3,1,4,9)           -150.2875         estimate D2E/DX2                !
 ! D5    D(26,1,4,5)           -92.9085         estimate D2E/DX2                !
 ! D6    D(26,1,4,9)            85.8226         estimate D2E/DX2                !
 ! D7    D(2,1,26,24)          179.9841         estimate D2E/DX2                !
 ! D8    D(2,1,26,27)           54.4675         estimate D2E/DX2                !
 ! D9    D(2,1,26,28)          -59.8797         estimate D2E/DX2                !
 ! D10   D(3,1,26,24)          -65.756          estimate D2E/DX2                !
 ! D11   D(3,1,26,27)          168.7275         estimate D2E/DX2                !
 ! D12   D(3,1,26,28)           54.3802         estimate D2E/DX2                !
 ! D13   D(4,1,26,24)           58.1387         estimate D2E/DX2                !
 ! D14   D(4,1,26,27)          -67.3778         estimate D2E/DX2                !
 ! D15   D(4,1,26,28)          178.2749         estimate D2E/DX2                !
 ! D16   D(1,4,5,6)           -144.1641         estimate D2E/DX2                !
 ! D17   D(1,4,5,7)            -25.5505         estimate D2E/DX2                !
 ! D18   D(1,4,5,8)             94.7738         estimate D2E/DX2                !
 ! D19   D(9,4,5,6)             37.145          estimate D2E/DX2                !
 ! D20   D(9,4,5,7)            155.7586         estimate D2E/DX2                !
 ! D21   D(9,4,5,8)            -83.9171         estimate D2E/DX2                !
 ! D22   D(1,4,9,10)             1.8229         estimate D2E/DX2                !
 ! D23   D(1,4,9,11)          -173.3553         estimate D2E/DX2                !
 ! D24   D(5,4,9,10)          -179.541          estimate D2E/DX2                !
 ! D25   D(5,4,9,11)             5.2808         estimate D2E/DX2                !
 ! D26   D(4,9,11,12)            3.6932         estimate D2E/DX2                !
 ! D27   D(4,9,11,13)          122.9695         estimate D2E/DX2                !
 ! D28   D(4,9,11,14)         -118.0473         estimate D2E/DX2                !
 ! D29   D(10,9,11,12)        -171.6603         estimate D2E/DX2                !
 ! D30   D(10,9,11,13)         -52.384          estimate D2E/DX2                !
 ! D31   D(10,9,11,14)          66.5992         estimate D2E/DX2                !
 ! D32   D(16,15,19,20)       -175.6628         estimate D2E/DX2                !
 ! D33   D(16,15,19,24)          7.6342         estimate D2E/DX2                !
 ! D34   D(17,15,19,20)        -55.2146         estimate D2E/DX2                !
 ! D35   D(17,15,19,24)        128.0824         estimate D2E/DX2                !
 ! D36   D(18,15,19,20)         64.4249         estimate D2E/DX2                !
 ! D37   D(18,15,19,24)       -112.2781         estimate D2E/DX2                !
 ! D38   D(15,19,20,21)       -170.2055         estimate D2E/DX2                !
 ! D39   D(15,19,20,22)        -50.2438         estimate D2E/DX2                !
 ! D40   D(15,19,20,23)         69.171          estimate D2E/DX2                !
 ! D41   D(24,19,20,21)          6.3407         estimate D2E/DX2                !
 ! D42   D(24,19,20,22)        126.3024         estimate D2E/DX2                !
 ! D43   D(24,19,20,23)       -114.2828         estimate D2E/DX2                !
 ! D44   D(15,19,24,25)         -1.4803         estimate D2E/DX2                !
 ! D45   D(15,19,24,26)        176.6186         estimate D2E/DX2                !
 ! D46   D(20,19,24,25)       -177.8115         estimate D2E/DX2                !
 ! D47   D(20,19,24,26)          0.2874         estimate D2E/DX2                !
 ! D48   D(19,24,26,1)         -98.1748         estimate D2E/DX2                !
 ! D49   D(19,24,26,27)         26.5476         estimate D2E/DX2                !
 ! D50   D(19,24,26,28)        141.3403         estimate D2E/DX2                !
 ! D51   D(25,24,26,1)          79.9943         estimate D2E/DX2                !
 ! D52   D(25,24,26,27)       -155.2833         estimate D2E/DX2                !
 ! D53   D(25,24,26,28)        -40.4907         estimate D2E/DX2                !
 --------------------------------------------------------------------------------
 Trust Radius=3.00D-01 FncErr=1.00D-07 GrdErr=1.00D-07 EigMax=2.50D+02 EigMin=1.00D-04
 Number of steps in this run=    138 maximum allowed number of steps=    168.
 GradGradGradGradGradGradGradGradGradGradGradGradGradGradGradGradGradGrad

 Leave Link  103 at Fri Sep 17 19:56:09 2021, MaxMem=   131072000 cpu:               0.0 elap:               0.0
 (Enter /opt/g16/l202.exe)
                          Input orientation:                          
 ---------------------------------------------------------------------
 Center     Atomic      Atomic             Coordinates (Angstroms)
 Number     Number       Type             X           Y           Z
 ---------------------------------------------------------------------
      1          6           0        2.174000    1.264800   -9.065600
      2          1           0        1.824100    0.256700   -9.325500
      3          1           0        1.974800    1.875700   -9.955400
      4          6           0        3.668200    1.223400   -8.790500
      5          6           0        4.451100    2.445900   -9.192600
      6          1           0        5.446700    2.183500   -9.564900
      7          1           0        3.951800    2.987400  -10.003000
      8          1           0        4.567100    3.130200   -8.348400
      9          6           0        4.224600    0.149700   -8.195000
     10          1           0        3.587400   -0.697100   -7.943500
     11          6           0        5.642000    0.015900   -7.735100
     12          1           0        6.226800    0.930900   -7.867300
     13          1           0        5.653700   -0.222200   -6.667100
     14          1           0        6.139200   -0.794300   -8.274300
     15          6           0        2.862100    4.904500   -6.083700
     16          1           0        2.297300    5.607100   -6.703100
     17          1           0        2.654200    5.139300   -5.035400
     18          1           0        3.927500    5.072700   -6.273500
     19          6           0        2.511900    3.470700   -6.380800
     20          6           0        3.188700    2.471900   -5.481500
     21          1           0        3.066900    1.438300   -5.804400
     22          1           0        4.265600    2.668500   -5.442300
     23          1           0        2.786400    2.548300   -4.463800
     24          6           0        1.710900    3.155900   -7.420400
     25          1           0        1.301100    3.961600   -8.028200
     26          6           0        1.332200    1.774000   -7.881600
     27          1           0        1.374600    1.052100   -7.056500
     28          1           0        0.279300    1.796400   -8.186200
 ---------------------------------------------------------------------
                    Distance matrix (angstroms):
                    1          2          3          4          5
     1  C    0.000000
     2  H    1.098291   0.000000
     3  H    1.097553   1.743745   0.000000
     4  C    1.519877   2.149753   2.156407   0.000000
     5  C    2.568328   3.422191   2.653121   1.506361   0.000000
     6  H    3.435677   4.110122   3.507324   2.164382   1.094843
     7  H    2.647006   3.527440   2.268628   2.159232   1.095112
     8  H    3.117855   4.090938   3.297914   2.153917   1.092884
     9  C    2.491255   2.655538   3.337617   1.347974   2.513771
    10  H    2.665682   2.434930   3.642461   2.100538   3.490656
    11  C    3.918802   4.142912   4.673002   2.543189   3.073670
    12  H    4.239410   4.686647   4.830353   2.735743   2.684168
    13  H    4.480210   4.686392   5.361754   3.246659   3.865638
    14  H    4.537495   4.563958   5.224675   3.231628   3.767208
    15  C    4.755273   5.760968   4.995097   4.639726   4.270234
    16  H    4.944914   5.977264   4.960323   5.045139   4.563951
    17  H    5.611137   6.552389   5.942985   5.519352   5.269304
    18  H    5.036932   6.077240   5.252641   4.606478   3.961740
    19  C    3.491178   4.412949   3.950983   3.491997   3.566081
    20  C    3.915671   4.641722   4.673841   3.569055   3.920025
    21  H    3.385675   3.916488   4.314487   3.053610   3.796204
    22  H    4.412875   5.182369   5.122926   3.695354   3.761477
    23  H    4.816531   5.460181   5.591847   4.610126   5.014306
    24  C    2.549001   3.470963   2.852154   3.072906   3.339684
    25  H    3.018424   3.960152   2.918724   3.698919   3.684518
    26  C    1.539405   2.151514   2.173459   2.566351   3.449305
    27  H    2.172732   2.446032   3.072813   2.880399   3.996305
    28  H    2.155419   2.460709   2.451750   3.489721   4.340346
                    6          7          8          9         10
     6  H    0.000000
     7  H    1.752973   0.000000
     8  H    1.774770   1.771069   0.000000
     9  C    2.739799   3.375770   3.004034   0.000000
    10  H    3.792597   4.236728   3.971395   1.089195   0.000000
    11  C    2.843378   4.102433   3.351181   1.496139   2.184761
    12  H    2.249313   3.737115   2.796959   2.174044   3.102035
    13  H    3.771934   4.932162   3.904620   2.124880   2.474737
    14  H    3.318508   4.698338   4.228320   2.136146   2.574987
    15  C    5.118862   4.497069   3.344254   5.377929   5.946666
    16  H    5.461653   4.526537   3.740861   5.976911   6.553311
    17  H    6.086968   5.567000   4.321069   6.111083   6.587220
    18  H    4.635597   4.272966   2.913349   5.293048   6.016241
    19  C    4.517569   3.927750   2.865526   4.153758   4.579224
    20  C    4.675029   4.614328   3.248455   3.718707   4.032737
    21  H    4.512220   4.561908   3.403684   2.952241   3.067018
    22  H    4.315791   4.582592   2.957953   3.731406   4.247731
    23  H    5.764677   5.677473   4.312727   4.662998   4.825198
    24  C    4.415953   3.423426   3.003285   3.994488   4.317464
    25  H    4.765405   3.446028   3.385338   4.806793   5.190166
    26  C    4.464336   3.582594   3.538610   3.332049   3.346056
    27  H    4.914686   4.366830   4.022383   3.198907   2.956849
    28  H    5.362153   4.266907   4.493391   4.275171   4.149695
                   11         12         13         14         15
    11  C    0.000000
    12  H    1.093935   0.000000
    13  H    1.094282   1.760274   0.000000
    14  H    1.092872   1.774722   1.773725   0.000000
    15  C    5.861175   5.503811   5.866553   6.929245   0.000000
    16  H    6.596481   6.217972   6.726623   7.629337   1.093756
    17  H    6.516483   6.204334   6.356503   7.605479   1.094206
    18  H    5.535974   4.998148   5.583068   6.581528   1.095168
    19  C    4.854616   4.739277   4.856993   5.910404   1.505553
    20  C    4.138759   4.158939   3.839277   5.212796   2.527223
    21  H    3.518802   3.807621   3.192655   4.530335   3.483460
    22  H    3.766656   3.570180   3.432652   4.849906   2.716782
    23  H    5.026819   5.102563   4.555394   6.077348   2.860330
    24  C    5.041050   5.054077   5.246398   5.995254   2.483874
    25  H    5.873489   5.785633   6.188853   6.788694   2.665870
    26  C    4.656904   4.966702   4.912758   5.464213   3.920851
    27  H    4.443525   4.920968   4.481760   5.252965   4.242639
    28  H    5.668529   6.018600   5.938568   6.407645   4.555398
                   16         17         18         19         20
    16  H    0.000000
    17  H    1.768456   0.000000
    18  H    1.768528   1.777251   0.000000
    19  C    2.171206   2.148157   2.140523   0.000000
    20  C    3.480859   2.756759   2.817313   1.504792   0.000000
    21  H    4.333456   3.802510   3.764246   2.184242   1.089692
    22  H    3.754889   2.977756   2.566200   2.144708   1.095400
    23  H    3.822295   2.656593   3.309036   2.145008   1.096994
    24  C    2.620451   3.242208   3.146874   1.349618   2.532011
    25  H    2.335803   3.489228   3.348357   2.102605   3.502559
    26  C    4.124674   4.601498   4.494774   2.553994   3.113541
    27  H    4.660933   4.735760   4.826553   2.756746   2.790594
    28  H    4.559972   5.171332   5.263262   3.323741   4.029431
                   21         22         23         24         25
    21  H    0.000000
    22  H    1.755389   0.000000
    23  H    1.762949   1.777623   0.000000
    24  C    2.720357   3.267557   3.204272   0.000000
    25  H    3.798734   4.140923   4.111992   1.089270   0.000000
    26  C    2.727020   3.918565   3.794153   1.505246   2.192727
    27  H    2.140277   3.684599   3.309666   2.161364   3.068354
    28  H    3.684009   4.917330   4.550513   2.117586   2.399402
                   26         27         28
    26  C    0.000000
    27  H    1.097145   0.000000
    28  H    1.096303   1.740657   0.000000
 Stoichiometry    C10H18
 Framework group  C1[X(C10H18)]
 Deg. of freedom    78
 Full point group                 C1      NOp   1
 Largest Abelian subgroup         C1      NOp   1
 Largest concise Abelian subgroup C1      NOp   1
                         Standard orientation:                         
 ---------------------------------------------------------------------
 Center     Atomic      Atomic             Coordinates (Angstroms)
 Number     Number       Type             X           Y           Z
 ---------------------------------------------------------------------
      1          6           0        0.815309    1.821411   -0.070864
      2          1           0        1.525361    2.356395   -0.715737
      3          1           0        0.678347    2.469489    0.804270
      4          6           0        1.424201    0.496214    0.357078
      5          6           0        1.066535    0.017306    1.739773
      6          1           0        1.906650   -0.495229    2.219557
      7          1           0        0.802741    0.855338    2.393520
      8          1           0        0.216214   -0.668483    1.707487
      9          6           0        2.213281   -0.198253   -0.486783
     10          1           0        2.428772    0.223873   -1.467457
     11          6           0        2.768984   -1.569967   -0.267634
     12          1           0        2.422153   -2.032832    0.660891
     13          1           0        2.455414   -2.221597   -1.088917
     14          1           0        3.861239   -1.536935   -0.251663
     15          6           0       -2.971566   -0.939930    0.733624
     16          1           0       -3.475792   -0.186609    1.345642
     17          1           0       -3.733596   -1.456819    0.142504
     18          1           0       -2.505664   -1.663880    1.410546
     19          6           0       -1.925783   -0.338559   -0.167143
     20          6           0       -1.277314   -1.323476   -1.101929
     21          1           0       -0.411071   -0.923325   -1.628173
     22          1           0       -0.933854   -2.202128   -0.545237
     23          1           0       -1.998417   -1.654674   -1.859368
     24          6           0       -1.584638    0.962642   -0.057756
     25          1           0       -2.098178    1.578234    0.679694
     26          6           0       -0.514752    1.683281   -0.833507
     27          1           0       -0.338690    1.208265   -1.806693
     28          1           0       -0.887178    2.686896   -1.070014
 ---------------------------------------------------------------------
 Rotational constants (GHZ):           1.6539320           0.8587601           0.7393346
 Leave Link  202 at Fri Sep 17 19:56:09 2021, MaxMem=   131072000 cpu:               0.0 elap:               0.0
 (Enter /opt/g16/l301.exe)
 Standard basis: VSTO-6G (5D, 7F)
 Ernie: Thresh=  0.10000D-02 Tol=  0.10000D-05 Strict=F.
  NNHCO=     0 NNPyr=     0 NCTC=     0               EPep=         0.000000000
    EC=       260.547239589  ECS=         3.521026588   EG=         0.891520051
   EHC=         0.000000000  EAt=       -49.524085099  AtH=         4.217842293
 EPDDG=         0.000000000  ECC=       264.959786228 EAtT=        53.741927392
 There are    58 symmetry adapted cartesian basis functions of A   symmetry.
 There are    58 symmetry adapted basis functions of A   symmetry.
    58 basis functions,   348 primitive gaussians,    58 cartesian basis functions
    29 alpha electrons       29 beta electrons
       nuclear repulsion energy       318.7017136202 Hartrees.
 IExCor=    0 DFT=F Ex=HF Corr=None ExCW=0 ScaHFX=  1.000000
 ScaDFX=  1.000000  1.000000  1.000000  1.000000 ScalE2=  1.000000  1.000000
 IRadAn=      5 IRanWt=     -1 IRanGd=            0 ICorTp=0 IEmpDi=  4
 Integral buffers will be    131072 words long.
 Regular integral format.
 Two-electron integral symmetry is turned off.
 Leave Link  301 at Fri Sep 17 19:56:09 2021, MaxMem=   131072000 cpu:               0.1 elap:               0.1
 (Enter /opt/g16/l302.exe)
 Do NDO integrals.
 NPDir=0 NMtPBC=     1 NCelOv=     1 NCel=       1 NClECP=     1 NCelD=      1
         NCelK=      1 NCelE2=     1 NClLst=     1 CellRange=     0.0.
 One-electron integrals computed using PRISM.
 NBasis=    58 RedAO= F EigKep=  0.00D+00  NBF=    58
 NBsUse=    58 1.00D-04 EigRej=  0.00D+00 NBFU=    58
 Leave Link  302 at Fri Sep 17 19:56:09 2021, MaxMem=   131072000 cpu:               0.1 elap:               0.1
 (Enter /opt/g16/l303.exe)
 DipDrv:  MaxL=1.
 Leave Link  303 at Fri Sep 17 19:56:09 2021, MaxMem=   131072000 cpu:               0.0 elap:               0.0
 (Enter /opt/g16/l401.exe)
 Simple Huckel Guess.
 JPrj=0 DoOrth=F DoCkMO=F.
 Leave Link  401 at Fri Sep 17 19:56:09 2021, MaxMem=   131072000 cpu:               0.1 elap:               0.1
 (Enter /opt/g16/l502.exe)
 Keep J ints in memory in canonical form, NReq=866866.
 FoFCou: FMM=F IPFlag=           0 FMFlag=           0 FMFlg1=           0
         NFxFlg=           0 DoJE=F BraDBF=F KetDBF=F FulRan=T
         wScrn=  0.000000 ICntrl=       600 IOpCl=  2 I1Cent=           0 NGrid=           0
         NMat0=    1 NMatS0=    118 NMatT0=    0 NMatD0=    1 NMtDS0=    0 NMtDT0=    0
 Symmetry not used in FoFCou.
 Two-electron integral symmetry not used.
 Closed shell SCF:
 Using DIIS extrapolation, IDIIS=  1040.
 Overlap will be assumed to be unity.
 NGot=   131072000 LenX=   130997697 LenY=   130993892
 Requested convergence on RMS density matrix=1.00D-08 within 128 cycles.
 Requested convergence on MAX density matrix=1.00D-06.
 Requested convergence on             energy=1.00D-06.
 No special actions if energy rises.

 Cycle   1  Pass 1  IDiag  1:
 E= 0.219261193011334    
 DIIS: error= 2.74D-02 at cycle   1 NSaved=   1.
 NSaved= 1 IEnMin= 1 EnMin= 0.219261193011334     IErMin= 1 ErrMin= 2.74D-02
 ErrMax= 2.74D-02  0.00D+00 EMaxC= 1.00D-01 BMatC= 9.42D-02 BMatP= 9.42D-02
 IDIUse=3 WtCom= 7.26D-01 WtEn= 2.74D-01
 Coeff-Com:  0.100D+01
 Coeff-En:   0.100D+01
 Coeff:      0.100D+01
 GapD=    2.000 DampG=2.000 DampE=0.500 DampFc=1.0000 IDamp=-1.
 RMSDP=7.14D-03 MaxDP=8.50D-02              OVMax= 0.00D+00

 Cycle   2  Pass 1  IDiag  1:
 E= 0.153606859157662E-03 Delta-E=       -0.219107586152 Rises=F Damp=F
 DIIS: error= 7.93D-03 at cycle   2 NSaved=   2.
 NSaved= 2 IEnMin= 2 EnMin= 0.153606859157662E-03 IErMin= 2 ErrMin= 7.93D-03
 ErrMax= 7.93D-03  0.00D+00 EMaxC= 1.00D-01 BMatC= 6.04D-03 BMatP= 9.42D-02
 IDIUse=3 WtCom= 9.21D-01 WtEn= 7.93D-02
 Coeff-Com: -0.317D+00 0.132D+01
 Coeff-En:   0.000D+00 0.100D+01
 Coeff:     -0.292D+00 0.129D+01
 RMSDP=2.59D-03 MaxDP=2.86D-02 DE=-2.19D-01 OVMax= 0.00D+00

 Cycle   3  Pass 1  IDiag  3:
 E=-0.171597144893099E-01 Delta-E=       -0.017313321348 Rises=F Damp=F
 DIIS: error= 9.25D-04 at cycle   3 NSaved=   3.
 NSaved= 3 IEnMin= 3 EnMin=-0.171597144893099E-01 IErMin= 3 ErrMin= 9.25D-04
 ErrMax= 9.25D-04  0.00D+00 EMaxC= 1.00D-01 BMatC= 7.40D-05 BMatP= 6.04D-03
 IDIUse=3 WtCom= 9.91D-01 WtEn= 9.25D-03
 Coeff-Com:  0.108D+00-0.507D+00 0.140D+01
 Coeff-En:   0.000D+00 0.000D+00 0.100D+01
 Coeff:      0.107D+00-0.502D+00 0.139D+01
 Gap=     0.375 Goal=   None    Shift=    0.000
 RMSDP=4.33D-04 MaxDP=4.10D-03 DE=-1.73D-02 OVMax= 6.27D-03

 Cycle   4  Pass 1  IDiag  3:
 E=-0.175007338334581E-01 Delta-E=       -0.000341019344 Rises=F Damp=F
 DIIS: error= 1.90D-04 at cycle   4 NSaved=   4.
 NSaved= 4 IEnMin= 4 EnMin=-0.175007338334581E-01 IErMin= 4 ErrMin= 1.90D-04
 ErrMax= 1.90D-04  0.00D+00 EMaxC= 1.00D-01 BMatC= 3.13D-06 BMatP= 7.40D-05
 IDIUse=3 WtCom= 9.98D-01 WtEn= 1.90D-03
 Coeff-Com: -0.464D-01 0.223D+00-0.721D+00 0.154D+01
 Coeff-En:   0.000D+00 0.000D+00 0.000D+00 0.100D+01
 Coeff:     -0.463D-01 0.223D+00-0.720D+00 0.154D+01
 Gap=     0.376 Goal=   None    Shift=    0.000
 RMSDP=1.07D-04 MaxDP=1.16D-03 DE=-3.41D-04 OVMax= 8.04D-04

 Cycle   5  Pass 1  IDiag  3:
 E=-0.175183411504349E-01 Delta-E=       -0.000017607317 Rises=F Damp=F
 DIIS: error= 4.41D-05 at cycle   5 NSaved=   5.
 NSaved= 5 IEnMin= 5 EnMin=-0.175183411504349E-01 IErMin= 5 ErrMin= 4.41D-05
 ErrMax= 4.41D-05  0.00D+00 EMaxC= 1.00D-01 BMatC= 1.75D-07 BMatP= 3.13D-06
 IDIUse=1 WtCom= 1.00D+00 WtEn= 0.00D+00
 Coeff-Com:  0.123D-01-0.589D-01 0.197D+00-0.564D+00 0.141D+01
 Coeff:      0.123D-01-0.589D-01 0.197D+00-0.564D+00 0.141D+01
 Gap=     0.375 Goal=   None    Shift=    0.000
 RMSDP=2.58D-05 MaxDP=2.80D-04 DE=-1.76D-05 OVMax= 1.69D-04

 Cycle   6  Pass 1  IDiag  3:
 E=-0.175193980052200E-01 Delta-E=       -0.000001056855 Rises=F Damp=F
 DIIS: error= 1.42D-05 at cycle   6 NSaved=   6.
 NSaved= 6 IEnMin= 6 EnMin=-0.175193980052200E-01 IErMin= 6 ErrMin= 1.42D-05
 ErrMax= 1.42D-05  0.00D+00 EMaxC= 1.00D-01 BMatC= 1.48D-08 BMatP= 1.75D-07
 IDIUse=1 WtCom= 1.00D+00 WtEn= 0.00D+00
 Coeff-Com: -0.423D-02 0.202D-01-0.659D-01 0.190D+00-0.681D+00 0.154D+01
 Coeff:     -0.423D-02 0.202D-01-0.659D-01 0.190D+00-0.681D+00 0.154D+01
 Gap=     0.375 Goal=   None    Shift=    0.000
 RMSDP=8.73D-06 MaxDP=1.13D-04 DE=-1.06D-06 OVMax= 8.04D-05

 Cycle   7  Pass 1  IDiag  3:
 E=-0.175194988447060E-01 Delta-E=       -0.000000100839 Rises=F Damp=F
 DIIS: error= 3.43D-06 at cycle   7 NSaved=   7.
 NSaved= 7 IEnMin= 7 EnMin=-0.175194988447060E-01 IErMin= 7 ErrMin= 3.43D-06
 ErrMax= 3.43D-06  0.00D+00 EMaxC= 1.00D-01 BMatC= 1.12D-09 BMatP= 1.48D-08
 IDIUse=1 WtCom= 1.00D+00 WtEn= 0.00D+00
 Coeff-Com:  0.912D-03-0.429D-02 0.135D-01-0.401D-01 0.216D+00-0.768D+00
 Coeff-Com:  0.158D+01
 Coeff:      0.912D-03-0.429D-02 0.135D-01-0.401D-01 0.216D+00-0.768D+00
 Coeff:      0.158D+01
 Gap=     0.375 Goal=   None    Shift=    0.000
 RMSDP=2.57D-06 MaxDP=2.91D-05 DE=-1.01D-07 OVMax= 3.29D-05

 Cycle   8  Pass 1  IDiag  3:
 E=-0.175195065000366E-01 Delta-E=       -0.000000007655 Rises=F Damp=F
 DIIS: error= 9.00D-07 at cycle   8 NSaved=   8.
 NSaved= 8 IEnMin= 8 EnMin=-0.175195065000366E-01 IErMin= 8 ErrMin= 9.00D-07
 ErrMax= 9.00D-07  0.00D+00 EMaxC= 1.00D-01 BMatC= 4.93D-11 BMatP= 1.12D-09
 IDIUse=1 WtCom= 1.00D+00 WtEn= 0.00D+00
 Coeff-Com: -0.970D-04 0.437D-03-0.121D-02 0.360D-02-0.394D-01 0.193D+00
 Coeff-Com: -0.567D+00 0.141D+01
 Coeff:     -0.970D-04 0.437D-03-0.121D-02 0.360D-02-0.394D-01 0.193D+00
 Coeff:     -0.567D+00 0.141D+01
 Gap=     0.375 Goal=   None    Shift=    0.000
 RMSDP=4.88D-07 MaxDP=7.68D-06 DE=-7.66D-09 OVMax= 7.81D-06

 Cycle   9  Pass 1  IDiag  3:
 E=-0.175195068199514E-01 Delta-E=       -0.000000000320 Rises=F Damp=F
 DIIS: error= 3.10D-07 at cycle   9 NSaved=   9.
 NSaved= 9 IEnMin= 9 EnMin=-0.175195068199514E-01 IErMin= 9 ErrMin= 3.10D-07
 ErrMax= 3.10D-07  0.00D+00 EMaxC= 1.00D-01 BMatC= 4.16D-12 BMatP= 4.93D-11
 IDIUse=1 WtCom= 1.00D+00 WtEn= 0.00D+00
 Coeff-Com:  0.291D-04-0.125D-03 0.272D-03-0.647D-03 0.147D-01-0.829D-01
 Coeff-Com:  0.266D+00-0.856D+00 0.166D+01
 Coeff:      0.291D-04-0.125D-03 0.272D-03-0.647D-03 0.147D-01-0.829D-01
 Coeff:      0.266D+00-0.856D+00 0.166D+01
 Gap=     0.375 Goal=   None    Shift=    0.000
 RMSDP=1.58D-07 MaxDP=2.30D-06 DE=-3.20D-10 OVMax= 2.47D-06

 Cycle  10  Pass 1  IDiag  3:
 E=-0.175195068495668E-01 Delta-E=       -0.000000000030 Rises=F Damp=F
 DIIS: error= 7.48D-08 at cycle  10 NSaved=  10.
 NSaved=10 IEnMin=10 EnMin=-0.175195068495668E-01 IErMin=10 ErrMin= 7.48D-08
 ErrMax= 7.48D-08  0.00D+00 EMaxC= 1.00D-01 BMatC= 2.49D-13 BMatP= 4.16D-12
 IDIUse=1 WtCom= 1.00D+00 WtEn= 0.00D+00
 Coeff-Com: -0.331D-05 0.104D-04 0.151D-04-0.959D-04-0.402D-02 0.263D-01
 Coeff-Com: -0.896D-01 0.323D+00-0.832D+00 0.158D+01
 Coeff:     -0.331D-05 0.104D-04 0.151D-04-0.959D-04-0.402D-02 0.263D-01
 Coeff:     -0.896D-01 0.323D+00-0.832D+00 0.158D+01
 Gap=     0.375 Goal=   None    Shift=    0.000
 RMSDP=3.93D-08 MaxDP=5.15D-07 DE=-2.96D-11 OVMax= 5.23D-07

 Cycle  11  Pass 1  IDiag  3:
 E=-0.175195068510448E-01 Delta-E=       -0.000000000001 Rises=F Damp=F
 DIIS: error= 1.47D-08 at cycle  11 NSaved=  11.
 NSaved=11 IEnMin=11 EnMin=-0.175195068510448E-01 IErMin=11 ErrMin= 1.47D-08
 ErrMax= 1.47D-08  0.00D+00 EMaxC= 1.00D-01 BMatC= 8.33D-15 BMatP= 2.49D-13
 IDIUse=1 WtCom= 1.00D+00 WtEn= 0.00D+00
 Coeff-Com:  0.156D-06 0.976D-06-0.190D-04 0.764D-04 0.111D-02-0.788D-02
 Coeff-Com:  0.277D-01-0.103D+00 0.288D+00-0.664D+00 0.146D+01
 Coeff:      0.156D-06 0.976D-06-0.190D-04 0.764D-04 0.111D-02-0.788D-02
 Coeff:      0.277D-01-0.103D+00 0.288D+00-0.664D+00 0.146D+01
 Gap=     0.375 Goal=   None    Shift=    0.000
 RMSDP=5.99D-09 MaxDP=8.94D-08 DE=-1.48D-12 OVMax= 5.62D-08

 Cycle  12  Pass 2  IDiag  1:
 SCF Done:  E(RPM3) = -0.175195068510E-01 A.U. after   12 cycles
            NFock= 11  Conv=0.60D-08     -V/T= 0.9998
 KE=-7.901231291548D+01 PE=-5.197814224538D+02 EE= 2.800745022422D+02
 Leave Link  502 at Fri Sep 17 19:56:09 2021, MaxMem=   131072000 cpu:               0.1 elap:               0.1
 (Enter /opt/g16/l601.exe)
 Copying SCF densities to generalized density rwf, IOpCl= 0 IROHF=0.

 **********************************************************************

            Population analysis using the SCF density.

 **********************************************************************

 Orbital symmetries:
       Occupied  (A) (A) (A) (A) (A) (A) (A) (A) (A) (A) (A) (A)
                 (A) (A) (A) (A) (A) (A) (A) (A) (A) (A) (A) (A)
                 (A) (A) (A) (A) (A)
       Virtual   (A) (A) (A) (A) (A) (A) (A) (A) (A) (A) (A) (A)
                 (A) (A) (A) (A) (A) (A) (A) (A) (A) (A) (A) (A)
                 (A) (A) (A) (A) (A)
 The electronic state is 1-A.
 Alpha  occ. eigenvalues --   -1.46507  -1.32840  -1.19665  -1.07840  -1.00985
 Alpha  occ. eigenvalues --   -0.97062  -0.87461  -0.78837  -0.66171  -0.65036
 Alpha  occ. eigenvalues --   -0.60771  -0.59114  -0.56580  -0.56053  -0.55210
 Alpha  occ. eigenvalues --   -0.53298  -0.51607  -0.49918  -0.49148  -0.48548
 Alpha  occ. eigenvalues --   -0.48370  -0.47206  -0.47099  -0.46362  -0.45412
 Alpha  occ. eigenvalues --   -0.43472  -0.42370  -0.35345  -0.33948
 Alpha virt. eigenvalues --    0.03599   0.04248   0.12171   0.12236   0.13490
 Alpha virt. eigenvalues --    0.13787   0.14053   0.14144   0.14891   0.15291
 Alpha virt. eigenvalues --    0.15577   0.15759   0.15983   0.16235   0.16436
 Alpha virt. eigenvalues --    0.16612   0.16725   0.16791   0.16950   0.17123
 Alpha virt. eigenvalues --    0.17334   0.17483   0.17760   0.17977   0.18106
 Alpha virt. eigenvalues --    0.20906   0.21292   0.22373   0.22564
          Condensed to atoms (all electrons):
               1          2          3          4          5          6
     1  C    4.045884   0.000000   0.000000   0.000000   0.000000   0.000000
     2  H    0.000000   0.952751   0.000000   0.000000   0.000000   0.000000
     3  H    0.000000   0.000000   0.948452   0.000000   0.000000   0.000000
     4  C    0.000000   0.000000   0.000000   4.114044   0.000000   0.000000
     5  C    0.000000   0.000000   0.000000   0.000000   4.070533   0.000000
     6  H    0.000000   0.000000   0.000000   0.000000   0.000000   0.957512
     7  H    0.000000   0.000000   0.000000   0.000000   0.000000   0.000000
     8  H    0.000000   0.000000   0.000000   0.000000   0.000000   0.000000
     9  C    0.000000   0.000000   0.000000   0.000000   0.000000   0.000000
    10  H    0.000000   0.000000   0.000000   0.000000   0.000000   0.000000
    11  C    0.000000   0.000000   0.000000   0.000000   0.000000   0.000000
    12  H    0.000000   0.000000   0.000000   0.000000   0.000000   0.000000
    13  H    0.000000   0.000000   0.000000   0.000000   0.000000   0.000000
    14  H    0.000000   0.000000   0.000000   0.000000   0.000000   0.000000
    15  C    0.000000   0.000000   0.000000   0.000000   0.000000   0.000000
    16  H    0.000000   0.000000   0.000000   0.000000   0.000000   0.000000
    17  H    0.000000   0.000000   0.000000   0.000000   0.000000   0.000000
    18  H    0.000000   0.000000   0.000000   0.000000   0.000000   0.000000
    19  C    0.000000   0.000000   0.000000   0.000000   0.000000   0.000000
    20  C    0.000000   0.000000   0.000000   0.000000   0.000000   0.000000
    21  H    0.000000   0.000000   0.000000   0.000000   0.000000   0.000000
    22  H    0.000000   0.000000   0.000000   0.000000   0.000000   0.000000
    23  H    0.000000   0.000000   0.000000   0.000000   0.000000   0.000000
    24  C    0.000000   0.000000   0.000000   0.000000   0.000000   0.000000
    25  H    0.000000   0.000000   0.000000   0.000000   0.000000   0.000000
    26  C    0.000000   0.000000   0.000000   0.000000   0.000000   0.000000
    27  H    0.000000   0.000000   0.000000   0.000000   0.000000   0.000000
    28  H    0.000000   0.000000   0.000000   0.000000   0.000000   0.000000
               7          8          9         10         11         12
     1  C    0.000000   0.000000   0.000000   0.000000   0.000000   0.000000
     2  H    0.000000   0.000000   0.000000   0.000000   0.000000   0.000000
     3  H    0.000000   0.000000   0.000000   0.000000   0.000000   0.000000
     4  C    0.000000   0.000000   0.000000   0.000000   0.000000   0.000000
     5  C    0.000000   0.000000   0.000000   0.000000   0.000000   0.000000
     6  H    0.000000   0.000000   0.000000   0.000000   0.000000   0.000000
     7  H    0.957739   0.000000   0.000000   0.000000   0.000000   0.000000
     8  H    0.000000   0.946470   0.000000   0.000000   0.000000   0.000000
     9  C    0.000000   0.000000   4.162567   0.000000   0.000000   0.000000
    10  H    0.000000   0.000000   0.000000   0.905869   0.000000   0.000000
    11  C    0.000000   0.000000   0.000000   0.000000   4.066455   0.000000
    12  H    0.000000   0.000000   0.000000   0.000000   0.000000   0.957189
    13  H    0.000000   0.000000   0.000000   0.000000   0.000000   0.000000
    14  H    0.000000   0.000000   0.000000   0.000000   0.000000   0.000000
    15  C    0.000000   0.000000   0.000000   0.000000   0.000000   0.000000
    16  H    0.000000   0.000000   0.000000   0.000000   0.000000   0.000000
    17  H    0.000000   0.000000   0.000000   0.000000   0.000000   0.000000
    18  H    0.000000   0.000000   0.000000   0.000000   0.000000   0.000000
    19  C    0.000000   0.000000   0.000000   0.000000   0.000000   0.000000
    20  C    0.000000   0.000000   0.000000   0.000000   0.000000   0.000000
    21  H    0.000000   0.000000   0.000000   0.000000   0.000000   0.000000
    22  H    0.000000   0.000000   0.000000   0.000000   0.000000   0.000000
    23  H    0.000000   0.000000   0.000000   0.000000   0.000000   0.000000
    24  C    0.000000   0.000000   0.000000   0.000000   0.000000   0.000000
    25  H    0.000000   0.000000   0.000000   0.000000   0.000000   0.000000
    26  C    0.000000   0.000000   0.000000   0.000000   0.000000   0.000000
    27  H    0.000000   0.000000   0.000000   0.000000   0.000000   0.000000
    28  H    0.000000   0.000000   0.000000   0.000000   0.000000   0.000000
              13         14         15         16         17         18
     1  C    0.000000   0.000000   0.000000   0.000000   0.000000   0.000000
     2  H    0.000000   0.000000   0.000000   0.000000   0.000000   0.000000
     3  H    0.000000   0.000000   0.000000   0.000000   0.000000   0.000000
     4  C    0.000000   0.000000   0.000000   0.000000   0.000000   0.000000
     5  C    0.000000   0.000000   0.000000   0.000000   0.000000   0.000000
     6  H    0.000000   0.000000   0.000000   0.000000   0.000000   0.000000
     7  H    0.000000   0.000000   0.000000   0.000000   0.000000   0.000000
     8  H    0.000000   0.000000   0.000000   0.000000   0.000000   0.000000
     9  C    0.000000   0.000000   0.000000   0.000000   0.000000   0.000000
    10  H    0.000000   0.000000   0.000000   0.000000   0.000000   0.000000
    11  C    0.000000   0.000000   0.000000   0.000000   0.000000   0.000000
    12  H    0.000000   0.000000   0.000000   0.000000   0.000000   0.000000
    13  H    0.958969   0.000000   0.000000   0.000000   0.000000   0.000000
    14  H    0.000000   0.956050   0.000000   0.000000   0.000000   0.000000
    15  C    0.000000   0.000000   4.068865   0.000000   0.000000   0.000000
    16  H    0.000000   0.000000   0.000000   0.959169   0.000000   0.000000
    17  H    0.000000   0.000000   0.000000   0.000000   0.956244   0.000000
    18  H    0.000000   0.000000   0.000000   0.000000   0.000000   0.955752
    19  C    0.000000   0.000000   0.000000   0.000000   0.000000   0.000000
    20  C    0.000000   0.000000   0.000000   0.000000   0.000000   0.000000
    21  H    0.000000   0.000000   0.000000   0.000000   0.000000   0.000000
    22  H    0.000000   0.000000   0.000000   0.000000   0.000000   0.000000
    23  H    0.000000   0.000000   0.000000   0.000000   0.000000   0.000000
    24  C    0.000000   0.000000   0.000000   0.000000   0.000000   0.000000
    25  H    0.000000   0.000000   0.000000   0.000000   0.000000   0.000000
    26  C    0.000000   0.000000   0.000000   0.000000   0.000000   0.000000
    27  H    0.000000   0.000000   0.000000   0.000000   0.000000   0.000000
    28  H    0.000000   0.000000   0.000000   0.000000   0.000000   0.000000
              19         20         21         22         23         24
     1  C    0.000000   0.000000   0.000000   0.000000   0.000000   0.000000
     2  H    0.000000   0.000000   0.000000   0.000000   0.000000   0.000000
     3  H    0.000000   0.000000   0.000000   0.000000   0.000000   0.000000
     4  C    0.000000   0.000000   0.000000   0.000000   0.000000   0.000000
     5  C    0.000000   0.000000   0.000000   0.000000   0.000000   0.000000
     6  H    0.000000   0.000000   0.000000   0.000000   0.000000   0.000000
     7  H    0.000000   0.000000   0.000000   0.000000   0.000000   0.000000
     8  H    0.000000   0.000000   0.000000   0.000000   0.000000   0.000000
     9  C    0.000000   0.000000   0.000000   0.000000   0.000000   0.000000
    10  H    0.000000   0.000000   0.000000   0.000000   0.000000   0.000000
    11  C    0.000000   0.000000   0.000000   0.000000   0.000000   0.000000
    12  H    0.000000   0.000000   0.000000   0.000000   0.000000   0.000000
    13  H    0.000000   0.000000   0.000000   0.000000   0.000000   0.000000
    14  H    0.000000   0.000000   0.000000   0.000000   0.000000   0.000000
    15  C    0.000000   0.000000   0.000000   0.000000   0.000000   0.000000
    16  H    0.000000   0.000000   0.000000   0.000000   0.000000   0.000000
    17  H    0.000000   0.000000   0.000000   0.000000   0.000000   0.000000
    18  H    0.000000   0.000000   0.000000   0.000000   0.000000   0.000000
    19  C    4.116906   0.000000   0.000000   0.000000   0.000000   0.000000
    20  C    0.000000   4.073220   0.000000   0.000000   0.000000   0.000000
    21  H    0.000000   0.000000   0.948581   0.000000   0.000000   0.000000
    22  H    0.000000   0.000000   0.000000   0.955512   0.000000   0.000000
    23  H    0.000000   0.000000   0.000000   0.000000   0.956584   0.000000
    24  C    0.000000   0.000000   0.000000   0.000000   0.000000   4.154805
    25  H    0.000000   0.000000   0.000000   0.000000   0.000000   0.000000
    26  C    0.000000   0.000000   0.000000   0.000000   0.000000   0.000000
    27  H    0.000000   0.000000   0.000000   0.000000   0.000000   0.000000
    28  H    0.000000   0.000000   0.000000   0.000000   0.000000   0.000000
              25         26         27         28
     1  C    0.000000   0.000000   0.000000   0.000000
     2  H    0.000000   0.000000   0.000000   0.000000
     3  H    0.000000   0.000000   0.000000   0.000000
     4  C    0.000000   0.000000   0.000000   0.000000
     5  C    0.000000   0.000000   0.000000   0.000000
     6  H    0.000000   0.000000   0.000000   0.000000
     7  H    0.000000   0.000000   0.000000   0.000000
     8  H    0.000000   0.000000   0.000000   0.000000
     9  C    0.000000   0.000000   0.000000   0.000000
    10  H    0.000000   0.000000   0.000000   0.000000
    11  C    0.000000   0.000000   0.000000   0.000000
    12  H    0.000000   0.000000   0.000000   0.000000
    13  H    0.000000   0.000000   0.000000   0.000000
    14  H    0.000000   0.000000   0.000000   0.000000
    15  C    0.000000   0.000000   0.000000   0.000000
    16  H    0.000000   0.000000   0.000000   0.000000
    17  H    0.000000   0.000000   0.000000   0.000000
    18  H    0.000000   0.000000   0.000000   0.000000
    19  C    0.000000   0.000000   0.000000   0.000000
    20  C    0.000000   0.000000   0.000000   0.000000
    21  H    0.000000   0.000000   0.000000   0.000000
    22  H    0.000000   0.000000   0.000000   0.000000
    23  H    0.000000   0.000000   0.000000   0.000000
    24  C    0.000000   0.000000   0.000000   0.000000
    25  H    0.904661   0.000000   0.000000   0.000000
    26  C    0.000000   4.049112   0.000000   0.000000
    27  H    0.000000   0.000000   0.946796   0.000000
    28  H    0.000000   0.000000   0.000000   0.953307
 Mulliken charges:
               1
     1  C   -0.045884
     2  H    0.047249
     3  H    0.051548
     4  C   -0.114044
     5  C   -0.070533
     6  H    0.042488
     7  H    0.042261
     8  H    0.053530
     9  C   -0.162567
    10  H    0.094131
    11  C   -0.066455
    12  H    0.042811
    13  H    0.041031
    14  H    0.043950
    15  C   -0.068865
    16  H    0.040831
    17  H    0.043756
    18  H    0.044248
    19  C   -0.116906
    20  C   -0.073220
    21  H    0.051419
    22  H    0.044488
    23  H    0.043416
    24  C   -0.154805
    25  H    0.095339
    26  C   -0.049112
    27  H    0.053204
    28  H    0.046693
 Sum of Mulliken charges =   0.00000
 Mulliken charges with hydrogens summed into heavy atoms:
               1
     1  C    0.052913
     4  C   -0.114044
     5  C    0.067745
     9  C   -0.068435
    11  C    0.061336
    15  C    0.059969
    19  C   -0.116906
    20  C    0.066103
    24  C   -0.059466
    26  C    0.050785
 Charge=              0.0000 electrons
 Dipole moment (field-independent basis, Debye):
    X=             -0.1159    Y=             -0.3250    Z=              0.0745  Tot=              0.3529
 N-N= 3.187017136202D+02 E-N=-5.197814226868D+02  KE=-7.901231291548D+01
 Leave Link  601 at Fri Sep 17 19:56:09 2021, MaxMem=   131072000 cpu:               0.1 elap:               0.0
 (Enter /opt/g16/l701.exe)
 ... and contract with generalized density number  0.
 Compute integral first derivatives.
 Leave Link  701 at Fri Sep 17 19:56:09 2021, MaxMem=   131072000 cpu:               0.1 elap:               0.1
 (Enter /opt/g16/l702.exe)
 L702 exits ... SP integral derivatives will be done elsewhere.
 Leave Link  702 at Fri Sep 17 19:56:09 2021, MaxMem=   131072000 cpu:               0.1 elap:               0.0
 (Enter /opt/g16/l703.exe)
 Integral derivatives from FoFJK, PRISM(SPDF).
 Compute integral first derivatives, UseDBF=F ICtDFT=           0.
 Calling FoFJK, ICntrl=      2127 FMM=F ISym2X=0 I1Cent= 0 IOpClX= 0 NMat=1 NMatS=1 NMatT=0.
 FoFJK:  IHMeth= 9 ICntrl=    2127 DoSepK=F KAlg= 0 I1Cent=           0 FoldK=F
 IRaf=         0 NMat=       1 IRICut=       1 DoRegI=T DoRafI=F ISym2E= 0 IDoP0=3 IntGTp=3.
 FoFCou: FMM=F IPFlag=           0 FMFlag=      100000 FMFlg1=         800
         NFxFlg=           0 DoJE=F BraDBF=F KetDBF=F FulRan=T
         wScrn=  0.000000 ICntrl=      2127 IOpCl=  0 I1Cent=           0 NGrid=           0
         NMat0=    1 NMatS0=      1 NMatT0=    0 NMatD0=    1 NMtDS0=    0 NMtDT0=    0
 Symmetry not used in FoFCou.
 Leave Link  703 at Fri Sep 17 19:56:10 2021, MaxMem=   131072000 cpu:               0.1 elap:               0.1
 (Enter /opt/g16/l716.exe)
 Dipole        =-4.55838988D-02-1.27845519D-01 2.93253518D-02
 ***** Axes restored to original set *****
 -------------------------------------------------------------------
 Center     Atomic                   Forces (Hartrees/Bohr)
 Number     Number              X              Y              Z
 -------------------------------------------------------------------
      1        6           0.012786558    0.003568879    0.011879828
      2        1          -0.001698124   -0.006546659   -0.001056239
      3        1          -0.000038001    0.005431091   -0.004584077
      4        6           0.000568368    0.003456036    0.001780494
      5        6          -0.008181307   -0.015685334    0.000167991
      6        1           0.002835101   -0.001013614    0.000840147
      7        1          -0.002044948    0.001816925   -0.000839690
      8        1          -0.000221714    0.001854054    0.003604089
      9        6           0.004317662    0.014015050    0.001505410
     10        1          -0.003015844   -0.004776448    0.000318704
     11        6          -0.015690767    0.003766790   -0.007276958
     12        1           0.001349245    0.001996566   -0.001667311
     13        1           0.000360063   -0.001347517    0.002546789
     14        1           0.001837220   -0.001838590   -0.001186048
     15        6          -0.005853698   -0.014461731   -0.002798051
     16        1          -0.001302672    0.001807628   -0.001311515
     17        1           0.000346111    0.000740731    0.002088336
     18        1           0.001954474    0.000490725    0.000282461
     19        6           0.002128382   -0.005328363   -0.004718213
     20        6          -0.008724618    0.013302278   -0.006108826
     21        1          -0.002547449   -0.005306139   -0.004119872
     22        1           0.002024979    0.001152566    0.000580289
     23        1           0.000251041    0.000785380    0.000958594
     24        6           0.009987520   -0.009988507    0.008678778
     25        1          -0.002178339    0.004006406   -0.002922413
     26        6           0.014735735    0.011558244   -0.000482313
     27        1           0.003511516   -0.003984810    0.006538487
     28        1          -0.007496497    0.000528366   -0.002698871
 -------------------------------------------------------------------
 Cartesian Forces:  Max     0.015690767 RMS     0.005801247
 Leave Link  716 at Fri Sep 17 19:56:10 2021, MaxMem=   131072000 cpu:               0.0 elap:               0.1
 (Enter /opt/g16/l103.exe)

 GradGradGradGradGradGradGradGradGradGradGradGradGradGradGradGradGradGrad
 Berny optimization.
 FormGI is forming the generalized inverse of G from B-inverse, IUseBI=4.
 Internal  Forces:  Max     0.020215397 RMS     0.004710172
 Search for a local minimum.
 Step number   1 out of a maximum of  138
 All quantities printed in internal units (Hartrees-Bohrs-Radians)
 RMS Force = .47102D-02 SwitMx=.10000D-02 MixMth= 1
 Mixed Optimization -- RFO/linear search
 Second derivative matrix not updated -- first step.
 ITU=  0
     Eigenvalues ---    0.00245   0.00503   0.00682   0.00692   0.00697
     Eigenvalues ---    0.00703   0.00817   0.01189   0.01284   0.01559
     Eigenvalues ---    0.01646   0.02755   0.02777   0.03792   0.03858
     Eigenvalues ---    0.05304   0.05357   0.06940   0.07061   0.07097
     Eigenvalues ---    0.07099   0.07175   0.07324   0.07345   0.07494
     Eigenvalues ---    0.09565   0.09580   0.13005   0.13006   0.15971
     Eigenvalues ---    0.15995   0.16000   0.16000   0.16000   0.16000
     Eigenvalues ---    0.16000   0.16000   0.16000   0.16000   0.16000
     Eigenvalues ---    0.16000   0.16000   0.16000   0.21903   0.21914
     Eigenvalues ---    0.22001   0.22009   0.24947   0.24974   0.24993
     Eigenvalues ---    0.24996   0.28572   0.30378   0.31719   0.31802
     Eigenvalues ---    0.31833   0.31880   0.32786   0.33872   0.33954
     Eigenvalues ---    0.34000   0.34017   0.34094   0.34196   0.34222
     Eigenvalues ---    0.34228   0.34259   0.34322   0.34331   0.34362
     Eigenvalues ---    0.34382   0.34481   0.34483   0.34848   0.34897
     Eigenvalues ---    0.34906   0.55103   0.55455
 RFO step:  Lambda=-9.38733230D-03 EMin= 2.44694379D-03
 Linear search not attempted -- first point.
 Iteration  1 RMS(Cart)=  0.05315779 RMS(Int)=  0.00085765
 Iteration  2 RMS(Cart)=  0.00181120 RMS(Int)=  0.00012402
 Iteration  3 RMS(Cart)=  0.00000185 RMS(Int)=  0.00012401
 Iteration  4 RMS(Cart)=  0.00000000 RMS(Int)=  0.00012401
 ITry= 1 IFail=0 DXMaxC= 1.95D-01 DCOld= 1.00D+10 DXMaxT= 3.00D-01 DXLimC= 3.00D+00 Rises=F
 Variable       Old X    -DE/DX   Delta X   Delta X   Delta X     New X
                                 (Linear)    (Quad)   (Total)
    R1        2.07547   0.00680   0.00000   0.01953   0.01953   2.09500
    R2        2.07408   0.00675   0.00000   0.01933   0.01933   2.09341
    R3        2.87215  -0.01768   0.00000  -0.05647  -0.05647   2.81569
    R4        2.90905  -0.00993   0.00000  -0.03366  -0.03366   2.87540
    R5        2.84661  -0.01554   0.00000  -0.04757  -0.04757   2.79904
    R6        2.54730  -0.01643   0.00000  -0.02914  -0.02914   2.51816
    R7        2.06895   0.00254   0.00000   0.00720   0.00720   2.07616
    R8        2.06946   0.00245   0.00000   0.00697   0.00697   2.07644
    R9        2.06525   0.00392   0.00000   0.01107   0.01107   2.07632
   R10        2.05828   0.00555   0.00000   0.01549   0.01549   2.07377
   R11        2.82729  -0.01407   0.00000  -0.04171  -0.04171   2.78558
   R12        2.06724   0.00259   0.00000   0.00734   0.00734   2.07458
   R13        2.06789   0.00278   0.00000   0.00789   0.00789   2.07578
   R14        2.06523   0.00278   0.00000   0.00786   0.00786   2.07309
   R15        2.06690   0.00258   0.00000   0.00729   0.00729   2.07419
   R16        2.06775   0.00209   0.00000   0.00594   0.00594   2.07369
   R17        2.06957   0.00193   0.00000   0.00548   0.00548   2.07505
   R18        2.84508  -0.01235   0.00000  -0.03772  -0.03772   2.80736
   R19        2.84365  -0.01583   0.00000  -0.04824  -0.04824   2.79540
   R20        2.55041  -0.02022   0.00000  -0.03607  -0.03607   2.51434
   R21        2.05922   0.00654   0.00000   0.01827   0.01827   2.07749
   R22        2.07001   0.00222   0.00000   0.00631   0.00631   2.07632
   R23        2.07302   0.00085   0.00000   0.00244   0.00244   2.07546
   R24        2.05842   0.00541   0.00000   0.01511   0.01511   2.07353
   R25        2.84450  -0.01561   0.00000  -0.04764  -0.04764   2.79686
   R26        2.07330   0.00767   0.00000   0.02197   0.02197   2.09527
   R27        2.07171   0.00796   0.00000   0.02272   0.02272   2.09444
    A1        1.83509   0.00027   0.00000   0.01633   0.01627   1.85136
    A2        1.90819   0.00077   0.00000  -0.00137  -0.00141   1.90679
    A3        1.88747   0.00146   0.00000   0.00618   0.00607   1.89354
    A4        1.91806   0.00132   0.00000   0.00264   0.00259   1.92065
    A5        1.91791   0.00113   0.00000   0.00375   0.00366   1.92157
    A6        1.99039  -0.00456   0.00000  -0.02420  -0.02428   1.96612
    A7        2.02698   0.00192   0.00000   0.00747   0.00746   2.03444
    A8        2.10302  -0.00171   0.00000  -0.00652  -0.00654   2.09648
    A9        2.15295  -0.00021   0.00000  -0.00074  -0.00075   2.15220
   A10        1.94860  -0.00019   0.00000   0.00078   0.00071   1.94932
   A11        1.94106   0.00032   0.00000   0.00429   0.00424   1.94530
   A12        1.93598  -0.00193   0.00000  -0.01566  -0.01571   1.92027
   A13        1.85613   0.00153   0.00000   0.01716   0.01709   1.87322
   A14        1.89254   0.00027   0.00000  -0.00278  -0.00284   1.88969
   A15        1.88642   0.00014   0.00000  -0.00273  -0.00275   1.88367
   A16        2.07122   0.00290   0.00000   0.01420   0.01363   2.08485
   A17        2.21189  -0.00585   0.00000  -0.02457  -0.02514   2.18675
   A18        1.99734   0.00305   0.00000   0.01470   0.01413   2.01147
   A19        1.97632  -0.00092   0.00000  -0.00557  -0.00558   1.97074
   A20        1.90667   0.00078   0.00000   0.00667   0.00667   1.91334
   A21        1.92372   0.00062   0.00000   0.00177   0.00175   1.92547
   A22        1.86944   0.00073   0.00000   0.00784   0.00784   1.87728
   A23        1.89363  -0.00057   0.00000  -0.00697  -0.00698   1.88665
   A24        1.89163  -0.00066   0.00000  -0.00365  -0.00366   1.88797
   A25        1.88240  -0.00018   0.00000   0.00010   0.00009   1.88249
   A26        1.88131  -0.00007   0.00000   0.00061   0.00060   1.88191
   A27        1.96048   0.00027   0.00000   0.00275   0.00274   1.96322
   A28        1.89433  -0.00084   0.00000  -0.00722  -0.00722   1.88710
   A29        1.92753   0.00051   0.00000   0.00248   0.00248   1.93001
   A30        1.91596   0.00025   0.00000   0.00086   0.00085   1.91681
   A31        1.99277   0.00294   0.00000   0.01201   0.01167   2.00444
   A32        2.10853   0.00113   0.00000   0.00520   0.00485   2.11339
   A33        2.18030  -0.00401   0.00000  -0.01465  -0.01500   2.16530
   A34        1.98473  -0.00409   0.00000  -0.02427  -0.02429   1.96045
   A35        1.92242   0.00033   0.00000   0.00218   0.00217   1.92459
   A36        1.92118   0.00053   0.00000   0.00299   0.00298   1.92416
   A37        1.86579   0.00202   0.00000   0.01213   0.01212   1.87791
   A38        1.87546   0.00179   0.00000   0.01016   0.01015   1.88561
   A39        1.89108  -0.00039   0.00000  -0.00212  -0.00212   1.88896
   A40        2.07210   0.00353   0.00000   0.01575   0.01560   2.08770
   A41        2.21363  -0.00701   0.00000  -0.03038  -0.03052   2.18311
   A42        1.99703   0.00350   0.00000   0.01549   0.01535   2.01237
   A43        1.98423  -0.00304   0.00000  -0.01805  -0.01815   1.96608
   A44        1.91733   0.00100   0.00000   0.00227   0.00211   1.91944
   A45        1.89468   0.00049   0.00000   0.00249   0.00246   1.89713
   A46        1.94327   0.00021   0.00000  -0.00612  -0.00621   1.93706
   A47        1.88388   0.00086   0.00000   0.00267   0.00266   1.88655
   A48        1.83331   0.00079   0.00000   0.02009   0.02007   1.85338
    D1        2.54649   0.00049   0.00000  -0.00289  -0.00293   2.54356
    D2       -0.61725   0.00071   0.00000   0.00749   0.00745  -0.60980
    D3        0.54073  -0.00100   0.00000  -0.02317  -0.02315   0.51757
    D4       -2.62301  -0.00078   0.00000  -0.01279  -0.01277  -2.63578
    D5       -1.62156  -0.00016   0.00000  -0.01238  -0.01236  -1.63392
    D6        1.49789   0.00006   0.00000  -0.00200  -0.00198   1.49591
    D7        3.14131  -0.00064   0.00000   0.02395   0.02393  -3.11794
    D8        0.95064   0.00058   0.00000   0.04393   0.04392   0.99455
    D9       -1.04510  -0.00116   0.00000   0.01747   0.01744  -1.02766
   D10       -1.14766   0.00107   0.00000   0.04862   0.04864  -1.09902
   D11        2.94485   0.00229   0.00000   0.06861   0.06862   3.01347
   D12        0.94911   0.00055   0.00000   0.04214   0.04214   0.99126
   D13        1.01471   0.00033   0.00000   0.03724   0.03725   1.05196
   D14       -1.17596   0.00155   0.00000   0.05722   0.05724  -1.11873
   D15        3.11148  -0.00019   0.00000   0.03076   0.03076  -3.14094
   D16       -2.51614  -0.00107   0.00000  -0.01573  -0.01571  -2.53185
   D17       -0.44594   0.00095   0.00000   0.00928   0.00931  -0.43663
   D18        1.65412   0.00004   0.00000  -0.00185  -0.00184   1.65227
   D19        0.64830  -0.00128   0.00000  -0.02636  -0.02638   0.62192
   D20        2.71850   0.00074   0.00000  -0.00136  -0.00136   2.71714
   D21       -1.46463  -0.00017   0.00000  -0.01248  -0.01252  -1.47715
   D22        0.03182  -0.00059   0.00000  -0.00733  -0.00729   0.02453
   D23       -3.02562  -0.00230   0.00000  -0.07454  -0.07453  -3.10015
   D24       -3.13358  -0.00033   0.00000   0.00393   0.00393  -3.12965
   D25        0.09217  -0.00203   0.00000  -0.06328  -0.06332   0.02885
   D26        0.06446   0.00013   0.00000   0.01908   0.01908   0.08354
   D27        2.14622   0.00101   0.00000   0.03000   0.02999   2.17621
   D28       -2.06031   0.00105   0.00000   0.03070   0.03068  -2.02963
   D29       -2.99604  -0.00153   0.00000  -0.04576  -0.04574  -3.04177
   D30       -0.91427  -0.00066   0.00000  -0.03484  -0.03483  -0.94910
   D31        1.16238  -0.00061   0.00000  -0.03415  -0.03414   1.12824
   D32       -3.06589   0.00049   0.00000   0.02601   0.02623  -3.03966
   D33        0.13324  -0.00041   0.00000  -0.02000  -0.02022   0.11302
   D34       -0.96368   0.00079   0.00000   0.02972   0.02994  -0.93374
   D35        2.23546  -0.00011   0.00000  -0.01630  -0.01652   2.21894
   D36        1.12443   0.00022   0.00000   0.02287   0.02309   1.14752
   D37       -1.95962  -0.00067   0.00000  -0.02314  -0.02336  -1.98299
   D38       -2.97065  -0.00073   0.00000  -0.03117  -0.03107  -3.00172
   D39       -0.87692  -0.00067   0.00000  -0.03044  -0.03034  -0.90726
   D40        1.20726  -0.00062   0.00000  -0.02982  -0.02972   1.17754
   D41        0.11067   0.00042   0.00000   0.01784   0.01775   0.12842
   D42        2.20439   0.00048   0.00000   0.01857   0.01848   2.22287
   D43       -1.99461   0.00053   0.00000   0.01919   0.01909  -1.97552
   D44       -0.02584   0.00033   0.00000   0.01231   0.01213  -0.01371
   D45        3.08258   0.00117   0.00000   0.04641   0.04626   3.12884
   D46       -3.10340  -0.00093   0.00000  -0.03991  -0.03976   3.14003
   D47        0.00502  -0.00009   0.00000  -0.00580  -0.00562  -0.00061
   D48       -1.71347  -0.00089   0.00000  -0.04615  -0.04618  -1.75966
   D49        0.46334  -0.00175   0.00000  -0.06210  -0.06203   0.40131
   D50        2.46685  -0.00019   0.00000  -0.03972  -0.03972   2.42714
   D51        1.39616  -0.00008   0.00000  -0.01325  -0.01331   1.38285
   D52       -2.71021  -0.00094   0.00000  -0.02920  -0.02915  -2.73936
   D53       -0.70670   0.00063   0.00000  -0.00682  -0.00684  -0.71354
         Item               Value     Threshold  Converged?
 Maximum Force            0.020215     0.000450     NO 
 RMS     Force            0.004710     0.000300     NO 
 Maximum Displacement     0.195337     0.001800     NO 
 RMS     Displacement     0.053405     0.001200     NO 
 Predicted change in Energy=-5.073620D-03
 Lowest energy point so far.  Saving SCF results.
 GradGradGradGradGradGradGradGradGradGradGradGradGradGradGradGradGradGrad

 Leave Link  103 at Fri Sep 17 19:56:10 2021, MaxMem=   131072000 cpu:               0.0 elap:               0.0
 (Enter /opt/g16/l202.exe)
                          Input orientation:                          
 ---------------------------------------------------------------------
 Center     Atomic      Atomic             Coordinates (Angstroms)
 Number     Number       Type             X           Y           Z
 ---------------------------------------------------------------------
      1          6           0        2.197958    1.275660   -9.035337
      2          1           0        1.850022    0.255156   -9.293346
      3          1           0        2.001020    1.901674   -9.927810
      4          6           0        3.659895    1.238739   -8.749906
      5          6           0        4.442500    2.432258   -9.146078
      6          1           0        5.450557    2.161354   -9.488821
      7          1           0        3.954556    2.979352   -9.964592
      8          1           0        4.541300    3.117549   -8.292936
      9          6           0        4.198319    0.175074   -8.154575
     10          1           0        3.560523   -0.680420   -7.898424
     11          6           0        5.616068    0.038329   -7.774887
     12          1           0        6.197394    0.951598   -7.957125
     13          1           0        5.690449   -0.193672   -6.703788
     14          1           0        6.083363   -0.780635   -8.335611
     15          6           0        2.862022    4.879989   -6.105455
     16          1           0        2.303515    5.589129   -6.729916
     17          1           0        2.633740    5.103724   -5.055693
     18          1           0        3.932966    5.060036   -6.267988
     19          6           0        2.535342    3.465519   -6.420946
     20          6           0        3.155230    2.468752   -5.520718
     21          1           0        3.003693    1.437938   -5.871507
     22          1           0        4.238296    2.640131   -5.451223
     23          1           0        2.728975    2.550778   -4.511854
     24          6           0        1.752160    3.154490   -7.450604
     25          1           0        1.328878    3.954448   -8.070999
     26          6           0        1.382673    1.779062   -7.853328
     27          1           0        1.477968    1.076567   -7.000809
     28          1           0        0.310820    1.779223   -8.135325
 ---------------------------------------------------------------------
                    Distance matrix (angstroms):
                    1          2          3          4          5
     1  C    0.000000
     2  H    1.108628   0.000000
     3  H    1.107785   1.770979   0.000000
     4  C    1.489997   2.130352   2.139815   0.000000
     5  C    2.527439   3.388569   2.617909   1.481186   0.000000
     6  H    3.401396   4.078682   3.487040   2.145620   1.098654
     7  H    2.617578   3.507261   2.231378   2.142901   1.098802
     8  H    3.071639   4.054268   3.256408   2.125000   1.098743
     9  C    2.447136   2.611074   3.309628   1.332555   2.477415
    10  H    2.641099   2.397274   3.635612   2.101920   3.467462
    11  C    3.847492   4.066427   4.601707   2.493643   2.998053
    12  H    4.154881   4.601104   4.732420   2.673920   2.585656
    13  H    4.448881   4.653615   5.328853   3.218936   3.797060
    14  H    4.451330   4.462207   5.137646   3.181620   3.697563
    15  C    4.692161   5.707527   4.921593   4.570386   4.211257
    16  H    4.892046   5.935326   4.890332   4.984578   4.514302
    17  H    5.539093   6.486951   5.864383   5.444109   5.209568
    18  H    4.998997   6.048001   5.205955   4.564734   3.930425
    19  C    3.427002   4.361969   3.876751   3.412803   3.482990
    20  C    3.833064   4.564679   4.590886   3.492173   3.847289
    21  H    3.268847   3.799856   4.204045   2.958963   3.712364
    22  H    4.344034   5.114085   5.058711   3.630394   3.706328
    23  H    4.729672   5.376346   5.503074   4.533116   4.942291
    24  C    2.498023   3.436773   2.787118   2.999624   3.261009
    25  H    2.976768   3.930710   2.848403   3.642750   3.628704
    26  C    1.521594   2.148105   2.168147   2.506301   3.385323
    27  H    2.167332   2.463506   3.085728   2.801151   3.902375
    28  H    2.150556   2.456204   2.466733   3.447628   4.303354
                    6          7          8          9         10
     6  H    0.000000
     7  H    1.770169   0.000000
     8  H    1.780786   1.777020   0.000000
     9  C    2.700671   3.346574   2.965626   0.000000
    10  H    3.765272   4.221167   3.942351   1.097391   0.000000
    11  C    2.733532   4.025549   3.302286   1.474067   2.181083
    12  H    2.089824   3.629329   2.747136   2.153666   3.101615
    13  H    3.655147   4.869727   3.848391   2.113577   2.490113
    14  H    3.222675   4.617673   4.192328   2.121213   2.562400
    15  C    5.053579   4.438354   3.272804   5.302906   5.883944
    16  H    5.409720   4.472136   3.682312   5.910324   6.500210
    17  H    6.020352   5.509520   4.250109   6.028481   6.511250
    18  H    4.591210   4.242003   2.871192   5.243327   5.979120
    19  C    4.428452   3.848110   2.765736   4.074063   4.519154
    20  C    4.594438   4.543969   3.166595   3.645023   3.966741
    21  H    4.426673   4.475873   3.323950   2.869556   2.984274
    22  H    4.242759   4.534984   2.897425   3.658718   4.180219
    23  H    5.685847   5.605182   4.231114   4.590463   4.754047
    24  C    4.338063   3.346843   2.913794   3.918698   4.263480
    25  H    4.713135   3.380930   3.327058   4.745982   5.147040
    26  C    4.400985   3.537332   3.458573   3.254442   3.285441
    27  H    4.811282   4.305588   3.901180   3.089365   2.868755
    28  H    5.328684   4.250099   4.439924   4.205510   4.082468
                   11         12         13         14         15
    11  C    0.000000
    12  H    1.097821   0.000000
    13  H    1.098458   1.771860   0.000000
    14  H    1.097031   1.776763   1.778131   0.000000
    15  C    5.814933   5.475915   5.839524   6.884279   0.000000
    16  H    6.548004   6.178594   6.701700   7.578878   1.097616
    17  H    6.476615   6.193391   6.334201   7.568583   1.097347
    18  H    5.506462   4.985988   5.556988   6.558407   1.098069
    19  C    4.803089   4.700029   4.839874   5.855273   1.485591
    20  C    4.128433   4.182415   3.862058   5.201548   2.498390
    21  H    3.522253   3.845264   3.251692   4.525289   3.452900
    22  H    3.750607   3.601216   3.421712   4.840001   2.709080
    23  H    5.029422   5.143656   4.594225   6.080406   2.825330
    24  C    4.974476   4.986923   5.222839   5.918426   2.453277
    25  H    5.814092   5.721234   6.172476   6.715367   2.659045
    26  C    4.577984   4.886411   4.875455   5.374117   3.854774
    27  H    4.336013   4.816964   4.409844   5.142038   4.145273
    28  H    5.595202   5.947139   5.906100   6.317851   4.499305
                   16         17         18         19         20
    16  H    0.000000
    17  H    1.774173   0.000000
    18  H    1.774381   1.777514   0.000000
    19  C    2.158454   2.134788   2.125849   0.000000
    20  C    3.453163   2.726038   2.806785   1.479263   0.000000
    21  H    4.296452   3.773647   3.760364   2.152283   1.099360
    22  H    3.751669   2.966536   2.572211   2.126425   1.098742
    23  H    3.785815   2.611966   3.290892   2.125765   1.098284
    24  C    2.598240   3.211277   3.128195   1.330529   2.482600
    25  H    2.328219   3.480743   3.354765   2.101732   3.470848
    26  C    4.077574   4.521649   4.447706   2.494895   3.009767
    27  H    4.595447   4.619230   4.736251   2.676074   2.634778
    28  H    4.523426   5.092386   5.231694   3.275848   3.924574
                   21         22         23         24         25
    21  H    0.000000
    22  H    1.773740   0.000000
    23  H    1.778353   1.780013   0.000000
    24  C    2.646967   3.231558   3.155137   0.000000
    25  H    3.738394   4.129814   4.074073   1.097264   0.000000
    26  C    2.582961   3.829639   3.684226   1.480037   2.186910
    27  H    1.932291   3.530632   3.151700   2.143657   3.074042
    28  H    3.534531   4.834318   4.424060   2.106576   2.402536
                   26         27         28
    26  C    0.000000
    27  H    1.108769   0.000000
[...]
    25  H    5.714792   5.597101   6.168399   6.574148   2.676520
    26  C    4.607508   4.911796   4.929306   5.400737   3.866926
    27  H    4.246143   4.696238   4.338770   5.079596   4.131217
    28  H    5.555091   5.941902   5.871051   6.262467   4.371758
                   16         17         18         19         20
    16  H    0.000000
    17  H    1.772445   0.000000
    18  H    1.772128   1.772185   0.000000
    19  C    2.163686   2.138180   2.138111   0.000000
    20  C    3.469157   2.771648   2.798197   1.485892   0.000000
    21  H    4.304264   3.813252   3.759224   2.154981   1.102579
    22  H    3.760215   3.029811   2.565002   2.140220   1.097963
    23  H    3.833625   2.675961   3.279539   2.136092   1.098173
    24  C    2.608970   3.197278   3.178563   1.340090   2.491271
    25  H    2.345377   3.459638   3.423394   2.114147   3.483973
    26  C    4.095273   4.505740   4.501212   2.502027   3.003059
    27  H    4.614602   4.696829   4.620443   2.649800   2.556342
    28  H    4.540621   4.814067   5.174357   3.082971   3.542524
                   21         22         23         24         25
    21  H    0.000000
    22  H    1.777673   0.000000
    23  H    1.777563   1.773515   0.000000
    24  C    2.644541   3.257176   3.157156   0.000000
    25  H    3.737217   4.159257   4.087413   1.098572   0.000000
    26  C    2.562817   3.848067   3.651798   1.486688   2.198146
    27  H    1.773413   3.331612   3.227997   2.149274   3.103243
    28  H    3.117723   4.534326   3.904979   2.108740   2.631677
                   26         27         28
    26  C    0.000000
    27  H    1.113935   0.000000
    28  H    1.108824   1.773906   0.000000
 Stoichiometry    C10H18
 Framework group  C1[X(C10H18)]
 Deg. of freedom    78
 Full point group                 C1      NOp   1
 RotChk:  IX=0 Diff= 7.57D-15
 Largest Abelian subgroup         C1      NOp   1
 Largest concise Abelian subgroup C1      NOp   1
                         Standard orientation:                         
 ---------------------------------------------------------------------
 Center     Atomic      Atomic             Coordinates (Angstroms)
 Number     Number       Type             X           Y           Z
 ---------------------------------------------------------------------
      1          6           0        0.902307    1.590593   -0.390000
      2          1           0        1.513015    2.078461   -1.176180
      3          1           0        0.735884    2.366774    0.384071
      4          6           0        1.661574    0.440821    0.198364
      5          6           0        1.446282    0.194826    1.646975
      6          1           0        1.959201   -0.718170    1.990762
      7          1           0        1.823239    1.035923    2.244085
      8          1           0        0.373423    0.084872    1.861216
      9          6           0        2.473565   -0.302876   -0.565512
     10          1           0        2.586098   -0.064852   -1.631155
     11          6           0        3.258685   -1.458662   -0.082172
     12          1           0        3.067285   -1.679854    0.981011
     13          1           0        3.015958   -2.360112   -0.659966
     14          1           0        4.334240   -1.269273   -0.195917
     15          6           0       -3.276172   -0.475836    1.053680
     16          1           0       -3.280946    0.309562    1.821035
     17          1           0       -4.285204   -0.524671    0.622252
     18          1           0       -3.086015   -1.432314    1.559679
     19          6           0       -2.262946   -0.234978   -0.008907
     20          6           0       -2.235716   -1.243785   -1.099523
     21          1           0       -1.371731   -1.101050   -1.769475
     22          1           0       -2.178956   -2.261619   -0.691705
     23          1           0       -3.146592   -1.178470   -1.709460
     24          6           0       -1.446993    0.826986    0.039009
     25          1           0       -1.515254    1.532213    0.878566
     26          6           0       -0.427353    1.151392   -0.993143
     27          1           0       -0.269714    0.285220   -1.675599
     28          1           0       -0.833325    1.966472   -1.625853
 ---------------------------------------------------------------------
 Rotational constants (GHZ):           1.9456679           0.6518376           0.6288158
 Leave Link  202 at Fri Sep 17 19:56:27 2021, MaxMem=   131072000 cpu:               0.0 elap:               0.0
 (Enter /opt/g16/l601.exe)
 Copying SCF densities to generalized density rwf, IOpCl= 0 IROHF=0.

 **********************************************************************

            Population analysis using the SCF density.

 **********************************************************************

 Orbital symmetries:
       Occupied  (A) (A) (A) (A) (A) (A) (A) (A) (A) (A) (A) (A)
                 (A) (A) (A) (A) (A) (A) (A) (A) (A) (A) (A) (A)
                 (A) (A) (A) (A) (A)
       Virtual   (A) (A) (A) (A) (A) (A) (A) (A) (A) (A) (A) (A)
                 (A) (A) (A) (A) (A) (A) (A) (A) (A) (A) (A) (A)
                 (A) (A) (A) (A) (A)
 The electronic state is 1-A.
 Alpha  occ. eigenvalues --   -1.47442  -1.35607  -1.19417  -1.07169  -1.01162
 Alpha  occ. eigenvalues --   -0.97430  -0.86835  -0.78396  -0.66245  -0.65281
 Alpha  occ. eigenvalues --   -0.61384  -0.59672  -0.57328  -0.55739  -0.55702
 Alpha  occ. eigenvalues --   -0.54004  -0.51536  -0.49892  -0.48432  -0.48281
 Alpha  occ. eigenvalues --   -0.47919  -0.47679  -0.47181  -0.46210  -0.45530
 Alpha  occ. eigenvalues --   -0.43307  -0.42510  -0.35252  -0.33836
 Alpha virt. eigenvalues --    0.03726   0.04301   0.12290   0.12609   0.13454
 Alpha virt. eigenvalues --    0.13680   0.13932   0.14075   0.14927   0.15276
 Alpha virt. eigenvalues --    0.15454   0.15703   0.16008   0.16134   0.16422
 Alpha virt. eigenvalues --    0.16528   0.16758   0.16778   0.16870   0.17006
 Alpha virt. eigenvalues --    0.17141   0.17276   0.17727   0.17939   0.18185
 Alpha virt. eigenvalues --    0.21173   0.21400   0.22482   0.22612
          Condensed to atoms (all electrons):
               1          2          3          4          5          6
     1  C    4.052140   0.000000   0.000000   0.000000   0.000000   0.000000
     2  H    0.000000   0.949676   0.000000   0.000000   0.000000   0.000000
     3  H    0.000000   0.000000   0.945899   0.000000   0.000000   0.000000
     4  C    0.000000   0.000000   0.000000   4.119844   0.000000   0.000000
     5  C    0.000000   0.000000   0.000000   0.000000   4.081601   0.000000
     6  H    0.000000   0.000000   0.000000   0.000000   0.000000   0.950481
     7  H    0.000000   0.000000   0.000000   0.000000   0.000000   0.000000
     8  H    0.000000   0.000000   0.000000   0.000000   0.000000   0.000000
     9  C    0.000000   0.000000   0.000000   0.000000   0.000000   0.000000
    10  H    0.000000   0.000000   0.000000   0.000000   0.000000   0.000000
    11  C    0.000000   0.000000   0.000000   0.000000   0.000000   0.000000
    12  H    0.000000   0.000000   0.000000   0.000000   0.000000   0.000000
    13  H    0.000000   0.000000   0.000000   0.000000   0.000000   0.000000
    14  H    0.000000   0.000000   0.000000   0.000000   0.000000   0.000000
    15  C    0.000000   0.000000   0.000000   0.000000   0.000000   0.000000
    16  H    0.000000   0.000000   0.000000   0.000000   0.000000   0.000000
    17  H    0.000000   0.000000   0.000000   0.000000   0.000000   0.000000
    18  H    0.000000   0.000000   0.000000   0.000000   0.000000   0.000000
    19  C    0.000000   0.000000   0.000000   0.000000   0.000000   0.000000
    20  C    0.000000   0.000000   0.000000   0.000000   0.000000   0.000000
    21  H    0.000000   0.000000   0.000000   0.000000   0.000000   0.000000
    22  H    0.000000   0.000000   0.000000   0.000000   0.000000   0.000000
    23  H    0.000000   0.000000   0.000000   0.000000   0.000000   0.000000
    24  C    0.000000   0.000000   0.000000   0.000000   0.000000   0.000000
    25  H    0.000000   0.000000   0.000000   0.000000   0.000000   0.000000
    26  C    0.000000   0.000000   0.000000   0.000000   0.000000   0.000000
    27  H    0.000000   0.000000   0.000000   0.000000   0.000000   0.000000
    28  H    0.000000   0.000000   0.000000   0.000000   0.000000   0.000000
               7          8          9         10         11         12
     1  C    0.000000   0.000000   0.000000   0.000000   0.000000   0.000000
     2  H    0.000000   0.000000   0.000000   0.000000   0.000000   0.000000
     3  H    0.000000   0.000000   0.000000   0.000000   0.000000   0.000000
     4  C    0.000000   0.000000   0.000000   0.000000   0.000000   0.000000
     5  C    0.000000   0.000000   0.000000   0.000000   0.000000   0.000000
     6  H    0.000000   0.000000   0.000000   0.000000   0.000000   0.000000
     7  H    0.954680   0.000000   0.000000   0.000000   0.000000   0.000000
     8  H    0.000000   0.945297   0.000000   0.000000   0.000000   0.000000
     9  C    0.000000   0.000000   4.156997   0.000000   0.000000   0.000000
    10  H    0.000000   0.000000   0.000000   0.902721   0.000000   0.000000
    11  C    0.000000   0.000000   0.000000   0.000000   4.077328   0.000000
    12  H    0.000000   0.000000   0.000000   0.000000   0.000000   0.951945
    13  H    0.000000   0.000000   0.000000   0.000000   0.000000   0.000000
    14  H    0.000000   0.000000   0.000000   0.000000   0.000000   0.000000
    15  C    0.000000   0.000000   0.000000   0.000000   0.000000   0.000000
    16  H    0.000000   0.000000   0.000000   0.000000   0.000000   0.000000
    17  H    0.000000   0.000000   0.000000   0.000000   0.000000   0.000000
    18  H    0.000000   0.000000   0.000000   0.000000   0.000000   0.000000
    19  C    0.000000   0.000000   0.000000   0.000000   0.000000   0.000000
    20  C    0.000000   0.000000   0.000000   0.000000   0.000000   0.000000
    21  H    0.000000   0.000000   0.000000   0.000000   0.000000   0.000000
    22  H    0.000000   0.000000   0.000000   0.000000   0.000000   0.000000
    23  H    0.000000   0.000000   0.000000   0.000000   0.000000   0.000000
    24  C    0.000000   0.000000   0.000000   0.000000   0.000000   0.000000
    25  H    0.000000   0.000000   0.000000   0.000000   0.000000   0.000000
    26  C    0.000000   0.000000   0.000000   0.000000   0.000000   0.000000
    27  H    0.000000   0.000000   0.000000   0.000000   0.000000   0.000000
    28  H    0.000000   0.000000   0.000000   0.000000   0.000000   0.000000
              13         14         15         16         17         18
     1  C    0.000000   0.000000   0.000000   0.000000   0.000000   0.000000
     2  H    0.000000   0.000000   0.000000   0.000000   0.000000   0.000000
     3  H    0.000000   0.000000   0.000000   0.000000   0.000000   0.000000
     4  C    0.000000   0.000000   0.000000   0.000000   0.000000   0.000000
     5  C    0.000000   0.000000   0.000000   0.000000   0.000000   0.000000
     6  H    0.000000   0.000000   0.000000   0.000000   0.000000   0.000000
     7  H    0.000000   0.000000   0.000000   0.000000   0.000000   0.000000
     8  H    0.000000   0.000000   0.000000   0.000000   0.000000   0.000000
     9  C    0.000000   0.000000   0.000000   0.000000   0.000000   0.000000
    10  H    0.000000   0.000000   0.000000   0.000000   0.000000   0.000000
    11  C    0.000000   0.000000   0.000000   0.000000   0.000000   0.000000
    12  H    0.000000   0.000000   0.000000   0.000000   0.000000   0.000000
    13  H    0.956836   0.000000   0.000000   0.000000   0.000000   0.000000
    14  H    0.000000   0.956127   0.000000   0.000000   0.000000   0.000000
    15  C    0.000000   0.000000   4.068275   0.000000   0.000000   0.000000
    16  H    0.000000   0.000000   0.000000   0.959099   0.000000   0.000000
    17  H    0.000000   0.000000   0.000000   0.000000   0.956663   0.000000
    18  H    0.000000   0.000000   0.000000   0.000000   0.000000   0.956066
    19  C    0.000000   0.000000   0.000000   0.000000   0.000000   0.000000
    20  C    0.000000   0.000000   0.000000   0.000000   0.000000   0.000000
    21  H    0.000000   0.000000   0.000000   0.000000   0.000000   0.000000
    22  H    0.000000   0.000000   0.000000   0.000000   0.000000   0.000000
    23  H    0.000000   0.000000   0.000000   0.000000   0.000000   0.000000
    24  C    0.000000   0.000000   0.000000   0.000000   0.000000   0.000000
    25  H    0.000000   0.000000   0.000000   0.000000   0.000000   0.000000
    26  C    0.000000   0.000000   0.000000   0.000000   0.000000   0.000000
    27  H    0.000000   0.000000   0.000000   0.000000   0.000000   0.000000
    28  H    0.000000   0.000000   0.000000   0.000000   0.000000   0.000000
              19         20         21         22         23         24
     1  C    0.000000   0.000000   0.000000   0.000000   0.000000   0.000000
     2  H    0.000000   0.000000   0.000000   0.000000   0.000000   0.000000
     3  H    0.000000   0.000000   0.000000   0.000000   0.000000   0.000000
     4  C    0.000000   0.000000   0.000000   0.000000   0.000000   0.000000
     5  C    0.000000   0.000000   0.000000   0.000000   0.000000   0.000000
     6  H    0.000000   0.000000   0.000000   0.000000   0.000000   0.000000
     7  H    0.000000   0.000000   0.000000   0.000000   0.000000   0.000000
     8  H    0.000000   0.000000   0.000000   0.000000   0.000000   0.000000
     9  C    0.000000   0.000000   0.000000   0.000000   0.000000   0.000000
    10  H    0.000000   0.000000   0.000000   0.000000   0.000000   0.000000
    11  C    0.000000   0.000000   0.000000   0.000000   0.000000   0.000000
    12  H    0.000000   0.000000   0.000000   0.000000   0.000000   0.000000
    13  H    0.000000   0.000000   0.000000   0.000000   0.000000   0.000000
    14  H    0.000000   0.000000   0.000000   0.000000   0.000000   0.000000
    15  C    0.000000   0.000000   0.000000   0.000000   0.000000   0.000000
    16  H    0.000000   0.000000   0.000000   0.000000   0.000000   0.000000
    17  H    0.000000   0.000000   0.000000   0.000000   0.000000   0.000000
    18  H    0.000000   0.000000   0.000000   0.000000   0.000000   0.000000
    19  C    4.124963   0.000000   0.000000   0.000000   0.000000   0.000000
    20  C    0.000000   4.075950   0.000000   0.000000   0.000000   0.000000
    21  H    0.000000   0.000000   0.949172   0.000000   0.000000   0.000000
    22  H    0.000000   0.000000   0.000000   0.954474   0.000000   0.000000
    23  H    0.000000   0.000000   0.000000   0.000000   0.954485   0.000000
    24  C    0.000000   0.000000   0.000000   0.000000   0.000000   4.154874
    25  H    0.000000   0.000000   0.000000   0.000000   0.000000   0.000000
    26  C    0.000000   0.000000   0.000000   0.000000   0.000000   0.000000
    27  H    0.000000   0.000000   0.000000   0.000000   0.000000   0.000000
    28  H    0.000000   0.000000   0.000000   0.000000   0.000000   0.000000
              25         26         27         28
     1  C    0.000000   0.000000   0.000000   0.000000
     2  H    0.000000   0.000000   0.000000   0.000000
     3  H    0.000000   0.000000   0.000000   0.000000
     4  C    0.000000   0.000000   0.000000   0.000000
     5  C    0.000000   0.000000   0.000000   0.000000
     6  H    0.000000   0.000000   0.000000   0.000000
     7  H    0.000000   0.000000   0.000000   0.000000
     8  H    0.000000   0.000000   0.000000   0.000000
     9  C    0.000000   0.000000   0.000000   0.000000
    10  H    0.000000   0.000000   0.000000   0.000000
    11  C    0.000000   0.000000   0.000000   0.000000
    12  H    0.000000   0.000000   0.000000   0.000000
    13  H    0.000000   0.000000   0.000000   0.000000
    14  H    0.000000   0.000000   0.000000   0.000000
    15  C    0.000000   0.000000   0.000000   0.000000
    16  H    0.000000   0.000000   0.000000   0.000000
    17  H    0.000000   0.000000   0.000000   0.000000
    18  H    0.000000   0.000000   0.000000   0.000000
    19  C    0.000000   0.000000   0.000000   0.000000
    20  C    0.000000   0.000000   0.000000   0.000000
    21  H    0.000000   0.000000   0.000000   0.000000
    22  H    0.000000   0.000000   0.000000   0.000000
    23  H    0.000000   0.000000   0.000000   0.000000
    24  C    0.000000   0.000000   0.000000   0.000000
    25  H    0.898066   0.000000   0.000000   0.000000
    26  C    0.000000   4.065235   0.000000   0.000000
    27  H    0.000000   0.000000   0.934843   0.000000
    28  H    0.000000   0.000000   0.000000   0.946261
 Mulliken charges:
               1
     1  C   -0.052140
     2  H    0.050324
     3  H    0.054101
     4  C   -0.119844
     5  C   -0.081601
     6  H    0.049519
     7  H    0.045320
     8  H    0.054703
     9  C   -0.156997
    10  H    0.097279
    11  C   -0.077328
    12  H    0.048055
    13  H    0.043164
    14  H    0.043873
    15  C   -0.068275
    16  H    0.040901
    17  H    0.043337
    18  H    0.043934
    19  C   -0.124963
    20  C   -0.075950
    21  H    0.050828
    22  H    0.045526
    23  H    0.045515
    24  C   -0.154874
    25  H    0.101934
    26  C   -0.065235
    27  H    0.065157
    28  H    0.053739
 Sum of Mulliken charges =   0.00000
 Mulliken charges with hydrogens summed into heavy atoms:
               1
     1  C    0.052285
     4  C   -0.119844
     5  C    0.067940
     9  C   -0.059718
    11  C    0.057763
    15  C    0.059897
    19  C   -0.124963
    20  C    0.065919
    24  C   -0.052940
    26  C    0.053661
 Charge=              0.0000 electrons
 Dipole moment (field-independent basis, Debye):
    X=             -0.1875    Y=             -0.1958    Z=              0.0386  Tot=              0.2738
 N-N= 3.126203648125D+02 E-N=-5.074621768596D+02  KE=-7.910489690367D+01
 Leave Link  601 at Fri Sep 17 19:56:27 2021, MaxMem=   131072000 cpu:               0.0 elap:               0.0
 (Enter /opt/g16/l9999.exe)
 1\1\GINC-TOTEM\FOpt\RPM3\ZDO\C10H18\JRAMOS\17-Sep-2021\0\\#p opt pm3\\
 Conformer number 041. Energy MM = 26.841 kcal/mol\\0,1\C,2.2788974556,
 1.2717748968,-8.9560786521\H,1.8026742827,0.3080909593,-9.2273408883\H
 ,2.0079698049,1.9778901944,-9.766843901\C,3.7667199246,1.1031412887,-8
 .9052771859\C,4.5675246801,2.2739261992,-9.3449505208\H,5.6475924366,2
 .1150717985,-9.1931090053\H,4.4054639958,2.4768093119,-10.4120275947\H
 ,4.2723497115,3.1721104181,-8.7835661126\C,4.3089508773,-0.0459700899,
 -8.4793063197\H,3.6567461139,-0.8723486575,-8.1684352379\C,5.761080283
 1,-0.3078254832,-8.3864308066\H,6.3640559762,0.5728281633,-8.663536106
 9\H,6.0379939939,-0.5938590774,-7.3632605106\H,6.0478987784,-1.1323940
 031,-9.0523499787\C,2.6494181339,5.1236778691,-5.9829355304\H,2.441046
 2313,5.7123162789,-6.8861473513\H,2.0189806641,5.5201332817,-5.1754495
 421\H,3.6966495143,5.3041803044,-5.704063568\C,2.4018576962,3.66919096
 77,-6.1750647448\C,2.6272102155,2.8235417149,-4.9742446567\H,2.5792216
 734,1.7484595043,-5.2141928227\H,3.611673624,3.0244461472,-4.531534322
 7\H,1.8679027348,3.0297051102,-4.2081286825\C,2.0019894565,3.184332790
 2,-7.3586434872\H,1.8603534657,3.8649189847,-8.2092917581\C,1.71012665
 86,1.7511426648,-7.6251465601\H,2.0892886403,1.1120369963,-6.795308630
 6\H,0.608562977,1.6244714666,-7.6269355215\\Version=ES64L-G16RevA.03\S
 tate=1-A\HF=-0.0269697\RMSD=4.722e-09\RMSF=3.307e-06\Dipole=0.0316377,
 0.0586548,0.0846192\PG=C01 [X(C10H18)]\\@


 WHEN ALL ELSE FAILS, LOOK AT THE SCHRODINGER EQUATION.
     -- RUSSELL T. PACK, APRIL 1978
 Job cpu time:       0 days  0 hours  0 minutes 18.3 seconds.
 Elapsed time:       0 days  0 hours  0 minutes 16.1 seconds.
 File lengths (MBytes):  RWF=      6 Int=      0 D2E=      0 Chk=      2 Scr=      1
 Normal termination of Gaussian 16 at Fri Sep 17 19:56:27 2021.
