 Entering Gaussian System, Link 0=/opt/gaussian/g16_legacy/g16
 Input=02-IsoP_238_gaussian.com
 Output=02-IsoP_238_gaussian.log
 Initial command:
 /opt/gaussian/g16_legacy/l1.exe "/scratch-local/jramos/2645818/Gau-8016.inp" -scrdir="/scratch-local/jramos/2645818/"
 Entering Link 1 = /opt/gaussian/g16_legacy/l1.exe PID=      8021.
  
 Copyright (c) 1988,1990,1992,1993,1995,1998,2003,2009,2016,
            Gaussian, Inc.  All Rights Reserved.
  
 This is part of the Gaussian(R) 16 program.  It is based on
 the Gaussian(R) 09 system (copyright 2009, Gaussian, Inc.),
 the Gaussian(R) 03 system (copyright 2003, Gaussian, Inc.),
 the Gaussian(R) 98 system (copyright 1998, Gaussian, Inc.),
 the Gaussian(R) 94 system (copyright 1995, Gaussian, Inc.),
 the Gaussian 92(TM) system (copyright 1992, Gaussian, Inc.),
 the Gaussian 90(TM) system (copyright 1990, Gaussian, Inc.),
 the Gaussian 88(TM) system (copyright 1988, Gaussian, Inc.),
 the Gaussian 86(TM) system (copyright 1986, Carnegie Mellon
 University), and the Gaussian 82(TM) system (copyright 1983,
 Carnegie Mellon University). Gaussian is a federally registered
 trademark of Gaussian, Inc.
  
 This software contains proprietary and confidential information,
 including trade secrets, belonging to Gaussian, Inc.
  
 This software is provided under written license and may be
 used, copied, transmitted, or stored only in accord with that
 written license.
  
 The following legend is applicable only to US Government
 contracts under FAR:
  
                    RESTRICTED RIGHTS LEGEND
  
 Use, reproduction and disclosure by the US Government is
 subject to restrictions as set forth in subparagraphs (a)
 and (c) of the Commercial Computer Software - Restricted
 Rights clause in FAR 52.227-19.
  
 Gaussian, Inc.
 340 Quinnipiac St., Bldg. 40, Wallingford CT 06492
  
  
 ---------------------------------------------------------------
 Warning -- This program may not be used in any manner that
 competes with the business of Gaussian, Inc. or will provide
 assistance to any competitor of Gaussian, Inc.  The licensee
 of this program is prohibited from giving any competitor of
 Gaussian, Inc. access to this program.  By using this program,
 the user acknowledges that Gaussian, Inc. is engaged in the
 business of creating and licensing software in the field of
 computational chemistry and represents and warrants to the
 licensee that it is not a competitor of Gaussian, Inc. and that
 it will not use this program in any manner prohibited above.
 ---------------------------------------------------------------
  

 Cite this work as:
 Gaussian 16, Revision A.03,
 M. J. Frisch, G. W. Trucks, H. B. Schlegel, G. E. Scuseria, 
 M. A. Robb, J. R. Cheeseman, G. Scalmani, V. Barone, 
 G. A. Petersson, H. Nakatsuji, X. Li, M. Caricato, A. V. Marenich, 
 J. Bloino, B. G. Janesko, R. Gomperts, B. Mennucci, H. P. Hratchian, 
 J. V. Ortiz, A. F. Izmaylov, J. L. Sonnenberg, D. Williams-Young, 
 F. Ding, F. Lipparini, F. Egidi, J. Goings, B. Peng, A. Petrone, 
 T. Henderson, D. Ranasinghe, V. G. Zakrzewski, J. Gao, N. Rega, 
 G. Zheng, W. Liang, M. Hada, M. Ehara, K. Toyota, R. Fukuda, 
 J. Hasegawa, M. Ishida, T. Nakajima, Y. Honda, O. Kitao, H. Nakai, 
 T. Vreven, K. Throssell, J. A. Montgomery, Jr., J. E. Peralta, 
 F. Ogliaro, M. J. Bearpark, J. J. Heyd, E. N. Brothers, K. N. Kudin, 
 V. N. Staroverov, T. A. Keith, R. Kobayashi, J. Normand, 
 K. Raghavachari, A. P. Rendell, J. C. Burant, S. S. Iyengar, 
 J. Tomasi, M. Cossi, J. M. Millam, M. Klene, C. Adamo, R. Cammi, 
 J. W. Ochterski, R. L. Martin, K. Morokuma, O. Farkas, 
 J. B. Foresman, and D. J. Fox, Gaussian, Inc., Wallingford CT, 2016.
 
 ******************************************
 Gaussian 16:  EM64L-G16RevA.03 25-Dec-2016
                26-Jul-2021 
 ******************************************
 %chk=02-IsoP_238_gaussian.chk
 %nproc=1
 Will use up to    1 processors via shared memory.
 %mem=1000Mb
 ----------
 #p opt pm3
 ----------
 1/18=20,19=15,26=1,38=1/1,3;
 2/9=110,12=2,17=6,18=5,40=1/2;
 3/5=2,25=1,41=800000,71=1/1,2,3;
 4/35=1/1;
 5/5=2,35=1,38=5/2;
 6/7=2,8=2,9=2,10=2,28=1/1;
 7//1,2,3,16;
 1/18=20,19=15,26=1/3(2);
 2/9=110/2;
 99//99;
 2/9=110/2;
 3/5=2,25=1,41=800000,71=1,135=20/1,2,3;
 4/5=5,16=3,35=1/1;
 5/5=2,35=1,38=5/2;
 7//1,2,3,16;
 1/18=20,19=15,26=1/3(-5);
 2/9=110/2;
 6/7=2,8=2,9=2,10=2,19=2,28=1/1;
 99/9=1/99;
 Leave Link    1 at Mon Jul 26 11:28:51 2021, MaxMem=   131072000 cpu:               0.0 elap:               0.1
 (Enter /opt/gaussian/g16_legacy/l101.exe)
 -------------------------------------------------
 Conformer number 238. Energy MM = 23.959 kcal/mol
 -------------------------------------------------
 Symbolic Z-matrix:
 Charge =  0 Multiplicity = 1
 C                    -1.521     0.6184    0.9315 
 H                    -2.4277    0.2455    1.4247 
 H                    -1.5778    1.71      1.0358 
 C                    -1.5629    0.2429   -0.5369 
 C                    -1.0628    1.299    -1.4888 
 H                    -1.1428    0.9846   -2.5349 
 H                    -1.6482    2.2175   -1.3761 
 H                    -0.0119    1.5314   -1.2965 
 C                    -2.0414   -0.9269   -1.0062 
 H                    -2.0455   -1.0937   -2.0829 
 C                    -2.5755   -2.0759   -0.2113 
 H                    -2.5158   -1.9237    0.8687 
 H                    -3.6238   -2.2502   -0.4726 
 H                    -2.0091   -2.9815   -0.4507 
 C                     3.2631    1.1864    0.4583 
 H                     3.4364    1.3345   -0.6127 
 H                     4.1476    0.7081    0.8918 
 H                     3.1614    2.1751    0.9181 
 C                     2.0463    0.3255    0.676 
 C                     2.1429   -1.0447    0.0637 
 H                     1.2203   -1.6236    0.139 
 H                     2.9383   -1.6184    0.5505 
 H                     2.3804   -0.9628   -1.0025 
 C                     0.9827    0.8       1.354 
 H                     1.0265    1.8203    1.7351 
 C                    -0.2974    0.0805    1.6879 
 H                    -0.472     0.2231    2.7625 
 H                    -0.2104   -1.0014    1.5522 
 
 ITRead=  0  0  0  0  0  0  0  0  0  0  0  0  0  0  0  0  0  0  0  0
 ITRead=  0  0  0  0  0  0  0  0
 MicOpt= -1 -1 -1 -1 -1 -1 -1 -1 -1 -1 -1 -1 -1 -1 -1 -1 -1 -1 -1 -1
 MicOpt= -1 -1 -1 -1 -1 -1 -1 -1
 NAtoms=     28 NQM=       28 NQMF=       0 NMMI=      0 NMMIF=      0
                NMic=       0 NMicF=      0.
                    Isotopes and Nuclear Properties:
 (Nuclear quadrupole moments (NQMom) in fm**2, nuclear magnetic moments (NMagM)
  in nuclear magnetons)

  Atom         1           2           3           4           5           6           7           8           9          10
 IAtWgt=          12           1           1          12          12           1           1           1          12           1
 AtmWgt=  12.0000000   1.0078250   1.0078250  12.0000000  12.0000000   1.0078250   1.0078250   1.0078250  12.0000000   1.0078250
 NucSpn=           0           1           1           0           0           1           1           1           0           1
 AtZEff=  -0.0000000  -0.0000000  -0.0000000  -0.0000000  -0.0000000  -0.0000000  -0.0000000  -0.0000000  -0.0000000  -0.0000000
 NQMom=    0.0000000   0.0000000   0.0000000   0.0000000   0.0000000   0.0000000   0.0000000   0.0000000   0.0000000   0.0000000
 NMagM=    0.0000000   2.7928460   2.7928460   0.0000000   0.0000000   2.7928460   2.7928460   2.7928460   0.0000000   2.7928460
 AtZNuc=   6.0000000   1.0000000   1.0000000   6.0000000   6.0000000   1.0000000   1.0000000   1.0000000   6.0000000   1.0000000

  Atom        11          12          13          14          15          16          17          18          19          20
 IAtWgt=          12           1           1           1          12           1           1           1          12          12
 AtmWgt=  12.0000000   1.0078250   1.0078250   1.0078250  12.0000000   1.0078250   1.0078250   1.0078250  12.0000000  12.0000000
 NucSpn=           0           1           1           1           0           1           1           1           0           0
 AtZEff=  -0.0000000  -0.0000000  -0.0000000  -0.0000000  -0.0000000  -0.0000000  -0.0000000  -0.0000000  -0.0000000  -0.0000000
 NQMom=    0.0000000   0.0000000   0.0000000   0.0000000   0.0000000   0.0000000   0.0000000   0.0000000   0.0000000   0.0000000
 NMagM=    0.0000000   2.7928460   2.7928460   2.7928460   0.0000000   2.7928460   2.7928460   2.7928460   0.0000000   0.0000000
 AtZNuc=   6.0000000   1.0000000   1.0000000   1.0000000   6.0000000   1.0000000   1.0000000   1.0000000   6.0000000   6.0000000

  Atom        21          22          23          24          25          26          27          28
 IAtWgt=           1           1           1          12           1          12           1           1
 AtmWgt=   1.0078250   1.0078250   1.0078250  12.0000000   1.0078250  12.0000000   1.0078250   1.0078250
 NucSpn=           1           1           1           0           1           0           1           1
 AtZEff=  -0.0000000  -0.0000000  -0.0000000  -0.0000000  -0.0000000  -0.0000000  -0.0000000  -0.0000000
 NQMom=    0.0000000   0.0000000   0.0000000   0.0000000   0.0000000   0.0000000   0.0000000   0.0000000
 NMagM=    2.7928460   2.7928460   2.7928460   0.0000000   2.7928460   0.0000000   2.7928460   2.7928460
 AtZNuc=   1.0000000   1.0000000   1.0000000   6.0000000   1.0000000   6.0000000   1.0000000   1.0000000
 Leave Link  101 at Mon Jul 26 11:28:51 2021, MaxMem=   131072000 cpu:               0.1 elap:               0.2
 (Enter /opt/gaussian/g16_legacy/l103.exe)

 GradGradGradGradGradGradGradGradGradGradGradGradGradGradGradGradGradGrad
 Berny optimization.
 Initialization pass.
                           ----------------------------
                           !    Initial Parameters    !
                           ! (Angstroms and Degrees)  !
 --------------------------                            --------------------------
 ! Name  Definition              Value          Derivative Info.                !
 --------------------------------------------------------------------------------
 ! R1    R(1,2)                  1.0975         estimate D2E/DX2                !
 ! R2    R(1,3)                  1.098          estimate D2E/DX2                !
 ! R3    R(1,4)                  1.5162         estimate D2E/DX2                !
 ! R4    R(1,26)                 1.5358         estimate D2E/DX2                !
 ! R5    R(4,5)                  1.5072         estimate D2E/DX2                !
 ! R6    R(4,9)                  1.3482         estimate D2E/DX2                !
 ! R7    R(5,6)                  1.0953         estimate D2E/DX2                !
 ! R8    R(5,7)                  1.095          estimate D2E/DX2                !
 ! R9    R(5,8)                  1.0933         estimate D2E/DX2                !
 ! R10   R(9,10)                 1.0896         estimate D2E/DX2                !
 ! R11   R(9,11)                 1.4958         estimate D2E/DX2                !
 ! R12   R(11,12)                1.0923         estimate D2E/DX2                !
 ! R13   R(11,13)                1.0943         estimate D2E/DX2                !
 ! R14   R(11,14)                1.0946         estimate D2E/DX2                !
 ! R15   R(15,16)                1.095          estimate D2E/DX2                !
 ! R16   R(15,17)                1.095          estimate D2E/DX2                !
 ! R17   R(15,18)                1.0951         estimate D2E/DX2                !
 ! R18   R(15,19)                1.5064         estimate D2E/DX2                !
 ! R19   R(19,20)                1.5039         estimate D2E/DX2                !
 ! R20   R(19,24)                1.3476         estimate D2E/DX2                !
 ! R21   R(20,21)                1.0918         estimate D2E/DX2                !
 ! R22   R(20,22)                1.0949         estimate D2E/DX2                !
 ! R23   R(20,23)                1.0954         estimate D2E/DX2                !
 ! R24   R(24,25)                1.09           estimate D2E/DX2                !
 ! R25   R(24,26)                1.5059         estimate D2E/DX2                !
 ! R26   R(26,27)                1.098          estimate D2E/DX2                !
 ! R27   R(26,28)                1.0938         estimate D2E/DX2                !
 ! A1    A(2,1,3)              104.6177         estimate D2E/DX2                !
 ! A2    A(2,1,4)              109.1624         estimate D2E/DX2                !
 ! A3    A(2,1,26)             108.5356         estimate D2E/DX2                !
 ! A4    A(3,1,4)              109.6797         estimate D2E/DX2                !
 ! A5    A(3,1,26)             110.0364         estimate D2E/DX2                !
 ! A6    A(4,1,26)             114.3465         estimate D2E/DX2                !
 ! A7    A(1,4,5)              115.4011         estimate D2E/DX2                !
 ! A8    A(1,4,9)              124.1807         estimate D2E/DX2                !
 ! A9    A(5,4,9)              120.392          estimate D2E/DX2                !
 ! A10   A(4,5,6)              112.2009         estimate D2E/DX2                !
 ! A11   A(4,5,7)              110.2046         estimate D2E/DX2                !
 ! A12   A(4,5,8)              110.9035         estimate D2E/DX2                !
 ! A13   A(6,5,7)              107.46           estimate D2E/DX2                !
 ! A14   A(6,5,8)              107.4105         estimate D2E/DX2                !
 ! A15   A(7,5,8)              108.5094         estimate D2E/DX2                !
 ! A16   A(4,9,10)             118.5651         estimate D2E/DX2                !
 ! A17   A(4,9,11)             127.464          estimate D2E/DX2                !
 ! A18   A(10,9,11)            113.9677         estimate D2E/DX2                !
 ! A19   A(9,11,12)            113.5091         estimate D2E/DX2                !
 ! A20   A(9,11,13)            109.725          estimate D2E/DX2                !
 ! A21   A(9,11,14)            109.5434         estimate D2E/DX2                !
 ! A22   A(12,11,13)           108.0973         estimate D2E/DX2                !
 ! A23   A(12,11,14)           107.6519         estimate D2E/DX2                !
 ! A24   A(13,11,14)           108.16           estimate D2E/DX2                !
 ! A25   A(16,15,17)           108.5694         estimate D2E/DX2                !
 ! A26   A(16,15,18)           107.653          estimate D2E/DX2                !
 ! A27   A(16,15,19)           110.273          estimate D2E/DX2                !
 ! A28   A(17,15,18)           107.6469         estimate D2E/DX2                !
 ! A29   A(17,15,19)           110.2206         estimate D2E/DX2                !
 ! A30   A(18,15,19)           112.3508         estimate D2E/DX2                !
 ! A31   A(15,19,20)           114.2033         estimate D2E/DX2                !
 ! A32   A(15,19,24)           120.5978         estimate D2E/DX2                !
 ! A33   A(20,19,24)           125.1932         estimate D2E/DX2                !
 ! A34   A(19,20,21)           113.6243         estimate D2E/DX2                !
 ! A35   A(19,20,22)           110.0625         estimate D2E/DX2                !
 ! A36   A(19,20,23)           110.0047         estimate D2E/DX2                !
 ! A37   A(21,20,22)           107.7822         estimate D2E/DX2                !
 ! A38   A(21,20,23)           106.8576         estimate D2E/DX2                !
 ! A39   A(22,20,23)           108.3263         estimate D2E/DX2                !
 ! A40   A(19,24,25)           118.2788         estimate D2E/DX2                !
 ! A41   A(19,24,26)           127.8947         estimate D2E/DX2                !
 ! A42   A(25,24,26)           113.8191         estimate D2E/DX2                !
 ! A43   A(1,26,24)            113.6222         estimate D2E/DX2                !
 ! A44   A(1,26,27)            108.0496         estimate D2E/DX2                !
 ! A45   A(1,26,28)            110.4069         estimate D2E/DX2                !
 ! A46   A(24,26,27)           106.8652         estimate D2E/DX2                !
 ! A47   A(24,26,28)           112.1756         estimate D2E/DX2                !
 ! A48   A(27,26,28)           105.2195         estimate D2E/DX2                !
 ! D1    D(2,1,4,5)            140.1695         estimate D2E/DX2                !
 ! D2    D(2,1,4,9)            -37.97           estimate D2E/DX2                !
 ! D3    D(3,1,4,5)             26.0884         estimate D2E/DX2                !
 ! D4    D(3,1,4,9)           -152.0512         estimate D2E/DX2                !
 ! D5    D(26,1,4,5)           -98.0523         estimate D2E/DX2                !
 ! D6    D(26,1,4,9)            83.8082         estimate D2E/DX2                !
 ! D7    D(2,1,26,24)         -164.4525         estimate D2E/DX2                !
 ! D8    D(2,1,26,27)          -46.0563         estimate D2E/DX2                !
 ! D9    D(2,1,26,28)           68.5155         estimate D2E/DX2                !
 ! D10   D(3,1,26,24)          -50.5238         estimate D2E/DX2                !
 ! D11   D(3,1,26,27)           67.8724         estimate D2E/DX2                !
 ! D12   D(3,1,26,28)         -177.5558         estimate D2E/DX2                !
 ! D13   D(4,1,26,24)           73.4261         estimate D2E/DX2                !
 ! D14   D(4,1,26,27)         -168.1777         estimate D2E/DX2                !
 ! D15   D(4,1,26,28)          -53.6059         estimate D2E/DX2                !
 ! D16   D(1,4,5,6)           -178.3741         estimate D2E/DX2                !
 ! D17   D(1,4,5,7)            -58.671          estimate D2E/DX2                !
 ! D18   D(1,4,5,8)             61.5057         estimate D2E/DX2                !
 ! D19   D(9,4,5,6)             -0.1584         estimate D2E/DX2                !
 ! D20   D(9,4,5,7)            119.5448         estimate D2E/DX2                !
 ! D21   D(9,4,5,8)           -120.2786         estimate D2E/DX2                !
 ! D22   D(1,4,9,10)           178.8285         estimate D2E/DX2                !
 ! D23   D(1,4,9,11)            -1.863          estimate D2E/DX2                !
 ! D24   D(5,4,9,10)             0.7769         estimate D2E/DX2                !
 ! D25   D(5,4,9,11)          -179.9146         estimate D2E/DX2                !
 ! D26   D(4,9,11,12)           -2.5975         estimate D2E/DX2                !
 ! D27   D(4,9,11,13)          118.4556         estimate D2E/DX2                !
 ! D28   D(4,9,11,14)         -122.9494         estimate D2E/DX2                !
 ! D29   D(10,9,11,12)         176.738          estimate D2E/DX2                !
 ! D30   D(10,9,11,13)         -62.209          estimate D2E/DX2                !
 ! D31   D(10,9,11,14)          56.386          estimate D2E/DX2                !
 ! D32   D(16,15,19,20)         60.0451         estimate D2E/DX2                !
 ! D33   D(16,15,19,24)       -119.1259         estimate D2E/DX2                !
 ! D34   D(17,15,19,20)        -59.8117         estimate D2E/DX2                !
 ! D35   D(17,15,19,24)        121.0173         estimate D2E/DX2                !
 ! D36   D(18,15,19,20)       -179.8614         estimate D2E/DX2                !
 ! D37   D(18,15,19,24)          0.9676         estimate D2E/DX2                !
 ! D38   D(15,19,20,21)       -174.1519         estimate D2E/DX2                !
 ! D39   D(15,19,20,22)         64.8769         estimate D2E/DX2                !
 ! D40   D(15,19,20,23)        -54.4107         estimate D2E/DX2                !
 ! D41   D(24,19,20,21)          4.9749         estimate D2E/DX2                !
 ! D42   D(24,19,20,22)       -115.9963         estimate D2E/DX2                !
 ! D43   D(24,19,20,23)        124.7161         estimate D2E/DX2                !
 ! D44   D(15,19,24,25)          0.2189         estimate D2E/DX2                !
 ! D45   D(15,19,24,26)       -178.7282         estimate D2E/DX2                !
 ! D46   D(20,19,24,25)       -178.8558         estimate D2E/DX2                !
 ! D47   D(20,19,24,26)          2.1971         estimate D2E/DX2                !
 ! D48   D(19,24,26,1)        -110.9249         estimate D2E/DX2                !
 ! D49   D(19,24,26,27)        129.9995         estimate D2E/DX2                !
 ! D50   D(19,24,26,28)         15.1779         estimate D2E/DX2                !
 ! D51   D(25,24,26,1)          70.0886         estimate D2E/DX2                !
 ! D52   D(25,24,26,27)        -48.987          estimate D2E/DX2                !
 ! D53   D(25,24,26,28)       -163.8086         estimate D2E/DX2                !
 --------------------------------------------------------------------------------
 Trust Radius=3.00D-01 FncErr=1.00D-07 GrdErr=1.00D-07 EigMax=2.50D+02 EigMin=1.00D-04
 Number of steps in this run=    138 maximum allowed number of steps=    168.
 GradGradGradGradGradGradGradGradGradGradGradGradGradGradGradGradGradGrad

 Leave Link  103 at Mon Jul 26 11:28:51 2021, MaxMem=   131072000 cpu:               0.0 elap:               0.1
 (Enter /opt/gaussian/g16_legacy/l202.exe)
                          Input orientation:                          
 ---------------------------------------------------------------------
 Center     Atomic      Atomic             Coordinates (Angstroms)
 Number     Number       Type             X           Y           Z
 ---------------------------------------------------------------------
      1          6           0       -1.521000    0.618400    0.931500
      2          1           0       -2.427700    0.245500    1.424700
      3          1           0       -1.577800    1.710000    1.035800
      4          6           0       -1.562900    0.242900   -0.536900
      5          6           0       -1.062800    1.299000   -1.488800
      6          1           0       -1.142800    0.984600   -2.534900
      7          1           0       -1.648200    2.217500   -1.376100
      8          1           0       -0.011900    1.531400   -1.296500
      9          6           0       -2.041400   -0.926900   -1.006200
     10          1           0       -2.045500   -1.093700   -2.082900
     11          6           0       -2.575500   -2.075900   -0.211300
     12          1           0       -2.515800   -1.923700    0.868700
     13          1           0       -3.623800   -2.250200   -0.472600
     14          1           0       -2.009100   -2.981500   -0.450700
     15          6           0        3.263100    1.186400    0.458300
     16          1           0        3.436400    1.334500   -0.612700
     17          1           0        4.147600    0.708100    0.891800
     18          1           0        3.161400    2.175100    0.918100
     19          6           0        2.046300    0.325500    0.676000
     20          6           0        2.142900   -1.044700    0.063700
     21          1           0        1.220300   -1.623600    0.139000
     22          1           0        2.938300   -1.618400    0.550500
     23          1           0        2.380400   -0.962800   -1.002500
     24          6           0        0.982700    0.800000    1.354000
     25          1           0        1.026500    1.820300    1.735100
     26          6           0       -0.297400    0.080500    1.687900
     27          1           0       -0.472000    0.223100    2.762500
     28          1           0       -0.210400   -1.001400    1.552200
 ---------------------------------------------------------------------
                    Distance matrix (angstroms):
                    1          2          3          4          5
     1  C    0.000000
     2  H    1.097454   0.000000
     3  H    1.098042   1.737335   0.000000
     4  C    1.516230   2.143772   2.150811   0.000000
     5  C    2.555585   3.385454   2.609167   1.507170   0.000000
     6  H    3.506147   4.227963   3.669513   2.172235   1.095250
     7  H    2.810395   3.512960   2.465720   2.147226   1.095005
     8  H    2.841643   3.859347   2.814883   2.154722   1.093334
     9  C    2.532479   2.726357   3.367184   1.348198   2.478950
    10  H    3.506137   3.773962   4.219688   2.099885   2.653991
    11  C    3.110822   2.843807   4.108978   2.551119   3.912827
    12  H    2.730539   2.241055   3.756533   2.752796   4.249095
    13  H    3.823889   3.355432   4.705802   3.235273   4.493129
    14  H    3.886901   3.755780   4.940230   3.256268   4.505088
    15  C    4.840884   5.848455   4.903262   5.017060   4.745238
    16  H    5.241485   6.302745   5.291574   5.117650   4.583843
    17  H    5.669449   6.613059   5.814185   5.904863   5.758879
    18  H    4.934406   5.934479   4.763422   5.307488   4.940100
    19  C    3.588412   4.536918   3.896203   3.808448   3.911594
    20  C    4.116205   4.940377   4.730429   3.968827   4.263766
    21  H    3.628959   4.295866   4.443704   3.418606   4.050169
    22  H    5.003378   5.747374   5.631068   4.990759   5.355256
    23  H    4.632653   5.519884   5.192868   4.149712   4.148235
    24  C    2.545584   3.455908   2.735966   3.219618   3.537596
    25  H    2.929180   3.808916   2.698808   3.788821   3.876914
    26  C    1.535798   2.152830   2.172540   2.564683   3.487406
    27  H    2.146910   2.369593   2.532816   3.475125   4.424947
    28  H    2.174096   2.547044   3.080283   2.782423   3.907187
                    6          7          8          9         10
     6  H    0.000000
     7  H    1.765868   0.000000
     8  H    1.763961   1.776104   0.000000
     9  C    2.607343   3.190405   3.200997   0.000000
    10  H    2.310520   3.409026   3.412492   1.089551   0.000000
    11  C    4.101025   4.544219   4.556569   1.495771   2.179106
    12  H    4.682716   4.789718   4.784906   2.175756   3.101939
    13  H    4.568629   4.967862   5.293877   2.130690   2.534085
    14  H    4.563367   5.293035   5.007040   2.128616   2.495835
    15  C    5.330284   5.343132   3.731484   5.894787   6.311718
    16  H    4.978590   5.216860   3.520955   5.939282   6.173238
    17  H    6.309283   6.404136   4.771574   6.676777   7.102803
    18  H    5.645054   5.328921   3.922835   6.355664   6.841262
    19  C    4.573254   4.630346   3.095341   4.594300   5.135025
    20  C    4.654740   5.204557   3.623479   4.320524   4.706696
    21  H    4.420033   5.027710   3.678723   3.526409   3.985359
    22  H    5.740268   6.281871   4.694287   5.262974   5.661128
    23  H    4.307384   5.146212   3.468511   4.421947   4.557740
    24  C    4.435693   4.047763   2.923923   4.206888   4.956650
    25  H    4.861806   4.122057   3.217505   4.947105   5.701377
    26  C    4.400470   3.972345   3.330655   3.363713   4.318973
    27  H    5.393728   4.742266   4.289385   4.241299   5.261917
    28  H    4.638745   4.582960   3.817011   3.146986   4.073090
                   11         12         13         14         15
    11  C    0.000000
    12  H    1.092304   0.000000
    13  H    1.094345   1.770128   0.000000
    14  H    1.094638   1.765362   1.772720   0.000000
    15  C    6.721623   6.575472   7.752818   6.781870   0.000000
    16  H    6.923503   6.945437   7.919351   6.950365   1.094992
    17  H    7.359861   7.164343   8.426612   7.302083   1.095004
    18  H    7.229009   7.002371   8.219262   7.429550   1.095119
    19  C    5.283470   5.090068   6.332736   5.352754   1.506368
    20  C    4.837592   4.808758   5.915714   4.610304   2.527521
    21  H    3.838669   3.818503   4.922600   3.552557   3.488708
    22  H    5.584947   5.471898   6.671361   5.228500   2.825048
    23  H    5.140616   5.328930   6.163490   4.862853   2.744477
    24  C    4.835468   4.460220   5.818937   5.148548   2.480284
    25  H    5.651836   5.226478   6.562637   6.086861   2.652249
    26  C    3.666983   3.099872   4.600528   4.108451   3.925824
    27  H    4.307389   3.517435   5.149459   4.791325   4.493134
    28  H    3.139774   2.575399   4.160603   3.341815   4.248328
                   16         17         18         19         20
    16  H    0.000000
    17  H    1.778118   0.000000
    18  H    1.767932   1.767872   0.000000
    19  C    2.147372   2.146722   2.173265   0.000000
    20  C    2.791281   2.788706   3.483454   1.503892   0.000000
    21  H    3.771804   3.817410   4.336472   2.183950   1.091781
    22  H    3.212593   2.644143   3.817793   2.142466   1.094882
    23  H    2.558255   3.082738   3.760995   2.142126   1.095398
    24  C    3.189709   3.199792   2.612976   1.347620   2.532559
    25  H    3.399380   3.418978   2.313260   2.096691   3.499736
    26  C    4.561419   4.559132   4.116217   2.564546   3.139931
    27  H    5.282308   5.007539   4.518153   3.271972   3.965922
    28  H    4.841732   4.727651   4.675604   2.760631   2.784875
                   21         22         23         24         25
    21  H    0.000000
    22  H    1.766602   0.000000
    23  H    1.756562   1.775633   0.000000
    24  C    2.721491   3.212264   3.257932   0.000000
    25  H    3.800729   4.108882   4.131966   1.090031   0.000000
    26  C    2.757981   3.827492   3.936666   1.505930   2.186743
    27  H    3.627249   4.462534   4.870089   2.105431   2.419112
    28  H    2.105034   3.361310   3.638712   2.169749   3.086319
                   26         27         28
    26  C    0.000000
    27  H    1.097991   0.000000
    28  H    1.093842   1.741454   0.000000
 Stoichiometry    C10H18
 Framework group  C1[X(C10H18)]
 Deg. of freedom    78
 Full point group                 C1      NOp   1
 Largest Abelian subgroup         C1      NOp   1
 Largest concise Abelian subgroup C1      NOp   1
                         Standard orientation:                         
 ---------------------------------------------------------------------
 Center     Atomic      Atomic             Coordinates (Angstroms)
 Number     Number       Type             X           Y           Z
 ---------------------------------------------------------------------
      1          6           0       -1.075545    0.667156    1.227761
      2          1           0       -1.925600    0.379112    1.859302
      3          1           0       -0.812168    1.679273    1.562343
      4          6           0       -1.522851    0.708326   -0.220403
      5          6           0       -0.966059    1.846234   -1.036925
      6          1           0       -1.344531    1.842076   -2.064697
      7          1           0       -1.244540    2.805441   -0.588140
      8          1           0        0.124620    1.791357   -1.089719
      9          6           0       -2.386664   -0.167875   -0.771525
     10          1           0       -2.660295   -0.041182   -1.818519
     11          6           0       -3.033283   -1.344766   -0.112631
     12          1           0       -2.710649   -1.497872    0.919646
     13          1           0       -4.120217   -1.217630   -0.113764
     14          1           0       -2.795615   -2.254516   -0.673079
     15          6           0        3.475783    0.310397   -0.382299
     16          1           0        3.455178    0.694326   -1.407570
     17          1           0        4.268338   -0.441448   -0.307347
     18          1           0        3.743341    1.141814    0.278342
     19          6           0        2.144891   -0.298769   -0.026225
     20          6           0        1.737616   -1.448127   -0.906448
     21          1           0        0.729733   -1.816919   -0.706067
     22          1           0        2.431768   -2.284851   -0.776784
     23          1           0        1.760465   -1.141399   -1.957776
     24          6           0        1.414936    0.195562    0.993031
     25          1           0        1.811366    1.046504    1.547025
     26          6           0        0.087012   -0.297597    1.504144
     27          1           0        0.185705   -0.408577    2.592045
     28          1           0       -0.151912   -1.298749    1.133871
 ---------------------------------------------------------------------
 Rotational constants (GHZ):           1.8861750           0.7013260           0.6814737
 Leave Link  202 at Mon Jul 26 11:28:52 2021, MaxMem=   131072000 cpu:               0.0 elap:               0.1
 (Enter /opt/gaussian/g16_legacy/l301.exe)
 Standard basis: VSTO-6G (5D, 7F)
 Ernie: Thresh=  0.10000D-02 Tol=  0.10000D-05 Strict=F.
  NNHCO=     0 NNPyr=     0 NCTC=     0               EPep=         0.000000000
    EC=       256.133079870  ECS=         3.522363543   EG=         0.892041990
   EHC=         0.000000000  EAt=       -49.524085099  AtH=         4.217842293
 EPDDG=         0.000000000  ECC=       260.547485403 EAtT=        53.741927392
 There are    58 symmetry adapted cartesian basis functions of A   symmetry.
 There are    58 symmetry adapted basis functions of A   symmetry.
    58 basis functions,   348 primitive gaussians,    58 cartesian basis functions
    29 alpha electrons       29 beta electrons
       nuclear repulsion energy       314.2894127950 Hartrees.
 IExCor=    0 DFT=F Ex=HF Corr=None ExCW=0 ScaHFX=  1.000000
 ScaDFX=  1.000000  1.000000  1.000000  1.000000 ScalE2=  1.000000  1.000000
 IRadAn=      5 IRanWt=     -1 IRanGd=            0 ICorTp=0 IEmpDi=  4
 Integral buffers will be    131072 words long.
 Regular integral format.
 Two-electron integral symmetry is turned off.
 Leave Link  301 at Mon Jul 26 11:28:52 2021, MaxMem=   131072000 cpu:               0.1 elap:               0.3
 (Enter /opt/gaussian/g16_legacy/l302.exe)
 Do NDO integrals.
 NPDir=0 NMtPBC=     1 NCelOv=     1 NCel=       1 NClECP=     1 NCelD=      1
         NCelK=      1 NCelE2=     1 NClLst=     1 CellRange=     0.0.
 One-electron integrals computed using PRISM.
 NBasis=    58 RedAO= F EigKep=  0.00D+00  NBF=    58
 NBsUse=    58 1.00D-04 EigRej=  0.00D+00 NBFU=    58
 Leave Link  302 at Mon Jul 26 11:28:52 2021, MaxMem=   131072000 cpu:               0.1 elap:               0.3
 (Enter /opt/gaussian/g16_legacy/l303.exe)
 DipDrv:  MaxL=1.
 Leave Link  303 at Mon Jul 26 11:28:53 2021, MaxMem=   131072000 cpu:               0.0 elap:               0.1
 (Enter /opt/gaussian/g16_legacy/l401.exe)
 Simple Huckel Guess.
 JPrj=0 DoOrth=F DoCkMO=F.
 Leave Link  401 at Mon Jul 26 11:28:53 2021, MaxMem=   131072000 cpu:               0.1 elap:               0.4
 (Enter /opt/gaussian/g16_legacy/l502.exe)
 Keep J ints in memory in canonical form, NReq=866866.
 FoFCou: FMM=F IPFlag=           0 FMFlag=           0 FMFlg1=           0
         NFxFlg=           0 DoJE=F BraDBF=F KetDBF=F FulRan=T
         wScrn=  0.000000 ICntrl=       600 IOpCl=  2 I1Cent=           0 NGrid=           0
         NMat0=    1 NMatS0=    118 NMatT0=    0 NMatD0=    1 NMtDS0=    0 NMtDT0=    0
 Symmetry not used in FoFCou.
 Two-electron integral symmetry not used.
 Closed shell SCF:
 Using DIIS extrapolation, IDIIS=  1040.
 Overlap will be assumed to be unity.
 NGot=   131072000 LenX=   130997697 LenY=   130993892
 Requested convergence on RMS density matrix=1.00D-08 within 128 cycles.
 Requested convergence on MAX density matrix=1.00D-06.
 Requested convergence on             energy=1.00D-06.
 No special actions if energy rises.

 Cycle   1  Pass 1  IDiag  1:
 E= 0.217110640963426    
 DIIS: error= 2.74D-02 at cycle   1 NSaved=   1.
 NSaved= 1 IEnMin= 1 EnMin= 0.217110640963426     IErMin= 1 ErrMin= 2.74D-02
 ErrMax= 2.74D-02  0.00D+00 EMaxC= 1.00D-01 BMatC= 9.41D-02 BMatP= 9.41D-02
 IDIUse=3 WtCom= 7.26D-01 WtEn= 2.74D-01
 Coeff-Com:  0.100D+01
 Coeff-En:   0.100D+01
 Coeff:      0.100D+01
 GapD=    2.000 DampG=2.000 DampE=0.500 DampFc=1.0000 IDamp=-1.
 RMSDP=7.14D-03 MaxDP=8.49D-02              OVMax= 0.00D+00

 Cycle   2  Pass 1  IDiag  1:
 E=-0.180203268797641E-02 Delta-E=       -0.218912673651 Rises=F Damp=F
 DIIS: error= 7.92D-03 at cycle   2 NSaved=   2.
 NSaved= 2 IEnMin= 2 EnMin=-0.180203268797641E-02 IErMin= 2 ErrMin= 7.92D-03
 ErrMax= 7.92D-03  0.00D+00 EMaxC= 1.00D-01 BMatC= 6.05D-03 BMatP= 9.41D-02
 IDIUse=3 WtCom= 9.21D-01 WtEn= 7.92D-02
 Coeff-Com: -0.317D+00 0.132D+01
 Coeff-En:   0.000D+00 0.100D+01
 Coeff:     -0.292D+00 0.129D+01
 RMSDP=2.60D-03 MaxDP=2.86D-02 DE=-2.19D-01 OVMax= 0.00D+00

 Cycle   3  Pass 1  IDiag  3:
 E=-0.191721466075592E-01 Delta-E=       -0.017370113920 Rises=F Damp=F
 DIIS: error= 9.41D-04 at cycle   3 NSaved=   3.
 NSaved= 3 IEnMin= 3 EnMin=-0.191721466075592E-01 IErMin= 3 ErrMin= 9.41D-04
 ErrMax= 9.41D-04  0.00D+00 EMaxC= 1.00D-01 BMatC= 7.46D-05 BMatP= 6.05D-03
 IDIUse=3 WtCom= 9.91D-01 WtEn= 9.41D-03
 Coeff-Com:  0.109D+00-0.509D+00 0.140D+01
 Coeff-En:   0.000D+00 0.000D+00 0.100D+01
 Coeff:      0.108D+00-0.505D+00 0.140D+01
 Gap=     0.375 Goal=   None    Shift=    0.000
 RMSDP=4.36D-04 MaxDP=4.13D-03 DE=-1.74D-02 OVMax= 6.74D-03

 Cycle   4  Pass 1  IDiag  3:
 E=-0.195167680718669E-01 Delta-E=       -0.000344621464 Rises=F Damp=F
 DIIS: error= 2.02D-04 at cycle   4 NSaved=   4.
 NSaved= 4 IEnMin= 4 EnMin=-0.195167680718669E-01 IErMin= 4 ErrMin= 2.02D-04
 ErrMax= 2.02D-04  0.00D+00 EMaxC= 1.00D-01 BMatC= 3.22D-06 BMatP= 7.46D-05
 IDIUse=3 WtCom= 9.98D-01 WtEn= 2.02D-03
 Coeff-Com: -0.461D-01 0.221D+00-0.717D+00 0.154D+01
 Coeff-En:   0.000D+00 0.000D+00 0.000D+00 0.100D+01
 Coeff:     -0.460D-01 0.221D+00-0.715D+00 0.154D+01
 Gap=     0.375 Goal=   None    Shift=    0.000
 RMSDP=1.08D-04 MaxDP=1.20D-03 DE=-3.45D-04 OVMax= 7.51D-04

 Cycle   5  Pass 1  IDiag  3:
 E=-0.195348148872654E-01 Delta-E=       -0.000018046815 Rises=F Damp=F
 DIIS: error= 4.31D-05 at cycle   5 NSaved=   5.
 NSaved= 5 IEnMin= 5 EnMin=-0.195348148872654E-01 IErMin= 5 ErrMin= 4.31D-05
 ErrMax= 4.31D-05  0.00D+00 EMaxC= 1.00D-01 BMatC= 1.81D-07 BMatP= 3.22D-06
 IDIUse=1 WtCom= 1.00D+00 WtEn= 0.00D+00
 Coeff-Com:  0.114D-01-0.549D-01 0.185D+00-0.544D+00 0.140D+01
 Coeff:      0.114D-01-0.549D-01 0.185D+00-0.544D+00 0.140D+01
 Gap=     0.375 Goal=   None    Shift=    0.000
 RMSDP=2.62D-05 MaxDP=2.78D-04 DE=-1.80D-05 OVMax= 2.31D-04

 Cycle   6  Pass 1  IDiag  3:
 E=-0.195359065652951E-01 Delta-E=       -0.000001091678 Rises=F Damp=F
 DIIS: error= 1.62D-05 at cycle   6 NSaved=   6.
 NSaved= 6 IEnMin= 6 EnMin=-0.195359065652951E-01 IErMin= 6 ErrMin= 1.62D-05
 ErrMax= 1.62D-05  0.00D+00 EMaxC= 1.00D-01 BMatC= 1.54D-08 BMatP= 1.81D-07
 IDIUse=1 WtCom= 1.00D+00 WtEn= 0.00D+00
 Coeff-Com: -0.421D-02 0.202D-01-0.664D-01 0.196D+00-0.710D+00 0.156D+01
 Coeff:     -0.421D-02 0.202D-01-0.664D-01 0.196D+00-0.710D+00 0.156D+01
 Gap=     0.375 Goal=   None    Shift=    0.000
 RMSDP=8.98D-06 MaxDP=1.13D-04 DE=-1.09D-06 OVMax= 1.01D-04

 Cycle   7  Pass 1  IDiag  3:
 E=-0.195360116857728E-01 Delta-E=       -0.000000105120 Rises=F Damp=F
 DIIS: error= 3.99D-06 at cycle   7 NSaved=   7.
 NSaved= 7 IEnMin= 7 EnMin=-0.195360116857728E-01 IErMin= 7 ErrMin= 3.99D-06
 ErrMax= 3.99D-06  0.00D+00 EMaxC= 1.00D-01 BMatC= 1.09D-09 BMatP= 1.54D-08
 IDIUse=1 WtCom= 1.00D+00 WtEn= 0.00D+00
 Coeff-Com:  0.103D-02-0.489D-02 0.158D-01-0.483D-01 0.237D+00-0.772D+00
 Coeff-Com:  0.157D+01
 Coeff:      0.103D-02-0.489D-02 0.158D-01-0.483D-01 0.237D+00-0.772D+00
 Coeff:      0.157D+01
 Gap=     0.375 Goal=   None    Shift=    0.000
 RMSDP=2.49D-06 MaxDP=2.97D-05 DE=-1.05D-07 OVMax= 3.03D-05

 Cycle   8  Pass 1  IDiag  3:
 E=-0.195360190574547E-01 Delta-E=       -0.000000007372 Rises=F Damp=F
 DIIS: error= 8.84D-07 at cycle   8 NSaved=   8.
 NSaved= 8 IEnMin= 8 EnMin=-0.195360190574547E-01 IErMin= 8 ErrMin= 8.84D-07
 ErrMax= 8.84D-07  0.00D+00 EMaxC= 1.00D-01 BMatC= 5.28D-11 BMatP= 1.09D-09
 IDIUse=1 WtCom= 1.00D+00 WtEn= 0.00D+00
 Coeff-Com: -0.113D-03 0.525D-03-0.159D-02 0.505D-02-0.416D-01 0.183D+00
 Coeff-Com: -0.552D+00 0.141D+01
 Coeff:     -0.113D-03 0.525D-03-0.159D-02 0.505D-02-0.416D-01 0.183D+00
 Coeff:     -0.552D+00 0.141D+01
 Gap=     0.375 Goal=   None    Shift=    0.000
 RMSDP=5.01D-07 MaxDP=7.15D-06 DE=-7.37D-09 OVMax= 7.40D-06

 Cycle   9  Pass 1  IDiag  3:
 E=-0.195360193960141E-01 Delta-E=       -0.000000000339 Rises=F Damp=F
 DIIS: error= 3.21D-07 at cycle   9 NSaved=   9.
 NSaved= 9 IEnMin= 9 EnMin=-0.195360193960141E-01 IErMin= 9 ErrMin= 3.21D-07
 ErrMax= 3.21D-07  0.00D+00 EMaxC= 1.00D-01 BMatC= 4.31D-12 BMatP= 5.28D-11
 IDIUse=1 WtCom= 1.00D+00 WtEn= 0.00D+00
 Coeff-Com:  0.365D-04-0.165D-03 0.452D-03-0.137D-02 0.155D-01-0.763D-01
 Coeff-Com:  0.250D+00-0.817D+00 0.163D+01
 Coeff:      0.365D-04-0.165D-03 0.452D-03-0.137D-02 0.155D-01-0.763D-01
 Coeff:      0.250D+00-0.817D+00 0.163D+01
 Gap=     0.375 Goal=   None    Shift=    0.000
 RMSDP=1.56D-07 MaxDP=2.10D-06 DE=-3.39D-10 OVMax= 2.20D-06

 Cycle  10  Pass 1  IDiag  3:
 E=-0.195360194299496E-01 Delta-E=       -0.000000000034 Rises=F Damp=F
 DIIS: error= 6.95D-08 at cycle  10 NSaved=  10.
 NSaved=10 IEnMin=10 EnMin=-0.195360194299496E-01 IErMin=10 ErrMin= 6.95D-08
 ErrMax= 6.95D-08  0.00D+00 EMaxC= 1.00D-01 BMatC= 2.66D-13 BMatP= 4.31D-12
 IDIUse=1 WtCom= 1.00D+00 WtEn= 0.00D+00
 Coeff-Com: -0.478D-05 0.196D-04-0.346D-04 0.123D-03-0.392D-02 0.221D-01
 Coeff-Com: -0.772D-01 0.285D+00-0.784D+00 0.156D+01
 Coeff:     -0.478D-05 0.196D-04-0.346D-04 0.123D-03-0.392D-02 0.221D-01
 Coeff:     -0.772D-01 0.285D+00-0.784D+00 0.156D+01
 Gap=     0.375 Goal=   None    Shift=    0.000
 RMSDP=4.01D-08 MaxDP=5.51D-07 DE=-3.39D-11 OVMax= 4.80D-07

 Cycle  11  Pass 1  IDiag  3:
 E=-0.195360194302339E-01 Delta-E=       -0.000000000000 Rises=F Damp=F
 DIIS: error= 1.54D-08 at cycle  11 NSaved=  11.
 NSaved=11 IEnMin=11 EnMin=-0.195360194302339E-01 IErMin=11 ErrMin= 1.54D-08
 ErrMax= 1.54D-08  0.00D+00 EMaxC= 1.00D-01 BMatC= 9.54D-15 BMatP= 2.66D-13
 IDIUse=1 WtCom= 1.00D+00 WtEn= 0.00D+00
 Coeff-Com:  0.514D-06-0.139D-05-0.522D-05 0.150D-04 0.104D-02-0.651D-02
 Coeff-Com:  0.235D-01-0.904D-01 0.273D+00-0.669D+00 0.147D+01
 Coeff:      0.514D-06-0.139D-05-0.522D-05 0.150D-04 0.104D-02-0.651D-02
 Coeff:      0.235D-01-0.904D-01 0.273D+00-0.669D+00 0.147D+01
 Gap=     0.375 Goal=   None    Shift=    0.000
 RMSDP=6.42D-09 MaxDP=8.99D-08 DE=-2.84D-13 OVMax= 6.15D-08

 Cycle  12  Pass 2  IDiag  1:
 SCF Done:  E(RPM3) = -0.195360194302E-01 A.U. after   12 cycles
            NFock= 11  Conv=0.64D-08     -V/T= 0.9998
 KE=-7.901367573572D+01 PE=-5.109510046782D+02 EE= 2.756557315995D+02
 Leave Link  502 at Mon Jul 26 11:28:53 2021, MaxMem=   131072000 cpu:               0.1 elap:               0.4
 (Enter /opt/gaussian/g16_legacy/l601.exe)
 Copying SCF densities to generalized density rwf, IOpCl= 0 IROHF=0.

 **********************************************************************

            Population analysis using the SCF density.

 **********************************************************************

 Orbital symmetries:
       Occupied  (A) (A) (A) (A) (A) (A) (A) (A) (A) (A) (A) (A)
                 (A) (A) (A) (A) (A) (A) (A) (A) (A) (A) (A) (A)
                 (A) (A) (A) (A) (A)
       Virtual   (A) (A) (A) (A) (A) (A) (A) (A) (A) (A) (A) (A)
                 (A) (A) (A) (A) (A) (A) (A) (A) (A) (A) (A) (A)
                 (A) (A) (A) (A) (A)
 The electronic state is 1-A.
 Alpha  occ. eigenvalues --   -1.45882  -1.33840  -1.17475  -1.11371  -1.01140
 Alpha  occ. eigenvalues --   -0.95308  -0.86179  -0.80302  -0.66317  -0.65515
 Alpha  occ. eigenvalues --   -0.59769  -0.59131  -0.56854  -0.56105  -0.55040
 Alpha  occ. eigenvalues --   -0.53608  -0.51453  -0.50043  -0.49230  -0.48443
 Alpha  occ. eigenvalues --   -0.47652  -0.47291  -0.46923  -0.46592  -0.46183
 Alpha  occ. eigenvalues --   -0.43022  -0.42637  -0.35432  -0.33923
 Alpha virt. eigenvalues --    0.03612   0.04351   0.12074   0.12349   0.13353
 Alpha virt. eigenvalues --    0.13596   0.14067   0.14300   0.14990   0.15361
 Alpha virt. eigenvalues --    0.15634   0.15822   0.16026   0.16073   0.16319
 Alpha virt. eigenvalues --    0.16581   0.16777   0.16907   0.16956   0.17092
 Alpha virt. eigenvalues --    0.17223   0.17356   0.17599   0.18105   0.18132
 Alpha virt. eigenvalues --    0.20954   0.21172   0.22503   0.22583
          Condensed to atoms (all electrons):
               1          2          3          4          5          6
     1  C    4.046248   0.000000   0.000000   0.000000   0.000000   0.000000
     2  H    0.000000   0.950102   0.000000   0.000000   0.000000   0.000000
     3  H    0.000000   0.000000   0.947727   0.000000   0.000000   0.000000
     4  C    0.000000   0.000000   0.000000   4.116892   0.000000   0.000000
     5  C    0.000000   0.000000   0.000000   0.000000   4.070288   0.000000
     6  H    0.000000   0.000000   0.000000   0.000000   0.000000   0.961505
     7  H    0.000000   0.000000   0.000000   0.000000   0.000000   0.000000
     8  H    0.000000   0.000000   0.000000   0.000000   0.000000   0.000000
     9  C    0.000000   0.000000   0.000000   0.000000   0.000000   0.000000
    10  H    0.000000   0.000000   0.000000   0.000000   0.000000   0.000000
    11  C    0.000000   0.000000   0.000000   0.000000   0.000000   0.000000
    12  H    0.000000   0.000000   0.000000   0.000000   0.000000   0.000000
    13  H    0.000000   0.000000   0.000000   0.000000   0.000000   0.000000
    14  H    0.000000   0.000000   0.000000   0.000000   0.000000   0.000000
    15  C    0.000000   0.000000   0.000000   0.000000   0.000000   0.000000
    16  H    0.000000   0.000000   0.000000   0.000000   0.000000   0.000000
    17  H    0.000000   0.000000   0.000000   0.000000   0.000000   0.000000
    18  H    0.000000   0.000000   0.000000   0.000000   0.000000   0.000000
    19  C    0.000000   0.000000   0.000000   0.000000   0.000000   0.000000
    20  C    0.000000   0.000000   0.000000   0.000000   0.000000   0.000000
    21  H    0.000000   0.000000   0.000000   0.000000   0.000000   0.000000
    22  H    0.000000   0.000000   0.000000   0.000000   0.000000   0.000000
    23  H    0.000000   0.000000   0.000000   0.000000   0.000000   0.000000
    24  C    0.000000   0.000000   0.000000   0.000000   0.000000   0.000000
    25  H    0.000000   0.000000   0.000000   0.000000   0.000000   0.000000
    26  C    0.000000   0.000000   0.000000   0.000000   0.000000   0.000000
    27  H    0.000000   0.000000   0.000000   0.000000   0.000000   0.000000
    28  H    0.000000   0.000000   0.000000   0.000000   0.000000   0.000000
               7          8          9         10         11         12
     1  C    0.000000   0.000000   0.000000   0.000000   0.000000   0.000000
     2  H    0.000000   0.000000   0.000000   0.000000   0.000000   0.000000
     3  H    0.000000   0.000000   0.000000   0.000000   0.000000   0.000000
     4  C    0.000000   0.000000   0.000000   0.000000   0.000000   0.000000
     5  C    0.000000   0.000000   0.000000   0.000000   0.000000   0.000000
     6  H    0.000000   0.000000   0.000000   0.000000   0.000000   0.000000
     7  H    0.957146   0.000000   0.000000   0.000000   0.000000   0.000000
     8  H    0.000000   0.947749   0.000000   0.000000   0.000000   0.000000
     9  C    0.000000   0.000000   4.159514   0.000000   0.000000   0.000000
    10  H    0.000000   0.000000   0.000000   0.905627   0.000000   0.000000
    11  C    0.000000   0.000000   0.000000   0.000000   4.067350   0.000000
    12  H    0.000000   0.000000   0.000000   0.000000   0.000000   0.957164
    13  H    0.000000   0.000000   0.000000   0.000000   0.000000   0.000000
    14  H    0.000000   0.000000   0.000000   0.000000   0.000000   0.000000
    15  C    0.000000   0.000000   0.000000   0.000000   0.000000   0.000000
    16  H    0.000000   0.000000   0.000000   0.000000   0.000000   0.000000
    17  H    0.000000   0.000000   0.000000   0.000000   0.000000   0.000000
    18  H    0.000000   0.000000   0.000000   0.000000   0.000000   0.000000
    19  C    0.000000   0.000000   0.000000   0.000000   0.000000   0.000000
    20  C    0.000000   0.000000   0.000000   0.000000   0.000000   0.000000
    21  H    0.000000   0.000000   0.000000   0.000000   0.000000   0.000000
    22  H    0.000000   0.000000   0.000000   0.000000   0.000000   0.000000
    23  H    0.000000   0.000000   0.000000   0.000000   0.000000   0.000000
    24  C    0.000000   0.000000   0.000000   0.000000   0.000000   0.000000
    25  H    0.000000   0.000000   0.000000   0.000000   0.000000   0.000000
    26  C    0.000000   0.000000   0.000000   0.000000   0.000000   0.000000
    27  H    0.000000   0.000000   0.000000   0.000000   0.000000   0.000000
    28  H    0.000000   0.000000   0.000000   0.000000   0.000000   0.000000
              13         14         15         16         17         18
     1  C    0.000000   0.000000   0.000000   0.000000   0.000000   0.000000
     2  H    0.000000   0.000000   0.000000   0.000000   0.000000   0.000000
     3  H    0.000000   0.000000   0.000000   0.000000   0.000000   0.000000
     4  C    0.000000   0.000000   0.000000   0.000000   0.000000   0.000000
     5  C    0.000000   0.000000   0.000000   0.000000   0.000000   0.000000
     6  H    0.000000   0.000000   0.000000   0.000000   0.000000   0.000000
     7  H    0.000000   0.000000   0.000000   0.000000   0.000000   0.000000
     8  H    0.000000   0.000000   0.000000   0.000000   0.000000   0.000000
     9  C    0.000000   0.000000   0.000000   0.000000   0.000000   0.000000
    10  H    0.000000   0.000000   0.000000   0.000000   0.000000   0.000000
    11  C    0.000000   0.000000   0.000000   0.000000   0.000000   0.000000
    12  H    0.000000   0.000000   0.000000   0.000000   0.000000   0.000000
    13  H    0.956923   0.000000   0.000000   0.000000   0.000000   0.000000
    14  H    0.000000   0.957939   0.000000   0.000000   0.000000   0.000000
    15  C    0.000000   0.000000   4.068977   0.000000   0.000000   0.000000
    16  H    0.000000   0.000000   0.000000   0.955893   0.000000   0.000000
    17  H    0.000000   0.000000   0.000000   0.000000   0.956072   0.000000
    18  H    0.000000   0.000000   0.000000   0.000000   0.000000   0.959648
    19  C    0.000000   0.000000   0.000000   0.000000   0.000000   0.000000
    20  C    0.000000   0.000000   0.000000   0.000000   0.000000   0.000000
    21  H    0.000000   0.000000   0.000000   0.000000   0.000000   0.000000
    22  H    0.000000   0.000000   0.000000   0.000000   0.000000   0.000000
    23  H    0.000000   0.000000   0.000000   0.000000   0.000000   0.000000
    24  C    0.000000   0.000000   0.000000   0.000000   0.000000   0.000000
    25  H    0.000000   0.000000   0.000000   0.000000   0.000000   0.000000
    26  C    0.000000   0.000000   0.000000   0.000000   0.000000   0.000000
    27  H    0.000000   0.000000   0.000000   0.000000   0.000000   0.000000
    28  H    0.000000   0.000000   0.000000   0.000000   0.000000   0.000000
              19         20         21         22         23         24
     1  C    0.000000   0.000000   0.000000   0.000000   0.000000   0.000000
     2  H    0.000000   0.000000   0.000000   0.000000   0.000000   0.000000
     3  H    0.000000   0.000000   0.000000   0.000000   0.000000   0.000000
     4  C    0.000000   0.000000   0.000000   0.000000   0.000000   0.000000
     5  C    0.000000   0.000000   0.000000   0.000000   0.000000   0.000000
     6  H    0.000000   0.000000   0.000000   0.000000   0.000000   0.000000
     7  H    0.000000   0.000000   0.000000   0.000000   0.000000   0.000000
     8  H    0.000000   0.000000   0.000000   0.000000   0.000000   0.000000
     9  C    0.000000   0.000000   0.000000   0.000000   0.000000   0.000000
    10  H    0.000000   0.000000   0.000000   0.000000   0.000000   0.000000
    11  C    0.000000   0.000000   0.000000   0.000000   0.000000   0.000000
    12  H    0.000000   0.000000   0.000000   0.000000   0.000000   0.000000
    13  H    0.000000   0.000000   0.000000   0.000000   0.000000   0.000000
    14  H    0.000000   0.000000   0.000000   0.000000   0.000000   0.000000
    15  C    0.000000   0.000000   0.000000   0.000000   0.000000   0.000000
    16  H    0.000000   0.000000   0.000000   0.000000   0.000000   0.000000
    17  H    0.000000   0.000000   0.000000   0.000000   0.000000   0.000000
    18  H    0.000000   0.000000   0.000000   0.000000   0.000000   0.000000
    19  C    4.118303   0.000000   0.000000   0.000000   0.000000   0.000000
    20  C    0.000000   4.068856   0.000000   0.000000   0.000000   0.000000
    21  H    0.000000   0.000000   0.951171   0.000000   0.000000   0.000000
    22  H    0.000000   0.000000   0.000000   0.956586   0.000000   0.000000
    23  H    0.000000   0.000000   0.000000   0.000000   0.955951   0.000000
    24  C    0.000000   0.000000   0.000000   0.000000   0.000000   4.154959
    25  H    0.000000   0.000000   0.000000   0.000000   0.000000   0.000000
    26  C    0.000000   0.000000   0.000000   0.000000   0.000000   0.000000
    27  H    0.000000   0.000000   0.000000   0.000000   0.000000   0.000000
    28  H    0.000000   0.000000   0.000000   0.000000   0.000000   0.000000
              25         26         27         28
     1  C    0.000000   0.000000   0.000000   0.000000
     2  H    0.000000   0.000000   0.000000   0.000000
     3  H    0.000000   0.000000   0.000000   0.000000
     4  C    0.000000   0.000000   0.000000   0.000000
     5  C    0.000000   0.000000   0.000000   0.000000
     6  H    0.000000   0.000000   0.000000   0.000000
     7  H    0.000000   0.000000   0.000000   0.000000
     8  H    0.000000   0.000000   0.000000   0.000000
     9  C    0.000000   0.000000   0.000000   0.000000
    10  H    0.000000   0.000000   0.000000   0.000000
    11  C    0.000000   0.000000   0.000000   0.000000
    12  H    0.000000   0.000000   0.000000   0.000000
    13  H    0.000000   0.000000   0.000000   0.000000
    14  H    0.000000   0.000000   0.000000   0.000000
    15  C    0.000000   0.000000   0.000000   0.000000
    16  H    0.000000   0.000000   0.000000   0.000000
    17  H    0.000000   0.000000   0.000000   0.000000
    18  H    0.000000   0.000000   0.000000   0.000000
    19  C    0.000000   0.000000   0.000000   0.000000
    20  C    0.000000   0.000000   0.000000   0.000000
    21  H    0.000000   0.000000   0.000000   0.000000
    22  H    0.000000   0.000000   0.000000   0.000000
    23  H    0.000000   0.000000   0.000000   0.000000
    24  C    0.000000   0.000000   0.000000   0.000000
    25  H    0.905981   0.000000   0.000000   0.000000
    26  C    0.000000   4.049259   0.000000   0.000000
    27  H    0.000000   0.000000   0.953897   0.000000
    28  H    0.000000   0.000000   0.000000   0.942275
 Mulliken charges:
               1
     1  C   -0.046248
     2  H    0.049898
     3  H    0.052273
     4  C   -0.116892
     5  C   -0.070288
     6  H    0.038495
     7  H    0.042854
     8  H    0.052251
     9  C   -0.159514
    10  H    0.094373
    11  C   -0.067350
    12  H    0.042836
    13  H    0.043077
    14  H    0.042061
    15  C   -0.068977
    16  H    0.044107
    17  H    0.043928
    18  H    0.040352
    19  C   -0.118303
    20  C   -0.068856
    21  H    0.048829
    22  H    0.043414
    23  H    0.044049
    24  C   -0.154959
    25  H    0.094019
    26  C   -0.049259
    27  H    0.046103
    28  H    0.057725
 Sum of Mulliken charges =  -0.00000
 Mulliken charges with hydrogens summed into heavy atoms:
               1
     1  C    0.055923
     4  C   -0.116892
     5  C    0.063312
     9  C   -0.065141
    11  C    0.060624
    15  C    0.059411
    19  C   -0.118303
    20  C    0.067436
    24  C   -0.060940
    26  C    0.054569
 Charge=             -0.0000 electrons
 Dipole moment (field-independent basis, Debye):
    X=              0.1635    Y=             -0.0951    Z=             -0.0693  Tot=              0.2014
 N-N= 3.142894127950D+02 E-N=-5.109510049818D+02  KE=-7.901367573572D+01
 Leave Link  601 at Mon Jul 26 11:28:54 2021, MaxMem=   131072000 cpu:               0.1 elap:               0.2
 (Enter /opt/gaussian/g16_legacy/l701.exe)
 ... and contract with generalized density number  0.
 Compute integral first derivatives.
 Leave Link  701 at Mon Jul 26 11:28:54 2021, MaxMem=   131072000 cpu:               0.1 elap:               0.2
 (Enter /opt/gaussian/g16_legacy/l702.exe)
 L702 exits ... SP integral derivatives will be done elsewhere.
 Leave Link  702 at Mon Jul 26 11:28:54 2021, MaxMem=   131072000 cpu:               0.0 elap:               0.1
 (Enter /opt/gaussian/g16_legacy/l703.exe)
 Integral derivatives from FoFJK, PRISM(SPDF).
 Compute integral first derivatives, UseDBF=F ICtDFT=           0.
 Calling FoFJK, ICntrl=      2127 FMM=F ISym2X=0 I1Cent= 0 IOpClX= 0 NMat=1 NMatS=1 NMatT=0.
 FoFJK:  IHMeth= 9 ICntrl=    2127 DoSepK=F KAlg= 0 I1Cent=           0 FoldK=F
 IRaf=         0 NMat=       1 IRICut=       1 DoRegI=T DoRafI=F ISym2E= 0 IDoP0=3 IntGTp=3.
 FoFCou: FMM=F IPFlag=           0 FMFlag=      100000 FMFlg1=         800
         NFxFlg=           0 DoJE=F BraDBF=F KetDBF=F FulRan=T
         wScrn=  0.000000 ICntrl=      2127 IOpCl=  0 I1Cent=           0 NGrid=           0
         NMat0=    1 NMatS0=      1 NMatT0=    0 NMatD0=    1 NMtDS0=    0 NMtDT0=    0
 Symmetry not used in FoFCou.
 Leave Link  703 at Mon Jul 26 11:28:54 2021, MaxMem=   131072000 cpu:               0.0 elap:               0.3
 (Enter /opt/gaussian/g16_legacy/l716.exe)
 Dipole        = 6.43359674D-02-3.74038877D-02-2.72578581D-02
 ***** Axes restored to original set *****
 -------------------------------------------------------------------
 Center     Atomic                   Forces (Hartrees/Bohr)
 Number     Number              X              Y              Z
 -------------------------------------------------------------------
      1        6           0.009569527   -0.008200128   -0.013741529
      2        1          -0.006196069   -0.004343955    0.002692363
      3        1           0.001967867    0.007070391   -0.000824248
      4        6           0.000046427   -0.000967548    0.004434074
      5        6          -0.007108924   -0.012311503    0.008326765
      6        1          -0.000220740   -0.000723206   -0.001957187
      7        1          -0.000349481    0.002080246    0.000611892
      8        1           0.002941597    0.000682375    0.002338618
      9        6           0.002726294    0.003720299    0.013940104
     10        1          -0.000378345   -0.000643472   -0.005548208
     11        6           0.006661059    0.014247121   -0.007752528
     12        1           0.000270254    0.001226507    0.003512059
     13        1          -0.002179591   -0.000751680   -0.000207827
     14        1           0.000780614   -0.002201208   -0.000247715
     15        6          -0.012693223   -0.007632675    0.003498367
     16        1           0.000961049   -0.000233088   -0.001641526
     17        1           0.001697116   -0.000854675   -0.000197752
     18        1          -0.000111554    0.001685427    0.000749536
     19        6          -0.004445343   -0.002686777   -0.001231205
     20        6          -0.000294167    0.015053649    0.006508613
     21        1          -0.005168744   -0.000642183    0.002690812
     22        1           0.001752435   -0.000991496    0.000466335
     23        1           0.001469037    0.000248926   -0.001838433
     24        6          -0.000768295   -0.012586833   -0.006603751
     25        1          -0.000300233    0.005372497    0.001343332
     26        6           0.008055149    0.012501162   -0.011699861
     27        1          -0.000803730    0.001031893    0.007401078
     28        1           0.002120015   -0.009150067   -0.005022178
 -------------------------------------------------------------------
 Cartesian Forces:  Max     0.015053649 RMS     0.005677074
 Leave Link  716 at Mon Jul 26 11:28:54 2021, MaxMem=   131072000 cpu:               0.0 elap:               0.1
 (Enter /opt/gaussian/g16_legacy/l103.exe)

 GradGradGradGradGradGradGradGradGradGradGradGradGradGradGradGradGradGrad
 Berny optimization.
 FormGI is forming the generalized inverse of G from B-inverse, IUseBI=4.
 Internal  Forces:  Max     0.019205803 RMS     0.005017042
 Search for a local minimum.
 Step number   1 out of a maximum of  138
 All quantities printed in internal units (Hartrees-Bohrs-Radians)
 RMS Force = .50170D-02 SwitMx=.10000D-02 MixMth= 1
 Mixed Optimization -- RFO/linear search
 Second derivative matrix not updated -- first step.
 ITU=  0
     Eigenvalues ---    0.00292   0.00551   0.00671   0.00682   0.00688
     Eigenvalues ---    0.00714   0.00822   0.01207   0.01288   0.01564
     Eigenvalues ---    0.01640   0.02774   0.02782   0.03778   0.03849
     Eigenvalues ---    0.05302   0.05417   0.06958   0.07045   0.07079
     Eigenvalues ---    0.07092   0.07242   0.07301   0.07352   0.07503
     Eigenvalues ---    0.09574   0.09667   0.13019   0.13059   0.15999
     Eigenvalues ---    0.15999   0.16000   0.16000   0.16000   0.16000
     Eigenvalues ---    0.16000   0.16000   0.16000   0.16000   0.16000
     Eigenvalues ---    0.16000   0.16000   0.16000   0.21899   0.21912
     Eigenvalues ---    0.22000   0.22000   0.24985   0.24992   0.24997
     Eigenvalues ---    0.24998   0.28894   0.30733   0.31637   0.31718
     Eigenvalues ---    0.31763   0.31972   0.32825   0.33900   0.33905
     Eigenvalues ---    0.33965   0.34196   0.34213   0.34228   0.34241
     Eigenvalues ---    0.34241   0.34242   0.34254   0.34282   0.34315
     Eigenvalues ---    0.34372   0.34430   0.34548   0.34608   0.34809
     Eigenvalues ---    0.34865   0.55407   0.55531
 RFO step:  Lambda=-1.04499262D-02 EMin= 2.92413640D-03
 Linear search not attempted -- first point.
 Iteration  1 RMS(Cart)=  0.13219717 RMS(Int)=  0.00190119
 Iteration  2 RMS(Cart)=  0.00389570 RMS(Int)=  0.00014939
 Iteration  3 RMS(Cart)=  0.00000654 RMS(Int)=  0.00014937
 Iteration  4 RMS(Cart)=  0.00000000 RMS(Int)=  0.00014937
 ITry= 1 IFail=0 DXMaxC= 4.29D-01 DCOld= 1.00D+10 DXMaxT= 3.00D-01 DXLimC= 3.00D+00 Rises=F
 Variable       Old X    -DE/DX   Delta X   Delta X   Delta X     New X
                                 (Linear)    (Quad)   (Total)
    R1        2.07389   0.00781   0.00000   0.02229   0.02229   2.09618
    R2        2.07500   0.00685   0.00000   0.01960   0.01960   2.09460
    R3        2.86526  -0.01807   0.00000  -0.05685  -0.05685   2.80841
    R4        2.90224  -0.00993   0.00000  -0.03318  -0.03318   2.86906
    R5        2.84814  -0.01466   0.00000  -0.04485  -0.04485   2.80329
    R6        2.54772  -0.01762   0.00000  -0.03121  -0.03121   2.51652
    R7        2.06972   0.00209   0.00000   0.00594   0.00594   2.07566
    R8        2.06926   0.00199   0.00000   0.00565   0.00565   2.07491
    R9        2.06610   0.00338   0.00000   0.00954   0.00954   2.07564
   R10        2.05895   0.00558   0.00000   0.01555   0.01555   2.07450
   R11        2.82660  -0.01409   0.00000  -0.04160  -0.04160   2.78500
   R12        2.06416   0.00366   0.00000   0.01028   0.01028   2.07443
   R13        2.06801   0.00226   0.00000   0.00638   0.00638   2.07440
   R14        2.06857   0.00228   0.00000   0.00645   0.00645   2.07502
   R15        2.06924   0.00173   0.00000   0.00489   0.00489   2.07413
   R16        2.06926   0.00167   0.00000   0.00472   0.00472   2.07398
   R17        2.06948   0.00185   0.00000   0.00524   0.00524   2.07471
   R18        2.84662  -0.01256   0.00000  -0.03835  -0.03835   2.80827
   R19        2.84194  -0.01578   0.00000  -0.04781  -0.04781   2.79414
   R20        2.54663  -0.01921   0.00000  -0.03395  -0.03395   2.51269
   R21        2.06317   0.00489   0.00000   0.01373   0.01373   2.07689
   R22        2.06903   0.00200   0.00000   0.00567   0.00567   2.07469
   R23        2.07000   0.00213   0.00000   0.00603   0.00603   2.07604
   R24        2.05986   0.00549   0.00000   0.01530   0.01530   2.07516
   R25        2.84580  -0.01761   0.00000  -0.05367  -0.05367   2.79212
   R26        2.07490   0.00751   0.00000   0.02147   0.02147   2.09638
   R27        2.06706   0.00984   0.00000   0.02779   0.02779   2.09485
    A1        1.82592   0.00049   0.00000   0.02495   0.02485   1.85077
    A2        1.90524   0.00171   0.00000   0.00587   0.00593   1.91117
    A3        1.89430   0.00216   0.00000   0.01198   0.01194   1.90624
    A4        1.91427   0.00175   0.00000  -0.00101  -0.00136   1.91292
    A5        1.92050   0.00140   0.00000   0.00020  -0.00018   1.92032
    A6        1.99572  -0.00684   0.00000  -0.03627  -0.03648   1.95924
    A7        2.01413   0.00013   0.00000   0.00073   0.00061   2.01474
    A8        2.16736  -0.00249   0.00000  -0.00930  -0.00942   2.15794
    A9        2.10124   0.00237   0.00000   0.00938   0.00926   2.11050
   A10        1.95828   0.00044   0.00000   0.00517   0.00516   1.96344
   A11        1.92343   0.00061   0.00000   0.00309   0.00304   1.92648
   A12        1.93563  -0.00220   0.00000  -0.01493  -0.01494   1.92069
   A13        1.87553   0.00025   0.00000   0.00538   0.00534   1.88087
   A14        1.87467   0.00116   0.00000   0.00780   0.00782   1.88248
   A15        1.89385  -0.00020   0.00000  -0.00620  -0.00624   1.88760
   A16        2.06935   0.00386   0.00000   0.01671   0.01670   2.08605
   A17        2.22467  -0.00784   0.00000  -0.03400  -0.03400   2.19066
   A18        1.98911   0.00398   0.00000   0.01736   0.01735   2.00646
   A19        1.98111  -0.00134   0.00000  -0.00859  -0.00858   1.97253
   A20        1.91506   0.00078   0.00000   0.00453   0.00452   1.91958
   A21        1.91189   0.00096   0.00000   0.00635   0.00635   1.91824
   A22        1.88665  -0.00002   0.00000  -0.00146  -0.00146   1.88519
   A23        1.87888   0.00016   0.00000   0.00101   0.00102   1.87990
   A24        1.88775  -0.00055   0.00000  -0.00179  -0.00181   1.88594
   A25        1.89489  -0.00091   0.00000  -0.00849  -0.00849   1.88640
   A26        1.87890   0.00007   0.00000   0.00175   0.00175   1.88065
   A27        1.92463   0.00019   0.00000   0.00025   0.00025   1.92487
   A28        1.87879   0.00007   0.00000   0.00212   0.00212   1.88091
   A29        1.92371   0.00031   0.00000   0.00113   0.00113   1.92484
   A30        1.96089   0.00021   0.00000   0.00285   0.00284   1.96374
   A31        1.99322   0.00370   0.00000   0.01427   0.01423   2.00746
   A32        2.10483   0.00300   0.00000   0.01161   0.01157   2.11640
   A33        2.18503  -0.00670   0.00000  -0.02567  -0.02570   2.15933
   A34        1.98312  -0.00443   0.00000  -0.02665  -0.02666   1.95646
   A35        1.92095   0.00078   0.00000   0.00346   0.00341   1.92437
   A36        1.91994   0.00076   0.00000   0.00620   0.00621   1.92615
   A37        1.88115   0.00130   0.00000   0.00447   0.00441   1.88556
   A38        1.86502   0.00228   0.00000   0.01532   0.01536   1.88038
   A39        1.89065  -0.00052   0.00000  -0.00174  -0.00176   1.88889
   A40        2.06435   0.00622   0.00000   0.02742   0.02739   2.09174
   A41        2.23218  -0.01199   0.00000  -0.05198  -0.05201   2.18018
   A42        1.98652   0.00577   0.00000   0.02478   0.02475   2.01127
   A43        1.98308  -0.00598   0.00000  -0.03224  -0.03266   1.95042
   A44        1.88582   0.00210   0.00000   0.02059   0.02078   1.90660
   A45        1.92696   0.00149   0.00000  -0.00497  -0.00588   1.92108
   A46        1.86515   0.00219   0.00000   0.01875   0.01908   1.88423
   A47        1.95783   0.00047   0.00000  -0.01713  -0.01785   1.93998
   A48        1.83643   0.00035   0.00000   0.02213   0.02216   1.85859
    D1        2.44642   0.00140   0.00000   0.02775   0.02765   2.47407
    D2       -0.66270   0.00069   0.00000  -0.00146  -0.00140  -0.66410
    D3        0.45533  -0.00107   0.00000  -0.00466  -0.00466   0.45067
    D4       -2.65379  -0.00177   0.00000  -0.03386  -0.03371  -2.68750
    D5       -1.71133   0.00075   0.00000   0.02267   0.02253  -1.68881
    D6        1.46273   0.00005   0.00000  -0.00654  -0.00652   1.45621
    D7       -2.87024  -0.00225   0.00000  -0.03822  -0.03811  -2.90835
    D8       -0.80383  -0.00173   0.00000  -0.02051  -0.02064  -0.82447
    D9        1.19582   0.00064   0.00000   0.01470   0.01456   1.21038
   D10       -0.88181   0.00025   0.00000  -0.00189  -0.00176  -0.88357
   D11        1.18460   0.00077   0.00000   0.01582   0.01570   1.20030
   D12       -3.09893   0.00315   0.00000   0.05102   0.05091  -3.04803
   D13        1.28153  -0.00141   0.00000  -0.03006  -0.02981   1.25171
   D14       -2.93525  -0.00089   0.00000  -0.01235  -0.01235  -2.94760
   D15       -0.93560   0.00148   0.00000   0.02286   0.02285  -0.91274
   D16       -3.11322  -0.00063   0.00000  -0.02237  -0.02248  -3.13570
   D17       -1.02400   0.00038   0.00000  -0.01008  -0.01017  -1.03417
   D18        1.07348  -0.00089   0.00000  -0.02548  -0.02554   1.04794
   D19       -0.00276  -0.00006   0.00000   0.00527   0.00534   0.00257
   D20        2.08645   0.00096   0.00000   0.01756   0.01765   2.10410
   D21       -2.09926  -0.00032   0.00000   0.00216   0.00228  -2.09698
   D22        3.12115   0.00017   0.00000   0.00949   0.00948   3.13062
   D23       -0.03251   0.00037   0.00000   0.01700   0.01699  -0.01552
   D24        0.01356  -0.00052   0.00000  -0.02093  -0.02092  -0.00737
   D25       -3.14010  -0.00032   0.00000  -0.01342  -0.01341   3.12967
   D26       -0.04533   0.00006   0.00000  -0.00047  -0.00047  -0.04581
   D27        2.06744  -0.00031   0.00000  -0.00492  -0.00492   2.06252
   D28       -2.14587   0.00006   0.00000  -0.00056  -0.00054  -2.14642
   D29        3.08466   0.00025   0.00000   0.00676   0.00676   3.09142
   D30       -1.08575  -0.00012   0.00000   0.00232   0.00230  -1.08345
   D31        0.98412   0.00025   0.00000   0.00667   0.00669   0.99081
   D32        1.04798  -0.00021   0.00000   0.00448   0.00461   1.05259
   D33       -2.07914  -0.00051   0.00000  -0.01063  -0.01076  -2.08990
   D34       -1.04391   0.00059   0.00000   0.01414   0.01427  -1.02964
   D35        2.11215   0.00030   0.00000  -0.00097  -0.00109   2.11106
   D36       -3.13917   0.00015   0.00000   0.00878   0.00890  -3.13027
   D37        0.01689  -0.00015   0.00000  -0.00634  -0.00646   0.01042
   D38       -3.03952  -0.00079   0.00000  -0.02215  -0.02203  -3.06156
   D39        1.13231   0.00002   0.00000  -0.01210  -0.01204   1.12027
   D40       -0.94965  -0.00030   0.00000  -0.01595  -0.01591  -0.96555
   D41        0.08683  -0.00038   0.00000  -0.00584  -0.00587   0.08095
   D42       -2.02452   0.00043   0.00000   0.00421   0.00412  -2.02040
   D43        2.17671   0.00011   0.00000   0.00035   0.00025   2.17696
   D44        0.00382  -0.00003   0.00000   0.00483   0.00477   0.00859
   D45       -3.11940  -0.00042   0.00000  -0.01061  -0.01069  -3.13009
   D46       -3.12162  -0.00047   0.00000  -0.01244  -0.01235  -3.13397
   D47        0.03835  -0.00085   0.00000  -0.02787  -0.02782   0.01053
   D48       -1.93601   0.00076   0.00000   0.00437   0.00406  -1.93195
   D49        2.26892   0.00023   0.00000  -0.01470  -0.01471   2.25421
   D50        0.26490  -0.00173   0.00000  -0.04334  -0.04305   0.22186
   D51        1.22328   0.00038   0.00000  -0.01056  -0.01084   1.21243
   D52       -0.85498  -0.00016   0.00000  -0.02962  -0.02961  -0.88459
   D53       -2.85900  -0.00211   0.00000  -0.05826  -0.05795  -2.91695
         Item               Value     Threshold  Converged?
 Maximum Force            0.019206     0.000450     NO 
 RMS     Force            0.005017     0.000300     NO 
 Maximum Displacement     0.429172     0.001800     NO 
 RMS     Displacement     0.131275     0.001200     NO 
 Predicted change in Energy=-5.497863D-03
 Lowest energy point so far.  Saving SCF results.
 GradGradGradGradGradGradGradGradGradGradGradGradGradGradGradGradGradGrad

 Leave Link  103 at Mon Jul 26 11:28:55 2021, MaxMem=   131072000 cpu:               0.0 elap:               0.1
 (Enter /opt/gaussian/g16_legacy/l202.exe)
                          Input orientation:                          
 ---------------------------------------------------------------------
 Center     Atomic      Atomic             Coordinates (Angstroms)
 Number     Number       Type             X           Y           Z
 ---------------------------------------------------------------------
      1          6           0       -1.519741    0.599450    0.937408
      2          1           0       -2.441166    0.183678    1.394079
      3          1           0       -1.587210    1.699159    1.058514
      4          6           0       -1.485212    0.258289   -0.508636
      5          6           0       -0.955928    1.318575   -1.400959
      6          1           0       -0.957591    1.018248   -2.457493
      7          1           0       -1.560255    2.230880   -1.311032
      8          1           0        0.077748    1.563991   -1.122165
      9          6           0       -1.897345   -0.908175   -1.001473
     10          1           0       -1.851045   -1.084733   -2.083970
     11          6           0       -2.425630   -2.033413   -0.209816
     12          1           0       -2.411150   -1.841977    0.871009
     13          1           0       -3.462091   -2.244632   -0.503296
     14          1           0       -1.828253   -2.935469   -0.397311
     15          6           0        3.140563    1.149859    0.351258
     16          1           0        3.276095    1.260856   -0.732252
     17          1           0        4.037655    0.666706    0.759056
     18          1           0        3.075358    2.156196    0.785305
     19          6           0        1.936702    0.327235    0.638351
     20          6           0        1.972636   -1.045940    0.091233
     21          1           0        1.029207   -1.583501    0.261149
     22          1           0        2.781060   -1.621306    0.561069
     23          1           0        2.153292   -1.021140   -0.992118
     24          6           0        0.917957    0.816184    1.339117
     25          1           0        0.955348    1.849211    1.709715
     26          6           0       -0.308688    0.067631    1.682774
     27          1           0       -0.477329    0.170012    2.774446
     28          1           0       -0.185088   -1.015874    1.483737
 ---------------------------------------------------------------------
                    Distance matrix (angstroms):
                    1          2          3          4          5
     1  C    0.000000
     2  H    1.109251   0.000000
     3  H    1.108413   1.771589   0.000000
     4  C    1.486144   2.130666   2.131307   0.000000
     5  C    2.510575   3.362463   2.567561   1.483439   0.000000
     6  H    3.466520   4.210951   3.636258   2.157306   1.098391
     7  H    2.778252   3.504948   2.428621   2.130865   1.097997
     8  H    2.779236   3.818596   2.746947   2.126999   1.098382
     9  C    2.484910   2.688225   3.337353   1.331683   2.450362
    10  H    3.474904   3.748858   4.206527   2.102194   2.653984
    11  C    3.011432   2.736460   4.030348   2.495110   3.848983
    12  H    2.599920   2.092315   3.640561   2.678040   4.155550
    13  H    3.733250   3.246384   4.637663   3.189466   4.447819
    14  H    3.791082   3.648811   4.863878   3.214056   4.457034
    15  C    4.729161   5.759921   4.811838   4.788749   4.458696
    16  H    5.121061   6.194245   5.201028   4.870852   4.284918
    17  H    5.560665   6.527764   5.726670   5.681189   5.479642
    18  H    4.854022   5.890117   4.692874   5.106382   4.661827
    19  C    3.480019   4.444937   3.804822   3.609685   3.675439
    20  C    3.952217   4.763509   4.598229   3.744004   4.048958
    21  H    3.423410   4.055853   4.272855   3.210461   3.889140
    22  H    4.854923   5.587801   5.509512   4.783119   5.143689
    23  H    4.454274   5.315503   5.059296   3.887082   3.912630
    24  C    2.480064   3.418595   2.671001   3.082314   3.357359
    25  H    2.878268   3.796042   2.628912   3.661755   3.689288
    26  C    1.518240   2.155058   2.164764   2.494561   3.390161
    27  H    2.155400   2.400471   2.552362   3.435440   4.356864
    28  H    2.165421   2.556728   3.085153   2.698771   3.790161
                    6          7          8          9         10
     6  H    0.000000
     7  H    1.774276   0.000000
     8  H    1.775630   1.778614   0.000000
     9  C    2.591186   3.172243   3.166570   0.000000
    10  H    2.315235   3.416911   3.414828   1.097778   0.000000
    11  C    4.064459   4.488400   4.476672   1.473758   2.177750
    12  H    4.623056   4.698243   4.665616   2.154569   3.101457
    13  H    4.553877   4.929465   5.236322   2.117245   2.537590
    14  H    4.542498   5.253367   4.939979   2.116531   2.504109
    15  C    4.970037   5.101912   3.423933   5.607665   5.986643
    16  H    4.578145   4.966510   3.236255   5.616196   5.797973
    17  H    5.951660   6.169968   4.474928   6.387796   6.769573
    18  H    5.298617   5.088135   3.602057   6.108250   6.557881
    19  C    4.294029   4.433133   2.843359   4.349158   4.873573
    20  C    4.398080   5.018487   3.445965   4.023647   4.399267
    21  H    4.255289   4.870992   3.567287   3.258065   3.747560
    22  H    5.482379   6.098452   4.504141   4.983730   5.361020
    23  H    3.998002   4.946491   3.317785   4.052223   4.151012
    24  C    4.239429   3.894379   2.706118   4.046937   4.795662
    25  H    4.659985   3.949537   2.978435   4.805369   5.556610
    26  C    4.297274   3.899864   3.202517   3.268212   4.230268
    27  H    5.321968   4.702237   4.175508   4.175703   5.202469
    28  H    4.501967   4.499248   3.676345   3.019882   3.938107
                   11         12         13         14         15
    11  C    0.000000
    12  H    1.097743   0.000000
    13  H    1.097723   1.776323   0.000000
    14  H    1.098052   1.773169   1.777052   0.000000
    15  C    6.436655   6.327934   7.473144   6.476064   0.000000
    16  H    6.605665   6.674037   7.598949   6.616321   1.097581
    17  H    7.071309   6.920485   8.143440   6.980095   1.097502
    18  H    6.985983   6.789293   7.985363   7.167220   1.097890
    19  C    5.032095   4.864507   6.088089   5.088489   1.486074
    20  C    4.517795   4.523196   5.597015   4.272675   2.500641
    21  H    3.515698   3.503540   4.603611   3.229004   3.455025
    22  H    5.279556   5.206131   6.363831   4.887871   2.802253
    23  H    4.754284   4.997914   5.767877   4.457707   2.737262
    24  C    4.658215   4.285778   5.652247   4.963038   2.455032
    25  H    5.494577   5.065728   6.416443   5.922935   2.666395
    26  C    3.532382   2.953965   4.479890   3.956569   3.852465
    27  H    4.190081   3.377993   5.048060   4.639941   4.463304
    28  H    2.987229   2.452190   4.024537   3.150107   4.127089
                   16         17         18         19         20
    16  H    0.000000
    17  H    1.776791   0.000000
    18  H    1.773389   1.773496   0.000000
    19  C    2.131707   2.131623   2.159452   0.000000
    20  C    2.774607   2.764679   3.457081   1.478594   0.000000
    21  H    3.758419   3.789736   4.294974   2.148659   1.099045
    22  H    3.197592   2.617867   3.795578   2.125023   1.097880
    23  H    2.556506   3.076729   3.755650   2.126842   1.098591
    24  C    3.170034   3.176686   2.599369   1.329656   2.477310
    25  H    3.419830   3.435504   2.333070   2.104112   3.469331
    26  C    4.484062   4.483620   4.076681   2.489978   2.996245
    27  H    5.251196   4.969264   4.530253   3.227253   3.831513
    28  H    4.698286   4.603020   4.602211   2.649643   2.568217
                   21         22         23         24         25
    21  H    0.000000
    22  H    1.777743   0.000000
    23  H    1.774964   1.779518   0.000000
    24  C    2.633035   3.165101   3.215038   0.000000
[...]
    26  C    3.752828   3.336557   4.795656   3.952215   3.867182
    27  H    4.287072   3.624492   5.288022   4.459423   4.372519
    28  H    3.380570   3.151533   4.476045   3.283507   4.131578
                   16         17         18         19         20
    16  H    0.000000
    17  H    1.772241   0.000000
    18  H    1.772165   1.772422   0.000000
    19  C    2.137854   2.138370   2.163766   0.000000
    20  C    2.800245   2.769277   3.469061   1.485900   0.000000
    21  H    3.763077   3.810359   4.304946   2.155188   1.102564
    22  H    3.277524   2.669000   3.829418   2.136116   1.098173
    23  H    2.570168   3.031002   3.763164   2.140000   1.097980
    24  C    3.176379   3.199429   2.609106   1.340239   2.491596
    25  H    3.420045   3.462189   2.345214   2.114074   3.484078
    26  C    4.499937   4.507586   4.095280   2.502500   3.004265
    27  H    5.174687   4.818991   4.536174   3.086310   3.552524
    28  H    4.623364   4.694215   4.615530   2.649653   2.555386
                   21         22         23         24         25
    21  H    0.000000
    22  H    1.777530   0.000000
    23  H    1.777706   1.773525   0.000000
    24  C    2.644704   3.160381   3.254964   0.000000
    25  H    3.737569   4.089208   4.157642   1.098538   0.000000
    26  C    2.563435   3.658271   3.845138   1.486646   2.197869
    27  H    3.126808   3.923030   4.540760   2.106716   2.622956
    28  H    1.772262   3.227895   3.329937   2.149554   3.104453
                   26         27         28
    26  C    0.000000
    27  H    1.108936   0.000000
    28  H    1.113693   1.773316   0.000000
 Stoichiometry    C10H18
 Framework group  C1[X(C10H18)]
 Deg. of freedom    78
 Full point group                 C1      NOp   1
 RotChk:  IX=0 Diff= 1.04D-15
 Largest Abelian subgroup         C1      NOp   1
 Largest concise Abelian subgroup C1      NOp   1
                         Standard orientation:                         
 ---------------------------------------------------------------------
 Center     Atomic      Atomic             Coordinates (Angstroms)
 Number     Number       Type             X           Y           Z
 ---------------------------------------------------------------------
      1          6           0       -1.123196    0.138030    1.237118
      2          1           0       -1.926008   -0.475620    1.706238
      3          1           0       -0.922370    0.971286    1.939251
      4          6           0       -1.625909    0.683453   -0.061917
      5          6           0       -0.963826    1.921561   -0.551317
      6          1           0       -1.293814    2.210037   -1.557802
      7          1           0       -1.176655    2.762780    0.122621
      8          1           0        0.127952    1.787675   -0.580411
      9          6           0       -2.624127    0.112887   -0.751084
     10          1           0       -2.953692    0.553339   -1.700825
     11          6           0       -3.348577   -1.103218   -0.323041
     12          1           0       -3.140517   -1.360656    0.729270
     13          1           0       -4.433068   -0.970548   -0.427167
     14          1           0       -3.056598   -1.963119   -0.940579
     15          6           0        3.523770    0.618809   -0.178878
     16          1           0        3.578086    1.080072   -1.174556
     17          1           0        4.424802    0.003969   -0.049428
     18          1           0        3.564094    1.427097    0.563244
     19          6           0        2.297669   -0.214900   -0.054734
     20          6           0        2.208663   -1.356365   -1.001852
     21          1           0        1.221662   -1.846263   -0.963414
     22          1           0        2.967819   -2.114179   -0.766515
     23          1           0        2.377646   -1.023566   -2.034446
     24          6           0        1.357345    0.066617    0.857832
     25          1           0        1.483709    0.930129    1.525039
     26          6           0        0.118721   -0.729450    1.063270
     27          1           0        0.264455   -1.348917    1.971434
     28          1           0       -0.030709   -1.448063    0.225668
 ---------------------------------------------------------------------
 Rotational constants (GHZ):           2.1761214           0.6474434           0.6107496
 Leave Link  202 at Mon Jul 26 11:29:07 2021, MaxMem=   131072000 cpu:               0.0 elap:               0.0
 (Enter /opt/gaussian/g16_legacy/l601.exe)
 Copying SCF densities to generalized density rwf, IOpCl= 0 IROHF=0.

 **********************************************************************

            Population analysis using the SCF density.

 **********************************************************************

 Orbital symmetries:
       Occupied  (A) (A) (A) (A) (A) (A) (A) (A) (A) (A) (A) (A)
                 (A) (A) (A) (A) (A) (A) (A) (A) (A) (A) (A) (A)
                 (A) (A) (A) (A) (A)
       Virtual   (A) (A) (A) (A) (A) (A) (A) (A) (A) (A) (A) (A)
                 (A) (A) (A) (A) (A) (A) (A) (A) (A) (A) (A) (A)
                 (A) (A) (A) (A) (A)
 The electronic state is 1-A.
 Alpha  occ. eigenvalues --   -1.47865  -1.35385  -1.17245  -1.10933  -1.01344
 Alpha  occ. eigenvalues --   -0.95437  -0.85666  -0.80013  -0.66678  -0.65248
 Alpha  occ. eigenvalues --   -0.60565  -0.59330  -0.57487  -0.57021  -0.55288
 Alpha  occ. eigenvalues --   -0.53635  -0.51398  -0.49738  -0.48549  -0.48347
 Alpha  occ. eigenvalues --   -0.47680  -0.47512  -0.47167  -0.46702  -0.46200
 Alpha  occ. eigenvalues --   -0.42924  -0.42472  -0.35336  -0.33822
 Alpha virt. eigenvalues --    0.03619   0.04329   0.12260   0.12649   0.13365
 Alpha virt. eigenvalues --    0.13622   0.13847   0.14083   0.14811   0.15309
 Alpha virt. eigenvalues --    0.15506   0.15748   0.16021   0.16124   0.16295
 Alpha virt. eigenvalues --    0.16384   0.16578   0.16724   0.17001   0.17091
 Alpha virt. eigenvalues --    0.17249   0.17342   0.17554   0.17922   0.18196
 Alpha virt. eigenvalues --    0.21156   0.21372   0.22441   0.22583
          Condensed to atoms (all electrons):
               1          2          3          4          5          6
     1  C    4.058924   0.000000   0.000000   0.000000   0.000000   0.000000
     2  H    0.000000   0.942309   0.000000   0.000000   0.000000   0.000000
     3  H    0.000000   0.000000   0.943511   0.000000   0.000000   0.000000
     4  C    0.000000   0.000000   0.000000   4.120234   0.000000   0.000000
     5  C    0.000000   0.000000   0.000000   0.000000   4.077962   0.000000
     6  H    0.000000   0.000000   0.000000   0.000000   0.000000   0.958705
     7  H    0.000000   0.000000   0.000000   0.000000   0.000000   0.000000
     8  H    0.000000   0.000000   0.000000   0.000000   0.000000   0.000000
     9  C    0.000000   0.000000   0.000000   0.000000   0.000000   0.000000
    10  H    0.000000   0.000000   0.000000   0.000000   0.000000   0.000000
    11  C    0.000000   0.000000   0.000000   0.000000   0.000000   0.000000
    12  H    0.000000   0.000000   0.000000   0.000000   0.000000   0.000000
    13  H    0.000000   0.000000   0.000000   0.000000   0.000000   0.000000
    14  H    0.000000   0.000000   0.000000   0.000000   0.000000   0.000000
    15  C    0.000000   0.000000   0.000000   0.000000   0.000000   0.000000
    16  H    0.000000   0.000000   0.000000   0.000000   0.000000   0.000000
    17  H    0.000000   0.000000   0.000000   0.000000   0.000000   0.000000
    18  H    0.000000   0.000000   0.000000   0.000000   0.000000   0.000000
    19  C    0.000000   0.000000   0.000000   0.000000   0.000000   0.000000
    20  C    0.000000   0.000000   0.000000   0.000000   0.000000   0.000000
    21  H    0.000000   0.000000   0.000000   0.000000   0.000000   0.000000
    22  H    0.000000   0.000000   0.000000   0.000000   0.000000   0.000000
    23  H    0.000000   0.000000   0.000000   0.000000   0.000000   0.000000
    24  C    0.000000   0.000000   0.000000   0.000000   0.000000   0.000000
    25  H    0.000000   0.000000   0.000000   0.000000   0.000000   0.000000
    26  C    0.000000   0.000000   0.000000   0.000000   0.000000   0.000000
    27  H    0.000000   0.000000   0.000000   0.000000   0.000000   0.000000
    28  H    0.000000   0.000000   0.000000   0.000000   0.000000   0.000000
               7          8          9         10         11         12
     1  C    0.000000   0.000000   0.000000   0.000000   0.000000   0.000000
     2  H    0.000000   0.000000   0.000000   0.000000   0.000000   0.000000
     3  H    0.000000   0.000000   0.000000   0.000000   0.000000   0.000000
     4  C    0.000000   0.000000   0.000000   0.000000   0.000000   0.000000
     5  C    0.000000   0.000000   0.000000   0.000000   0.000000   0.000000
     6  H    0.000000   0.000000   0.000000   0.000000   0.000000   0.000000
     7  H    0.956300   0.000000   0.000000   0.000000   0.000000   0.000000
     8  H    0.000000   0.943805   0.000000   0.000000   0.000000   0.000000
     9  C    0.000000   0.000000   4.157444   0.000000   0.000000   0.000000
    10  H    0.000000   0.000000   0.000000   0.900928   0.000000   0.000000
    11  C    0.000000   0.000000   0.000000   0.000000   4.078173   0.000000
    12  H    0.000000   0.000000   0.000000   0.000000   0.000000   0.952969
    13  H    0.000000   0.000000   0.000000   0.000000   0.000000   0.000000
    14  H    0.000000   0.000000   0.000000   0.000000   0.000000   0.000000
    15  C    0.000000   0.000000   0.000000   0.000000   0.000000   0.000000
    16  H    0.000000   0.000000   0.000000   0.000000   0.000000   0.000000
    17  H    0.000000   0.000000   0.000000   0.000000   0.000000   0.000000
    18  H    0.000000   0.000000   0.000000   0.000000   0.000000   0.000000
    19  C    0.000000   0.000000   0.000000   0.000000   0.000000   0.000000
    20  C    0.000000   0.000000   0.000000   0.000000   0.000000   0.000000
    21  H    0.000000   0.000000   0.000000   0.000000   0.000000   0.000000
    22  H    0.000000   0.000000   0.000000   0.000000   0.000000   0.000000
    23  H    0.000000   0.000000   0.000000   0.000000   0.000000   0.000000
    24  C    0.000000   0.000000   0.000000   0.000000   0.000000   0.000000
    25  H    0.000000   0.000000   0.000000   0.000000   0.000000   0.000000
    26  C    0.000000   0.000000   0.000000   0.000000   0.000000   0.000000
    27  H    0.000000   0.000000   0.000000   0.000000   0.000000   0.000000
    28  H    0.000000   0.000000   0.000000   0.000000   0.000000   0.000000
              13         14         15         16         17         18
     1  C    0.000000   0.000000   0.000000   0.000000   0.000000   0.000000
     2  H    0.000000   0.000000   0.000000   0.000000   0.000000   0.000000
     3  H    0.000000   0.000000   0.000000   0.000000   0.000000   0.000000
     4  C    0.000000   0.000000   0.000000   0.000000   0.000000   0.000000
     5  C    0.000000   0.000000   0.000000   0.000000   0.000000   0.000000
     6  H    0.000000   0.000000   0.000000   0.000000   0.000000   0.000000
     7  H    0.000000   0.000000   0.000000   0.000000   0.000000   0.000000
     8  H    0.000000   0.000000   0.000000   0.000000   0.000000   0.000000
     9  C    0.000000   0.000000   0.000000   0.000000   0.000000   0.000000
    10  H    0.000000   0.000000   0.000000   0.000000   0.000000   0.000000
    11  C    0.000000   0.000000   0.000000   0.000000   0.000000   0.000000
    12  H    0.000000   0.000000   0.000000   0.000000   0.000000   0.000000
    13  H    0.957530   0.000000   0.000000   0.000000   0.000000   0.000000
    14  H    0.000000   0.955062   0.000000   0.000000   0.000000   0.000000
    15  C    0.000000   0.000000   4.068521   0.000000   0.000000   0.000000
    16  H    0.000000   0.000000   0.000000   0.956035   0.000000   0.000000
    17  H    0.000000   0.000000   0.000000   0.000000   0.956424   0.000000
    18  H    0.000000   0.000000   0.000000   0.000000   0.000000   0.958853
    19  C    0.000000   0.000000   0.000000   0.000000   0.000000   0.000000
    20  C    0.000000   0.000000   0.000000   0.000000   0.000000   0.000000
    21  H    0.000000   0.000000   0.000000   0.000000   0.000000   0.000000
    22  H    0.000000   0.000000   0.000000   0.000000   0.000000   0.000000
    23  H    0.000000   0.000000   0.000000   0.000000   0.000000   0.000000
    24  C    0.000000   0.000000   0.000000   0.000000   0.000000   0.000000
    25  H    0.000000   0.000000   0.000000   0.000000   0.000000   0.000000
    26  C    0.000000   0.000000   0.000000   0.000000   0.000000   0.000000
    27  H    0.000000   0.000000   0.000000   0.000000   0.000000   0.000000
    28  H    0.000000   0.000000   0.000000   0.000000   0.000000   0.000000
              19         20         21         22         23         24
     1  C    0.000000   0.000000   0.000000   0.000000   0.000000   0.000000
     2  H    0.000000   0.000000   0.000000   0.000000   0.000000   0.000000
     3  H    0.000000   0.000000   0.000000   0.000000   0.000000   0.000000
     4  C    0.000000   0.000000   0.000000   0.000000   0.000000   0.000000
     5  C    0.000000   0.000000   0.000000   0.000000   0.000000   0.000000
     6  H    0.000000   0.000000   0.000000   0.000000   0.000000   0.000000
     7  H    0.000000   0.000000   0.000000   0.000000   0.000000   0.000000
     8  H    0.000000   0.000000   0.000000   0.000000   0.000000   0.000000
     9  C    0.000000   0.000000   0.000000   0.000000   0.000000   0.000000
    10  H    0.000000   0.000000   0.000000   0.000000   0.000000   0.000000
    11  C    0.000000   0.000000   0.000000   0.000000   0.000000   0.000000
    12  H    0.000000   0.000000   0.000000   0.000000   0.000000   0.000000
    13  H    0.000000   0.000000   0.000000   0.000000   0.000000   0.000000
    14  H    0.000000   0.000000   0.000000   0.000000   0.000000   0.000000
    15  C    0.000000   0.000000   0.000000   0.000000   0.000000   0.000000
    16  H    0.000000   0.000000   0.000000   0.000000   0.000000   0.000000
    17  H    0.000000   0.000000   0.000000   0.000000   0.000000   0.000000
    18  H    0.000000   0.000000   0.000000   0.000000   0.000000   0.000000
    19  C    4.125508   0.000000   0.000000   0.000000   0.000000   0.000000
    20  C    0.000000   4.076273   0.000000   0.000000   0.000000   0.000000
    21  H    0.000000   0.000000   0.948866   0.000000   0.000000   0.000000
    22  H    0.000000   0.000000   0.000000   0.954252   0.000000   0.000000
    23  H    0.000000   0.000000   0.000000   0.000000   0.954371   0.000000
    24  C    0.000000   0.000000   0.000000   0.000000   0.000000   4.154613
    25  H    0.000000   0.000000   0.000000   0.000000   0.000000   0.000000
    26  C    0.000000   0.000000   0.000000   0.000000   0.000000   0.000000
    27  H    0.000000   0.000000   0.000000   0.000000   0.000000   0.000000
    28  H    0.000000   0.000000   0.000000   0.000000   0.000000   0.000000
              25         26         27         28
     1  C    0.000000   0.000000   0.000000   0.000000
     2  H    0.000000   0.000000   0.000000   0.000000
     3  H    0.000000   0.000000   0.000000   0.000000
     4  C    0.000000   0.000000   0.000000   0.000000
     5  C    0.000000   0.000000   0.000000   0.000000
     6  H    0.000000   0.000000   0.000000   0.000000
     7  H    0.000000   0.000000   0.000000   0.000000
     8  H    0.000000   0.000000   0.000000   0.000000
     9  C    0.000000   0.000000   0.000000   0.000000
    10  H    0.000000   0.000000   0.000000   0.000000
    11  C    0.000000   0.000000   0.000000   0.000000
    12  H    0.000000   0.000000   0.000000   0.000000
    13  H    0.000000   0.000000   0.000000   0.000000
    14  H    0.000000   0.000000   0.000000   0.000000
    15  C    0.000000   0.000000   0.000000   0.000000
    16  H    0.000000   0.000000   0.000000   0.000000
    17  H    0.000000   0.000000   0.000000   0.000000
    18  H    0.000000   0.000000   0.000000   0.000000
    19  C    0.000000   0.000000   0.000000   0.000000
    20  C    0.000000   0.000000   0.000000   0.000000
    21  H    0.000000   0.000000   0.000000   0.000000
    22  H    0.000000   0.000000   0.000000   0.000000
    23  H    0.000000   0.000000   0.000000   0.000000
    24  C    0.000000   0.000000   0.000000   0.000000
    25  H    0.898093   0.000000   0.000000   0.000000
    26  C    0.000000   4.063607   0.000000   0.000000
    27  H    0.000000   0.000000   0.946573   0.000000
    28  H    0.000000   0.000000   0.000000   0.934156
 Mulliken charges:
               1
     1  C   -0.058924
     2  H    0.057691
     3  H    0.056489
     4  C   -0.120234
     5  C   -0.077962
     6  H    0.041295
     7  H    0.043700
     8  H    0.056195
     9  C   -0.157444
    10  H    0.099072
    11  C   -0.078173
    12  H    0.047031
    13  H    0.042470
    14  H    0.044938
    15  C   -0.068521
    16  H    0.043965
    17  H    0.043576
    18  H    0.041147
    19  C   -0.125508
    20  C   -0.076273
    21  H    0.051134
    22  H    0.045748
    23  H    0.045629
    24  C   -0.154613
    25  H    0.101907
    26  C   -0.063607
    27  H    0.053427
    28  H    0.065844
 Sum of Mulliken charges =  -0.00000
 Mulliken charges with hydrogens summed into heavy atoms:
               1
     1  C    0.055256
     4  C   -0.120234
     5  C    0.063229
     9  C   -0.058372
    11  C    0.056267
    15  C    0.060168
    19  C   -0.125508
    20  C    0.066237
    24  C   -0.052706
    26  C    0.055663
 Charge=             -0.0000 electrons
 Dipole moment (field-independent basis, Debye):
    X=              0.2332    Y=             -0.1942    Z=             -0.0154  Tot=              0.3039
 N-N= 3.134282381815D+02 E-N=-5.090613921721D+02  KE=-7.910865187467D+01
 Leave Link  601 at Mon Jul 26 11:29:07 2021, MaxMem=   131072000 cpu:               0.0 elap:               0.0
 (Enter /opt/gaussian/g16_legacy/l9999.exe)
 1\1\GINC-TRUENO92\FOpt\RPM3\ZDO\C10H18\JRAMOS\26-Jul-2021\0\\#p opt pm
 3\\Conformer number 238. Energy MM = 23.959 kcal/mol\\0,1\C,-1.4823790
 231,0.4074243827,0.9381875831\H,-2.3021662696,-0.12167896,1.4759098748
 \H,-1.5955463851,1.4817306371,1.1845547159\C,-1.6587128173,0.206431603
 9,-0.5336154468\C,-1.0450171159,1.2368412475,-1.4124841904\H,-1.108301
 9136,0.9786895472,-2.477601967\H,-1.5443165539,2.2057698435,-1.2745904
 891\H,0.0176944543,1.3724577762,-1.1614796133\C,-2.3399763417,-0.82677
 99443,-1.0486784289\H,-2.4380175449,-0.9282013041,-2.1371274463\C,-2.9
 982402376,-1.8793208427,-0.2450582214\H,-3.0677657428,-1.604130968,0.8
 209425512\H,-4.0159601124,-2.0710791901,-0.608429872\H,-2.4374261138,-
 2.8212710863,-0.3102690617\C,3.2771933338,1.3486544422,0.398699227\H,3
 .5544831914,1.3388283625,-0.6643630484\H,4.1736472709,1.0866362486,0.9
 769394891\H,3.0032183783,2.3793598966,0.6600128133\C,2.1807906226,0.37
 79873541,0.6623523344\C,2.508509163,-1.0422886338,0.3737087263\H,1.620
 7471549,-1.69200658,0.4471469781\H,3.2578650254,-1.4180868502,1.083092
 001\H,2.9213591834,-1.1519963427,-0.6377653886\C,0.9921350612,0.784718
 8404,1.1291576577\H,0.8143501262,1.852430555,1.3166951486\C,-0.1440132
 884,-0.1214972319,1.4422949713\H,-0.1864715324,-0.2383569992,2.5442388
 612\H,0.042218027,-1.1412658041,1.0352302407\\Version=EM64L-G16RevA.03
 \State=1-A\HF=-0.02666\RMSD=4.061e-09\RMSF=2.076e-06\Dipole=0.0985008,
 -0.0469236,0.0489232\PG=C01 [X(C10H18)]\\@


 YOU WILL NEVER "FIND" TIME FOR ANYTHING.
 IF YOU WANT TIME, YOU MUST MAKE IT.

                        -- CHARLES BIXTON
 Job cpu time:       0 days  0 hours  0 minutes 12.5 seconds.
 Elapsed time:       0 days  0 hours  0 minutes 14.1 seconds.
 File lengths (MBytes):  RWF=      6 Int=      0 D2E=      0 Chk=      2 Scr=      1
 Normal termination of Gaussian 16 at Mon Jul 26 11:29:07 2021.
