 Entering Gaussian System, Link 0=/opt/gaussian/g16_legacy/g16
 Input=02-IsoP_419_gaussian.com
 Output=02-IsoP_419_gaussian.log
 Initial command:
 /opt/gaussian/g16_legacy/l1.exe "/scratch-local/jramos/2645822/Gau-16272.inp" -scrdir="/scratch-local/jramos/2645822/"
 Entering Link 1 = /opt/gaussian/g16_legacy/l1.exe PID=     16281.
  
 Copyright (c) 1988,1990,1992,1993,1995,1998,2003,2009,2016,
            Gaussian, Inc.  All Rights Reserved.
  
 This is part of the Gaussian(R) 16 program.  It is based on
 the Gaussian(R) 09 system (copyright 2009, Gaussian, Inc.),
 the Gaussian(R) 03 system (copyright 2003, Gaussian, Inc.),
 the Gaussian(R) 98 system (copyright 1998, Gaussian, Inc.),
 the Gaussian(R) 94 system (copyright 1995, Gaussian, Inc.),
 the Gaussian 92(TM) system (copyright 1992, Gaussian, Inc.),
 the Gaussian 90(TM) system (copyright 1990, Gaussian, Inc.),
 the Gaussian 88(TM) system (copyright 1988, Gaussian, Inc.),
 the Gaussian 86(TM) system (copyright 1986, Carnegie Mellon
 University), and the Gaussian 82(TM) system (copyright 1983,
 Carnegie Mellon University). Gaussian is a federally registered
 trademark of Gaussian, Inc.
  
 This software contains proprietary and confidential information,
 including trade secrets, belonging to Gaussian, Inc.
  
 This software is provided under written license and may be
 used, copied, transmitted, or stored only in accord with that
 written license.
  
 The following legend is applicable only to US Government
 contracts under FAR:
  
                    RESTRICTED RIGHTS LEGEND
  
 Use, reproduction and disclosure by the US Government is
 subject to restrictions as set forth in subparagraphs (a)
 and (c) of the Commercial Computer Software - Restricted
 Rights clause in FAR 52.227-19.
  
 Gaussian, Inc.
 340 Quinnipiac St., Bldg. 40, Wallingford CT 06492
  
  
 ---------------------------------------------------------------
 Warning -- This program may not be used in any manner that
 competes with the business of Gaussian, Inc. or will provide
 assistance to any competitor of Gaussian, Inc.  The licensee
 of this program is prohibited from giving any competitor of
 Gaussian, Inc. access to this program.  By using this program,
 the user acknowledges that Gaussian, Inc. is engaged in the
 business of creating and licensing software in the field of
 computational chemistry and represents and warrants to the
 licensee that it is not a competitor of Gaussian, Inc. and that
 it will not use this program in any manner prohibited above.
 ---------------------------------------------------------------
  

 Cite this work as:
 Gaussian 16, Revision A.03,
 M. J. Frisch, G. W. Trucks, H. B. Schlegel, G. E. Scuseria, 
 M. A. Robb, J. R. Cheeseman, G. Scalmani, V. Barone, 
 G. A. Petersson, H. Nakatsuji, X. Li, M. Caricato, A. V. Marenich, 
 J. Bloino, B. G. Janesko, R. Gomperts, B. Mennucci, H. P. Hratchian, 
 J. V. Ortiz, A. F. Izmaylov, J. L. Sonnenberg, D. Williams-Young, 
 F. Ding, F. Lipparini, F. Egidi, J. Goings, B. Peng, A. Petrone, 
 T. Henderson, D. Ranasinghe, V. G. Zakrzewski, J. Gao, N. Rega, 
 G. Zheng, W. Liang, M. Hada, M. Ehara, K. Toyota, R. Fukuda, 
 J. Hasegawa, M. Ishida, T. Nakajima, Y. Honda, O. Kitao, H. Nakai, 
 T. Vreven, K. Throssell, J. A. Montgomery, Jr., J. E. Peralta, 
 F. Ogliaro, M. J. Bearpark, J. J. Heyd, E. N. Brothers, K. N. Kudin, 
 V. N. Staroverov, T. A. Keith, R. Kobayashi, J. Normand, 
 K. Raghavachari, A. P. Rendell, J. C. Burant, S. S. Iyengar, 
 J. Tomasi, M. Cossi, J. M. Millam, M. Klene, C. Adamo, R. Cammi, 
 J. W. Ochterski, R. L. Martin, K. Morokuma, O. Farkas, 
 J. B. Foresman, and D. J. Fox, Gaussian, Inc., Wallingford CT, 2016.
 
 ******************************************
 Gaussian 16:  EM64L-G16RevA.03 25-Dec-2016
                26-Jul-2021 
 ******************************************
 %chk=02-IsoP_419_gaussian.chk
 %nproc=1
 Will use up to    1 processors via shared memory.
 %mem=1000Mb
 ----------
 #p opt pm3
 ----------
 1/18=20,19=15,26=1,38=1/1,3;
 2/9=110,12=2,17=6,18=5,40=1/2;
 3/5=2,25=1,41=800000,71=1/1,2,3;
 4/35=1/1;
 5/5=2,35=1,38=5/2;
 6/7=2,8=2,9=2,10=2,28=1/1;
 7//1,2,3,16;
 1/18=20,19=15,26=1/3(2);
 2/9=110/2;
 99//99;
 2/9=110/2;
 3/5=2,25=1,41=800000,71=1,135=20/1,2,3;
 4/5=5,16=3,35=1/1;
 5/5=2,35=1,38=5/2;
 7//1,2,3,16;
 1/18=20,19=15,26=1/3(-5);
 2/9=110/2;
 6/7=2,8=2,9=2,10=2,19=2,28=1/1;
 99/9=1/99;
 Leave Link    1 at Mon Jul 26 11:28:51 2021, MaxMem=   131072000 cpu:               0.0 elap:               0.1
 (Enter /opt/gaussian/g16_legacy/l101.exe)
 -------------------------------------------------
 Conformer number 419. Energy MM = 23.692 kcal/mol
 -------------------------------------------------
 Symbolic Z-matrix:
 Charge =  0 Multiplicity = 1
 C                    -1.5243    0.5026    1.2324 
 H                    -2.1939    1.2352    1.7028 
 H                    -1.8956   -0.4699    1.5744 
 C                    -1.6545    0.6449   -0.2721 
 C                    -1.7021    2.0656   -0.776 
 H                    -1.8276    2.1165   -1.8628 
 H                    -2.5426    2.6009   -0.3223 
 H                    -0.7774    2.5947   -0.5273 
 C                    -1.7539   -0.3841   -1.1373 
 H                    -1.8607   -0.1611   -2.1985 
 C                    -1.7114   -1.8481   -0.8343 
 H                    -0.9174   -2.3194   -1.4227 
 H                    -1.52     -2.0754    0.2159 
 H                    -2.6626   -2.3108   -1.1148 
 C                     2.7298   -1.6131    0.3878 
 H                     3.773    -1.4007    0.6438 
 H                     2.3979   -2.4484    1.0134 
 H                     2.6867   -1.9424   -0.6555 
 C                     1.8846   -0.3811    0.5814 
 C                     2.3045    0.7916   -0.2604 
 H                     1.6471    1.6575   -0.1635 
 H                     3.3149    1.1099    0.0165 
 H                     2.3101    0.5103   -1.319 
 C                     0.8423   -0.3932    1.4351 
 H                     0.6299   -1.3159    1.9752 
 C                    -0.1021    0.7326    1.7661 
 H                     0.2792    1.7036    1.4383 
 H                    -0.154     0.7978    2.8608 
 
 ITRead=  0  0  0  0  0  0  0  0  0  0  0  0  0  0  0  0  0  0  0  0
 ITRead=  0  0  0  0  0  0  0  0
 MicOpt= -1 -1 -1 -1 -1 -1 -1 -1 -1 -1 -1 -1 -1 -1 -1 -1 -1 -1 -1 -1
 MicOpt= -1 -1 -1 -1 -1 -1 -1 -1
 NAtoms=     28 NQM=       28 NQMF=       0 NMMI=      0 NMMIF=      0
                NMic=       0 NMicF=      0.
                    Isotopes and Nuclear Properties:
 (Nuclear quadrupole moments (NQMom) in fm**2, nuclear magnetic moments (NMagM)
  in nuclear magnetons)

  Atom         1           2           3           4           5           6           7           8           9          10
 IAtWgt=          12           1           1          12          12           1           1           1          12           1
 AtmWgt=  12.0000000   1.0078250   1.0078250  12.0000000  12.0000000   1.0078250   1.0078250   1.0078250  12.0000000   1.0078250
 NucSpn=           0           1           1           0           0           1           1           1           0           1
 AtZEff=  -0.0000000  -0.0000000  -0.0000000  -0.0000000  -0.0000000  -0.0000000  -0.0000000  -0.0000000  -0.0000000  -0.0000000
 NQMom=    0.0000000   0.0000000   0.0000000   0.0000000   0.0000000   0.0000000   0.0000000   0.0000000   0.0000000   0.0000000
 NMagM=    0.0000000   2.7928460   2.7928460   0.0000000   0.0000000   2.7928460   2.7928460   2.7928460   0.0000000   2.7928460
 AtZNuc=   6.0000000   1.0000000   1.0000000   6.0000000   6.0000000   1.0000000   1.0000000   1.0000000   6.0000000   1.0000000

  Atom        11          12          13          14          15          16          17          18          19          20
 IAtWgt=          12           1           1           1          12           1           1           1          12          12
 AtmWgt=  12.0000000   1.0078250   1.0078250   1.0078250  12.0000000   1.0078250   1.0078250   1.0078250  12.0000000  12.0000000
 NucSpn=           0           1           1           1           0           1           1           1           0           0
 AtZEff=  -0.0000000  -0.0000000  -0.0000000  -0.0000000  -0.0000000  -0.0000000  -0.0000000  -0.0000000  -0.0000000  -0.0000000
 NQMom=    0.0000000   0.0000000   0.0000000   0.0000000   0.0000000   0.0000000   0.0000000   0.0000000   0.0000000   0.0000000
 NMagM=    0.0000000   2.7928460   2.7928460   2.7928460   0.0000000   2.7928460   2.7928460   2.7928460   0.0000000   0.0000000
 AtZNuc=   6.0000000   1.0000000   1.0000000   1.0000000   6.0000000   1.0000000   1.0000000   1.0000000   6.0000000   6.0000000

  Atom        21          22          23          24          25          26          27          28
 IAtWgt=           1           1           1          12           1          12           1           1
 AtmWgt=   1.0078250   1.0078250   1.0078250  12.0000000   1.0078250  12.0000000   1.0078250   1.0078250
 NucSpn=           1           1           1           0           1           0           1           1
 AtZEff=  -0.0000000  -0.0000000  -0.0000000  -0.0000000  -0.0000000  -0.0000000  -0.0000000  -0.0000000
 NQMom=    0.0000000   0.0000000   0.0000000   0.0000000   0.0000000   0.0000000   0.0000000   0.0000000
 NMagM=    2.7928460   2.7928460   2.7928460   0.0000000   2.7928460   0.0000000   2.7928460   2.7928460
 AtZNuc=   1.0000000   1.0000000   1.0000000   6.0000000   1.0000000   6.0000000   1.0000000   1.0000000
 Leave Link  101 at Mon Jul 26 11:28:51 2021, MaxMem=   131072000 cpu:               0.1 elap:               0.1
 (Enter /opt/gaussian/g16_legacy/l103.exe)

 GradGradGradGradGradGradGradGradGradGradGradGradGradGradGradGradGradGrad
 Berny optimization.
 Initialization pass.
                           ----------------------------
                           !    Initial Parameters    !
                           ! (Angstroms and Degrees)  !
 --------------------------                            --------------------------
 ! Name  Definition              Value          Derivative Info.                !
 --------------------------------------------------------------------------------
 ! R1    R(1,2)                  1.0983         estimate D2E/DX2                !
 ! R2    R(1,3)                  1.0957         estimate D2E/DX2                !
 ! R3    R(1,4)                  1.5168         estimate D2E/DX2                !
 ! R4    R(1,26)                 1.5364         estimate D2E/DX2                !
 ! R5    R(4,5)                  1.5082         estimate D2E/DX2                !
 ! R6    R(4,9)                  1.3481         estimate D2E/DX2                !
 ! R7    R(5,6)                  1.0952         estimate D2E/DX2                !
 ! R8    R(5,7)                  1.0949         estimate D2E/DX2                !
 ! R9    R(5,8)                  1.094          estimate D2E/DX2                !
 ! R10   R(9,10)                 1.0896         estimate D2E/DX2                !
 ! R11   R(9,11)                 1.4956         estimate D2E/DX2                !
 ! R12   R(11,12)                1.0949         estimate D2E/DX2                !
 ! R13   R(11,13)                1.0914         estimate D2E/DX2                !
 ! R14   R(11,14)                1.0943         estimate D2E/DX2                !
 ! R15   R(15,16)                1.095          estimate D2E/DX2                !
 ! R16   R(15,17)                1.0951         estimate D2E/DX2                !
 ! R17   R(15,18)                1.0949         estimate D2E/DX2                !
 ! R18   R(15,19)                1.5065         estimate D2E/DX2                !
 ! R19   R(19,20)                1.5034         estimate D2E/DX2                !
 ! R20   R(19,24)                1.3473         estimate D2E/DX2                !
 ! R21   R(20,21)                1.0915         estimate D2E/DX2                !
 ! R22   R(20,22)                1.0949         estimate D2E/DX2                !
 ! R23   R(20,23)                1.0954         estimate D2E/DX2                !
 ! R24   R(24,25)                1.09           estimate D2E/DX2                !
 ! R25   R(24,26)                1.5063         estimate D2E/DX2                !
 ! R26   R(26,27)                1.0935         estimate D2E/DX2                !
 ! R27   R(26,28)                1.0979         estimate D2E/DX2                !
 ! A1    A(2,1,3)              104.5803         estimate D2E/DX2                !
 ! A2    A(2,1,4)              108.0533         estimate D2E/DX2                !
 ! A3    A(2,1,26)             108.4042         estimate D2E/DX2                !
 ! A4    A(3,1,4)              111.3319         estimate D2E/DX2                !
 ! A5    A(3,1,26)             109.7631         estimate D2E/DX2                !
 ! A6    A(4,1,26)             114.2033         estimate D2E/DX2                !
 ! A7    A(1,4,5)              114.9916         estimate D2E/DX2                !
 ! A8    A(1,4,9)              124.842          estimate D2E/DX2                !
 ! A9    A(5,4,9)              120.151          estimate D2E/DX2                !
 ! A10   A(4,5,6)              112.2684         estimate D2E/DX2                !
 ! A11   A(4,5,7)              110.2627         estimate D2E/DX2                !
 ! A12   A(4,5,8)              110.668          estimate D2E/DX2                !
 ! A13   A(6,5,7)              107.488          estimate D2E/DX2                !
 ! A14   A(6,5,8)              107.4553         estimate D2E/DX2                !
 ! A15   A(7,5,8)              108.5537         estimate D2E/DX2                !
 ! A16   A(4,9,10)             118.4293         estimate D2E/DX2                !
 ! A17   A(4,9,11)             127.9557         estimate D2E/DX2                !
 ! A18   A(10,9,11)            113.6044         estimate D2E/DX2                !
 ! A19   A(9,11,12)            109.4562         estimate D2E/DX2                !
 ! A20   A(9,11,13)            113.8144         estimate D2E/DX2                !
 ! A21   A(9,11,14)            109.7092         estimate D2E/DX2                !
 ! A22   A(12,11,13)           107.4748         estimate D2E/DX2                !
 ! A23   A(12,11,14)           108.0947         estimate D2E/DX2                !
 ! A24   A(13,11,14)           108.1203         estimate D2E/DX2                !
 ! A25   A(16,15,17)           107.6468         estimate D2E/DX2                !
 ! A26   A(16,15,18)           108.5802         estimate D2E/DX2                !
 ! A27   A(16,15,19)           110.2324         estimate D2E/DX2                !
 ! A28   A(17,15,18)           107.6388         estimate D2E/DX2                !
 ! A29   A(17,15,19)           112.3531         estimate D2E/DX2                !
 ! A30   A(18,15,19)           110.2625         estimate D2E/DX2                !
 ! A31   A(15,19,20)           114.1571         estimate D2E/DX2                !
 ! A32   A(15,19,24)           120.5362         estimate D2E/DX2                !
 ! A33   A(20,19,24)           125.3            estimate D2E/DX2                !
 ! A34   A(19,20,21)           113.6337         estimate D2E/DX2                !
 ! A35   A(19,20,22)           110.0532         estimate D2E/DX2                !
 ! A36   A(19,20,23)           110.0142         estimate D2E/DX2                !
 ! A37   A(21,20,22)           107.6212         estimate D2E/DX2                !
 ! A38   A(21,20,23)           107.0145         estimate D2E/DX2                !
 ! A39   A(22,20,23)           108.3212         estimate D2E/DX2                !
 ! A40   A(19,24,25)           118.1829         estimate D2E/DX2                !
 ! A41   A(19,24,26)           128.1373         estimate D2E/DX2                !
 ! A42   A(25,24,26)           113.679          estimate D2E/DX2                !
 ! A43   A(1,26,24)            113.0892         estimate D2E/DX2                !
 ! A44   A(1,26,27)            110.5849         estimate D2E/DX2                !
 ! A45   A(1,26,28)            108.1501         estimate D2E/DX2                !
 ! A46   A(24,26,27)           112.2833         estimate D2E/DX2                !
 ! A47   A(24,26,28)           107.046          estimate D2E/DX2                !
 ! A48   A(27,26,28)           105.2281         estimate D2E/DX2                !
 ! D1    D(2,1,4,5)             42.4949         estimate D2E/DX2                !
 ! D2    D(2,1,4,9)           -136.0729         estimate D2E/DX2                !
 ! D3    D(3,1,4,5)            156.7963         estimate D2E/DX2                !
 ! D4    D(3,1,4,9)            -21.7716         estimate D2E/DX2                !
 ! D5    D(26,1,4,5)           -78.2075         estimate D2E/DX2                !
 ! D6    D(26,1,4,9)           103.2246         estimate D2E/DX2                !
 ! D7    D(2,1,26,24)          167.1722         estimate D2E/DX2                !
 ! D8    D(2,1,26,27)          -65.9268         estimate D2E/DX2                !
 ! D9    D(2,1,26,28)           48.8061         estimate D2E/DX2                !
 ! D10   D(3,1,26,24)           53.5027         estimate D2E/DX2                !
 ! D11   D(3,1,26,27)         -179.5964         estimate D2E/DX2                !
 ! D12   D(3,1,26,28)          -64.8635         estimate D2E/DX2                !
 ! D13   D(4,1,26,24)          -72.3208         estimate D2E/DX2                !
 ! D14   D(4,1,26,27)           54.5802         estimate D2E/DX2                !
 ! D15   D(4,1,26,28)          169.3131         estimate D2E/DX2                !
 ! D16   D(1,4,5,6)           -178.22           estimate D2E/DX2                !
 ! D17   D(1,4,5,7)            -58.3975         estimate D2E/DX2                !
 ! D18   D(1,4,5,8)             61.7202         estimate D2E/DX2                !
 ! D19   D(9,4,5,6)              0.4207         estimate D2E/DX2                !
 ! D20   D(9,4,5,7)            120.2432         estimate D2E/DX2                !
 ! D21   D(9,4,5,8)           -119.6391         estimate D2E/DX2                !
 ! D22   D(1,4,9,10)           178.9477         estimate D2E/DX2                !
 ! D23   D(1,4,9,11)            -2.3215         estimate D2E/DX2                !
 ! D24   D(5,4,9,10)             0.4489         estimate D2E/DX2                !
 ! D25   D(5,4,9,11)           179.1797         estimate D2E/DX2                !
 ! D26   D(4,9,11,12)         -123.9451         estimate D2E/DX2                !
 ! D27   D(4,9,11,13)           -3.6786         estimate D2E/DX2                !
 ! D28   D(4,9,11,14)          117.6014         estimate D2E/DX2                !
 ! D29   D(10,9,11,12)          54.8368         estimate D2E/DX2                !
 ! D30   D(10,9,11,13)         175.1033         estimate D2E/DX2                !
 ! D31   D(10,9,11,14)         -63.6167         estimate D2E/DX2                !
 ! D32   D(16,15,19,20)         60.0027         estimate D2E/DX2                !
 ! D33   D(16,15,19,24)       -120.8918         estimate D2E/DX2                !
 ! D34   D(17,15,19,20)       -179.9381         estimate D2E/DX2                !
 ! D35   D(17,15,19,24)         -0.8326         estimate D2E/DX2                !
 ! D36   D(18,15,19,20)        -59.8684         estimate D2E/DX2                !
 ! D37   D(18,15,19,24)        119.2371         estimate D2E/DX2                !
 ! D38   D(15,19,20,21)        176.138          estimate D2E/DX2                !
 ! D39   D(15,19,20,22)        -63.0986         estimate D2E/DX2                !
 ! D40   D(15,19,20,23)         56.1828         estimate D2E/DX2                !
 ! D41   D(24,19,20,21)         -2.918          estimate D2E/DX2                !
 ! D42   D(24,19,20,22)        117.8454         estimate D2E/DX2                !
 ! D43   D(24,19,20,23)       -122.8732         estimate D2E/DX2                !
 ! D44   D(15,19,24,25)         -0.15           estimate D2E/DX2                !
 ! D45   D(15,19,24,26)        179.4999         estimate D2E/DX2                !
 ! D46   D(20,19,24,25)        178.8499         estimate D2E/DX2                !
 ! D47   D(20,19,24,26)         -1.5001         estimate D2E/DX2                !
 ! D48   D(19,24,26,1)         110.6513         estimate D2E/DX2                !
 ! D49   D(19,24,26,27)        -15.3468         estimate D2E/DX2                !
 ! D50   D(19,24,26,28)       -130.3425         estimate D2E/DX2                !
 ! D51   D(25,24,26,1)         -69.6856         estimate D2E/DX2                !
 ! D52   D(25,24,26,27)        164.3163         estimate D2E/DX2                !
 ! D53   D(25,24,26,28)         49.3206         estimate D2E/DX2                !
 --------------------------------------------------------------------------------
 Trust Radius=3.00D-01 FncErr=1.00D-07 GrdErr=1.00D-07 EigMax=2.50D+02 EigMin=1.00D-04
 Number of steps in this run=    138 maximum allowed number of steps=    168.
 GradGradGradGradGradGradGradGradGradGradGradGradGradGradGradGradGradGrad

 Leave Link  103 at Mon Jul 26 11:28:51 2021, MaxMem=   131072000 cpu:               0.0 elap:               0.1
 (Enter /opt/gaussian/g16_legacy/l202.exe)
                          Input orientation:                          
 ---------------------------------------------------------------------
 Center     Atomic      Atomic             Coordinates (Angstroms)
 Number     Number       Type             X           Y           Z
 ---------------------------------------------------------------------
      1          6           0       -1.524300    0.502600    1.232400
      2          1           0       -2.193900    1.235200    1.702800
      3          1           0       -1.895600   -0.469900    1.574400
      4          6           0       -1.654500    0.644900   -0.272100
      5          6           0       -1.702100    2.065600   -0.776000
      6          1           0       -1.827600    2.116500   -1.862800
      7          1           0       -2.542600    2.600900   -0.322300
      8          1           0       -0.777400    2.594700   -0.527300
      9          6           0       -1.753900   -0.384100   -1.137300
     10          1           0       -1.860700   -0.161100   -2.198500
     11          6           0       -1.711400   -1.848100   -0.834300
     12          1           0       -0.917400   -2.319400   -1.422700
     13          1           0       -1.520000   -2.075400    0.215900
     14          1           0       -2.662600   -2.310800   -1.114800
     15          6           0        2.729800   -1.613100    0.387800
     16          1           0        3.773000   -1.400700    0.643800
     17          1           0        2.397900   -2.448400    1.013400
     18          1           0        2.686700   -1.942400   -0.655500
     19          6           0        1.884600   -0.381100    0.581400
     20          6           0        2.304500    0.791600   -0.260400
     21          1           0        1.647100    1.657500   -0.163500
     22          1           0        3.314900    1.109900    0.016500
     23          1           0        2.310100    0.510300   -1.319000
     24          6           0        0.842300   -0.393200    1.435100
     25          1           0        0.629900   -1.315900    1.975200
     26          6           0       -0.102100    0.732600    1.766100
     27          1           0        0.279200    1.703600    1.438300
     28          1           0       -0.154000    0.797800    2.860800
 ---------------------------------------------------------------------
                    Distance matrix (angstroms):
                    1          2          3          4          5
     1  C    0.000000
     2  H    1.098337   0.000000
     3  H    1.095712   1.735752   0.000000
     4  C    1.516813   2.130642   2.170362   0.000000
     5  C    2.551128   2.660053   3.462742   1.508168   0.000000
     6  H    3.503845   3.691120   4.302143   2.173913   1.095206
     7  H    2.803014   2.467338   3.666864   2.148762   1.094911
     8  H    2.833952   2.971205   3.880630   2.153172   1.094015
     9  C    2.540557   3.298773   2.716755   1.348070   2.476742
    10  H    3.510661   4.157020   3.785677   2.098374   2.647046
    11  C    3.135609   4.021992   2.781223   2.556239   3.914145
    12  H    3.921934   4.902386   3.655152   3.264088   4.501355
    13  H    2.771168   3.691217   2.136405   2.766996   4.262031
    14  H    3.836704   4.553314   3.347984   3.234590   4.493353
    15  C    4.825650   5.838224   4.910117   4.975552   5.876138
    16  H    5.659540   6.608581   5.819401   5.872062   6.633837
    17  H    4.913249   5.926956   4.760601   5.257657   6.355167
    18  H    5.222520   6.283230   5.304544   5.068248   5.944758
    19  C    3.581246   4.528148   3.909456   3.782376   4.548988
    20  C    4.119670   4.928137   4.753810   3.961734   4.235772
    21  H    3.652411   4.291235   4.482951   3.455100   3.429117
    22  H    5.026438   5.762481   5.663226   4.999445   5.168337
    23  H    4.605684   5.471999   5.198122   4.102703   4.337229
    24  C    2.538571   3.455700   2.742514   3.197842   4.172365
    25  H    2.915351   3.815254   2.693419   3.756804   4.943872
    26  C    1.536356   2.152264   2.167809   2.563571   3.286208
    27  H    2.176559   2.530925   3.077723   2.790253   2.993279
    28  H    2.148616   2.386100   2.508996   3.477059   4.150933
                    6          7          8          9         10
     6  H    0.000000
     7  H    1.766072   0.000000
     8  H    1.764980   1.777075   0.000000
     9  C    2.604761   3.193196   3.193572   0.000000
    10  H    2.302445   3.407896   3.400130   1.089624   0.000000
    11  C    4.097483   4.554848   4.550283   1.495631   2.174696
    12  H    4.549655   5.297311   4.996971   2.127574   2.479907
    13  H    4.689098   4.816965   4.786819   2.178613   3.099992
    14  H    4.567025   4.976671   5.288011   2.130356   2.537451
    15  C    6.304364   6.786769   5.553687   4.892845   5.465340
    16  H    7.072514   7.538764   6.167725   5.895118   6.430696
    17  H    6.853152   7.189441   6.155416   5.111192   5.803767
    18  H    6.189600   6.935285   5.709790   4.730683   5.121789
    19  C    5.098289   5.413788   4.143772   4.024006   4.669424
    20  C    4.625721   5.174145   3.580574   4.315302   4.691776
    21  H    3.895105   4.297535   2.624670   4.084510   4.444456
    22  H    5.566895   6.053773   4.387171   5.408884   5.771352
    23  H    4.471706   5.377055   3.808434   4.165221   4.315075
    24  C    4.929818   4.848777   3.924537   3.654802   4.534659
    25  H    5.705341   5.539367   4.851370   4.029691   4.995640
    26  C    4.249876   3.715912   3.030368   3.522101   4.428253
    27  H    3.937811   3.444911   2.402924   3.889178   4.613306
    28  H    5.181921   4.369062   3.885447   4.465576   5.424835
                   11         12         13         14         15
    11  C    0.000000
    12  H    1.094885   0.000000
    13  H    1.091430   1.762859   0.000000
    14  H    1.094328   1.772174   1.769664   0.000000
    15  C    4.612267   4.132655   4.278326   5.641150   0.000000
    16  H    5.697683   5.207138   5.352959   6.733343   1.094950
    17  H    4.545404   4.116119   4.015604   5.491523   1.095107
    18  H    4.402743   3.704087   4.298064   5.381606   1.094884
    19  C    4.133704   3.952800   3.820411   5.222821   1.506542
    20  C    4.839920   4.627084   4.803473   5.918359   2.526584
    21  H    4.900890   4.896731   4.910093   5.935140   3.488982
    22  H    5.893837   5.634160   5.793285   6.979365   2.809793
    23  H    4.687158   4.293566   4.869438   5.720843   2.756473
    24  C    3.713259   3.869601   3.145903   4.739568   2.479445
    25  H    3.695702   3.866119   2.879939   4.623687   2.649103
    26  C    4.001492   4.488637   3.506911   4.911011   3.927044
    27  H    4.662807   5.079538   4.360301   5.593560   4.255525
    28  H    4.804170   5.352391   4.137237   5.635766   4.499386
                   16         17         18         19         20
    16  H    0.000000
    17  H    1.767818   0.000000
    18  H    1.778108   1.767673   0.000000
    19  C    2.146982   2.173437   2.147311   0.000000
    20  C    2.789310   3.482656   2.788716   1.503386   0.000000
    21  H    3.811007   4.336728   3.779168   2.183385   1.091489
    22  H    2.628017   3.807387   3.187908   2.141950   1.094941
    23  H    3.105573   3.768515   2.568618   2.141767   1.095352
    24  C    3.198471   2.611813   3.189426   1.347345   2.533081
    25  H    3.414512   2.309424   3.397574   2.095424   3.499107
    26  C    4.563653   4.115254   4.560392   2.567259   3.146730
    27  H    4.740733   4.680655   4.844932   2.767230   2.796277
    28  H    5.016953   4.523593   5.286080   3.277401   3.973179
                   21         22         23         24         25
    21  H    0.000000
    22  H    1.764603   0.000000
    23  H    1.758072   1.775585   0.000000
    24  C    2.721874   3.222652   3.248972   0.000000
    25  H    3.801295   4.114637   4.124298   1.090045   0.000000
    26  C    2.763783   3.857375   3.922495   1.506280   2.185383
    27  H    2.106903   3.404331   3.626461   2.171097   3.086848
    28  H    3.623456   4.496745   4.860573   2.108012   2.422089
                   26         27         28
    26  C    0.000000
    27  H    1.093473   0.000000
    28  H    1.097867   1.741161   0.000000
 Stoichiometry    C10H18
 Framework group  C1[X(C10H18)]
 Deg. of freedom    78
 Full point group                 C1      NOp   1
 Largest Abelian subgroup         C1      NOp   1
 Largest concise Abelian subgroup C1      NOp   1
                         Standard orientation:                         
 ---------------------------------------------------------------------
 Center     Atomic      Atomic             Coordinates (Angstroms)
 Number     Number       Type             X           Y           Z
 ---------------------------------------------------------------------
      1          6           0        1.311025   -0.534245    1.234810
      2          1           0        2.036248   -1.246151    1.651443
      3          1           0        1.339635    0.320973    1.919184
      4          6           0        1.779241   -0.145104   -0.154458
      5          6           0        2.295248   -1.285567   -0.995677
      6          1           0        2.649722   -0.950680   -1.976327
      7          1           0        3.134136   -1.778108   -0.493184
      8          1           0        1.508388   -2.026196   -1.166527
      9          6           0        1.784105    1.111854   -0.641620
     10          1           0        2.160228    1.275498   -1.651091
     11          6           0        1.302897    2.359737    0.027810
     12          1           0        0.552086    2.845997   -0.603545
     13          1           0        0.848061    2.188298    1.005027
     14          1           0        2.138478    3.054212    0.158430
     15          6           0       -3.078913    0.929159   -0.134057
     16          1           0       -4.061102    0.457815   -0.243859
     17          1           0       -3.110128    1.556420    0.763065
     18          1           0       -2.909552    1.586749   -0.992930
     19          6           0       -2.001912   -0.121760   -0.061194
     20          6           0       -1.922093   -1.006058   -1.274377
     21          1           0       -1.097297   -1.720199   -1.241802
     22          1           0       -2.850194   -1.576404   -1.384969
     23          1           0       -1.783138   -0.396734   -2.173939
     24          6           0       -1.196259   -0.202800    1.015697
     25          1           0       -1.345363    0.511886    1.825135
     26          6           0       -0.081287   -1.182705    1.271626
     27          1           0       -0.122635   -2.043049    0.597992
     28          1           0       -0.239880   -1.595401    2.276535
 ---------------------------------------------------------------------
 Rotational constants (GHZ):           1.5853460           0.8275264           0.7367983
 Leave Link  202 at Mon Jul 26 11:28:51 2021, MaxMem=   131072000 cpu:               0.0 elap:               0.1
 (Enter /opt/gaussian/g16_legacy/l301.exe)
 Standard basis: VSTO-6G (5D, 7F)
 Ernie: Thresh=  0.10000D-02 Tol=  0.10000D-05 Strict=F.
  NNHCO=     0 NNPyr=     0 NCTC=     0               EPep=         0.000000000
    EC=       258.110964958  ECS=         3.522579356   EG=         0.892503151
   EHC=         0.000000000  EAt=       -49.524085099  AtH=         4.217842293
 EPDDG=         0.000000000  ECC=       262.526047465 EAtT=        53.741927392
 There are    58 symmetry adapted cartesian basis functions of A   symmetry.
 There are    58 symmetry adapted basis functions of A   symmetry.
    58 basis functions,   348 primitive gaussians,    58 cartesian basis functions
    29 alpha electrons       29 beta electrons
       nuclear repulsion energy       316.2679748573 Hartrees.
 IExCor=    0 DFT=F Ex=HF Corr=None ExCW=0 ScaHFX=  1.000000
 ScaDFX=  1.000000  1.000000  1.000000  1.000000 ScalE2=  1.000000  1.000000
 IRadAn=      5 IRanWt=     -1 IRanGd=            0 ICorTp=0 IEmpDi=  4
 Integral buffers will be    131072 words long.
 Regular integral format.
 Two-electron integral symmetry is turned off.
 Leave Link  301 at Mon Jul 26 11:28:52 2021, MaxMem=   131072000 cpu:               0.0 elap:               0.1
 (Enter /opt/gaussian/g16_legacy/l302.exe)
 Do NDO integrals.
 NPDir=0 NMtPBC=     1 NCelOv=     1 NCel=       1 NClECP=     1 NCelD=      1
         NCelK=      1 NCelE2=     1 NClLst=     1 CellRange=     0.0.
 One-electron integrals computed using PRISM.
 NBasis=    58 RedAO= F EigKep=  0.00D+00  NBF=    58
 NBsUse=    58 1.00D-04 EigRej=  0.00D+00 NBFU=    58
 Leave Link  302 at Mon Jul 26 11:28:52 2021, MaxMem=   131072000 cpu:               0.0 elap:               0.2
 (Enter /opt/gaussian/g16_legacy/l303.exe)
 DipDrv:  MaxL=1.
 Leave Link  303 at Mon Jul 26 11:28:52 2021, MaxMem=   131072000 cpu:               0.0 elap:               0.0
 (Enter /opt/gaussian/g16_legacy/l401.exe)
 Simple Huckel Guess.
 JPrj=0 DoOrth=F DoCkMO=F.
 Leave Link  401 at Mon Jul 26 11:28:52 2021, MaxMem=   131072000 cpu:               0.0 elap:               0.2
 (Enter /opt/gaussian/g16_legacy/l502.exe)
 Keep J ints in memory in canonical form, NReq=866866.
 FoFCou: FMM=F IPFlag=           0 FMFlag=           0 FMFlg1=           0
         NFxFlg=           0 DoJE=F BraDBF=F KetDBF=F FulRan=T
         wScrn=  0.000000 ICntrl=       600 IOpCl=  2 I1Cent=           0 NGrid=           0
         NMat0=    1 NMatS0=    118 NMatT0=    0 NMatD0=    1 NMtDS0=    0 NMtDT0=    0
 Symmetry not used in FoFCou.
 Two-electron integral symmetry not used.
 Closed shell SCF:
 Using DIIS extrapolation, IDIIS=  1040.
 Overlap will be assumed to be unity.
 NGot=   131072000 LenX=   130997697 LenY=   130993892
 Requested convergence on RMS density matrix=1.00D-08 within 128 cycles.
 Requested convergence on MAX density matrix=1.00D-06.
 Requested convergence on             energy=1.00D-06.
 No special actions if energy rises.

 Cycle   1  Pass 1  IDiag  1:
 E= 0.216929532351230    
 DIIS: error= 2.74D-02 at cycle   1 NSaved=   1.
 NSaved= 1 IEnMin= 1 EnMin= 0.216929532351230     IErMin= 1 ErrMin= 2.74D-02
 ErrMax= 2.74D-02  0.00D+00 EMaxC= 1.00D-01 BMatC= 9.41D-02 BMatP= 9.41D-02
 IDIUse=3 WtCom= 7.26D-01 WtEn= 2.74D-01
 Coeff-Com:  0.100D+01
 Coeff-En:   0.100D+01
 Coeff:      0.100D+01
 GapD=    2.000 DampG=2.000 DampE=0.500 DampFc=1.0000 IDamp=-1.
 RMSDP=7.14D-03 MaxDP=8.49D-02              OVMax= 0.00D+00

 Cycle   2  Pass 1  IDiag  1:
 E=-0.190587442938295E-02 Delta-E=       -0.218835406781 Rises=F Damp=F
 DIIS: error= 7.90D-03 at cycle   2 NSaved=   2.
 NSaved= 2 IEnMin= 2 EnMin=-0.190587442938295E-02 IErMin= 2 ErrMin= 7.90D-03
 ErrMax= 7.90D-03  0.00D+00 EMaxC= 1.00D-01 BMatC= 6.03D-03 BMatP= 9.41D-02
 IDIUse=3 WtCom= 9.21D-01 WtEn= 7.90D-02
 Coeff-Com: -0.317D+00 0.132D+01
 Coeff-En:   0.000D+00 0.100D+01
 Coeff:     -0.292D+00 0.129D+01
 RMSDP=2.59D-03 MaxDP=2.86D-02 DE=-2.19D-01 OVMax= 0.00D+00

 Cycle   3  Pass 1  IDiag  3:
 E=-0.192031962332067E-01 Delta-E=       -0.017297321804 Rises=F Damp=F
 DIIS: error= 9.25D-04 at cycle   3 NSaved=   3.
 NSaved= 3 IEnMin= 3 EnMin=-0.192031962332067E-01 IErMin= 3 ErrMin= 9.25D-04
 ErrMax= 9.25D-04  0.00D+00 EMaxC= 1.00D-01 BMatC= 7.36D-05 BMatP= 6.03D-03
 IDIUse=3 WtCom= 9.91D-01 WtEn= 9.25D-03
 Coeff-Com:  0.109D+00-0.508D+00 0.140D+01
 Coeff-En:   0.000D+00 0.000D+00 0.100D+01
 Coeff:      0.108D+00-0.504D+00 0.140D+01
 Gap=     0.378 Goal=   None    Shift=    0.000
 RMSDP=4.33D-04 MaxDP=4.09D-03 DE=-1.73D-02 OVMax= 4.78D-03

 Cycle   4  Pass 1  IDiag  3:
 E=-0.195444161043383E-01 Delta-E=       -0.000341219871 Rises=F Damp=F
 DIIS: error= 1.79D-04 at cycle   4 NSaved=   4.
 NSaved= 4 IEnMin= 4 EnMin=-0.195444161043383E-01 IErMin= 4 ErrMin= 1.79D-04
 ErrMax= 1.79D-04  0.00D+00 EMaxC= 1.00D-01 BMatC= 3.20D-06 BMatP= 7.36D-05
 IDIUse=3 WtCom= 9.98D-01 WtEn= 1.79D-03
 Coeff-Com: -0.488D-01 0.234D+00-0.756D+00 0.157D+01
 Coeff-En:   0.000D+00 0.000D+00 0.000D+00 0.100D+01
 Coeff:     -0.487D-01 0.234D+00-0.755D+00 0.157D+01
 Gap=     0.378 Goal=   None    Shift=    0.000
 RMSDP=1.11D-04 MaxDP=1.15D-03 DE=-3.41D-04 OVMax= 7.90D-04

 Cycle   5  Pass 1  IDiag  3:
 E=-0.195628216026762E-01 Delta-E=       -0.000018405498 Rises=F Damp=F
 DIIS: error= 4.23D-05 at cycle   5 NSaved=   5.
 NSaved= 5 IEnMin= 5 EnMin=-0.195628216026762E-01 IErMin= 5 ErrMin= 4.23D-05
 ErrMax= 4.23D-05  0.00D+00 EMaxC= 1.00D-01 BMatC= 1.71D-07 BMatP= 3.20D-06
 IDIUse=1 WtCom= 1.00D+00 WtEn= 0.00D+00
 Coeff-Com:  0.142D-01-0.682D-01 0.228D+00-0.613D+00 0.144D+01
 Coeff:      0.142D-01-0.682D-01 0.228D+00-0.613D+00 0.144D+01
 Gap=     0.378 Goal=   None    Shift=    0.000
 RMSDP=2.61D-05 MaxDP=2.81D-04 DE=-1.84D-05 OVMax= 2.31D-04

 Cycle   6  Pass 1  IDiag  3:
 E=-0.195638819411670E-01 Delta-E=       -0.000001060338 Rises=F Damp=F
 DIIS: error= 1.44D-05 at cycle   6 NSaved=   6.
 NSaved= 6 IEnMin= 6 EnMin=-0.195638819411670E-01 IErMin= 6 ErrMin= 1.44D-05
 ErrMax= 1.44D-05  0.00D+00 EMaxC= 1.00D-01 BMatC= 1.41D-08 BMatP= 1.71D-07
 IDIUse=1 WtCom= 1.00D+00 WtEn= 0.00D+00
 Coeff-Com: -0.455D-02 0.218D-01-0.715D-01 0.196D+00-0.678D+00 0.154D+01
 Coeff:     -0.455D-02 0.218D-01-0.715D-01 0.196D+00-0.678D+00 0.154D+01
 Gap=     0.378 Goal=   None    Shift=    0.000
 RMSDP=8.67D-06 MaxDP=1.02D-04 DE=-1.06D-06 OVMax= 9.33D-05

 Cycle   7  Pass 1  IDiag  3:
 E=-0.195639787649498E-01 Delta-E=       -0.000000096824 Rises=F Damp=F
 DIIS: error= 3.24D-06 at cycle   7 NSaved=   7.
 NSaved= 7 IEnMin= 7 EnMin=-0.195639787649498E-01 IErMin= 7 ErrMin= 3.24D-06
 ErrMax= 3.24D-06  0.00D+00 EMaxC= 1.00D-01 BMatC= 1.01D-09 BMatP= 1.41D-08
 IDIUse=1 WtCom= 1.00D+00 WtEn= 0.00D+00
 Coeff-Com:  0.906D-03-0.428D-02 0.137D-01-0.394D-01 0.213D+00-0.758D+00
 Coeff-Com:  0.157D+01
 Coeff:      0.906D-03-0.428D-02 0.137D-01-0.394D-01 0.213D+00-0.758D+00
 Coeff:      0.157D+01
 Gap=     0.378 Goal=   None    Shift=    0.000
 RMSDP=2.40D-06 MaxDP=2.93D-05 DE=-9.68D-08 OVMax= 3.07D-05

 Cycle   8  Pass 1  IDiag  3:
 E=-0.195639855215859E-01 Delta-E=       -0.000000006757 Rises=F Damp=F
 DIIS: error= 8.84D-07 at cycle   8 NSaved=   8.
 NSaved= 8 IEnMin= 8 EnMin=-0.195639855215859E-01 IErMin= 8 ErrMin= 8.84D-07
 ErrMax= 8.84D-07  0.00D+00 EMaxC= 1.00D-01 BMatC= 4.45D-11 BMatP= 1.01D-09
 IDIUse=1 WtCom= 1.00D+00 WtEn= 0.00D+00
 Coeff-Com: -0.622D-04 0.276D-03-0.724D-03 0.236D-02-0.370D-01 0.186D+00
 Coeff-Com: -0.551D+00 0.140D+01
 Coeff:     -0.622D-04 0.276D-03-0.724D-03 0.236D-02-0.370D-01 0.186D+00
 Coeff:     -0.551D+00 0.140D+01
 Gap=     0.378 Goal=   None    Shift=    0.000
 RMSDP=4.50D-07 MaxDP=6.66D-06 DE=-6.76D-09 OVMax= 6.51D-06

 Cycle   9  Pass 1  IDiag  3:
 E=-0.195639858058030E-01 Delta-E=       -0.000000000284 Rises=F Damp=F
 DIIS: error= 2.85D-07 at cycle   9 NSaved=   9.
 NSaved= 9 IEnMin= 9 EnMin=-0.195639858058030E-01 IErMin= 9 ErrMin= 2.85D-07
 ErrMax= 2.85D-07  0.00D+00 EMaxC= 1.00D-01 BMatC= 4.10D-12 BMatP= 4.45D-11
 IDIUse=1 WtCom= 1.00D+00 WtEn= 0.00D+00
 Coeff-Com:  0.206D-04-0.862D-04 0.162D-03-0.457D-03 0.156D-01-0.861D-01
 Coeff-Com:  0.272D+00-0.884D+00 0.168D+01
 Coeff:      0.206D-04-0.862D-04 0.162D-03-0.457D-03 0.156D-01-0.861D-01
 Coeff:      0.272D+00-0.884D+00 0.168D+01
 Gap=     0.378 Goal=   None    Shift=    0.000
 RMSDP=1.56D-07 MaxDP=2.21D-06 DE=-2.84D-10 OVMax= 2.12D-06

 Cycle  10  Pass 1  IDiag  3:
 E=-0.195639858349068E-01 Delta-E=       -0.000000000029 Rises=F Damp=F
 DIIS: error= 5.68D-08 at cycle  10 NSaved=  10.
 NSaved=10 IEnMin=10 EnMin=-0.195639858349068E-01 IErMin=10 ErrMin= 5.68D-08
 ErrMax= 5.68D-08  0.00D+00 EMaxC= 1.00D-01 BMatC= 2.18D-13 BMatP= 4.10D-12
 IDIUse=1 WtCom= 1.00D+00 WtEn= 0.00D+00
 Coeff-Com: -0.234D-05 0.694D-05 0.184D-04-0.396D-04-0.457D-02 0.272D-01
 Coeff-Com: -0.884D-01 0.313D+00-0.783D+00 0.154D+01
 Coeff:     -0.234D-05 0.694D-05 0.184D-04-0.396D-04-0.457D-02 0.272D-01
 Coeff:     -0.884D-01 0.313D+00-0.783D+00 0.154D+01
 Gap=     0.378 Goal=   None    Shift=    0.000
 RMSDP=3.59D-08 MaxDP=4.50D-07 DE=-2.91D-11 OVMax= 4.25D-07

 Cycle  11  Pass 1  IDiag  3:
 E=-0.195639858370669E-01 Delta-E=       -0.000000000002 Rises=F Damp=F
 DIIS: error= 1.15D-08 at cycle  11 NSaved=  11.
 NSaved=11 IEnMin=11 EnMin=-0.195639858370669E-01 IErMin=11 ErrMin= 1.15D-08
 ErrMax= 1.15D-08  0.00D+00 EMaxC= 1.00D-01 BMatC= 7.88D-15 BMatP= 2.18D-13
 IDIUse=1 WtCom= 1.00D+00 WtEn= 0.00D+00
 Coeff-Com:  0.286D-07 0.128D-05-0.180D-04 0.473D-04 0.141D-02-0.879D-02
 Coeff-Com:  0.290D-01-0.105D+00 0.281D+00-0.672D+00 0.147D+01
 Coeff:      0.286D-07 0.128D-05-0.180D-04 0.473D-04 0.141D-02-0.879D-02
 Coeff:      0.290D-01-0.105D+00 0.281D+00-0.672D+00 0.147D+01
 Gap=     0.378 Goal=   None    Shift=    0.000
 RMSDP=5.80D-09 MaxDP=7.19D-08 DE=-2.16D-12 OVMax= 4.40D-08

 Cycle  12  Pass 2  IDiag  1:
 SCF Done:  E(RPM3) = -0.195639858371E-01 A.U. after   12 cycles
            NFock= 11  Conv=0.58D-08     -V/T= 0.9998
 KE=-7.900381987420D+01 PE=-5.149390991764D+02 EE= 2.776553802074D+02
 Leave Link  502 at Mon Jul 26 11:28:53 2021, MaxMem=   131072000 cpu:               0.1 elap:               0.2
 (Enter /opt/gaussian/g16_legacy/l601.exe)
 Copying SCF densities to generalized density rwf, IOpCl= 0 IROHF=0.

 **********************************************************************

            Population analysis using the SCF density.

 **********************************************************************

 Orbital symmetries:
       Occupied  (A) (A) (A) (A) (A) (A) (A) (A) (A) (A) (A) (A)
                 (A) (A) (A) (A) (A) (A) (A) (A) (A) (A) (A) (A)
                 (A) (A) (A) (A) (A)
       Virtual   (A) (A) (A) (A) (A) (A) (A) (A) (A) (A) (A) (A)
                 (A) (A) (A) (A) (A) (A) (A) (A) (A) (A) (A) (A)
                 (A) (A) (A) (A) (A)
 The electronic state is 1-A.
 Alpha  occ. eigenvalues --   -1.45799  -1.33603  -1.18105  -1.11004  -1.01093
 Alpha  occ. eigenvalues --   -0.94784  -0.86720  -0.80222  -0.66297  -0.65275
 Alpha  occ. eigenvalues --   -0.60165  -0.58347  -0.56826  -0.55940  -0.55654
 Alpha  occ. eigenvalues --   -0.54014  -0.51350  -0.50106  -0.48485  -0.48359
 Alpha  occ. eigenvalues --   -0.48052  -0.47117  -0.46782  -0.46542  -0.45842
 Alpha  occ. eigenvalues --   -0.43861  -0.42065  -0.35142  -0.34057
 Alpha virt. eigenvalues --    0.03739   0.04418   0.12169   0.12336   0.13349
 Alpha virt. eigenvalues --    0.13664   0.14023   0.14429   0.15132   0.15245
 Alpha virt. eigenvalues --    0.15578   0.15900   0.15958   0.16170   0.16331
 Alpha virt. eigenvalues --    0.16634   0.16715   0.16958   0.17022   0.17197
 Alpha virt. eigenvalues --    0.17315   0.17343   0.17676   0.18030   0.18116
 Alpha virt. eigenvalues --    0.20898   0.21357   0.22476   0.22778
          Condensed to atoms (all electrons):
               1          2          3          4          5          6
     1  C    4.045177   0.000000   0.000000   0.000000   0.000000   0.000000
     2  H    0.000000   0.952641   0.000000   0.000000   0.000000   0.000000
     3  H    0.000000   0.000000   0.945541   0.000000   0.000000   0.000000
     4  C    0.000000   0.000000   0.000000   4.124418   0.000000   0.000000
     5  C    0.000000   0.000000   0.000000   0.000000   4.067905   0.000000
     6  H    0.000000   0.000000   0.000000   0.000000   0.000000   0.960246
     7  H    0.000000   0.000000   0.000000   0.000000   0.000000   0.000000
     8  H    0.000000   0.000000   0.000000   0.000000   0.000000   0.000000
     9  C    0.000000   0.000000   0.000000   0.000000   0.000000   0.000000
    10  H    0.000000   0.000000   0.000000   0.000000   0.000000   0.000000
    11  C    0.000000   0.000000   0.000000   0.000000   0.000000   0.000000
    12  H    0.000000   0.000000   0.000000   0.000000   0.000000   0.000000
    13  H    0.000000   0.000000   0.000000   0.000000   0.000000   0.000000
    14  H    0.000000   0.000000   0.000000   0.000000   0.000000   0.000000
    15  C    0.000000   0.000000   0.000000   0.000000   0.000000   0.000000
    16  H    0.000000   0.000000   0.000000   0.000000   0.000000   0.000000
    17  H    0.000000   0.000000   0.000000   0.000000   0.000000   0.000000
    18  H    0.000000   0.000000   0.000000   0.000000   0.000000   0.000000
    19  C    0.000000   0.000000   0.000000   0.000000   0.000000   0.000000
    20  C    0.000000   0.000000   0.000000   0.000000   0.000000   0.000000
    21  H    0.000000   0.000000   0.000000   0.000000   0.000000   0.000000
    22  H    0.000000   0.000000   0.000000   0.000000   0.000000   0.000000
    23  H    0.000000   0.000000   0.000000   0.000000   0.000000   0.000000
    24  C    0.000000   0.000000   0.000000   0.000000   0.000000   0.000000
    25  H    0.000000   0.000000   0.000000   0.000000   0.000000   0.000000
    26  C    0.000000   0.000000   0.000000   0.000000   0.000000   0.000000
    27  H    0.000000   0.000000   0.000000   0.000000   0.000000   0.000000
    28  H    0.000000   0.000000   0.000000   0.000000   0.000000   0.000000
               7          8          9         10         11         12
     1  C    0.000000   0.000000   0.000000   0.000000   0.000000   0.000000
     2  H    0.000000   0.000000   0.000000   0.000000   0.000000   0.000000
     3  H    0.000000   0.000000   0.000000   0.000000   0.000000   0.000000
     4  C    0.000000   0.000000   0.000000   0.000000   0.000000   0.000000
     5  C    0.000000   0.000000   0.000000   0.000000   0.000000   0.000000
     6  H    0.000000   0.000000   0.000000   0.000000   0.000000   0.000000
     7  H    0.957330   0.000000   0.000000   0.000000   0.000000   0.000000
     8  H    0.000000   0.954884   0.000000   0.000000   0.000000   0.000000
     9  C    0.000000   0.000000   4.146642   0.000000   0.000000   0.000000
    10  H    0.000000   0.000000   0.000000   0.907906   0.000000   0.000000
    11  C    0.000000   0.000000   0.000000   0.000000   4.068285   0.000000
    12  H    0.000000   0.000000   0.000000   0.000000   0.000000   0.956921
    13  H    0.000000   0.000000   0.000000   0.000000   0.000000   0.000000
    14  H    0.000000   0.000000   0.000000   0.000000   0.000000   0.000000
    15  C    0.000000   0.000000   0.000000   0.000000   0.000000   0.000000
    16  H    0.000000   0.000000   0.000000   0.000000   0.000000   0.000000
    17  H    0.000000   0.000000   0.000000   0.000000   0.000000   0.000000
    18  H    0.000000   0.000000   0.000000   0.000000   0.000000   0.000000
    19  C    0.000000   0.000000   0.000000   0.000000   0.000000   0.000000
    20  C    0.000000   0.000000   0.000000   0.000000   0.000000   0.000000
    21  H    0.000000   0.000000   0.000000   0.000000   0.000000   0.000000
    22  H    0.000000   0.000000   0.000000   0.000000   0.000000   0.000000
    23  H    0.000000   0.000000   0.000000   0.000000   0.000000   0.000000
    24  C    0.000000   0.000000   0.000000   0.000000   0.000000   0.000000
    25  H    0.000000   0.000000   0.000000   0.000000   0.000000   0.000000
    26  C    0.000000   0.000000   0.000000   0.000000   0.000000   0.000000
    27  H    0.000000   0.000000   0.000000   0.000000   0.000000   0.000000
    28  H    0.000000   0.000000   0.000000   0.000000   0.000000   0.000000
              13         14         15         16         17         18
     1  C    0.000000   0.000000   0.000000   0.000000   0.000000   0.000000
     2  H    0.000000   0.000000   0.000000   0.000000   0.000000   0.000000
     3  H    0.000000   0.000000   0.000000   0.000000   0.000000   0.000000
     4  C    0.000000   0.000000   0.000000   0.000000   0.000000   0.000000
     5  C    0.000000   0.000000   0.000000   0.000000   0.000000   0.000000
     6  H    0.000000   0.000000   0.000000   0.000000   0.000000   0.000000
     7  H    0.000000   0.000000   0.000000   0.000000   0.000000   0.000000
     8  H    0.000000   0.000000   0.000000   0.000000   0.000000   0.000000
     9  C    0.000000   0.000000   0.000000   0.000000   0.000000   0.000000
    10  H    0.000000   0.000000   0.000000   0.000000   0.000000   0.000000
    11  C    0.000000   0.000000   0.000000   0.000000   0.000000   0.000000
    12  H    0.000000   0.000000   0.000000   0.000000   0.000000   0.000000
    13  H    0.954768   0.000000   0.000000   0.000000   0.000000   0.000000
    14  H    0.000000   0.958210   0.000000   0.000000   0.000000   0.000000
    15  C    0.000000   0.000000   4.068813   0.000000   0.000000   0.000000
    16  H    0.000000   0.000000   0.000000   0.956668   0.000000   0.000000
    17  H    0.000000   0.000000   0.000000   0.000000   0.959919   0.000000
    18  H    0.000000   0.000000   0.000000   0.000000   0.000000   0.955579
    19  C    0.000000   0.000000   0.000000   0.000000   0.000000   0.000000
    20  C    0.000000   0.000000   0.000000   0.000000   0.000000   0.000000
    21  H    0.000000   0.000000   0.000000   0.000000   0.000000   0.000000
    22  H    0.000000   0.000000   0.000000   0.000000   0.000000   0.000000
    23  H    0.000000   0.000000   0.000000   0.000000   0.000000   0.000000
    24  C    0.000000   0.000000   0.000000   0.000000   0.000000   0.000000
    25  H    0.000000   0.000000   0.000000   0.000000   0.000000   0.000000
    26  C    0.000000   0.000000   0.000000   0.000000   0.000000   0.000000
    27  H    0.000000   0.000000   0.000000   0.000000   0.000000   0.000000
    28  H    0.000000   0.000000   0.000000   0.000000   0.000000   0.000000
              19         20         21         22         23         24
     1  C    0.000000   0.000000   0.000000   0.000000   0.000000   0.000000
     2  H    0.000000   0.000000   0.000000   0.000000   0.000000   0.000000
     3  H    0.000000   0.000000   0.000000   0.000000   0.000000   0.000000
     4  C    0.000000   0.000000   0.000000   0.000000   0.000000   0.000000
     5  C    0.000000   0.000000   0.000000   0.000000   0.000000   0.000000
     6  H    0.000000   0.000000   0.000000   0.000000   0.000000   0.000000
     7  H    0.000000   0.000000   0.000000   0.000000   0.000000   0.000000
     8  H    0.000000   0.000000   0.000000   0.000000   0.000000   0.000000
     9  C    0.000000   0.000000   0.000000   0.000000   0.000000   0.000000
    10  H    0.000000   0.000000   0.000000   0.000000   0.000000   0.000000
    11  C    0.000000   0.000000   0.000000   0.000000   0.000000   0.000000
    12  H    0.000000   0.000000   0.000000   0.000000   0.000000   0.000000
    13  H    0.000000   0.000000   0.000000   0.000000   0.000000   0.000000
    14  H    0.000000   0.000000   0.000000   0.000000   0.000000   0.000000
    15  C    0.000000   0.000000   0.000000   0.000000   0.000000   0.000000
    16  H    0.000000   0.000000   0.000000   0.000000   0.000000   0.000000
    17  H    0.000000   0.000000   0.000000   0.000000   0.000000   0.000000
    18  H    0.000000   0.000000   0.000000   0.000000   0.000000   0.000000
    19  C    4.116787   0.000000   0.000000   0.000000   0.000000   0.000000
    20  C    0.000000   4.067400   0.000000   0.000000   0.000000   0.000000
    21  H    0.000000   0.000000   0.953843   0.000000   0.000000   0.000000
    22  H    0.000000   0.000000   0.000000   0.957270   0.000000   0.000000
    23  H    0.000000   0.000000   0.000000   0.000000   0.955221   0.000000
    24  C    0.000000   0.000000   0.000000   0.000000   0.000000   4.154854
    25  H    0.000000   0.000000   0.000000   0.000000   0.000000   0.000000
    26  C    0.000000   0.000000   0.000000   0.000000   0.000000   0.000000
    27  H    0.000000   0.000000   0.000000   0.000000   0.000000   0.000000
    28  H    0.000000   0.000000   0.000000   0.000000   0.000000   0.000000
              25         26         27         28
     1  C    0.000000   0.000000   0.000000   0.000000
     2  H    0.000000   0.000000   0.000000   0.000000
     3  H    0.000000   0.000000   0.000000   0.000000
     4  C    0.000000   0.000000   0.000000   0.000000
     5  C    0.000000   0.000000   0.000000   0.000000
     6  H    0.000000   0.000000   0.000000   0.000000
     7  H    0.000000   0.000000   0.000000   0.000000
     8  H    0.000000   0.000000   0.000000   0.000000
     9  C    0.000000   0.000000   0.000000   0.000000
    10  H    0.000000   0.000000   0.000000   0.000000
    11  C    0.000000   0.000000   0.000000   0.000000
    12  H    0.000000   0.000000   0.000000   0.000000
    13  H    0.000000   0.000000   0.000000   0.000000
    14  H    0.000000   0.000000   0.000000   0.000000
    15  C    0.000000   0.000000   0.000000   0.000000
    16  H    0.000000   0.000000   0.000000   0.000000
    17  H    0.000000   0.000000   0.000000   0.000000
    18  H    0.000000   0.000000   0.000000   0.000000
    19  C    0.000000   0.000000   0.000000   0.000000
    20  C    0.000000   0.000000   0.000000   0.000000
    21  H    0.000000   0.000000   0.000000   0.000000
    22  H    0.000000   0.000000   0.000000   0.000000
    23  H    0.000000   0.000000   0.000000   0.000000
    24  C    0.000000   0.000000   0.000000   0.000000
    25  H    0.906318   0.000000   0.000000   0.000000
    26  C    0.000000   4.048338   0.000000   0.000000
    27  H    0.000000   0.000000   0.944412   0.000000
    28  H    0.000000   0.000000   0.000000   0.953705
 Mulliken charges:
               1
     1  C   -0.045177
     2  H    0.047359
     3  H    0.054459
     4  C   -0.124418
     5  C   -0.067905
     6  H    0.039754
     7  H    0.042670
     8  H    0.045116
     9  C   -0.146642
    10  H    0.092094
    11  C   -0.068285
    12  H    0.043079
    13  H    0.045232
    14  H    0.041790
    15  C   -0.068813
    16  H    0.043332
    17  H    0.040081
    18  H    0.044421
    19  C   -0.116787
    20  C   -0.067400
    21  H    0.046157
    22  H    0.042730
    23  H    0.044779
    24  C   -0.154854
    25  H    0.093682
    26  C   -0.048338
    27  H    0.055588
    28  H    0.046295
 Sum of Mulliken charges =  -0.00000
 Mulliken charges with hydrogens summed into heavy atoms:
               1
     1  C    0.056641
     4  C   -0.124418
     5  C    0.059636
     9  C   -0.054549
    11  C    0.061817
    15  C    0.059021
    19  C   -0.116787
    20  C    0.066266
    24  C   -0.061172
    26  C    0.053544
 Charge=             -0.0000 electrons
 Dipole moment (field-independent basis, Debye):
    X=             -0.1310    Y=             -0.0637    Z=             -0.1287  Tot=              0.1943
 N-N= 3.162679748573D+02 E-N=-5.149390993802D+02  KE=-7.900381987420D+01
 Leave Link  601 at Mon Jul 26 11:28:53 2021, MaxMem=   131072000 cpu:               0.0 elap:               0.5
 (Enter /opt/gaussian/g16_legacy/l701.exe)
 ... and contract with generalized density number  0.
 Compute integral first derivatives.
 Leave Link  701 at Mon Jul 26 11:28:54 2021, MaxMem=   131072000 cpu:               0.0 elap:               0.2
 (Enter /opt/gaussian/g16_legacy/l702.exe)
 L702 exits ... SP integral derivatives will be done elsewhere.
 Leave Link  702 at Mon Jul 26 11:28:54 2021, MaxMem=   131072000 cpu:               0.0 elap:               0.0
 (Enter /opt/gaussian/g16_legacy/l703.exe)
 Integral derivatives from FoFJK, PRISM(SPDF).
 Compute integral first derivatives, UseDBF=F ICtDFT=           0.
 Calling FoFJK, ICntrl=      2127 FMM=F ISym2X=0 I1Cent= 0 IOpClX= 0 NMat=1 NMatS=1 NMatT=0.
 FoFJK:  IHMeth= 9 ICntrl=    2127 DoSepK=F KAlg= 0 I1Cent=           0 FoldK=F
 IRaf=         0 NMat=       1 IRICut=       1 DoRegI=T DoRafI=F ISym2E= 0 IDoP0=3 IntGTp=3.
 FoFCou: FMM=F IPFlag=           0 FMFlag=      100000 FMFlg1=         800
         NFxFlg=           0 DoJE=F BraDBF=F KetDBF=F FulRan=T
         wScrn=  0.000000 ICntrl=      2127 IOpCl=  0 I1Cent=           0 NGrid=           0
         NMat0=    1 NMatS0=      1 NMatT0=    0 NMatD0=    1 NMtDS0=    0 NMtDT0=    0
 Symmetry not used in FoFCou.
 Leave Link  703 at Mon Jul 26 11:28:54 2021, MaxMem=   131072000 cpu:               0.0 elap:               0.1
 (Enter /opt/gaussian/g16_legacy/l716.exe)
 Dipole        =-5.15269158D-02-2.50582613D-02-5.06155824D-02
 ***** Axes restored to original set *****
 -------------------------------------------------------------------
 Center     Atomic                   Forces (Hartrees/Bohr)
 Number     Number              X              Y              Z
 -------------------------------------------------------------------
      1        6           0.009882852    0.003512792   -0.016258613
      2        1          -0.004121163    0.005967153    0.002122457
      3        1          -0.000908200   -0.009646039   -0.000698705
      4        6           0.001559375   -0.003026139    0.003986525
      5        6          -0.000886255   -0.016001518    0.003837593
      6        1          -0.000159036   -0.000033100   -0.001998036
      7        1          -0.000882200    0.001565907    0.001268611
      8        1           0.002556007    0.001255349    0.001691596
      9        6           0.003495903   -0.000584646    0.014663063
     10        1          -0.001164725    0.001453455   -0.005487052
     11        6          -0.000583154    0.017372028   -0.002275335
     12        1           0.001454122   -0.001399905   -0.001165326
     13        1           0.000423327    0.000749958    0.005055507
     14        1          -0.001923853   -0.001405720   -0.000396927
     15        6          -0.008966871    0.011826116    0.003542626
     16        1           0.001885288    0.000201652   -0.000502112
     17        1          -0.000527268   -0.001457432    0.001041181
     18        1           0.000711664   -0.000299409   -0.001813758
     19        6          -0.003349750    0.003732193   -0.000973402
     20        6          -0.003615362   -0.013120886    0.009023988
     21        1          -0.004842602    0.002986932    0.002856384
     22        1           0.002146234    0.000320307    0.000025787
     23        1           0.000850819   -0.000861133   -0.001906504
     24        6           0.002074257    0.011212450   -0.008110915
     25        1          -0.001812116   -0.004902006    0.002290741
     26        6           0.002337270   -0.017006080   -0.010636224
     27        1           0.004382077    0.007261605   -0.006691044
     28        1          -0.000016639    0.000326117    0.007507896
 -------------------------------------------------------------------
 Cartesian Forces:  Max     0.017372028 RMS     0.005821935
 Leave Link  716 at Mon Jul 26 11:28:54 2021, MaxMem=   131072000 cpu:               0.0 elap:               0.1
 (Enter /opt/gaussian/g16_legacy/l103.exe)

 GradGradGradGradGradGradGradGradGradGradGradGradGradGradGradGradGradGrad
 Berny optimization.
 FormGI is forming the generalized inverse of G from B-inverse, IUseBI=4.
 Internal  Forces:  Max     0.019363485 RMS     0.005257887
 Search for a local minimum.
 Step number   1 out of a maximum of  138
 All quantities printed in internal units (Hartrees-Bohrs-Radians)
 RMS Force = .52579D-02 SwitMx=.10000D-02 MixMth= 1
 Mixed Optimization -- RFO/linear search
 Second derivative matrix not updated -- first step.
 ITU=  0
     Eigenvalues ---    0.00285   0.00544   0.00658   0.00679   0.00683
     Eigenvalues ---    0.00721   0.00824   0.01204   0.01291   0.01563
     Eigenvalues ---    0.01644   0.02776   0.02785   0.03766   0.03891
     Eigenvalues ---    0.05331   0.05422   0.06962   0.07009   0.07075
     Eigenvalues ---    0.07090   0.07245   0.07299   0.07354   0.07512
     Eigenvalues ---    0.09492   0.09628   0.12964   0.13052   0.15998
     Eigenvalues ---    0.16000   0.16000   0.16000   0.16000   0.16000
     Eigenvalues ---    0.16000   0.16000   0.16000   0.16000   0.16000
     Eigenvalues ---    0.16000   0.16000   0.16000   0.21897   0.21900
     Eigenvalues ---    0.22000   0.22001   0.24991   0.24995   0.24996
     Eigenvalues ---    0.24998   0.28844   0.30676   0.31535   0.31701
     Eigenvalues ---    0.31727   0.32025   0.32840   0.33867   0.33919
     Eigenvalues ---    0.34161   0.34201   0.34218   0.34229   0.34247
     Eigenvalues ---    0.34248   0.34251   0.34254   0.34254   0.34317
     Eigenvalues ---    0.34353   0.34414   0.34641   0.34648   0.34807
     Eigenvalues ---    0.34856   0.55434   0.55590
 RFO step:  Lambda=-1.15249033D-02 EMin= 2.85032635D-03
 Linear search not attempted -- first point.
 Iteration  1 RMS(Cart)=  0.15122748 RMS(Int)=  0.00357581
 Iteration  2 RMS(Cart)=  0.00669424 RMS(Int)=  0.00014641
 Iteration  3 RMS(Cart)=  0.00001568 RMS(Int)=  0.00014618
 Iteration  4 RMS(Cart)=  0.00000000 RMS(Int)=  0.00014618
 ITry= 1 IFail=0 DXMaxC= 4.77D-01 DCOld= 1.00D+10 DXMaxT= 3.00D-01 DXLimC= 3.00D+00 Rises=F
 Variable       Old X    -DE/DX   Delta X   Delta X   Delta X     New X
                                 (Linear)    (Quad)   (Total)
    R1        2.07556   0.00740   0.00000   0.02114   0.02114   2.09669
    R2        2.07059   0.00865   0.00000   0.02450   0.02450   2.09509
    R3        2.86636  -0.01936   0.00000  -0.06084  -0.06084   2.80552
    R4        2.90329  -0.00957   0.00000  -0.03190  -0.03190   2.87139
    R5        2.85002  -0.01407   0.00000  -0.04305  -0.04305   2.80698
    R6        2.54748  -0.01915   0.00000  -0.03384  -0.03384   2.51364
    R7        2.06964   0.00200   0.00000   0.00565   0.00565   2.07529
    R8        2.06908   0.00197   0.00000   0.00556   0.00556   2.07464
    R9        2.06739   0.00315   0.00000   0.00888   0.00888   2.07627
   R10        2.05909   0.00576   0.00000   0.01598   0.01598   2.07507
   R11        2.82633  -0.01476   0.00000  -0.04343  -0.04343   2.78290
   R12        2.06903   0.00228   0.00000   0.00645   0.00645   2.07548
   R13        2.06250   0.00478   0.00000   0.01336   0.01336   2.07586
   R14        2.06798   0.00237   0.00000   0.00668   0.00668   2.07466
   R15        2.06916   0.00172   0.00000   0.00485   0.00485   2.07401
   R16        2.06945   0.00187   0.00000   0.00527   0.00527   2.07473
   R17        2.06903   0.00179   0.00000   0.00506   0.00506   2.07409
   R18        2.84695  -0.01256   0.00000  -0.03823  -0.03823   2.80872
   R19        2.84099  -0.01545   0.00000  -0.04657  -0.04657   2.79442
   R20        2.54611  -0.01928   0.00000  -0.03397  -0.03397   2.51214
   R21        2.06261   0.00554   0.00000   0.01548   0.01548   2.07809
   R22        2.06914   0.00208   0.00000   0.00588   0.00588   2.07502
   R23        2.06991   0.00207   0.00000   0.00585   0.00585   2.07576
   R24        2.05989   0.00564   0.00000   0.01568   0.01568   2.07556
   R25        2.84646  -0.01809   0.00000  -0.05502  -0.05502   2.79143
   R26        2.06636   0.00998   0.00000   0.02807   0.02807   2.09443
   R27        2.07467   0.00751   0.00000   0.02140   0.02140   2.09607
    A1        1.82527   0.00089   0.00000   0.02777   0.02770   1.85297
    A2        1.88589   0.00167   0.00000   0.00980   0.01001   1.89590
    A3        1.89201   0.00151   0.00000   0.01322   0.01323   1.90524
    A4        1.94311  -0.00028   0.00000  -0.01851  -0.01886   1.92425
    A5        1.91573   0.00207   0.00000   0.00368   0.00296   1.91869
    A6        1.99322  -0.00527   0.00000  -0.02968  -0.02996   1.96327
    A7        2.00698   0.00243   0.00000   0.00936   0.00933   2.01632
    A8        2.17890  -0.00614   0.00000  -0.02338  -0.02341   2.15549
    A9        2.09703   0.00372   0.00000   0.01433   0.01430   2.11133
   A10        1.95945   0.00017   0.00000   0.00280   0.00279   1.96225
   A11        1.92445   0.00072   0.00000   0.00403   0.00401   1.92846
   A12        1.93152  -0.00119   0.00000  -0.00859  -0.00859   1.92293
   A13        1.87602   0.00018   0.00000   0.00424   0.00421   1.88023
   A14        1.87545   0.00063   0.00000   0.00400   0.00400   1.87945
   A15        1.89462  -0.00050   0.00000  -0.00647  -0.00648   1.88814
   A16        2.06698   0.00515   0.00000   0.02190   0.02186   2.08884
   A17        2.23325  -0.01087   0.00000  -0.04690  -0.04695   2.18630
   A18        1.98277   0.00573   0.00000   0.02531   0.02526   2.00804
   A19        1.91037   0.00118   0.00000   0.00831   0.00830   1.91868
   A20        1.98644  -0.00299   0.00000  -0.01887  -0.01886   1.96758
   A21        1.91479   0.00101   0.00000   0.00585   0.00582   1.92060
   A22        1.87579   0.00086   0.00000   0.00496   0.00499   1.88078
   A23        1.88661  -0.00043   0.00000   0.00046   0.00041   1.88702
   A24        1.88706   0.00045   0.00000  -0.00007  -0.00009   1.88697
   A25        1.87879   0.00006   0.00000   0.00209   0.00208   1.88088
   A26        1.89508  -0.00091   0.00000  -0.00839  -0.00839   1.88669
   A27        1.92392   0.00037   0.00000   0.00150   0.00149   1.92541
   A28        1.87865   0.00009   0.00000   0.00177   0.00176   1.88041
   A29        1.96093   0.00020   0.00000   0.00270   0.00270   1.96363
   A30        1.92444   0.00015   0.00000  -0.00004  -0.00004   1.92440
   A31        1.99242   0.00404   0.00000   0.01550   0.01548   2.00789
   A32        2.10375   0.00348   0.00000   0.01338   0.01336   2.11711
   A33        2.18690  -0.00752   0.00000  -0.02869  -0.02872   2.15818
   A34        1.98328  -0.00451   0.00000  -0.02694  -0.02695   1.95633
   A35        1.92079   0.00088   0.00000   0.00483   0.00481   1.92560
   A36        1.92011   0.00072   0.00000   0.00511   0.00511   1.92522
   A37        1.87835   0.00155   0.00000   0.00729   0.00726   1.88561
   A38        1.86775   0.00205   0.00000   0.01239   0.01240   1.88015
   A39        1.89056  -0.00052   0.00000  -0.00166  -0.00168   1.88888
   A40        2.06268   0.00700   0.00000   0.03065   0.03064   2.09332
   A41        2.23642  -0.01346   0.00000  -0.05812  -0.05813   2.17829
   A42        1.98407   0.00646   0.00000   0.02750   0.02750   2.01157
   A43        1.97378  -0.00397   0.00000  -0.02267  -0.02303   1.95074
   A44        1.93007   0.00115   0.00000  -0.00500  -0.00576   1.92431
   A45        1.88758   0.00154   0.00000   0.01836   0.01847   1.90604
   A46        1.95971  -0.00053   0.00000  -0.02196  -0.02247   1.93724
   A47        1.86830   0.00172   0.00000   0.01708   0.01732   1.88563
   A48        1.83658   0.00056   0.00000   0.02016   0.02025   1.85682
    D1        0.74168  -0.00009   0.00000   0.02460   0.02457   0.76625
    D2       -2.37492  -0.00049   0.00000   0.01004   0.01015  -2.36477
    D3        2.73661   0.00179   0.00000   0.05366   0.05331   2.78992
    D4       -0.37999   0.00139   0.00000   0.03909   0.03888  -0.34110
    D5       -1.36498   0.00019   0.00000   0.01993   0.02010  -1.34488
    D6        1.80161  -0.00021   0.00000   0.00537   0.00567   1.80728
    D7        2.91771   0.00230   0.00000   0.03766   0.03765   2.95536
    D8       -1.15064  -0.00062   0.00000  -0.01382  -0.01368  -1.16432
    D9        0.85183   0.00153   0.00000   0.01795   0.01809   0.86992
   D10        0.93380  -0.00065   0.00000  -0.00423  -0.00436   0.92943
   D11       -3.13455  -0.00357   0.00000  -0.05571  -0.05570   3.09294
   D12       -1.13208  -0.00142   0.00000  -0.02394  -0.02393  -1.15601
   D13       -1.26224   0.00208   0.00000   0.04033   0.04017  -1.22206
   D14        0.95260  -0.00084   0.00000  -0.01115  -0.01116   0.94145
   D15        2.95507   0.00131   0.00000   0.02062   0.02061   2.97568
   D16       -3.11053  -0.00036   0.00000  -0.00946  -0.00957  -3.12010
   D17       -1.01923   0.00047   0.00000   0.00051   0.00042  -1.01881
   D18        1.07722  -0.00045   0.00000  -0.01049  -0.01059   1.06664
   D19        0.00734  -0.00013   0.00000   0.00378   0.00387   0.01121
   D20        2.09864   0.00070   0.00000   0.01375   0.01386   2.11250
   D21       -2.08810  -0.00022   0.00000   0.00275   0.00286  -2.08524
   D22        3.12323   0.00017   0.00000   0.00400   0.00395   3.12718
   D23       -0.04052   0.00068   0.00000   0.02269   0.02266  -0.01786
   D24        0.00783  -0.00022   0.00000  -0.01116  -0.01112  -0.00329
   D25        3.12727   0.00028   0.00000   0.00753   0.00758   3.13486
   D26       -2.16325   0.00011   0.00000  -0.00159  -0.00155  -2.16481
   D27       -0.06420   0.00007   0.00000  -0.00186  -0.00187  -0.06608
   D28        2.05253  -0.00067   0.00000  -0.01062  -0.01064   2.04190
   D29        0.95708   0.00061   0.00000   0.01637   0.01640   0.97348
   D30        3.05613   0.00056   0.00000   0.01610   0.01608   3.07221
   D31       -1.11032  -0.00017   0.00000   0.00733   0.00732  -1.10301
   D32        1.04724  -0.00057   0.00000  -0.01271  -0.01283   1.03441
   D33       -2.10996  -0.00033   0.00000  -0.00012  -0.00001  -2.10997
   D34       -3.14051  -0.00011   0.00000  -0.00723  -0.00735   3.13532
   D35       -0.01453   0.00013   0.00000   0.00536   0.00548  -0.00905
   D36       -1.04490   0.00023   0.00000  -0.00322  -0.00334  -1.04824
   D37        2.08108   0.00047   0.00000   0.00937   0.00949   2.09057
   D38        3.07419   0.00042   0.00000   0.01175   0.01167   3.08586
   D39       -1.10128  -0.00003   0.00000   0.00620   0.00613  -1.09515
   D40        0.98057   0.00032   0.00000   0.01034   0.01029   0.99086
   D41       -0.05093   0.00005   0.00000  -0.00200  -0.00194  -0.05287
   D42        2.05679  -0.00041   0.00000  -0.00756  -0.00749   2.04930
   D43       -2.14454  -0.00006   0.00000  -0.00341  -0.00333  -2.14787
   D44       -0.00262  -0.00019   0.00000  -0.00855  -0.00850  -0.01111
   D45        3.13287   0.00003   0.00000  -0.00017  -0.00009   3.13277
   D46        3.12152   0.00020   0.00000   0.00600   0.00593   3.12745
   D47       -0.02618   0.00042   0.00000   0.01438   0.01433  -0.01186
   D48        1.93123  -0.00064   0.00000  -0.00291  -0.00265   1.92858
   D49       -0.26785   0.00149   0.00000   0.04050   0.04021  -0.22764
   D50       -2.27491   0.00006   0.00000   0.01770   0.01774  -2.25717
   D51       -1.21624  -0.00042   0.00000   0.00518   0.00543  -1.21082
   D52        2.86786   0.00170   0.00000   0.04859   0.04829   2.91615
   D53        0.86081   0.00028   0.00000   0.02579   0.02581   0.88662
         Item               Value     Threshold  Converged?
 Maximum Force            0.019363     0.000450     NO 
 RMS     Force            0.005258     0.000300     NO 
 Maximum Displacement     0.477286     0.001800     NO 
 RMS     Displacement     0.150124     0.001200     NO 
 Predicted change in Energy=-6.091938D-03
 Lowest energy point so far.  Saving SCF results.
 GradGradGradGradGradGradGradGradGradGradGradGradGradGradGradGradGradGrad

 Leave Link  103 at Mon Jul 26 11:28:54 2021, MaxMem=   131072000 cpu:               0.0 elap:               0.1
 (Enter /opt/gaussian/g16_legacy/l202.exe)
                          Input orientation:                          
 ---------------------------------------------------------------------
 Center     Atomic      Atomic             Coordinates (Angstroms)
 Number     Number       Type             X           Y           Z
 ---------------------------------------------------------------------
      1          6           0       -1.514060    0.488112    1.195525
      2          1           0       -2.190566    1.247471    1.639091
      3          1           0       -1.909985   -0.498840    1.509102
      4          6           0       -1.562930    0.615270   -0.282831
      5          6           0       -1.514072    2.003936   -0.807808
      6          1           0       -1.575031    2.039957   -1.903720
      7          1           0       -2.347272    2.595887   -0.406991
      8          1           0       -0.574347    2.488917   -0.509681
      9          6           0       -1.656664   -0.424982   -1.106493
     10          1           0       -1.701859   -0.257648   -2.190809
     11          6           0       -1.703775   -1.836996   -0.690937
     12          1           0       -0.899088   -2.399283   -1.183452
     13          1           0       -1.586248   -1.964424    0.393798
     14          1           0       -2.662312   -2.284054   -0.985292
     15          6           0        2.648491   -1.549039    0.258191
     16          1           0        3.694446   -1.334091    0.511808
     17          1           0        2.341927   -2.437457    0.825740
     18          1           0        2.601288   -1.801211   -0.808964
     19          6           0        1.794299   -0.367257    0.546060
     20          6           0        2.163671    0.864737   -0.183619
     21          1           0        1.468174    1.691371    0.021937
     22          1           0        3.172514    1.189942    0.103074
     23          1           0        2.156204    0.682947   -1.266893
     24          6           0        0.777261   -0.441483    1.398902
     25          1           0        0.548852   -1.392759    1.898157
     26          6           0       -0.112860    0.683976    1.749669
     27          1           0        0.307603    1.647301    1.398100
     28          1           0       -0.163759    0.749800    2.855737
 ---------------------------------------------------------------------
                    Distance matrix (angstroms):
                    1          2          3          4          5
     1  C    0.000000
     2  H    1.109521   0.000000
     3  H    1.108675   1.773478   0.000000
     4  C    1.484619   2.118346   2.138390   0.000000
     5  C    2.512183   2.648999   3.433468   1.485389   0.000000
     6  H    3.466592   3.682177   4.266736   2.158045   1.098197
     7  H    2.775791   2.455450   3.666056   2.133882   1.097853
     8  H    2.791775   2.961515   3.845270   2.130566   1.098713
     9  C    2.480597   3.258892   2.628871   1.330161   2.451364
    10  H    3.472562   4.143954   3.713601   2.102776   2.657578
    11  C    3.000143   3.896144   2.583285   2.489979   3.847389
    12  H    3.791408   4.788891   3.447238   3.215484   4.461799
    13  H    2.581262   3.497460   1.869933   2.667057   4.146920
    14  H    3.709360   4.425110   3.158321   3.179335   4.442613
    15  C    4.728151   5.757067   4.842251   4.765816   5.575564
    16  H    5.560254   6.524461   5.753424   5.663167   6.325541
    17  H    4.854311   5.897773   4.722708   5.078974   6.104357
    18  H    5.118112   6.184602   5.236524   4.843233   5.604938
    19  C    3.478319   4.436352   3.829685   3.594914   4.289620
    20  C    3.945832   4.735836   4.617284   3.736259   3.900408
    21  H    3.423282   4.024750   4.291927   3.230862   3.111264
    22  H    4.863125   5.579004   5.537210   4.785771   4.843179
    23  H    4.424059   5.259072   5.063266   3.847716   3.927684
    24  C    2.481061   3.423194   2.690116   3.069438   4.012462
    25  H    2.878711   3.813442   2.645059   3.639851   4.807852
    26  C    1.519473   2.155601   2.164852   2.497695   3.200996
    27  H    2.168689   2.541416   3.088031   2.718366   2.883005
    28  H    2.155945   2.415751   2.534133   3.438951   4.100947
                    6          7          8          9         10
     6  H    0.000000
     7  H    1.773587   0.000000
     8  H    1.773775   1.779115   0.000000
     9  C    2.591940   3.176773   3.165185   0.000000
    10  H    2.318943   3.426548   3.411905   1.098082   0.000000
    11  C    4.064256   4.488337   4.474593   1.472648   2.178063
    12  H    4.547806   5.258503   4.945091   2.116060   2.499162
    13  H    4.616685   4.692213   4.655369   2.150747   3.099458
    14  H    4.552226   4.924176   5.231353   2.117113   2.545990
    15  C    5.949192   6.525375   5.223160   4.654055   5.156630
    16  H    6.707187   7.265760   5.820775   5.663899   6.130495
    17  H    6.545208   6.988760   5.878534   4.875686   5.495757
    18  H    5.778815   6.632066   5.345973   4.484717   4.775893
    19  C    4.811287   5.180844   3.857824   3.826671   4.441349
    20  C    4.279927   4.836877   3.200159   4.136427   4.497875
    21  H    3.618115   3.944585   2.256233   3.939151   4.329437
    22  H    5.223881   5.718818   4.012701   5.233736   5.578255
    23  H    4.021087   4.967904   3.360180   3.973814   4.077130
    24  C    4.753749   4.716945   3.749237   3.493031   4.366447
    25  H    5.545150   5.441557   4.703899   3.850820   4.803522
    26  C    4.162196   3.646804   2.928385   3.430856   4.351889
    27  H    3.821060   3.347616   2.264018   3.798116   4.532884
    28  H    5.129193   4.338336   3.810399   4.394103   5.371064
                   11         12         13         14         15
    11  C    0.000000
    12  H    1.098298   0.000000
    13  H    1.098499   1.774544   0.000000
    14  H    1.097861   1.778062   1.778192   0.000000
    15  C    4.463853   3.922571   4.257223   5.503737   0.000000
    16  H    5.553404   5.010898   5.319490   6.599402   1.097518
    17  H    4.362175   3.813462   3.980062   5.324076   1.097898
    18  H    4.306830   3.570793   4.359901   5.288640   1.097560
    19  C    3.990842   3.791395   3.741955   5.087291   1.486311
    20  C    4.744878   4.586282   4.732806   5.817875   2.501311
    21  H    4.797793   4.877534   4.778348   5.820604   3.456764
    22  H    5.794049   5.578138   5.716674   6.877382   2.792969
    23  H    4.645565   4.340727   4.875696   5.665730   2.747724
    24  C    3.531349   3.648518   2.985927   4.572758   2.455484
    25  H    3.460504   3.550484   2.673678   4.406843   2.668781
    26  C    3.852645   4.327567   3.320133   4.773774   3.851743
    27  H    4.533216   4.949278   4.199983   5.473254   4.122588
    28  H    4.652103   5.174213   3.930857   5.495502   4.465496
                   16         17         18         19         20
    16  H    0.000000
    17  H    1.773493   0.000000
    18  H    1.776973   1.773227   0.000000
    19  C    2.132252   2.159593   2.131559   0.000000
    20  C    2.767984   3.457609   2.773056   1.478741   0.000000
    21  H    3.788097   4.296133   3.764634   2.149189   1.099679
    22  H    2.609639   3.790797   3.178853   2.126166   1.098051
    23  H    3.098129   3.761718   2.564925   2.126194   1.098447
    24  C    3.177051   2.600117   3.170269   1.329367   2.476432
    25  H    3.438047   2.335934   3.421671   2.104984   3.469541
    26  C    4.483355   4.077128   4.482115   2.488177   2.992135
    27  H    4.598360   4.599056   4.693011   2.644746   2.561099
    28  H    4.972157   4.534088   5.251968   3.227447   3.829859
                   21         22         23         24         25
    21  H    0.000000
    22  H    1.778423   0.000000
    23  H    1.775214   1.779534   0.000000
    24  C    2.631057   3.174579   3.205041   0.000000
[...]
                   16         17         18         19         20
    16  H    0.000000
    17  H    1.772424   0.000000
    18  H    1.772209   1.772047   0.000000
    19  C    2.138352   2.163615   2.138078   0.000000
    20  C    2.765815   3.468771   2.803554   1.486074   0.000000
    21  H    3.813671   4.303943   3.753471   2.155691   1.103114
    22  H    2.687495   3.839423   3.307155   2.136433   1.098152
    23  H    3.000186   3.754756   2.561996   2.140701   1.097957
    24  C    3.201416   2.608954   3.173883   1.339862   2.491609
    25  H    3.468418   2.346356   3.414702   2.114179   3.484303
    26  C    4.509257   4.094653   4.497119   2.501813   3.004135
    27  H    4.694392   4.618934   4.625054   2.651042   2.553108
    28  H    4.837540   4.541735   5.183771   3.098702   3.570111
                   21         22         23         24         25
    21  H    0.000000
    22  H    1.777919   0.000000
    23  H    1.777531   1.773487   0.000000
    24  C    2.647719   3.147659   3.265384   0.000000
    25  H    3.739219   4.081999   4.164527   1.098433   0.000000
    26  C    2.569765   3.634162   3.863339   1.486195   2.196797
    27  H    1.772915   3.196695   3.351323   2.154207   3.109196
    28  H    3.161376   3.914831   4.569122   2.111126   2.622472
                   26         27         28
    26  C    0.000000
    27  H    1.119421   0.000000
    28  H    1.107879   1.781067   0.000000
 Stoichiometry    C10H18
 Framework group  C1[X(C10H18)]
 Deg. of freedom    78
 Full point group                 C1      NOp   1
 RotChk:  IX=0 Diff= 4.85D-16
 Largest Abelian subgroup         C1      NOp   1
 Largest concise Abelian subgroup C1      NOp   1
                         Standard orientation:                         
 ---------------------------------------------------------------------
 Center     Atomic      Atomic             Coordinates (Angstroms)
 Number     Number       Type             X           Y           Z
 ---------------------------------------------------------------------
      1          6           0        1.197402   -0.399489    1.225992
      2          1           0        1.771482   -1.100516    1.864345
      3          1           0        1.351324    0.611194    1.667076
      4          6           0        1.768292   -0.455231   -0.155711
      5          6           0        1.702258   -1.785340   -0.820749
      6          1           0        1.892366   -1.731801   -1.900026
      7          1           0        2.439852   -2.471742   -0.383831
      8          1           0        0.702586   -2.231033   -0.673482
      9          6           0        2.320262    0.598809   -0.771413
     10          1           0        2.729761    0.483078   -1.783419
     11          6           0        2.433916    1.954796   -0.192993
     12          1           0        1.911977    2.687174   -0.822902
     13          1           0        2.003354    2.018358    0.820197
     14          1           0        3.486582    2.260321   -0.128442
     15          6           0       -3.024088    1.380638   -0.412157
     16          1           0       -4.080185    1.179295   -0.186770
     17          1           0       -2.739942    2.297607    0.120827
     18          1           0       -2.948885    1.586425   -1.488742
     19          6           0       -2.177263    0.214756   -0.041503
     20          6           0       -2.551153   -1.070473   -0.687111
     21          1           0       -1.788003   -1.850005   -0.523423
     22          1           0       -3.502235   -1.443506   -0.284335
     23          1           0       -2.673584   -0.945050   -1.770988
     24          6           0       -1.157551    0.343981    0.817984
     25          1           0       -0.927211    1.326875    1.250903
     26          6           0       -0.280123   -0.772449    1.256708
     27          1           0       -0.446025   -1.679919    0.622612
     28          1           0       -0.574928   -1.056736    2.286110
 ---------------------------------------------------------------------
 Rotational constants (GHZ):           1.7462998           0.7392399           0.6483603
 Leave Link  202 at Mon Jul 26 11:29:02 2021, MaxMem=   131072000 cpu:               0.0 elap:               0.0
 (Enter /opt/gaussian/g16_legacy/l601.exe)
 Copying SCF densities to generalized density rwf, IOpCl= 0 IROHF=0.

 **********************************************************************

            Population analysis using the SCF density.

 **********************************************************************

 Orbital symmetries:
       Occupied  (A) (A) (A) (A) (A) (A) (A) (A) (A) (A) (A) (A)
                 (A) (A) (A) (A) (A) (A) (A) (A) (A) (A) (A) (A)
                 (A) (A) (A) (A) (A)
       Virtual   (A) (A) (A) (A) (A) (A) (A) (A) (A) (A) (A) (A)
                 (A) (A) (A) (A) (A) (A) (A) (A) (A) (A) (A) (A)
                 (A) (A) (A) (A) (A)
 The electronic state is 1-A.
 Alpha  occ. eigenvalues --   -1.47907  -1.35301  -1.17841  -1.10538  -1.01419
 Alpha  occ. eigenvalues --   -0.94674  -0.86775  -0.79507  -0.66543  -0.65265
 Alpha  occ. eigenvalues --   -0.60658  -0.58989  -0.57932  -0.56251  -0.55589
 Alpha  occ. eigenvalues --   -0.54268  -0.51368  -0.49637  -0.48421  -0.48266
 Alpha  occ. eigenvalues --   -0.47966  -0.47665  -0.47207  -0.46228  -0.45479
 Alpha  occ. eigenvalues --   -0.44005  -0.41693  -0.34811  -0.34134
 Alpha virt. eigenvalues --    0.03912   0.04278   0.12316   0.12656   0.13169
 Alpha virt. eigenvalues --    0.13518   0.13870   0.14330   0.14902   0.15187
 Alpha virt. eigenvalues --    0.15459   0.15848   0.15956   0.16062   0.16328
 Alpha virt. eigenvalues --    0.16461   0.16547   0.16722   0.17001   0.17066
 Alpha virt. eigenvalues --    0.17237   0.17292   0.17769   0.17886   0.18109
 Alpha virt. eigenvalues --    0.21104   0.21549   0.22470   0.22717
          Condensed to atoms (all electrons):
               1          2          3          4          5          6
     1  C    4.058813   0.000000   0.000000   0.000000   0.000000   0.000000
     2  H    0.000000   0.947215   0.000000   0.000000   0.000000   0.000000
     3  H    0.000000   0.000000   0.936744   0.000000   0.000000   0.000000
     4  C    0.000000   0.000000   0.000000   4.124265   0.000000   0.000000
     5  C    0.000000   0.000000   0.000000   0.000000   4.076956   0.000000
     6  H    0.000000   0.000000   0.000000   0.000000   0.000000   0.956391
     7  H    0.000000   0.000000   0.000000   0.000000   0.000000   0.000000
     8  H    0.000000   0.000000   0.000000   0.000000   0.000000   0.000000
     9  C    0.000000   0.000000   0.000000   0.000000   0.000000   0.000000
    10  H    0.000000   0.000000   0.000000   0.000000   0.000000   0.000000
    11  C    0.000000   0.000000   0.000000   0.000000   0.000000   0.000000
    12  H    0.000000   0.000000   0.000000   0.000000   0.000000   0.000000
    13  H    0.000000   0.000000   0.000000   0.000000   0.000000   0.000000
    14  H    0.000000   0.000000   0.000000   0.000000   0.000000   0.000000
    15  C    0.000000   0.000000   0.000000   0.000000   0.000000   0.000000
    16  H    0.000000   0.000000   0.000000   0.000000   0.000000   0.000000
    17  H    0.000000   0.000000   0.000000   0.000000   0.000000   0.000000
    18  H    0.000000   0.000000   0.000000   0.000000   0.000000   0.000000
    19  C    0.000000   0.000000   0.000000   0.000000   0.000000   0.000000
    20  C    0.000000   0.000000   0.000000   0.000000   0.000000   0.000000
    21  H    0.000000   0.000000   0.000000   0.000000   0.000000   0.000000
    22  H    0.000000   0.000000   0.000000   0.000000   0.000000   0.000000
    23  H    0.000000   0.000000   0.000000   0.000000   0.000000   0.000000
    24  C    0.000000   0.000000   0.000000   0.000000   0.000000   0.000000
    25  H    0.000000   0.000000   0.000000   0.000000   0.000000   0.000000
    26  C    0.000000   0.000000   0.000000   0.000000   0.000000   0.000000
    27  H    0.000000   0.000000   0.000000   0.000000   0.000000   0.000000
    28  H    0.000000   0.000000   0.000000   0.000000   0.000000   0.000000
               7          8          9         10         11         12
     1  C    0.000000   0.000000   0.000000   0.000000   0.000000   0.000000
     2  H    0.000000   0.000000   0.000000   0.000000   0.000000   0.000000
     3  H    0.000000   0.000000   0.000000   0.000000   0.000000   0.000000
     4  C    0.000000   0.000000   0.000000   0.000000   0.000000   0.000000
     5  C    0.000000   0.000000   0.000000   0.000000   0.000000   0.000000
     6  H    0.000000   0.000000   0.000000   0.000000   0.000000   0.000000
     7  H    0.955737   0.000000   0.000000   0.000000   0.000000   0.000000
     8  H    0.000000   0.950148   0.000000   0.000000   0.000000   0.000000
     9  C    0.000000   0.000000   4.150269   0.000000   0.000000   0.000000
    10  H    0.000000   0.000000   0.000000   0.902563   0.000000   0.000000
    11  C    0.000000   0.000000   0.000000   0.000000   4.077885   0.000000
    12  H    0.000000   0.000000   0.000000   0.000000   0.000000   0.955113
    13  H    0.000000   0.000000   0.000000   0.000000   0.000000   0.000000
    14  H    0.000000   0.000000   0.000000   0.000000   0.000000   0.000000
    15  C    0.000000   0.000000   0.000000   0.000000   0.000000   0.000000
    16  H    0.000000   0.000000   0.000000   0.000000   0.000000   0.000000
    17  H    0.000000   0.000000   0.000000   0.000000   0.000000   0.000000
    18  H    0.000000   0.000000   0.000000   0.000000   0.000000   0.000000
    19  C    0.000000   0.000000   0.000000   0.000000   0.000000   0.000000
    20  C    0.000000   0.000000   0.000000   0.000000   0.000000   0.000000
    21  H    0.000000   0.000000   0.000000   0.000000   0.000000   0.000000
    22  H    0.000000   0.000000   0.000000   0.000000   0.000000   0.000000
    23  H    0.000000   0.000000   0.000000   0.000000   0.000000   0.000000
    24  C    0.000000   0.000000   0.000000   0.000000   0.000000   0.000000
    25  H    0.000000   0.000000   0.000000   0.000000   0.000000   0.000000
    26  C    0.000000   0.000000   0.000000   0.000000   0.000000   0.000000
    27  H    0.000000   0.000000   0.000000   0.000000   0.000000   0.000000
    28  H    0.000000   0.000000   0.000000   0.000000   0.000000   0.000000
              13         14         15         16         17         18
     1  C    0.000000   0.000000   0.000000   0.000000   0.000000   0.000000
     2  H    0.000000   0.000000   0.000000   0.000000   0.000000   0.000000
     3  H    0.000000   0.000000   0.000000   0.000000   0.000000   0.000000
     4  C    0.000000   0.000000   0.000000   0.000000   0.000000   0.000000
     5  C    0.000000   0.000000   0.000000   0.000000   0.000000   0.000000
     6  H    0.000000   0.000000   0.000000   0.000000   0.000000   0.000000
     7  H    0.000000   0.000000   0.000000   0.000000   0.000000   0.000000
     8  H    0.000000   0.000000   0.000000   0.000000   0.000000   0.000000
     9  C    0.000000   0.000000   0.000000   0.000000   0.000000   0.000000
    10  H    0.000000   0.000000   0.000000   0.000000   0.000000   0.000000
    11  C    0.000000   0.000000   0.000000   0.000000   0.000000   0.000000
    12  H    0.000000   0.000000   0.000000   0.000000   0.000000   0.000000
    13  H    0.952820   0.000000   0.000000   0.000000   0.000000   0.000000
    14  H    0.000000   0.956783   0.000000   0.000000   0.000000   0.000000
    15  C    0.000000   0.000000   4.067549   0.000000   0.000000   0.000000
    16  H    0.000000   0.000000   0.000000   0.957519   0.000000   0.000000
    17  H    0.000000   0.000000   0.000000   0.000000   0.958908   0.000000
    18  H    0.000000   0.000000   0.000000   0.000000   0.000000   0.955783
    19  C    0.000000   0.000000   0.000000   0.000000   0.000000   0.000000
    20  C    0.000000   0.000000   0.000000   0.000000   0.000000   0.000000
    21  H    0.000000   0.000000   0.000000   0.000000   0.000000   0.000000
    22  H    0.000000   0.000000   0.000000   0.000000   0.000000   0.000000
    23  H    0.000000   0.000000   0.000000   0.000000   0.000000   0.000000
    24  C    0.000000   0.000000   0.000000   0.000000   0.000000   0.000000
    25  H    0.000000   0.000000   0.000000   0.000000   0.000000   0.000000
    26  C    0.000000   0.000000   0.000000   0.000000   0.000000   0.000000
    27  H    0.000000   0.000000   0.000000   0.000000   0.000000   0.000000
    28  H    0.000000   0.000000   0.000000   0.000000   0.000000   0.000000
              19         20         21         22         23         24
     1  C    0.000000   0.000000   0.000000   0.000000   0.000000   0.000000
     2  H    0.000000   0.000000   0.000000   0.000000   0.000000   0.000000
     3  H    0.000000   0.000000   0.000000   0.000000   0.000000   0.000000
     4  C    0.000000   0.000000   0.000000   0.000000   0.000000   0.000000
     5  C    0.000000   0.000000   0.000000   0.000000   0.000000   0.000000
     6  H    0.000000   0.000000   0.000000   0.000000   0.000000   0.000000
     7  H    0.000000   0.000000   0.000000   0.000000   0.000000   0.000000
     8  H    0.000000   0.000000   0.000000   0.000000   0.000000   0.000000
     9  C    0.000000   0.000000   0.000000   0.000000   0.000000   0.000000
    10  H    0.000000   0.000000   0.000000   0.000000   0.000000   0.000000
    11  C    0.000000   0.000000   0.000000   0.000000   0.000000   0.000000
    12  H    0.000000   0.000000   0.000000   0.000000   0.000000   0.000000
    13  H    0.000000   0.000000   0.000000   0.000000   0.000000   0.000000
    14  H    0.000000   0.000000   0.000000   0.000000   0.000000   0.000000
    15  C    0.000000   0.000000   0.000000   0.000000   0.000000   0.000000
    16  H    0.000000   0.000000   0.000000   0.000000   0.000000   0.000000
    17  H    0.000000   0.000000   0.000000   0.000000   0.000000   0.000000
    18  H    0.000000   0.000000   0.000000   0.000000   0.000000   0.000000
    19  C    4.125330   0.000000   0.000000   0.000000   0.000000   0.000000
    20  C    0.000000   4.075452   0.000000   0.000000   0.000000   0.000000
    21  H    0.000000   0.000000   0.951172   0.000000   0.000000   0.000000
    22  H    0.000000   0.000000   0.000000   0.954597   0.000000   0.000000
    23  H    0.000000   0.000000   0.000000   0.000000   0.954568   0.000000
    24  C    0.000000   0.000000   0.000000   0.000000   0.000000   4.150719
    25  H    0.000000   0.000000   0.000000   0.000000   0.000000   0.000000
    26  C    0.000000   0.000000   0.000000   0.000000   0.000000   0.000000
    27  H    0.000000   0.000000   0.000000   0.000000   0.000000   0.000000
    28  H    0.000000   0.000000   0.000000   0.000000   0.000000   0.000000
              25         26         27         28
     1  C    0.000000   0.000000   0.000000   0.000000
     2  H    0.000000   0.000000   0.000000   0.000000
     3  H    0.000000   0.000000   0.000000   0.000000
     4  C    0.000000   0.000000   0.000000   0.000000
     5  C    0.000000   0.000000   0.000000   0.000000
     6  H    0.000000   0.000000   0.000000   0.000000
     7  H    0.000000   0.000000   0.000000   0.000000
     8  H    0.000000   0.000000   0.000000   0.000000
     9  C    0.000000   0.000000   0.000000   0.000000
    10  H    0.000000   0.000000   0.000000   0.000000
    11  C    0.000000   0.000000   0.000000   0.000000
    12  H    0.000000   0.000000   0.000000   0.000000
    13  H    0.000000   0.000000   0.000000   0.000000
    14  H    0.000000   0.000000   0.000000   0.000000
    15  C    0.000000   0.000000   0.000000   0.000000
    16  H    0.000000   0.000000   0.000000   0.000000
    17  H    0.000000   0.000000   0.000000   0.000000
    18  H    0.000000   0.000000   0.000000   0.000000
    19  C    0.000000   0.000000   0.000000   0.000000
    20  C    0.000000   0.000000   0.000000   0.000000
    21  H    0.000000   0.000000   0.000000   0.000000
    22  H    0.000000   0.000000   0.000000   0.000000
    23  H    0.000000   0.000000   0.000000   0.000000
    24  C    0.000000   0.000000   0.000000   0.000000
    25  H    0.898775   0.000000   0.000000   0.000000
    26  C    0.000000   4.072608   0.000000   0.000000
    27  H    0.000000   0.000000   0.930527   0.000000
    28  H    0.000000   0.000000   0.000000   0.944791
 Mulliken charges:
               1
     1  C   -0.058813
     2  H    0.052785
     3  H    0.063256
     4  C   -0.124265
     5  C   -0.076956
     6  H    0.043609
     7  H    0.044263
     8  H    0.049852
     9  C   -0.150269
    10  H    0.097437
    11  C   -0.077885
    12  H    0.044887
    13  H    0.047180
    14  H    0.043217
    15  C   -0.067549
    16  H    0.042481
    17  H    0.041092
    18  H    0.044217
    19  C   -0.125330
    20  C   -0.075452
    21  H    0.048828
    22  H    0.045403
    23  H    0.045432
    24  C   -0.150719
    25  H    0.101225
    26  C   -0.072608
    27  H    0.069473
    28  H    0.055209
 Sum of Mulliken charges =  -0.00000
 Mulliken charges with hydrogens summed into heavy atoms:
               1
     1  C    0.057228
     4  C   -0.124265
     5  C    0.060768
     9  C   -0.052832
    11  C    0.057399
    15  C    0.060241
    19  C   -0.125330
    20  C    0.064211
    24  C   -0.049495
    26  C    0.052075
 Charge=             -0.0000 electrons
 Dipole moment (field-independent basis, Debye):
    X=             -0.1804    Y=             -0.1689    Z=              0.0015  Tot=              0.2471
 N-N= 3.142429818893D+02 E-N=-5.107042401796D+02  KE=-7.911009136476D+01
 Leave Link  601 at Mon Jul 26 11:29:02 2021, MaxMem=   131072000 cpu:               0.0 elap:               0.0
 (Enter /opt/gaussian/g16_legacy/l9999.exe)
 1\1\GINC-TRUENO93\FOpt\RPM3\ZDO\C10H18\JRAMOS\26-Jul-2021\0\\#p opt pm
 3\\Conformer number 419. Energy MM = 23.692 kcal/mol\\0,1\C,-1.4749471
 303,0.3364267161,1.1444011612\H,-2.1672760324,1.0044462324,1.694793035
 3\H,-1.722035883,-0.6980184536,1.4739434825\C,-1.7431777262,0.49295547
 37,-0.3190457628\C,-1.5337648991,1.8623593345,-0.863752373\H,-1.493543
 2274,1.8831187869,-1.9600176165\H,-2.3437913205,2.5319599067,-0.545032
 3705\H,-0.5854021229,2.2791891493,-0.480954044\C,-2.158033209,-0.50826
 31079,-1.1065831768\H,-2.3457430649,-0.319042516,-2.1715716719\C,-2.39
 5948493,-1.8969434713,-0.6580849861\H,-1.7564975457,-2.5958465014,-1.2
 132625261\H,-2.1876807083,-2.0345763974,0.4160004214\H,-3.4399760975,-
 2.1868444398,-0.8357986109\C,2.9889464229,-1.4090272168,0.3074955437\H
 ,3.9751072077,-1.2421270046,0.761708545\H,2.595638852,-2.3536281475,0.
 7058448248\H,3.1403365099,-1.5424302567,-0.7724691447\C,2.0879581342,-
 0.2547272525,0.5712941853\C,2.5941224668,1.0630279069,0.1068216168\H,1
 .8167812505,1.8439103415,0.159968734\H,3.4411027109,1.3915073742,0.723
 8008366\H,2.9406055833,1.0066863587,-0.9335077477\C,0.9101718929,-0.42
 14223707,1.1879486266\H,0.5901898545,-1.4262174102,1.495445331\C,-0.03
 52137963,0.6796367214,1.5084030449\H,0.2636443093,1.6235355789,0.98606
 05794\H,0.0383260617,0.8904546654,2.5935500625\\Version=EM64L-G16RevA.
 03\State=1-A\HF=-0.0275731\RMSD=2.160e-09\RMSF=2.134e-06\Dipole=0.0695
 341,0.0649715,0.0199249\PG=C01 [X(C10H18)]\\@


 I think that all right-thinking people in this
 country are sick and tired of being told that
 ordinary, decent people are fed up in this country
 with being sick and tired.  I'm certainly not!
 But I'm sick and tired of being told that I am!
                               -- Monty Python
 Job cpu time:       0 days  0 hours  0 minutes  7.4 seconds.
 Elapsed time:       0 days  0 hours  0 minutes  8.6 seconds.
 File lengths (MBytes):  RWF=      6 Int=      0 D2E=      0 Chk=      2 Scr=      1
 Normal termination of Gaussian 16 at Mon Jul 26 11:29:02 2021.
