 Entering Gaussian System, Link 0=/dragofs/sw/campus/0.2/software/gaussian/16.gaussian/gaussian/g16_legacy/g16
 Input=C10H24O2_pair_000_093_allign_FREQ_g16.com
 Output=C10H24O2_pair_000_093_allign_FREQ_g16.log
 Initial command:
 /dragofs/sw/campus/0.2/software/gaussian/16.gaussian/gaussian/g16_legacy/l1.exe "/tmp/jramos/52052/Gau-2715216.inp" -scrdir="/tmp/jramos/52052/"
 Entering Link 1 = /dragofs/sw/campus/0.2/software/gaussian/16.gaussian/gaussian/g16_legacy/l1.exe PID=   2715217.
  
 Copyright (c) 1988,1990,1992,1993,1995,1998,2003,2009,2016,
            Gaussian, Inc.  All Rights Reserved.
  
 This is part of the Gaussian(R) 16 program.  It is based on
 the Gaussian(R) 09 system (copyright 2009, Gaussian, Inc.),
 the Gaussian(R) 03 system (copyright 2003, Gaussian, Inc.),
 the Gaussian(R) 98 system (copyright 1998, Gaussian, Inc.),
 the Gaussian(R) 94 system (copyright 1995, Gaussian, Inc.),
 the Gaussian 92(TM) system (copyright 1992, Gaussian, Inc.),
 the Gaussian 90(TM) system (copyright 1990, Gaussian, Inc.),
 the Gaussian 88(TM) system (copyright 1988, Gaussian, Inc.),
 the Gaussian 86(TM) system (copyright 1986, Carnegie Mellon
 University), and the Gaussian 82(TM) system (copyright 1983,
 Carnegie Mellon University). Gaussian is a federally registered
 trademark of Gaussian, Inc.
  
 This software contains proprietary and confidential information,
 including trade secrets, belonging to Gaussian, Inc.
  
 This software is provided under written license and may be
 used, copied, transmitted, or stored only in accord with that
 written license.
  
 The following legend is applicable only to US Government
 contracts under FAR:
  
                    RESTRICTED RIGHTS LEGEND
  
 Use, reproduction and disclosure by the US Government is
 subject to restrictions as set forth in subparagraphs (a)
 and (c) of the Commercial Computer Software - Restricted
 Rights clause in FAR 52.227-19.
  
 Gaussian, Inc.
 340 Quinnipiac St., Bldg. 40, Wallingford CT 06492
  
  
 ---------------------------------------------------------------
 Warning -- This program may not be used in any manner that
 competes with the business of Gaussian, Inc. or will provide
 assistance to any competitor of Gaussian, Inc.  The licensee
 of this program is prohibited from giving any competitor of
 Gaussian, Inc. access to this program.  By using this program,
 the user acknowledges that Gaussian, Inc. is engaged in the
 business of creating and licensing software in the field of
 computational chemistry and represents and warrants to the
 licensee that it is not a competitor of Gaussian, Inc. and that
 it will not use this program in any manner prohibited above.
 ---------------------------------------------------------------
  

 Cite this work as:
 Gaussian 16, Revision A.03,
 M. J. Frisch, G. W. Trucks, H. B. Schlegel, G. E. Scuseria, 
 M. A. Robb, J. R. Cheeseman, G. Scalmani, V. Barone, 
 G. A. Petersson, H. Nakatsuji, X. Li, M. Caricato, A. V. Marenich, 
 J. Bloino, B. G. Janesko, R. Gomperts, B. Mennucci, H. P. Hratchian, 
 J. V. Ortiz, A. F. Izmaylov, J. L. Sonnenberg, D. Williams-Young, 
 F. Ding, F. Lipparini, F. Egidi, J. Goings, B. Peng, A. Petrone, 
 T. Henderson, D. Ranasinghe, V. G. Zakrzewski, J. Gao, N. Rega, 
 G. Zheng, W. Liang, M. Hada, M. Ehara, K. Toyota, R. Fukuda, 
 J. Hasegawa, M. Ishida, T. Nakajima, Y. Honda, O. Kitao, H. Nakai, 
 T. Vreven, K. Throssell, J. A. Montgomery, Jr., J. E. Peralta, 
 F. Ogliaro, M. J. Bearpark, J. J. Heyd, E. N. Brothers, K. N. Kudin, 
 V. N. Staroverov, T. A. Keith, R. Kobayashi, J. Normand, 
 K. Raghavachari, A. P. Rendell, J. C. Burant, S. S. Iyengar, 
 J. Tomasi, M. Cossi, J. M. Millam, M. Klene, C. Adamo, R. Cammi, 
 J. W. Ochterski, R. L. Martin, K. Morokuma, O. Farkas, 
 J. B. Foresman, and D. J. Fox, Gaussian, Inc., Wallingford CT, 2016.
 
 ******************************************
 Gaussian 16:  EM64L-G16RevA.03 25-Dec-2016
                14-Feb-2023 
 ******************************************
 %chk=C10H24O2_pair_000_093_allign_FREQ_gaussian.chk
 %nproc=8
 Will use up to    8 processors via shared memory.
 %mem=1000Mb
 ---------------------------------------------------------------------
 #p BLYP/6-311G** int=ultrafine EmpiricalDispersion=GD3 freq scale=1.0
 ---------------------------------------------------------------------
 1/10=4,30=1,38=1,114=1000000/1,3;
 2/12=2,17=6,18=5,40=1/2;
 3/5=4,6=6,7=101,11=2,25=1,30=1,71=2,74=402,75=-5,124=31,140=1/1,2,3;
 4//1;
 5/5=2,38=5,98=1/2;
 8/6=4,10=90,11=11/1;
 11/6=1,8=1,9=11,15=111,16=1/1,2,10;
 10/6=1/2;
 6/7=2,8=2,9=2,10=2,28=1/1;
 7/8=1,10=1,25=1/1,2,3,16;
 1/10=4,30=1/3;
 99//99;
 Leave Link    1 at Tue Feb 14 10:44:44 2023, MaxMem=   131072000 cpu:               0.3 elap:               0.0
 (Enter /dragofs/sw/campus/0.2/software/gaussian/16.gaussian/gaussian/g16_legacy/l101.exe)
 --------------------------------------------
 Conformer name C10H24O2_pair_000_093_allign.
 --------------------------------------------
 Symbolic Z-matrix:
 Charge =  0 Multiplicity = 1
 H                     1.8544   -3.0345    1.1854 
 C                     1.2811   -2.1715    1.5468 
 C                     1.3551   -1.0122    0.5341 
 H                     0.2403   -2.4848    1.7145 
 H                     1.6988   -1.8675    2.5191 
 H                     0.785    -0.1528    0.909 
 H                     0.8938   -1.3231   -0.4204 
 C                     2.7881   -0.5584    0.2179 
 C                     2.8582    0.6742   -0.7143 
 H                     3.2984   -0.3087    1.1721 
 H                     2.3238    0.4303   -1.6474 
 H                     3.9162    0.8187   -0.9964 
 O                     3.4376   -1.703    -0.3995 
 H                     4.3666   -1.4619   -0.555 
 C                     2.3157    1.9835   -0.0982 
 H                     2.513     2.836    -0.764 
 H                     2.8036    2.1961    0.8662 
 H                     1.2316    1.9449    0.0713 
 H                    -1.7492   -0.7934    3.0007 
 C                    -1.8842    0.0399    2.2966 
 C                    -2.3918   -0.4562    0.9282 
 H                    -2.596     0.7502    2.7444 
 H                    -0.9226    0.5578    2.1889 
 H                    -3.399    -0.8917    1.0372 
 H                    -1.7432   -1.2672    0.5541 
 C                    -2.4436    0.6554   -0.1443 
 C                    -3.1134    0.1921   -1.4567 
 H                    -3.0007    1.5181    0.2574 
 H                    -4.1151   -0.2045   -1.2221 
 H                    -2.5332   -0.6573   -1.8612 
 O                    -1.1153    1.1972   -0.4013 
 H                    -0.5892    0.4818   -0.8018 
 C                    -3.2188    1.3102   -2.5132 
 H                    -3.6403    0.9326   -3.4557 
 H                    -2.229     1.7386   -2.7193 
 H                    -3.8658    2.1263   -2.1562 
 
 ITRead=  0  0  0  0  0  0  0  0  0  0  0  0  0  0  0  0  0  0  0  0
 ITRead=  0  0  0  0  0  0  0  0  0  0  0  0  0  0  0  0
 MicOpt= -1 -1 -1 -1 -1 -1 -1 -1 -1 -1 -1 -1 -1 -1 -1 -1 -1 -1 -1 -1
 MicOpt= -1 -1 -1 -1 -1 -1 -1 -1 -1 -1 -1 -1 -1 -1 -1 -1
 NAtoms=     36 NQM=       36 NQMF=       0 NMMI=      0 NMMIF=      0
                NMic=       0 NMicF=      0.
                    Isotopes and Nuclear Properties:
 (Nuclear quadrupole moments (NQMom) in fm**2, nuclear magnetic moments (NMagM)
  in nuclear magnetons)

  Atom         1           2           3           4           5           6           7           8           9          10
 IAtWgt=           1          12          12           1           1           1           1          12          12           1
 AtmWgt=   1.0078250  12.0000000  12.0000000   1.0078250   1.0078250   1.0078250   1.0078250  12.0000000  12.0000000   1.0078250
 NucSpn=           1           0           0           1           1           1           1           0           0           1
 AtZEff=  -0.0000000  -0.0000000  -0.0000000  -0.0000000  -0.0000000  -0.0000000  -0.0000000  -0.0000000  -0.0000000  -0.0000000
 NQMom=    0.0000000   0.0000000   0.0000000   0.0000000   0.0000000   0.0000000   0.0000000   0.0000000   0.0000000   0.0000000
 NMagM=    2.7928460   0.0000000   0.0000000   2.7928460   2.7928460   2.7928460   2.7928460   0.0000000   0.0000000   2.7928460
 AtZNuc=   1.0000000   6.0000000   6.0000000   1.0000000   1.0000000   1.0000000   1.0000000   6.0000000   6.0000000   1.0000000

  Atom        11          12          13          14          15          16          17          18          19          20
 IAtWgt=           1           1          16           1          12           1           1           1           1          12
 AtmWgt=   1.0078250   1.0078250  15.9949146   1.0078250  12.0000000   1.0078250   1.0078250   1.0078250   1.0078250  12.0000000
 NucSpn=           1           1           0           1           0           1           1           1           1           0
 AtZEff=  -0.0000000  -0.0000000  -0.0000000  -0.0000000  -0.0000000  -0.0000000  -0.0000000  -0.0000000  -0.0000000  -0.0000000
 NQMom=    0.0000000   0.0000000   0.0000000   0.0000000   0.0000000   0.0000000   0.0000000   0.0000000   0.0000000   0.0000000
 NMagM=    2.7928460   2.7928460   0.0000000   2.7928460   0.0000000   2.7928460   2.7928460   2.7928460   2.7928460   0.0000000
 AtZNuc=   1.0000000   1.0000000   8.0000000   1.0000000   6.0000000   1.0000000   1.0000000   1.0000000   1.0000000   6.0000000

  Atom        21          22          23          24          25          26          27          28          29          30
 IAtWgt=          12           1           1           1           1          12          12           1           1           1
 AtmWgt=  12.0000000   1.0078250   1.0078250   1.0078250   1.0078250  12.0000000  12.0000000   1.0078250   1.0078250   1.0078250
 NucSpn=           0           1           1           1           1           0           0           1           1           1
 AtZEff=  -0.0000000  -0.0000000  -0.0000000  -0.0000000  -0.0000000  -0.0000000  -0.0000000  -0.0000000  -0.0000000  -0.0000000
 NQMom=    0.0000000   0.0000000   0.0000000   0.0000000   0.0000000   0.0000000   0.0000000   0.0000000   0.0000000   0.0000000
 NMagM=    0.0000000   2.7928460   2.7928460   2.7928460   2.7928460   0.0000000   0.0000000   2.7928460   2.7928460   2.7928460
 AtZNuc=   6.0000000   1.0000000   1.0000000   1.0000000   1.0000000   6.0000000   6.0000000   1.0000000   1.0000000   1.0000000

  Atom        31          32          33          34          35          36
 IAtWgt=          16           1          12           1           1           1
 AtmWgt=  15.9949146   1.0078250  12.0000000   1.0078250   1.0078250   1.0078250
 NucSpn=           0           1           0           1           1           1
 AtZEff=  -0.0000000  -0.0000000  -0.0000000  -0.0000000  -0.0000000  -0.0000000
 NQMom=    0.0000000   0.0000000   0.0000000   0.0000000   0.0000000   0.0000000
 NMagM=    0.0000000   2.7928460   0.0000000   2.7928460   2.7928460   2.7928460
 AtZNuc=   8.0000000   1.0000000   6.0000000   1.0000000   1.0000000   1.0000000
 Leave Link  101 at Tue Feb 14 10:44:44 2023, MaxMem=   131072000 cpu:               0.7 elap:               0.1
 (Enter /dragofs/sw/campus/0.2/software/gaussian/16.gaussian/gaussian/g16_legacy/l103.exe)

 GradGradGradGradGradGradGradGradGradGradGradGradGradGradGradGradGradGrad
 Berny optimization.
 Initialization pass.
 Trust Radius=3.00D-01 FncErr=1.00D-07 GrdErr=1.00D-07 EigMax=2.50D+02 EigMin=1.00D-04
 Number of steps in this run=      2 maximum allowed number of steps=      2.
 GradGradGradGradGradGradGradGradGradGradGradGradGradGradGradGradGradGrad

 Leave Link  103 at Tue Feb 14 10:44:44 2023, MaxMem=   131072000 cpu:               0.1 elap:               0.0
 (Enter /dragofs/sw/campus/0.2/software/gaussian/16.gaussian/gaussian/g16_legacy/l202.exe)
                          Input orientation:                          
 ---------------------------------------------------------------------
 Center     Atomic      Atomic             Coordinates (Angstroms)
 Number     Number       Type             X           Y           Z
 ---------------------------------------------------------------------
      1          1           0        1.854400   -3.034500    1.185400
      2          6           0        1.281100   -2.171500    1.546800
      3          6           0        1.355100   -1.012200    0.534100
      4          1           0        0.240300   -2.484800    1.714500
      5          1           0        1.698800   -1.867500    2.519100
      6          1           0        0.785000   -0.152800    0.909000
      7          1           0        0.893800   -1.323100   -0.420400
      8          6           0        2.788100   -0.558400    0.217900
      9          6           0        2.858200    0.674200   -0.714300
     10          1           0        3.298400   -0.308700    1.172100
     11          1           0        2.323800    0.430300   -1.647400
     12          1           0        3.916200    0.818700   -0.996400
     13          8           0        3.437600   -1.703000   -0.399500
     14          1           0        4.366600   -1.461900   -0.555000
     15          6           0        2.315700    1.983500   -0.098200
     16          1           0        2.513000    2.836000   -0.764000
     17          1           0        2.803600    2.196100    0.866200
     18          1           0        1.231600    1.944900    0.071300
     19          1           0       -1.749200   -0.793400    3.000700
     20          6           0       -1.884200    0.039900    2.296600
     21          6           0       -2.391800   -0.456200    0.928200
     22          1           0       -2.596000    0.750200    2.744400
     23          1           0       -0.922600    0.557800    2.188900
     24          1           0       -3.399000   -0.891700    1.037200
     25          1           0       -1.743200   -1.267200    0.554100
     26          6           0       -2.443600    0.655400   -0.144300
     27          6           0       -3.113400    0.192100   -1.456700
     28          1           0       -3.000700    1.518100    0.257400
     29          1           0       -4.115100   -0.204500   -1.222100
     30          1           0       -2.533200   -0.657300   -1.861200
     31          8           0       -1.115300    1.197200   -0.401300
     32          1           0       -0.589200    0.481800   -0.801800
     33          6           0       -3.218800    1.310200   -2.513200
     34          1           0       -3.640300    0.932600   -3.455700
     35          1           0       -2.229000    1.738600   -2.719300
     36          1           0       -3.865800    2.126300   -2.156200
 ---------------------------------------------------------------------
                    Distance matrix (angstroms):
                    1          2          3          4          5
     1  H    0.000000
     2  C    1.097293   0.000000
     3  C    2.182473   1.541108   0.000000
     4  H    1.785339   1.099793   2.191957   0.000000
     5  H    1.779004   1.101025   2.188582   1.776419   0.000000
     6  H    3.086132   2.174409   1.097330   2.526609   2.523420
     7  H    2.535791   2.177076   1.104775   2.516825   3.095974
     8  C    2.817609   2.576648   1.536036   3.527338   2.862838
     9  C    4.286132   3.962048   2.581038   4.767783   4.273093
    10  H    3.084688   2.771267   2.162954   3.792306   2.608254
    11  H    4.499992   4.249647   2.788930   4.913365   4.798982
    12  H    4.884508   4.727887   3.500551   5.636873   4.948866
    13  O    2.606017   2.942460   2.384454   3.911897   3.401281
    14  H    3.437035   3.800185   3.233806   4.819057   4.090447
    15  C    5.200072   4.586987   3.208859   5.249654   4.696917
    16  H    6.220666   5.650879   4.223084   6.294366   5.793495
    17  H    5.325603   4.675163   3.535765   5.403790   4.523882
    18  H    5.140382   4.373134   2.995643   4.827528   4.554601
    19  H    4.615601   3.632589   3.970978   2.910886   3.643396
    20  C    4.966269   3.933397   3.834891   3.350590   4.065165
    21  C    4.974334   4.100624   3.808374   3.414884   4.610395
    22  H    6.046528   5.000248   4.858258   4.423858   5.034721
    23  H    4.650093   3.566183   3.223535   3.291627   3.586482
    24  H    5.675541   4.878618   4.782164   4.030038   5.397757
    25  H    4.057661   3.309018   3.108840   2.600644   4.008609
    26  C    5.818614   4.972381   4.203717   4.529825   5.533372
    27  C    6.486191   5.824023   5.037967   5.335692   6.573143
    28  H    6.720070   5.797371   5.044995   5.352610   6.217948
    29  H    7.031350   6.376117   5.801699   5.726508   7.110807
    30  H    5.846699   5.334431   4.580643   4.880337   6.209786
    31  O    5.407774   4.570117   3.443733   4.457733   5.083334
    32  H    4.720647   4.006737   2.792305   3.977506   4.667176
    33  C    7.635013   6.989631   5.966585   6.651379   7.720402
    34  H    8.213977   7.673371   6.682423   7.312226   8.487920
    35  H    7.396169   6.768256   5.567521   6.602510   7.474785
    36  H    8.397668   7.659887   6.659256   7.287292   8.292988
                    6          7          8          9         10
     6  H    0.000000
     7  H    1.774470   0.000000
     8  C    2.157438   2.140226   0.000000
     9  C    2.759926   2.816816   1.547001   0.000000
    10  H    2.531937   3.057313   1.110520   2.172182   0.000000
    11  H    3.040245   2.573877   2.161584   1.102609   3.073361
    12  H    3.791936   3.748864   2.154887   1.104457   2.520932
    13  O    3.339398   2.572096   1.453665   2.466958   2.105558
    14  H    4.084715   3.478178   1.976196   2.619842   2.335336
    15  C    2.814475   3.613754   2.604676   1.545365   2.798847
    16  H    3.836384   4.476381   3.544257   2.189752   3.775510
    17  H    3.097404   4.205644   2.829806   2.194799   2.571464
    18  H    2.302507   3.322003   2.951389   2.208546   3.249944
    19  H    3.347797   4.355451   5.327879   6.097804   5.390452
    20  C    3.014498   4.117905   5.148723   5.653160   5.314637
    21  C    3.191313   3.655873   5.229372   5.615880   5.697334
    22  H    3.951615   5.147158   6.089677   6.458845   6.191716
    23  H    2.249221   3.693987   4.347417   4.768288   4.427363
    24  H    4.250678   4.553991   6.250004   6.683737   6.724080
    25  H    2.785612   2.811858   4.598707   5.152742   5.168982
    26  C    3.490915   3.889593   5.382860   5.332386   5.969335
    27  C    4.573075   4.407653   6.180230   6.036852   6.947846
    28  H    4.189035   4.868158   6.150091   5.998590   6.622125
    29  H    5.343710   5.194523   7.060667   7.046764   7.791215
    30  H    4.351894   3.776708   5.713902   5.670579   6.582552
    31  O    2.674047   3.223160   4.324589   4.019975   4.921795
    32  H    2.284290   2.366943   3.678037   3.453873   4.431095
    33  C    5.466465   5.312961   6.858092   6.369495   7.660037
    34  H    6.309673   5.904176   7.552665   7.057800   8.432255
    35  H    5.081944   4.940732   6.250972   5.570689   7.063043
    36  H    6.018280   6.129042   7.557668   7.028502   8.266352
                   11         12         13         14         15
    11  H    0.000000
    12  H    1.763631   0.000000
    13  O    2.710862   2.635207   0.000000
    14  H    2.991119   2.366185   0.972291   0.000000
    15  C    2.193745   2.173735   3.865194   4.035547   0.000000
    16  H    2.569744   2.468295   4.646533   4.685238   1.099533
    17  H    3.109090   2.569900   4.148124   4.224185   1.101505
    18  H    2.537882   3.100869   4.288970   4.671912   1.097949
    19  H    6.300127   7.118457   6.268303   7.105836   5.817024
    20  C    5.780555   6.715282   6.215160   7.032747   5.210740
    21  C    5.445776   6.717166   6.107307   6.991944   5.400573
    22  H    6.602626   7.510461   7.232332   8.016060   5.807426
    23  H    5.027183   5.798982   5.551790   6.291567   4.213079
    24  H    6.457956   7.782875   7.032881   7.947627   6.497207
    25  H    4.926317   6.227667   5.285827   6.212702   5.240917
    26  C    5.003807   6.418707   6.341584   7.143561   4.941347
    27  C    5.445755   7.072466   6.901063   7.713571   5.876203
    28  H    5.758635   7.064324   7.229019   7.988586   5.348566
    29  H    6.484079   8.099362   7.743736   8.600309   6.885179
    30  H    4.981870   6.672422   6.235424   7.068294   5.796018
    31  O    3.737420   5.080689   5.398154   6.094724   3.532973
    32  H    3.033688   4.522168   4.598947   5.329056   3.344936
    33  C    5.678402   7.310983   7.606232   8.310077   6.075874
    34  H    6.252419   7.947441   8.147602   8.846363   6.917451
    35  H    4.856810   6.448107   7.023990   7.643908   5.252089
    36  H    6.437891   7.975868   8.431440   9.122030   6.516648
                   16         17         18         19         20
    16  H    0.000000
    17  H    1.775239   0.000000
    18  H    1.770246   1.779368   0.000000
    19  H    6.746248   5.849888   4.996483   0.000000
    20  C    6.043245   5.354504   4.276587   1.099259   0.000000
    21  C    6.144850   5.833586   4.430416   2.195881   1.541522
    22  H    6.539214   5.896943   4.819055   1.779174   1.100777
    23  H    5.070815   4.279968   3.323982   1.779896   1.097495
    24  H    7.217466   6.930801   5.515589   2.566483   2.179125
    25  H    6.057134   5.724093   4.404556   2.492062   2.182819
    26  C    5.450406   5.561293   3.900819   3.531606   2.578713
    27  C    6.255111   6.665041   4.928095   4.764522   3.952386
    28  H    5.760296   5.875391   4.257835   3.799339   2.754993
    29  H    7.306586   7.615267   5.905930   4.876097   4.173475
    30  H    6.234671   6.637924   4.967869   4.926586   4.265512
    31  O    3.997722   4.238176   2.508056   3.992233   3.034669
    32  H    3.894526   4.151161   2.493648   4.175014   3.387091
    33  C    6.183955   6.962361   5.185417   6.081772   5.150631
    34  H    6.980779   7.861240   6.099171   6.945534   6.080276
    35  H    5.245384   6.196142   4.450366   6.273726   5.306950
    36  H    6.567418   7.322614   5.565802   6.292715   5.301625
                   21         22         23         24         25
    21  C    0.000000
    22  H    2.189904   0.000000
    23  H    2.185431   1.773659   0.000000
    24  H    1.102721   2.501035   3.091928   0.000000
    25  H    1.103791   3.097513   2.583908   1.765236   0.000000
    26  C    1.545508   2.894270   2.786896   2.168467   2.162109
    27  C    2.574635   4.269475   4.268927   2.734178   2.837309
    28  H    2.172232   2.634126   2.995224   2.563955   3.070380
    29  H    2.767111   4.353417   4.733717   2.467687   3.148035
    30  H    2.800212   4.816280   4.524799   3.034020   2.613379
    31  O    2.476036   3.505383   2.674902   3.412927   2.716674
    32  H    2.668728   4.083481   3.010186   3.628140   2.495833
    33  C    3.955671   5.323893   5.286623   4.181647   4.269510
    34  H    4.765091   6.290077   6.275976   4.855146   4.951424
    35  H    4.260036   5.564498   5.214537   4.732723   4.470569
    36  H    4.284333   5.246134   5.477455   4.418600   4.833942
                   26         27         28         29         30
    26  C    0.000000
    27  C    1.544562   0.000000
    28  H    1.102712   2.170050   0.000000
    29  H    2.166793   1.102602   2.529458   0.000000
    30  H    2.163089   1.105320   3.072359   1.765187   0.000000
    31  O    1.457387   2.473156   2.022769   3.411345   2.753347
    32  H    1.975156   2.623815   2.830398   3.616577   2.489782
    33  C    2.577089   1.541898   2.786936   2.182798   2.183165
    34  H    3.531898   2.195897   3.813005   2.550961   2.509160
    35  H    2.801785   2.183571   3.082999   3.094288   2.563047
    36  H    2.869484   2.190099   2.635103   2.523355   3.100206
                   31         32         33         34         35
    31  O    0.000000
    32  H    0.974155   0.000000
    33  C    2.982885   3.244986   0.000000
    34  H    3.971775   4.068859   1.099341   0.000000
    35  H    2.628035   2.818740   1.098047   1.784289   0.000000
    36  H    3.392367   3.908310   1.100944   1.778896   1.773840
                   36
    36  H    0.000000
 Stoichiometry    C10H24O2
 Framework group  C1[X(C10H24O2)]
 Deg. of freedom   102
 Full point group                 C1      NOp   1
 Largest Abelian subgroup         C1      NOp   1
 Largest concise Abelian subgroup C1      NOp   1
                         Standard orientation:                         
 ---------------------------------------------------------------------
 Center     Atomic      Atomic             Coordinates (Angstroms)
 Number     Number       Type             X           Y           Z
 ---------------------------------------------------------------------
      1          1           0       -2.622385    2.289199   -1.447124
      2          6           0       -1.938352    2.183490   -0.595669
      3          6           0       -1.614212    0.697826   -0.345167
      4          1           0       -1.024271    2.758389   -0.804217
      5          1           0       -2.420421    2.631858    0.286846
      6          1           0       -0.936025    0.603716    0.512351
      7          1           0       -1.094115    0.277934   -1.224778
      8          6           0       -2.855407   -0.171840   -0.095123
      9          6           0       -2.523774   -1.639916    0.262630
     10          1           0       -3.435804    0.272647    0.740834
     11          1           0       -1.921972   -2.065951   -0.557172
     12          1           0       -3.473505   -2.203636    0.269979
     13          8           0       -3.635207   -0.108597   -1.320298
     14          1           0       -4.458438   -0.602841   -1.167447
     15          6           0       -1.812127   -1.830287    1.621110
     16          1           0       -1.723411   -2.898565    1.865825
     17          1           0       -2.380275   -1.350088    2.433470
     18          1           0       -0.798084   -1.409323    1.621488
     19          1           0        1.067676    3.203724    1.170293
     20          6           0        1.478945    2.200623    1.351997
     21          6           0        2.065358    1.590914    0.063328
     22          1           0        2.251576    2.287023    2.131283
     23          1           0        0.676029    1.567134    1.750133
     24          1           0        2.929649    2.186906   -0.273997
     25          1           0        1.321513    1.636870   -0.750881
     26          6           0        2.509684    0.120078    0.230091
     27          6           0        3.251503   -0.426774   -1.009397
     28          1           0        3.172069    0.041027    1.108141
     29          1           0        4.100252    0.239399   -1.236487
     30          1           0        2.570045   -0.363622   -1.877359
     31          8           0        1.379616   -0.731964    0.577864
     32          1           0        0.778316   -0.733345   -0.188566
     33          6           0        3.746631   -1.876113   -0.831308
     34          1           0        4.212335   -2.256491   -1.751625
     35          1           0        2.911941   -2.536982   -0.562513
     36          1           0        4.492534   -1.938491   -0.023957
 ---------------------------------------------------------------------
 Rotational constants (GHZ):           0.9820114           0.3874149           0.3339328
 Leave Link  202 at Tue Feb 14 10:44:44 2023, MaxMem=   131072000 cpu:               0.0 elap:               0.0
 (Enter /dragofs/sw/campus/0.2/software/gaussian/16.gaussian/gaussian/g16_legacy/l301.exe)
 Standard basis: 6-311G(d,p) (5D, 7F)
 Ernie: Thresh=  0.10000D-02 Tol=  0.10000D-05 Strict=F.
 There are   372 symmetry adapted cartesian basis functions of A   symmetry.
 There are   360 symmetry adapted basis functions of A   symmetry.
   360 basis functions,   576 primitive gaussians,   372 cartesian basis functions
    50 alpha electrons       50 beta electrons
       nuclear repulsion energy       769.0338673471 Hartrees.
 IExCor=  402 DFT=T Ex=B Corr=LYP ExCW=0 ScaHFX=  0.000000
 ScaDFX=  1.000000  1.000000  1.000000  1.000000 ScalE2=  1.000000  1.000000
 IRadAn=      5 IRanWt=     -1 IRanGd=            0 ICorTp=0 IEmpDi=131
 NAtoms=   36 NActive=   36 NUniq=   36 SFac= 1.00D+00 NAtFMM=   60 NAOKFM=F Big=F
 Integral buffers will be    131072 words long.
 Raffenetti 2 integral format.
 Two-electron integral symmetry is turned on.
 R6Disp:  Grimme-D3 Dispersion energy=       -0.0417824148 Hartrees.
 Nuclear repulsion after empirical dispersion term =      768.9920849322 Hartrees.
 Leave Link  301 at Tue Feb 14 10:44:45 2023, MaxMem=   131072000 cpu:               0.4 elap:               0.1
 (Enter /dragofs/sw/campus/0.2/software/gaussian/16.gaussian/gaussian/g16_legacy/l302.exe)
 NPDir=0 NMtPBC=     1 NCelOv=     1 NCel=       1 NClECP=     1 NCelD=      1
         NCelK=      1 NCelE2=     1 NClLst=     1 CellRange=     0.0.
 One-electron integrals computed using PRISM.
 One-electron integral symmetry used in STVInt
 NBasis=   360 RedAO= T EigKep=  1.58D-03  NBF=   360
 NBsUse=   360 1.00D-06 EigRej= -1.00D+00 NBFU=   360
 Precomputing XC quadrature grid using
 IXCGrd= 4 IRadAn=           5 IRanWt=          -1 IRanGd=           0 AccXCQ= 0.00D+00.
 Generated NRdTot=       0 NPtTot=           0 NUsed=           0 NTot=          32
 NSgBfM=   372   372   372   372   372 MxSgAt=    36 MxSgA2=    36.
 Leave Link  302 at Tue Feb 14 10:44:45 2023, MaxMem=   131072000 cpu:               3.2 elap:               0.4
 (Enter /dragofs/sw/campus/0.2/software/gaussian/16.gaussian/gaussian/g16_legacy/l303.exe)
 DipDrv:  MaxL=1.
 Leave Link  303 at Tue Feb 14 10:44:45 2023, MaxMem=   131072000 cpu:               0.3 elap:               0.1
 (Enter /dragofs/sw/campus/0.2/software/gaussian/16.gaussian/gaussian/g16_legacy/l401.exe)
 ExpMin= 1.03D-01 ExpMax= 8.59D+03 ExpMxC= 1.30D+03 IAcc=3 IRadAn=         5 AccDes= 0.00D+00
 Harris functional with IExCor=  402 and IRadAn=       5 diagonalized for initial guess.
 HarFok:  IExCor=  402 AccDes= 0.00D+00 IRadAn=         5 IDoV= 1 UseB2=F ITyADJ=14
 ICtDFT=  3500011 ScaDFX=  1.000000  1.000000  1.000000  1.000000
 FoFCou: FMM=F IPFlag=           0 FMFlag=      100000 FMFlg1=           0
         NFxFlg=           0 DoJE=T BraDBF=F KetDBF=T FulRan=T
         wScrn=  0.000000 ICntrl=       500 IOpCl=  0 I1Cent=   200000004 NGrid=           0
         NMat0=    1 NMatS0=      1 NMatT0=    0 NMatD0=    1 NMtDS0=    0 NMtDT0=    0
 Petite list used in FoFCou.
 Harris En= -546.317729645211    
 JPrj=0 DoOrth=F DoCkMO=F.
 Leave Link  401 at Tue Feb 14 10:44:47 2023, MaxMem=   131072000 cpu:              19.1 elap:               2.4
 (Enter /dragofs/sw/campus/0.2/software/gaussian/16.gaussian/gaussian/g16_legacy/l502.exe)
 Integral symmetry usage will be decided dynamically.
 Closed shell SCF:
 Using DIIS extrapolation, IDIIS=  1040.
 NGot=   131072000 LenX=   130788220 LenY=   130649395
 Requested convergence on RMS density matrix=1.00D-08 within 128 cycles.
 Requested convergence on MAX density matrix=1.00D-06.
 Requested convergence on             energy=1.00D-06.
 No special actions if energy rises.
 Fock matrices will be formed incrementally for  20 cycles.
 Integral accuracy reduced to 1.0D-05 until final iterations.

 Cycle   1  Pass 0  IDiag  1:
 FoFJK:  IHMeth= 1 ICntrl=     500 DoSepK=F KAlg= 0 I1Cent=           0 FoldK=F
 IRaf= 830000000 NMat=       1 IRICut=       1 DoRegI=T DoRafI=F ISym2E= 0 IDoP0=0 IntGTp=1.
 FoFCou: FMM=F IPFlag=           0 FMFlag=      100000 FMFlg1=           0
         NFxFlg=           0 DoJE=T BraDBF=F KetDBF=F FulRan=T
         wScrn=  0.000000 ICntrl=       500 IOpCl=  0 I1Cent=           0 NGrid=           0
         NMat0=    1 NMatS0=      1 NMatT0=    0 NMatD0=    1 NMtDS0=    0 NMtDT0=    0
 Symmetry not used in FoFCou.
 E= -545.357584422711    
 DIIS: error= 4.20D-02 at cycle   1 NSaved=   1.
 NSaved= 1 IEnMin= 1 EnMin= -545.357584422711     IErMin= 1 ErrMin= 4.20D-02
 ErrMax= 4.20D-02  0.00D+00 EMaxC= 1.00D-01 BMatC= 5.19D-01 BMatP= 5.19D-01
 IDIUse=3 WtCom= 5.80D-01 WtEn= 4.20D-01
 Coeff-Com:  0.100D+01
 Coeff-En:   0.100D+01
 Coeff:      0.100D+01
 Gap=     0.133 Goal=   None    Shift=    0.000
 GapD=    0.133 DampG=1.000 DampE=0.500 DampFc=0.5000 IDamp=-1.
 Damping current iteration by 5.00D-01
 RMSDP=4.71D-03 MaxDP=1.31D-01              OVMax= 2.14D-01

 Cycle   2  Pass 0  IDiag  1:
 RMSU=  2.34D-03    CP:  9.70D-01
 E= -545.475732388348     Delta-E=       -0.118147965637 Rises=F Damp=T
 DIIS: error= 1.39D-02 at cycle   2 NSaved=   2.
 NSaved= 2 IEnMin= 2 EnMin= -545.475732388348     IErMin= 2 ErrMin= 1.39D-02
 ErrMax= 1.39D-02  0.00D+00 EMaxC= 1.00D-01 BMatC= 7.18D-02 BMatP= 5.19D-01
 IDIUse=3 WtCom= 8.61D-01 WtEn= 1.39D-01
 Coeff-Com:  0.244D+00 0.756D+00
 Coeff-En:   0.388D+00 0.612D+00
 Coeff:      0.264D+00 0.736D+00
 Gap=     0.245 Goal=   None    Shift=    0.000
 RMSDP=1.13D-03 MaxDP=3.73D-02 DE=-1.18D-01 OVMax= 1.43D-01

 Cycle   3  Pass 0  IDiag  1:
 RMSU=  6.88D-04    CP:  9.77D-01  6.18D-01
 E= -545.859406427383     Delta-E=       -0.383674039035 Rises=F Damp=F
 DIIS: error= 7.71D-03 at cycle   3 NSaved=   3.
 NSaved= 3 IEnMin= 3 EnMin= -545.859406427383     IErMin= 3 ErrMin= 7.71D-03
 ErrMax= 7.71D-03  0.00D+00 EMaxC= 1.00D-01 BMatC= 1.50D-02 BMatP= 7.18D-02
 IDIUse=3 WtCom= 9.23D-01 WtEn= 7.71D-02
 Coeff-Com:  0.101D+00 0.354D+00 0.545D+00
 Coeff-En:   0.000D+00 0.000D+00 0.100D+01
 Coeff:      0.935D-01 0.326D+00 0.580D+00
 Gap=     0.218 Goal=   None    Shift=    0.000
 RMSDP=4.38D-04 MaxDP=1.68D-02 DE=-3.84D-01 OVMax= 3.58D-02

 Cycle   4  Pass 0  IDiag  1:
 RMSU=  3.21D-04    CP:  9.81D-01  6.64D-01  6.00D-01
 E= -545.865523392582     Delta-E=       -0.006116965199 Rises=F Damp=F
 DIIS: error= 5.80D-03 at cycle   4 NSaved=   4.
 NSaved= 4 IEnMin= 4 EnMin= -545.865523392582     IErMin= 4 ErrMin= 5.80D-03
 ErrMax= 5.80D-03  0.00D+00 EMaxC= 1.00D-01 BMatC= 7.71D-03 BMatP= 1.50D-02
 IDIUse=3 WtCom= 9.42D-01 WtEn= 5.80D-02
 Coeff-Com:  0.255D-01 0.100D+00 0.405D+00 0.469D+00
 Coeff-En:   0.000D+00 0.000D+00 0.359D+00 0.641D+00
 Coeff:      0.240D-01 0.945D-01 0.402D+00 0.479D+00
 Gap=     0.221 Goal=   None    Shift=    0.000
 RMSDP=2.03D-04 MaxDP=8.46D-03 DE=-6.12D-03 OVMax= 1.56D-02

 Cycle   5  Pass 0  IDiag  1:
 RMSU=  1.01D-04    CP:  9.78D-01  6.52D-01  7.09D-01  5.17D-01
 E= -545.871440064418     Delta-E=       -0.005916671836 Rises=F Damp=F
 DIIS: error= 6.90D-04 at cycle   5 NSaved=   5.
 NSaved= 5 IEnMin= 5 EnMin= -545.871440064418     IErMin= 5 ErrMin= 6.90D-04
 ErrMax= 6.90D-04  0.00D+00 EMaxC= 1.00D-01 BMatC= 1.58D-04 BMatP= 7.71D-03
 IDIUse=3 WtCom= 9.93D-01 WtEn= 6.90D-03
 Coeff-Com:  0.391D-02 0.170D-01 0.135D+00 0.212D+00 0.633D+00
 Coeff-En:   0.000D+00 0.000D+00 0.000D+00 0.000D+00 0.100D+01
 Coeff:      0.388D-02 0.169D-01 0.134D+00 0.210D+00 0.635D+00
 Gap=     0.220 Goal=   None    Shift=    0.000
 RMSDP=3.95D-05 MaxDP=1.44D-03 DE=-5.92D-03 OVMax= 1.86D-03

 Cycle   6  Pass 0  IDiag  1:
 RMSU=  2.05D-05    CP:  9.78D-01  6.51D-01  7.20D-01  5.40D-01  6.84D-01
 E= -545.871554916160     Delta-E=       -0.000114851741 Rises=F Damp=F
 DIIS: error= 2.48D-04 at cycle   6 NSaved=   6.
 NSaved= 6 IEnMin= 6 EnMin= -545.871554916160     IErMin= 6 ErrMin= 2.48D-04
 ErrMax= 2.48D-04  0.00D+00 EMaxC= 1.00D-01 BMatC= 2.61D-05 BMatP= 1.58D-04
 IDIUse=3 WtCom= 9.98D-01 WtEn= 2.48D-03
 Coeff-Com:  0.134D-02 0.501D-02 0.609D-01 0.104D+00 0.387D+00 0.442D+00
 Coeff-En:   0.000D+00 0.000D+00 0.000D+00 0.000D+00 0.606D-01 0.939D+00
 Coeff:      0.134D-02 0.499D-02 0.607D-01 0.103D+00 0.386D+00 0.444D+00
 Gap=     0.220 Goal=   None    Shift=    0.000
 RMSDP=1.17D-05 MaxDP=6.01D-04 DE=-1.15D-04 OVMax= 6.67D-04

 Cycle   7  Pass 0  IDiag  1:
 RMSU=  6.28D-06    CP:  9.78D-01  6.52D-01  7.18D-01  5.43D-01  7.19D-01
                    CP:  5.77D-01
 E= -545.871577030813     Delta-E=       -0.000022114654 Rises=F Damp=F
 DIIS: error= 6.18D-05 at cycle   7 NSaved=   7.
 NSaved= 7 IEnMin= 7 EnMin= -545.871577030813     IErMin= 7 ErrMin= 6.18D-05
 ErrMax= 6.18D-05  0.00D+00 EMaxC= 1.00D-01 BMatC= 1.03D-06 BMatP= 2.61D-05
 IDIUse=1 WtCom= 1.00D+00 WtEn= 0.00D+00
 Coeff-Com:  0.529D-03 0.115D-02 0.206D-01 0.362D-01 0.146D+00 0.229D+00
 Coeff-Com:  0.567D+00
 Coeff:      0.529D-03 0.115D-02 0.206D-01 0.362D-01 0.146D+00 0.229D+00
 Coeff:      0.567D+00
 Gap=     0.220 Goal=   None    Shift=    0.000
 RMSDP=3.51D-06 MaxDP=1.19D-04 DE=-2.21D-05 OVMax= 2.18D-04

 Initial convergence to 1.0D-05 achieved.  Increase integral accuracy.
 Cycle   8  Pass 1  IDiag  1:
 E= -545.871541321251     Delta-E=        0.000035709562 Rises=F Damp=F
 DIIS: error= 2.32D-05 at cycle   1 NSaved=   1.
 NSaved= 1 IEnMin= 1 EnMin= -545.871541321251     IErMin= 1 ErrMin= 2.32D-05
 ErrMax= 2.32D-05  0.00D+00 EMaxC= 1.00D-01 BMatC= 2.73D-07 BMatP= 2.73D-07
 IDIUse=1 WtCom= 1.00D+00 WtEn= 0.00D+00
 Coeff-Com:  0.100D+01
 Coeff:      0.100D+01
 Gap=     0.220 Goal=   None    Shift=    0.000
 RMSDP=3.51D-06 MaxDP=1.19D-04 DE= 3.57D-05 OVMax= 1.92D-04

 Cycle   9  Pass 1  IDiag  1:
 RMSU=  6.22D-06    CP:  1.00D+00
 E= -545.871540946456     Delta-E=        0.000000374795 Rises=F Damp=F
 DIIS: error= 5.39D-05 at cycle   2 NSaved=   2.
 NSaved= 2 IEnMin= 1 EnMin= -545.871541321251     IErMin= 1 ErrMin= 2.32D-05
 ErrMax= 5.39D-05  0.00D+00 EMaxC= 1.00D-01 BMatC= 8.08D-07 BMatP= 2.73D-07
 IDIUse=1 WtCom= 1.00D+00 WtEn= 0.00D+00
 Coeff-Com:  0.645D+00 0.355D+00
 Coeff:      0.645D+00 0.355D+00
 Gap=     0.220 Goal=   None    Shift=    0.000
 RMSDP=2.26D-06 MaxDP=7.84D-05 DE= 3.75D-07 OVMax= 1.46D-04

 Cycle  10  Pass 1  IDiag  1:
 RMSU=  1.99D-06    CP:  1.00D+00  8.26D-01
 E= -545.871541566939     Delta-E=       -0.000000620483 Rises=F Damp=F
 DIIS: error= 8.41D-06 at cycle   3 NSaved=   3.
 NSaved= 3 IEnMin= 3 EnMin= -545.871541566939     IErMin= 3 ErrMin= 8.41D-06
 ErrMax= 8.41D-06  0.00D+00 EMaxC= 1.00D-01 BMatC= 1.72D-08 BMatP= 2.73D-07
 IDIUse=1 WtCom= 1.00D+00 WtEn= 0.00D+00
 Coeff-Com:  0.112D+00 0.144D+00 0.745D+00
 Coeff:      0.112D+00 0.144D+00 0.745D+00
 Gap=     0.220 Goal=   None    Shift=    0.000
 RMSDP=4.15D-07 MaxDP=1.92D-05 DE=-6.20D-07 OVMax= 2.35D-05

 Cycle  11  Pass 1  IDiag  1:
 RMSU=  3.98D-07    CP:  1.00D+00  8.31D-01  9.42D-01
 E= -545.871541573199     Delta-E=       -0.000000006260 Rises=F Damp=F
 DIIS: error= 3.19D-06 at cycle   4 NSaved=   4.
 NSaved= 4 IEnMin= 4 EnMin= -545.871541573199     IErMin= 4 ErrMin= 3.19D-06
 ErrMax= 3.19D-06  0.00D+00 EMaxC= 1.00D-01 BMatC= 5.96D-09 BMatP= 1.72D-08
 IDIUse=1 WtCom= 1.00D+00 WtEn= 0.00D+00
 Coeff-Com:  0.714D-02 0.572D-01 0.462D+00 0.473D+00
 Coeff:      0.714D-02 0.572D-01 0.462D+00 0.473D+00
 Gap=     0.220 Goal=   None    Shift=    0.000
 RMSDP=2.06D-07 MaxDP=9.51D-06 DE=-6.26D-09 OVMax= 1.19D-05

 Cycle  12  Pass 1  IDiag  1:
 RMSU=  7.13D-08    CP:  1.00D+00  8.36D-01  9.26D-01  5.26D-01
 E= -545.871541578932     Delta-E=       -0.000000005733 Rises=F Damp=F
 DIIS: error= 6.41D-07 at cycle   5 NSaved=   5.
 NSaved= 5 IEnMin= 5 EnMin= -545.871541578932     IErMin= 5 ErrMin= 6.41D-07
 ErrMax= 6.41D-07  0.00D+00 EMaxC= 1.00D-01 BMatC= 1.65D-10 BMatP= 5.96D-09
 IDIUse=1 WtCom= 1.00D+00 WtEn= 0.00D+00
 Coeff-Com:  0.144D-03 0.268D-01 0.226D+00 0.259D+00 0.488D+00
 Coeff:      0.144D-03 0.268D-01 0.226D+00 0.259D+00 0.488D+00
 Gap=     0.220 Goal=   None    Shift=    0.000
 RMSDP=3.97D-08 MaxDP=1.46D-06 DE=-5.73D-09 OVMax= 2.01D-06

 Cycle  13  Pass 1  IDiag  1:
 RMSU=  1.28D-08    CP:  1.00D+00  8.37D-01  9.21D-01  5.09D-01  5.07D-01
 E= -545.871541579097     Delta-E=       -0.000000000166 Rises=F Damp=F
 DIIS: error= 1.93D-07 at cycle   6 NSaved=   6.
 NSaved= 6 IEnMin= 6 EnMin= -545.871541579097     IErMin= 6 ErrMin= 1.93D-07
 ErrMax= 1.93D-07  0.00D+00 EMaxC= 1.00D-01 BMatC= 8.23D-12 BMatP= 1.65D-10
 IDIUse=1 WtCom= 1.00D+00 WtEn= 0.00D+00
 Coeff-Com: -0.259D-03 0.129D-01 0.110D+00 0.127D+00 0.276D+00 0.474D+00
 Coeff:     -0.259D-03 0.129D-01 0.110D+00 0.127D+00 0.276D+00 0.474D+00
 Gap=     0.220 Goal=   None    Shift=    0.000
 RMSDP=7.53D-09 MaxDP=3.23D-07 DE=-1.66D-10 OVMax= 5.67D-07

 SCF Done:  E(RB-LYP) =  -545.871541579     A.U. after   13 cycles
            NFock= 13  Conv=0.75D-08     -V/T= 2.0030
 KE= 5.442368881909D+02 PE=-2.810109449486D+03 EE= 9.510089347837D+02
 Leave Link  502 at Tue Feb 14 10:45:27 2023, MaxMem=   131072000 cpu:             319.0 elap:              40.0
 (Enter /dragofs/sw/campus/0.2/software/gaussian/16.gaussian/gaussian/g16_legacy/l801.exe)
 DoSCS=F DFT=T ScalE2(SS,OS)=  1.000000  1.000000
 Range of M.O.s used for correlation:     1   360
 NBasis=   360 NAE=    50 NBE=    50 NFC=     0 NFV=     0
 NROrb=    360 NOA=    50 NOB=    50 NVA=   310 NVB=   310
 Leave Link  801 at Tue Feb 14 10:45:28 2023, MaxMem=   131072000 cpu:               0.3 elap:               0.2
 (Enter /dragofs/sw/campus/0.2/software/gaussian/16.gaussian/gaussian/g16_legacy/l1101.exe)
 Using compressed storage, NAtomX=    36.
 Will process     37 centers per pass.
 R6Disp: Adding Grimme-D3 dispersion energy 1st derivatives to the gradient.
 Leave Link 1101 at Tue Feb 14 10:45:28 2023, MaxMem=   131072000 cpu:               2.8 elap:               0.5
 (Enter /dragofs/sw/campus/0.2/software/gaussian/16.gaussian/gaussian/g16_legacy/l1102.exe)
 Symmetrizing basis deriv contribution to polar:
 IMax=3 JMax=2 DiffMx= 0.00D+00
 Leave Link 1102 at Tue Feb 14 10:45:29 2023, MaxMem=   131072000 cpu:               0.4 elap:               0.2
 (Enter /dragofs/sw/campus/0.2/software/gaussian/16.gaussian/gaussian/g16_legacy/l1110.exe)
 Forming Gx(P) for the SCF density, NAtomX=    36.
 Integral derivatives from FoFJK, PRISM(SPDF).
 Do as many integral derivatives as possible in FoFJK.
 G2DrvN: MDV=     131069272.
 G2DrvN: will do    37 centers at a time, making    1 passes.
 Calling FoFCou, ICntrl=  3507 FMM=F I1Cent=   0 AccDes= 0.00D+00.
 FoFJK:  IHMeth= 1 ICntrl=    3507 DoSepK=F KAlg= 0 I1Cent=           0 FoldK=F
 IRaf=         0 NMat=       1 IRICut=       1 DoRegI=T DoRafI=F ISym2E= 0 IDoP0=0 IntGTp=1.
 FoFCou: FMM=F IPFlag=           0 FMFlag=      100000 FMFlg1=           0
         NFxFlg=           0 DoJE=F BraDBF=F KetDBF=F FulRan=T
         wScrn=  0.000000 ICntrl=      3507 IOpCl=  0 I1Cent=           0 NGrid=           0
         NMat0=    1 NMatS0=      1 NMatT0=    0 NMatD0=    1 NMtDS0=    0 NMtDT0=    0
 Symmetry not used in FoFCou.
 End of G2Drv F.D. properties file   721 does not exist.
 End of G2Drv F.D. properties file   722 does not exist.
 End of G2Drv F.D. properties file   788 does not exist.
 Leave Link 1110 at Tue Feb 14 10:48:42 2023, MaxMem=   131072000 cpu:            1543.6 elap:             193.6
 (Enter /dragofs/sw/campus/0.2/software/gaussian/16.gaussian/gaussian/g16_legacy/l1002.exe)
 Minotr:  Closed shell wavefunction.
          IDoAtm=111111111111111111111111111111111111
          Direct CPHF calculation.
          Differentiating once with respect to electric field.
                with respect to dipole field.
          Differentiating once with respect to nuclear coordinates.
          Requested convergence is 1.0D-08 RMS, and 1.0D-07 maximum.
          Secondary convergence is 1.0D-12 RMS, and 1.0D-12 maximum.
          NewPWx=T KeepS1=F KeepF1=F KeepIn=T MapXYZ=F SortEE=F KeepMc=T.
        10904 words used for storage of precomputed grid.
 Two-electron integrals replicated using symmetry.
          MDV=     131072000 using IRadAn=       1.
          Solving linear equations simultaneously, MaxMat=     384.
 FoF2E skips out because all densities are zero.
 CalDSu exits because no D1Ps are significant.
 FoFJK:  IHMeth= 1 ICntrl=     500 DoSepK=F KAlg= 0 I1Cent=           0 FoldK=F
 IRaf= 810000000 NMat=      56 IRICut=       1 DoRegI=T DoRafI=F ISym2E= 2 IDoP0=3 IntGTp=3.
 FoFCou: FMM=F IPFlag=           0 FMFlag=      100000 FMFlg1=           0
         NFxFlg=           0 DoJE=F BraDBF=F KetDBF=F FulRan=T
         wScrn=  0.000000 ICntrl=       500 IOpCl=  0 I1Cent=           0 NGrid=           0
         NMat0=   56 NMatS0=     56 NMatT0=    0 NMatD0=   56 NMtDS0=    0 NMtDT0=    0
 Integrals replicated using symmetry in FoFCou.
          There are   111 degrees of freedom in the 1st order CPHF.  IDoFFX=6 NUNeed=     3.
    108 vectors produced by pass  0 Test12= 1.55D-14 1.00D-09 XBig12= 1.15D+02 1.50D+00.
 AX will form    56 AO Fock derivatives at one time.
    108 vectors produced by pass  1 Test12= 1.55D-14 1.00D-09 XBig12= 1.40D+01 3.41D-01.
    108 vectors produced by pass  2 Test12= 1.55D-14 1.00D-09 XBig12= 7.20D-02 1.50D-02.
    108 vectors produced by pass  3 Test12= 1.55D-14 1.00D-09 XBig12= 5.61D-05 4.86D-04.
     94 vectors produced by pass  4 Test12= 1.55D-14 1.00D-09 XBig12= 5.98D-09 5.76D-06.
      5 vectors produced by pass  5 Test12= 1.55D-14 1.00D-09 XBig12= 7.75D-13 4.47D-08.
 InvSVY:  IOpt=1 It=  1 EMax= 5.33D-15
 Solved reduced A of dimension   531 with   111 vectors.
 FullF1:  Do perturbations      1 to       3.
 Isotropic polarizability for W=    0.000000      133.67 Bohr**3.
 End of Minotr F.D. properties file   721 does not exist.
 End of Minotr F.D. properties file   722 does not exist.
 End of Minotr F.D. properties file   788 does not exist.
 Leave Link 1002 at Tue Feb 14 10:52:07 2023, MaxMem=   131072000 cpu:            1630.6 elap:             204.3
 (Enter /dragofs/sw/campus/0.2/software/gaussian/16.gaussian/gaussian/g16_legacy/l601.exe)
 Copying SCF densities to generalized density rwf, IOpCl= 0 IROHF=0.

 **********************************************************************

            Population analysis using the SCF density.

 **********************************************************************

 Orbital symmetries:
       Occupied  (A) (A) (A) (A) (A) (A) (A) (A) (A) (A) (A) (A)
                 (A) (A) (A) (A) (A) (A) (A) (A) (A) (A) (A) (A)
                 (A) (A) (A) (A) (A) (A) (A) (A) (A) (A) (A) (A)
                 (A) (A) (A) (A) (A) (A) (A) (A) (A) (A) (A) (A)
                 (A) (A)
       Virtual   (A) (A) (A) (A) (A) (A) (A) (A) (A) (A) (A) (A)
                 (A) (A) (A) (A) (A) (A) (A) (A) (A) (A) (A) (A)
                 (A) (A) (A) (A) (A) (A) (A) (A) (A) (A) (A) (A)
                 (A) (A) (A) (A) (A) (A) (A) (A) (A) (A) (A) (A)
                 (A) (A) (A) (A) (A) (A) (A) (A) (A) (A) (A) (A)
                 (A) (A) (A) (A) (A) (A) (A) (A) (A) (A) (A) (A)
                 (A) (A) (A) (A) (A) (A) (A) (A) (A) (A) (A) (A)
                 (A) (A) (A) (A) (A) (A) (A) (A) (A) (A) (A) (A)
                 (A) (A) (A) (A) (A) (A) (A) (A) (A) (A) (A) (A)
                 (A) (A) (A) (A) (A) (A) (A) (A) (A) (A) (A) (A)
                 (A) (A) (A) (A) (A) (A) (A) (A) (A) (A) (A) (A)
                 (A) (A) (A) (A) (A) (A) (A) (A) (A) (A) (A) (A)
                 (A) (A) (A) (A) (A) (A) (A) (A) (A) (A) (A) (A)
                 (A) (A) (A) (A) (A) (A) (A) (A) (A) (A) (A) (A)
                 (A) (A) (A) (A) (A) (A) (A) (A) (A) (A) (A) (A)
                 (A) (A) (A) (A) (A) (A) (A) (A) (A) (A) (A) (A)
                 (A) (A) (A) (A) (A) (A) (A) (A) (A) (A) (A) (A)
                 (A) (A) (A) (A) (A) (A) (A) (A) (A) (A) (A) (A)
                 (A) (A) (A) (A) (A) (A) (A) (A) (A) (A) (A) (A)
                 (A) (A) (A) (A) (A) (A) (A) (A) (A) (A) (A) (A)
                 (A) (A) (A) (A) (A) (A) (A) (A) (A) (A) (A) (A)
                 (A) (A) (A) (A) (A) (A) (A) (A) (A) (A) (A) (A)
                 (A) (A) (A) (A) (A) (A) (A) (A) (A) (A) (A) (A)
                 (A) (A) (A) (A) (A) (A) (A) (A) (A) (A) (A) (A)
                 (A) (A) (A) (A) (A) (A) (A) (A) (A) (A) (A) (A)
                 (A) (A) (A) (A) (A) (A) (A) (A) (A) (A)
 The electronic state is 1-A.
 Alpha  occ. eigenvalues --  -18.75835 -18.75074  -9.95213  -9.94934  -9.90392
 Alpha  occ. eigenvalues --   -9.90292  -9.90098  -9.89813  -9.89134  -9.89090
 Alpha  occ. eigenvalues --   -9.88969  -9.88731  -0.91674  -0.91148  -0.70875
 Alpha  occ. eigenvalues --   -0.70833  -0.67409  -0.66894  -0.60113  -0.59514
 Alpha  occ. eigenvalues --   -0.54416  -0.53618  -0.52815  -0.50425  -0.45581
 Alpha  occ. eigenvalues --   -0.42560  -0.40755  -0.40024  -0.39563  -0.38753
 Alpha  occ. eigenvalues --   -0.38274  -0.36875  -0.35513  -0.35343  -0.34234
 Alpha  occ. eigenvalues --   -0.33815  -0.33208  -0.32452  -0.31150  -0.30468
 Alpha  occ. eigenvalues --   -0.29943  -0.29702  -0.29516  -0.29329  -0.29105
 Alpha  occ. eigenvalues --   -0.28444  -0.26902  -0.26429  -0.22082  -0.21362
 Alpha virt. eigenvalues --    0.00650   0.01581   0.02601   0.03342   0.03669
 Alpha virt. eigenvalues --    0.05107   0.05603   0.06870   0.07243   0.08023
 Alpha virt. eigenvalues --    0.08581   0.08851   0.09916   0.10189   0.10563
 Alpha virt. eigenvalues --    0.10782   0.11284   0.11900   0.12054   0.12902
 Alpha virt. eigenvalues --    0.13462   0.14509   0.14891   0.16467   0.16941
 Alpha virt. eigenvalues --    0.17182   0.17401   0.18706   0.19375   0.20609
 Alpha virt. eigenvalues --    0.20928   0.21584   0.21946   0.22751   0.26643
 Alpha virt. eigenvalues --    0.27154   0.28056   0.28618   0.28798   0.29790
 Alpha virt. eigenvalues --    0.30493   0.31102   0.32060   0.34714   0.35807
 Alpha virt. eigenvalues --    0.35912   0.36615   0.37532   0.39676   0.40150
 Alpha virt. eigenvalues --    0.41153   0.43715   0.44280   0.44741   0.45459
 Alpha virt. eigenvalues --    0.46120   0.49250   0.49763   0.50865   0.51079
 Alpha virt. eigenvalues --    0.51729   0.52549   0.52984   0.53406   0.53928
 Alpha virt. eigenvalues --    0.54320   0.54517   0.55015   0.55116   0.55251
 Alpha virt. eigenvalues --    0.56291   0.56635   0.57152   0.57409   0.57908
 Alpha virt. eigenvalues --    0.58212   0.58876   0.59772   0.60168   0.60877
 Alpha virt. eigenvalues --    0.62043   0.63048   0.63799   0.63974   0.64291
 Alpha virt. eigenvalues --    0.66549   0.67082   0.69315   0.70653   0.75051
 Alpha virt. eigenvalues --    0.78771   0.81377   0.83288   0.83722   0.86736
 Alpha virt. eigenvalues --    0.87714   0.88730   0.90518   0.91490   0.92667
 Alpha virt. eigenvalues --    0.95370   0.96851   0.97056   1.01509   1.02728
 Alpha virt. eigenvalues --    1.03473   1.06562   1.06863   1.10104   1.10847
 Alpha virt. eigenvalues --    1.14869   1.16046   1.16853   1.19178   1.19949
 Alpha virt. eigenvalues --    1.21466   1.22036   1.26443   1.26661   1.27795
 Alpha virt. eigenvalues --    1.30481   1.30858   1.35439   1.36849   1.37304
 Alpha virt. eigenvalues --    1.37585   1.39606   1.40786   1.41179   1.41567
 Alpha virt. eigenvalues --    1.41609   1.42321   1.42343   1.42775   1.43871
 Alpha virt. eigenvalues --    1.45531   1.45904   1.46960   1.47759   1.48439
 Alpha virt. eigenvalues --    1.48929   1.49835   1.50138   1.50861   1.51449
 Alpha virt. eigenvalues --    1.52533   1.52750   1.54156   1.54810   1.55921
 Alpha virt. eigenvalues --    1.57006   1.58135   1.58889   1.61010   1.62333
 Alpha virt. eigenvalues --    1.63478   1.63744   1.64615   1.66181   1.67897
 Alpha virt. eigenvalues --    1.68439   1.69022   1.69251   1.70801   1.71447
 Alpha virt. eigenvalues --    1.72076   1.72855   1.73630   1.74840   1.75266
 Alpha virt. eigenvalues --    1.75573   1.79181   1.83270   1.84238   1.85382
 Alpha virt. eigenvalues --    1.86310   1.87330   1.89529   1.91993   1.92392
 Alpha virt. eigenvalues --    1.95451   1.96205   1.96348   1.97976   1.99105
 Alpha virt. eigenvalues --    2.00370   2.01424   2.02865   2.03393   2.05344
 Alpha virt. eigenvalues --    2.05699   2.09590   2.10565   2.11253   2.12274
 Alpha virt. eigenvalues --    2.13227   2.16077   2.19147   2.20198   2.21662
 Alpha virt. eigenvalues --    2.23509   2.23753   2.25985   2.27026   2.28342
 Alpha virt. eigenvalues --    2.30193   2.31200   2.31588   2.31937   2.33772
 Alpha virt. eigenvalues --    2.35715   2.36332   2.38246   2.38603   2.40277
 Alpha virt. eigenvalues --    2.41058   2.41840   2.42417   2.42837   2.43812
 Alpha virt. eigenvalues --    2.45549   2.46787   2.47080   2.48072   2.49551
 Alpha virt. eigenvalues --    2.50288   2.51068   2.51777   2.52186   2.52820
 Alpha virt. eigenvalues --    2.53517   2.54473   2.56105   2.57123   2.57421
 Alpha virt. eigenvalues --    2.58152   2.59240   2.60724   2.62503   2.63741
 Alpha virt. eigenvalues --    2.64807   2.65613   2.66235   2.67260   2.67974
 Alpha virt. eigenvalues --    2.71202   2.72891   2.75447   2.77419   2.79513
 Alpha virt. eigenvalues --    2.82724   2.84186   2.85376   2.86869   2.88125
 Alpha virt. eigenvalues --    2.95455   2.97218   3.01715   3.06419   3.07624
 Alpha virt. eigenvalues --    3.09643   3.11622   3.17331   3.19774   3.21112
 Alpha virt. eigenvalues --    3.22129   3.31917   3.37023   3.61891   3.66311
 Alpha virt. eigenvalues --    3.67227   3.67914   3.69160   3.69624   3.70282
 Alpha virt. eigenvalues --    3.70434   3.71560   3.72000   3.72974   3.73559
 Alpha virt. eigenvalues --    3.74016   3.75396   3.79360   3.86429   3.91976
 Alpha virt. eigenvalues --    3.98563   4.01812   4.04030   4.13602   4.14453
 Alpha virt. eigenvalues --    4.21777   4.25115   4.78102   4.85324   5.13327
 Alpha virt. eigenvalues --    5.14430   5.46396   5.47707  23.43517  23.44153
 Alpha virt. eigenvalues --   23.53723  23.54429  23.54720  23.57210  23.62194
 Alpha virt. eigenvalues --   23.63223  23.63253  23.65464  49.45547  49.46556
          Condensed to atoms (all electrons):
               1          2          3          4          5          6
     1  H    0.574250   0.399115  -0.039958  -0.029711  -0.032233   0.009031
     2  C    0.399115   4.858142   0.360568   0.396526   0.395914  -0.033545
     3  C   -0.039958   0.360568   5.029982  -0.031869  -0.034155   0.386360
     4  H   -0.029711   0.396526  -0.031869   0.603745  -0.032668  -0.005874
     5  H   -0.032233   0.395914  -0.034155  -0.032668   0.610283  -0.008928
     6  H    0.009031  -0.033545   0.386360  -0.005874  -0.008928   0.598108
     7  H   -0.006731  -0.040084   0.382455  -0.006990   0.009654  -0.037636
     8  C   -0.007718  -0.046308   0.343411   0.007604  -0.005615  -0.035489
     9  C    0.000749   0.008163  -0.055856  -0.000355  -0.000104  -0.005946
    10  H    0.000022  -0.012570  -0.050205  -0.000402   0.006392  -0.002140
    11  H    0.000012  -0.000477  -0.014200  -0.000025   0.000047  -0.000462
    12  H   -0.000099  -0.000481   0.010358   0.000035   0.000009  -0.000025
    13  O    0.019231  -0.004655  -0.059411  -0.000189  -0.000697   0.004429
    14  H   -0.001377   0.000163   0.011065   0.000074  -0.000042  -0.000927
    15  C   -0.000106  -0.000548  -0.002855   0.000001   0.000005   0.001550
    16  H    0.000008   0.000023  -0.000160  -0.000002  -0.000005   0.000223
    17  H   -0.000002  -0.000152  -0.001138   0.000001   0.000005   0.000255
    18  H   -0.000020   0.000036   0.001033   0.000063   0.000005  -0.000780
    19  H   -0.000004   0.000340  -0.000045   0.000934   0.000230  -0.000236
    20  C    0.000026   0.000063  -0.001704  -0.000081   0.000229  -0.003036
    21  C    0.000002  -0.000951  -0.000107  -0.000002  -0.000023  -0.001844
    22  H    0.000000  -0.000001   0.000125  -0.000003  -0.000015  -0.000056
    23  H   -0.000036   0.000218  -0.002285  -0.000116   0.000194   0.005095
    24  H   -0.000004   0.000003  -0.000066  -0.000032  -0.000005   0.000615
    25  H   -0.000123   0.000093   0.000612   0.002052  -0.000109  -0.002262
    26  C   -0.000002   0.000049   0.000089  -0.000023  -0.000000  -0.000191
    27  C   -0.000000   0.000002  -0.000069   0.000006  -0.000001   0.000166
    28  H   -0.000000   0.000001  -0.000035   0.000003  -0.000000   0.000082
    29  H    0.000000   0.000000  -0.000005   0.000000   0.000000  -0.000030
    30  H   -0.000001  -0.000005  -0.000029  -0.000016   0.000001  -0.000003
    31  O   -0.000011   0.000102  -0.002022   0.000021  -0.000031   0.009406
    32  H    0.000005  -0.000235   0.003798  -0.000138   0.000096  -0.002190
    33  C    0.000000   0.000000   0.000003   0.000000   0.000000  -0.000005
    34  H   -0.000000  -0.000000   0.000000   0.000000  -0.000000   0.000001
    35  H    0.000000  -0.000000  -0.000020   0.000000   0.000000  -0.000096
    36  H   -0.000000   0.000000  -0.000000  -0.000000   0.000000  -0.000001
               7          8          9         10         11         12
     1  H   -0.006731  -0.007718   0.000749   0.000022   0.000012  -0.000099
     2  C   -0.040084  -0.046308   0.008163  -0.012570  -0.000477  -0.000481
     3  C    0.382455   0.343411  -0.055856  -0.050205  -0.014200   0.010358
     4  H   -0.006990   0.007604  -0.000355  -0.000402  -0.000025   0.000035
     5  H    0.009654  -0.005615  -0.000104   0.006392   0.000047   0.000009
     6  H   -0.037636  -0.035489  -0.005946  -0.002140  -0.000462  -0.000025
     7  H    0.633296  -0.042963  -0.011178   0.013212   0.008987  -0.000472
     8  C   -0.042963   4.909798   0.384012   0.372245  -0.042186  -0.036977
     9  C   -0.011178   0.384012   4.984385  -0.055768   0.386210   0.384968
    10  H    0.013212   0.372245  -0.055768   0.668588   0.012824  -0.009574
    11  H    0.008987  -0.042186   0.386210   0.012824   0.621622  -0.041911
    12  H   -0.000472  -0.036977   0.384968  -0.009574  -0.041911   0.639464
    13  O    0.007149   0.256616  -0.033408  -0.030026   0.008836  -0.001449
    14  H   -0.000592  -0.037357  -0.002872  -0.007636  -0.001496   0.009073
    15  C    0.001241  -0.053476   0.311322   0.000871  -0.032031  -0.030019
    16  H   -0.000141   0.006968  -0.019639  -0.000407  -0.004532  -0.009902
    17  H    0.000262  -0.006343  -0.041871   0.008366   0.009753  -0.005850
    18  H   -0.000383  -0.005110  -0.032676  -0.001049  -0.008609   0.008273
    19  H    0.000010  -0.000000  -0.000000   0.000000   0.000000   0.000000
    20  C    0.000010   0.000008   0.000004   0.000008  -0.000000  -0.000000
    21  C   -0.000518   0.000039   0.000000  -0.000006   0.000003   0.000000
    22  H   -0.000006   0.000000   0.000000  -0.000001  -0.000000  -0.000000
    23  H    0.000028  -0.000001  -0.000006   0.000014   0.000009   0.000001
    24  H    0.000050  -0.000002   0.000000  -0.000000  -0.000001  -0.000000
    25  H    0.000788   0.000015   0.000025  -0.000017  -0.000020   0.000000
    26  C    0.000579   0.000008  -0.000025   0.000002  -0.000032   0.000000
    27  C   -0.000061   0.000002  -0.000001   0.000000   0.000004  -0.000000
    28  H    0.000023  -0.000001   0.000001  -0.000001   0.000000   0.000000
    29  H   -0.000001   0.000000  -0.000000   0.000000   0.000000   0.000000
    30  H    0.000554  -0.000008   0.000000   0.000000   0.000014  -0.000000
    31  O   -0.001135  -0.000152   0.000175  -0.000044  -0.000005  -0.000004
    32  H    0.004427  -0.000913   0.001242   0.000006   0.001048  -0.000005
    33  C   -0.000015  -0.000000   0.000000  -0.000000  -0.000004  -0.000000
    34  H   -0.000001   0.000000   0.000000  -0.000000  -0.000000   0.000000
    35  H   -0.000012   0.000005  -0.000013   0.000000   0.000045  -0.000000
    36  H    0.000001  -0.000000   0.000000  -0.000000  -0.000000   0.000000
              13         14         15         16         17         18
     1  H    0.019231  -0.001377  -0.000106   0.000008  -0.000002  -0.000020
     2  C   -0.004655   0.000163  -0.000548   0.000023  -0.000152   0.000036
     3  C   -0.059411   0.011065  -0.002855  -0.000160  -0.001138   0.001033
     4  H   -0.000189   0.000074   0.000001  -0.000002   0.000001   0.000063
     5  H   -0.000697  -0.000042   0.000005  -0.000005   0.000005   0.000005
     6  H    0.004429  -0.000927   0.001550   0.000223   0.000255  -0.000780
     7  H    0.007149  -0.000592   0.001241  -0.000141   0.000262  -0.000383
     8  C    0.256616  -0.037357  -0.053476   0.006968  -0.006343  -0.005110
     9  C   -0.033408  -0.002872   0.311322  -0.019639  -0.041871  -0.032676
    10  H   -0.030026  -0.007636   0.000871  -0.000407   0.008366  -0.001049
    11  H    0.008836  -0.001496  -0.032031  -0.004532   0.009753  -0.008609
    12  H   -0.001449   0.009073  -0.030019  -0.009902  -0.005850   0.008273
    13  O    7.913660   0.295474   0.004719  -0.000212   0.000035  -0.000076
    14  H    0.295474   0.512160  -0.000640  -0.000010  -0.000026   0.000069
    15  C    0.004719  -0.000640   4.940881   0.386260   0.396109   0.388917
    16  H   -0.000212  -0.000010   0.386260   0.599844  -0.032619  -0.028091
    17  H    0.000035  -0.000026   0.396109  -0.032619   0.610756  -0.030301
    18  H   -0.000076   0.000069   0.388917  -0.028091  -0.030301   0.564932
    19  H    0.000000  -0.000000   0.000001   0.000000  -0.000000  -0.000006
    20  C   -0.000000   0.000000  -0.000001   0.000002  -0.000004  -0.000158
    21  C    0.000000   0.000000  -0.000043   0.000000  -0.000000   0.000432
    22  H    0.000000  -0.000000  -0.000002   0.000000  -0.000001   0.000007
    23  H   -0.000001   0.000001  -0.000060  -0.000028   0.000097   0.001051
    24  H    0.000000  -0.000000   0.000001  -0.000000   0.000000  -0.000033
    25  H   -0.000007   0.000001   0.000004   0.000001  -0.000001  -0.000086
    26  C    0.000000  -0.000000   0.000177  -0.000006  -0.000009  -0.000308
    27  C    0.000000  -0.000000  -0.000023  -0.000001  -0.000000   0.000310
    28  H    0.000000   0.000000   0.000022   0.000003   0.000003  -0.000443
    29  H    0.000000  -0.000000   0.000002   0.000000   0.000000  -0.000026
    30  H    0.000000  -0.000000   0.000006   0.000000   0.000000  -0.000078
    31  O    0.000000   0.000000  -0.007673  -0.000122  -0.000092   0.030695
    32  H   -0.000083   0.000003   0.001832   0.000108   0.000106  -0.010516
    33  C   -0.000000   0.000000  -0.000004  -0.000000  -0.000000   0.000022
    34  H   -0.000000   0.000000  -0.000000  -0.000000  -0.000000   0.000002
    35  H    0.000000  -0.000000   0.000033   0.000007  -0.000001   0.000036
    36  H   -0.000000   0.000000   0.000000   0.000000   0.000000  -0.000004
              19         20         21         22         23         24
     1  H   -0.000004   0.000026   0.000002   0.000000  -0.000036  -0.000004
     2  C    0.000340   0.000063  -0.000951  -0.000001   0.000218   0.000003
     3  C   -0.000045  -0.001704  -0.000107   0.000125  -0.002285  -0.000066
     4  H    0.000934  -0.000081  -0.000002  -0.000003  -0.000116  -0.000032
     5  H    0.000230   0.000229  -0.000023  -0.000015   0.000194  -0.000005
     6  H   -0.000236  -0.003036  -0.001844  -0.000056   0.005095   0.000615
     7  H    0.000010   0.000010  -0.000518  -0.000006   0.000028   0.000050
     8  C   -0.000000   0.000008   0.000039   0.000000  -0.000001  -0.000002
     9  C   -0.000000   0.000004   0.000000   0.000000  -0.000006   0.000000
    10  H    0.000000   0.000008  -0.000006  -0.000001   0.000014  -0.000000
    11  H    0.000000  -0.000000   0.000003  -0.000000   0.000009  -0.000001
    12  H    0.000000  -0.000000   0.000000  -0.000000   0.000001  -0.000000
    13  O    0.000000  -0.000000   0.000000   0.000000  -0.000001   0.000000
    14  H   -0.000000   0.000000   0.000000  -0.000000   0.000001  -0.000000
    15  C    0.000001  -0.000001  -0.000043  -0.000002  -0.000060   0.000001
    16  H    0.000000   0.000002   0.000000   0.000000  -0.000028  -0.000000
    17  H   -0.000000  -0.000004  -0.000000  -0.000001   0.000097   0.000000
    18  H   -0.000006  -0.000158   0.000432   0.000007   0.001051  -0.000033
    19  H    0.596381   0.395475  -0.029221  -0.031747  -0.030077  -0.003592
    20  C    0.395475   4.856910   0.363346   0.397394   0.401078  -0.034712
    21  C   -0.029221   0.363346   4.973472  -0.035265  -0.034847   0.378518
    22  H   -0.031747   0.397394  -0.035265   0.604619  -0.031422  -0.009086
    23  H   -0.030077   0.401078  -0.034847  -0.031422   0.577701   0.009165
    24  H   -0.003592  -0.034712   0.378518  -0.009086   0.009165   0.626293
    25  H   -0.008150  -0.040474   0.389913   0.009580  -0.005733  -0.034742
    26  C    0.007542  -0.055209   0.365109  -0.005159  -0.009621  -0.033916
    27  C   -0.000354   0.007950  -0.063206  -0.000087   0.000819  -0.000697
    28  H   -0.000088  -0.005811  -0.053154   0.005417  -0.001439  -0.001418
    29  H   -0.000023  -0.000356  -0.001071   0.000019  -0.000087   0.001419
    30  H    0.000015  -0.000210  -0.009732   0.000026  -0.000007   0.000732
    31  O    0.000036  -0.004644  -0.043423  -0.000326   0.010963   0.005098
    32  H    0.000031  -0.000341  -0.003001   0.000010  -0.001952  -0.000685
    33  C    0.000014  -0.000322   0.008776  -0.000009  -0.000008  -0.000439
    34  H   -0.000001   0.000013  -0.000346   0.000000   0.000001  -0.000026
    35  H    0.000001  -0.000020   0.001370   0.000001  -0.000036  -0.000197
    36  H    0.000001  -0.000004  -0.000071  -0.000011   0.000000   0.000022
              25         26         27         28         29         30
     1  H   -0.000123  -0.000002  -0.000000  -0.000000   0.000000  -0.000001
     2  C    0.000093   0.000049   0.000002   0.000001   0.000000  -0.000005
     3  C    0.000612   0.000089  -0.000069  -0.000035  -0.000005  -0.000029
     4  H    0.002052  -0.000023   0.000006   0.000003   0.000000  -0.000016
     5  H   -0.000109  -0.000000  -0.000001  -0.000000   0.000000   0.000001
     6  H   -0.002262  -0.000191   0.000166   0.000082  -0.000030  -0.000003
     7  H    0.000788   0.000579  -0.000061   0.000023  -0.000001   0.000554
     8  C    0.000015   0.000008   0.000002  -0.000001   0.000000  -0.000008
     9  C    0.000025  -0.000025  -0.000001   0.000001  -0.000000   0.000000
    10  H   -0.000017   0.000002   0.000000  -0.000001   0.000000   0.000000
    11  H   -0.000020  -0.000032   0.000004   0.000000   0.000000   0.000014
    12  H    0.000000   0.000000  -0.000000   0.000000   0.000000  -0.000000
    13  O   -0.000007   0.000000   0.000000   0.000000   0.000000   0.000000
    14  H    0.000001  -0.000000  -0.000000   0.000000  -0.000000  -0.000000
    15  C    0.000004   0.000177  -0.000023   0.000022   0.000002   0.000006
    16  H    0.000001  -0.000006  -0.000001   0.000003   0.000000   0.000000
    17  H   -0.000001  -0.000009  -0.000000   0.000003   0.000000   0.000000
    18  H   -0.000086  -0.000308   0.000310  -0.000443  -0.000026  -0.000078
    19  H   -0.008150   0.007542  -0.000354  -0.000088  -0.000023   0.000015
    20  C   -0.040474  -0.055209   0.007950  -0.005811  -0.000356  -0.000210
    21  C    0.389913   0.365109  -0.063206  -0.053154  -0.001071  -0.009732
    22  H    0.009580  -0.005159  -0.000087   0.005417   0.000019   0.000026
    23  H   -0.005733  -0.009621   0.000819  -0.001439  -0.000087  -0.000007
    24  H   -0.034742  -0.033916  -0.000697  -0.001418   0.001419   0.000732
    25  H    0.616405  -0.035185  -0.008237   0.009599   0.000148   0.006009
    26  C   -0.035185   4.890281   0.373923   0.387593  -0.032932  -0.036097
    27  C   -0.008237   0.373923   4.974713  -0.045272   0.376644   0.389359
    28  H    0.009599   0.387593  -0.045272   0.622981  -0.003329   0.010382
    29  H    0.000148  -0.032932   0.376644  -0.003329   0.625887  -0.035853
    30  H    0.006009  -0.036097   0.389359   0.010382  -0.035853   0.630641
    31  O   -0.003932   0.276024  -0.046682  -0.034294   0.005078  -0.004161
    32  H    0.005565  -0.050943  -0.010469   0.010537   0.000882   0.006315
    33  C   -0.000346  -0.056781   0.359939  -0.008035  -0.032800  -0.042362
    34  H    0.000011   0.007622  -0.030069  -0.000116  -0.004597  -0.006827
    35  H   -0.000047  -0.011780  -0.037720  -0.001931   0.009809  -0.007301
    36  H    0.000037  -0.005071  -0.035012   0.005754  -0.008022   0.009505
              31         32         33         34         35         36
     1  H   -0.000011   0.000005   0.000000  -0.000000   0.000000  -0.000000
     2  C    0.000102  -0.000235   0.000000  -0.000000  -0.000000   0.000000
     3  C   -0.002022   0.003798   0.000003   0.000000  -0.000020  -0.000000
     4  H    0.000021  -0.000138   0.000000   0.000000   0.000000  -0.000000
     5  H   -0.000031   0.000096   0.000000  -0.000000   0.000000   0.000000
     6  H    0.009406  -0.002190  -0.000005   0.000001  -0.000096  -0.000001
     7  H   -0.001135   0.004427  -0.000015  -0.000001  -0.000012   0.000001
     8  C   -0.000152  -0.000913  -0.000000   0.000000   0.000005  -0.000000
     9  C    0.000175   0.001242   0.000000   0.000000  -0.000013   0.000000
    10  H   -0.000044   0.000006  -0.000000  -0.000000   0.000000  -0.000000
    11  H   -0.000005   0.001048  -0.000004  -0.000000   0.000045  -0.000000
    12  H   -0.000004  -0.000005  -0.000000   0.000000  -0.000000   0.000000
    13  O    0.000000  -0.000083  -0.000000  -0.000000   0.000000  -0.000000
    14  H    0.000000   0.000003   0.000000   0.000000  -0.000000   0.000000
    15  C   -0.007673   0.001832  -0.000004  -0.000000   0.000033   0.000000
    16  H   -0.000122   0.000108  -0.000000  -0.000000   0.000007   0.000000
    17  H   -0.000092   0.000106  -0.000000  -0.000000  -0.000001   0.000000
    18  H    0.030695  -0.010516   0.000022   0.000002   0.000036  -0.000004
    19  H    0.000036   0.000031   0.000014  -0.000001   0.000001   0.000001
    20  C   -0.004644  -0.000341  -0.000322   0.000013  -0.000020  -0.000004
    21  C   -0.043423  -0.003001   0.008776  -0.000346   0.001370  -0.000071
    22  H   -0.000326   0.000010  -0.000009   0.000000   0.000001  -0.000011
    23  H    0.010963  -0.001952  -0.000008   0.000001  -0.000036   0.000000
    24  H    0.005098  -0.000685  -0.000439  -0.000026  -0.000197   0.000022
    25  H   -0.003932   0.005565  -0.000346   0.000011  -0.000047   0.000037
    26  C    0.276024  -0.050943  -0.056781   0.007622  -0.011780  -0.005071
    27  C   -0.046682  -0.010469   0.359939  -0.030069  -0.037720  -0.035012
    28  H   -0.034294   0.010537  -0.008035  -0.000116  -0.001931   0.005754
    29  H    0.005078   0.000882  -0.032800  -0.004597   0.009809  -0.008022
    30  H   -0.004161   0.006315  -0.042362  -0.006827  -0.007301   0.009505
    31  O    7.873080   0.294001  -0.004923   0.000052   0.020774  -0.000587
    32  H    0.294001   0.515549  -0.001491  -0.000118   0.001218   0.000038
    33  C   -0.004923  -0.001491   4.858229   0.395400   0.397294   0.397551
    34  H    0.000052  -0.000118   0.395400   0.601933  -0.030008  -0.032815
    35  H    0.020774   0.001218   0.397294  -0.030008   0.585579  -0.032068
    36  H   -0.000587   0.000038   0.397551  -0.032815  -0.032068   0.604769
 Mulliken charges:
               1
     1  H    0.115686
     2  C   -0.279507
     3  C   -0.233666
     4  H    0.097432
     5  H    0.091566
     6  H    0.126379
     7  H    0.086194
     8  C    0.039887
     9  C   -0.201538
    10  H    0.087296
    11  H    0.096575
    12  H    0.084587
    13  O   -0.379935
    14  H    0.224891
    15  C   -0.306476
    16  H    0.102429
    17  H    0.092661
    18  H    0.122870
    19  H    0.102531
    20  C   -0.275429
    21  C   -0.204149
    22  H    0.095997
    23  H    0.111329
    24  H    0.097737
    25  H    0.098612
    26  C    0.024290
    27  C   -0.205879
    28  H    0.102969
    29  H    0.099245
    30  H    0.089128
    31  O   -0.371243
    32  H    0.236262
    33  C   -0.269684
    34  H    0.099889
    35  H    0.105079
    36  H    0.095987
 Sum of Mulliken charges =  -0.00000
 Mulliken charges with hydrogens summed into heavy atoms:
               1
     2  C    0.025177
     3  C   -0.021093
     8  C    0.127182
     9  C   -0.020375
    13  O   -0.155044
    15  C    0.011484
    20  C    0.034428
    21  C   -0.007801
    26  C    0.127259
    27  C   -0.017506
    31  O   -0.134982
    33  C    0.031271
 APT charges:
               1
     1  H   -0.000756
     2  C    0.073256
     3  C    0.043566
     4  H   -0.033938
     5  H   -0.027947
     6  H    0.002287
     7  H   -0.046101
     8  C    0.499421
     9  C    0.073843
    10  H   -0.105867
    11  H   -0.041528
    12  H   -0.073277
    13  O   -0.580945
    14  H    0.211974
    15  C    0.066231
    16  H   -0.031091
    17  H   -0.029471
    18  H    0.015890
    19  H   -0.028143
    20  C    0.062782
    21  C    0.062586
    22  H   -0.031754
    23  H   -0.002096
    24  H   -0.047001
    25  H   -0.043988
    26  C    0.487693
    27  C    0.066979
    28  H   -0.057639
    29  H   -0.047991
    30  H   -0.052079
    31  O   -0.634706
    32  H    0.243986
    33  C    0.070458
    34  H   -0.038685
    35  H    0.002099
    36  H   -0.028047
 Sum of APT charges =   0.00000
 APT charges with hydrogens summed into heavy atoms:
               1
     2  C    0.010615
     3  C   -0.000247
     8  C    0.393555
     9  C   -0.040963
    13  O   -0.368971
    15  C    0.021559
    20  C    0.000789
    21  C   -0.028404
    26  C    0.430054
    27  C   -0.033092
    31  O   -0.390721
    33  C    0.005825
 Electronic spatial extent (au):  <R**2>=           3671.4669
 Charge=             -0.0000 electrons
 Dipole moment (field-independent basis, Debye):
    X=             -0.0115    Y=              0.0463    Z=              0.0220  Tot=              0.0525
 Quadrupole moment (field-independent basis, Debye-Ang):
   XX=            -73.4316   YY=            -82.5454   ZZ=            -84.9315
   XY=              5.6150   XZ=             -4.2289   YZ=              2.0655
 Traceless Quadrupole moment (field-independent basis, Debye-Ang):
   XX=              6.8712   YY=             -2.2426   ZZ=             -4.6287
   XY=              5.6150   XZ=             -4.2289   YZ=              2.0655
 Octapole moment (field-independent basis, Debye-Ang**2):
  XXX=            -39.2298  YYY=             -4.5578  ZZZ=             -0.9815  XYY=             -7.6536
  XXY=            -13.9537  XXZ=              6.9883  XZZ=              3.8295  YZZ=             -1.4955
  YYZ=             -2.6981  XYZ=             -2.0739
 Hexadecapole moment (field-independent basis, Debye-Ang**3):
 XXXX=          -2982.8312 YYYY=          -1222.1986 ZZZZ=           -565.0417 XXXY=             97.2074
 XXXZ=             43.1444 YYYX=             13.8567 YYYZ=             -3.2074 ZZZX=             14.6850
 ZZZY=              3.0908 XXYY=           -749.6427 XXZZ=           -651.4082 YYZZ=           -298.1186
 XXYZ=             21.5188 YYXZ=              7.3101 ZZXY=              0.0002
 N-N= 7.689920849322D+02 E-N=-2.810109426906D+03  KE= 5.442368881909D+02
  Exact polarizability: 143.496  -1.068 136.826  -0.590   0.202 120.702
 Approx polarizability: 211.235   3.328 202.512   2.137  -1.136 205.709
 No NMR shielding tensors so no spin-rotation constants.
 Leave Link  601 at Tue Feb 14 10:52:07 2023, MaxMem=   131072000 cpu:               1.3 elap:               0.2
 (Enter /dragofs/sw/campus/0.2/software/gaussian/16.gaussian/gaussian/g16_legacy/l701.exe)
 ... and contract with generalized density number  0.
 Compute integral second derivatives.
 R6Disp: Adding Grimme-D3 dispersion energy 2nd derivatives to the Hessian.
 Leave Link  701 at Tue Feb 14 10:52:07 2023, MaxMem=   131072000 cpu:               1.6 elap:               0.2
 (Enter /dragofs/sw/campus/0.2/software/gaussian/16.gaussian/gaussian/g16_legacy/l702.exe)
 L702 exits ... SP integral derivatives will be done elsewhere.
 Leave Link  702 at Tue Feb 14 10:52:07 2023, MaxMem=   131072000 cpu:               0.1 elap:               0.0
 (Enter /dragofs/sw/campus/0.2/software/gaussian/16.gaussian/gaussian/g16_legacy/l703.exe)
 Integral derivatives from FoFJK, PRISM(SPDF).
 Compute integral second derivatives, UseDBF=F ICtDFT=           0.
 Calling FoFJK, ICntrl=    100527 FMM=F ISym2X=0 I1Cent= 0 IOpClX= 0 NMat=1 NMatS=1 NMatT=0.
 FoFJK:  IHMeth= 1 ICntrl=  100527 DoSepK=F KAlg= 0 I1Cent=           0 FoldK=F
 IRaf=         0 NMat=       1 IRICut=       1 DoRegI=T DoRafI=F ISym2E= 0 IDoP0=0 IntGTp=1.
 FoFCou: FMM=F IPFlag=           0 FMFlag=      100000 FMFlg1=         800
         NFxFlg=           0 DoJE=F BraDBF=F KetDBF=F FulRan=T
         wScrn=  0.000000 ICntrl=    100527 IOpCl=  0 I1Cent=           0 NGrid=           0
         NMat0=    1 NMatS0=      1 NMatT0=    0 NMatD0=    1 NMtDS0=    0 NMtDT0=    0
 Symmetry not used in FoFCou.
 Leave Link  703 at Tue Feb 14 10:55:37 2023, MaxMem=   131072000 cpu:            1674.2 elap:             209.7
 (Enter /dragofs/sw/campus/0.2/software/gaussian/16.gaussian/gaussian/g16_legacy/l716.exe)
 Dipole        =-4.52398734D-03 1.82218351D-02 8.64461227D-03
 Polarizability= 1.43495592D+02-1.06799078D+00 1.36825619D+02
                -5.89873664D-01 2.01986612D-01 1.20701994D+02
 Full mass-weighted force constant matrix:
 Low frequencies ---   -4.5347   -3.1403   -2.4336   -0.0003   -0.0001    0.0007
 Low frequencies ---    7.9325   14.2706   46.7044
 Diagonal vibrational polarizability:
      376.9044487     157.5932359      86.6360717
 Harmonic frequencies (cm**-1), IR intensities (KM/Mole), Raman scattering
 activities (A**4/AMU), depolarization ratios for plane and unpolarized
 incident light, reduced masses (AMU), force constants (mDyne/A),
 and normal coordinates:
                      1                      2                      3
                      A                      A                      A
 Frequencies --      7.6031                14.2121                46.7035
 Red. masses --      3.2867                 3.3671                 3.2753
 Frc consts  --      0.0001                 0.0004                 0.0042
 IR Inten    --      0.9143                 0.5295                 2.0103
  Atom  AN      X      Y      Z        X      Y      Z        X      Y      Z
     1   1    -0.01   0.01   0.03    -0.03   0.09   0.21     0.24  -0.06  -0.06
     2   6    -0.09   0.05   0.10    -0.01   0.01   0.18     0.20  -0.09  -0.03
     3   6     0.00   0.07   0.11    -0.02  -0.01   0.06     0.08  -0.11   0.02
     4   1    -0.11   0.13   0.21    -0.01   0.02   0.20     0.25  -0.16  -0.02
     5   1    -0.22  -0.00   0.06     0.03  -0.05   0.23     0.20  -0.03  -0.06
     6   1    -0.08   0.11   0.17     0.00  -0.08   0.03     0.04  -0.14   0.04
     7   1     0.13   0.13   0.15    -0.04   0.05   0.01     0.08  -0.17   0.04
     8   6     0.05  -0.03  -0.04    -0.02  -0.01   0.02     0.00  -0.01  -0.01
     9   6     0.13  -0.02  -0.04    -0.02  -0.05  -0.10    -0.12  -0.03   0.00
    10   1    -0.08  -0.10  -0.09     0.00  -0.07   0.07     0.02   0.04  -0.02
    11   1     0.25   0.05   0.01    -0.04   0.02  -0.14    -0.16  -0.09   0.00
    12   1     0.18  -0.09  -0.15    -0.03  -0.04  -0.13    -0.17   0.05   0.01
    13   8     0.17  -0.07  -0.12    -0.05   0.09   0.05     0.03   0.05  -0.02
    14   1     0.20  -0.14  -0.22    -0.05   0.09   0.03    -0.01   0.12  -0.03
    15   6     0.01   0.01   0.03    -0.01  -0.16  -0.13    -0.13  -0.09  -0.00
    16   1     0.06   0.01   0.02     0.01  -0.18  -0.22    -0.21  -0.09  -0.00
    17   1    -0.11  -0.05  -0.02    -0.00  -0.23  -0.08    -0.09  -0.05   0.00
    18   1    -0.02   0.08   0.14    -0.01  -0.15  -0.10    -0.10  -0.15   0.00
    19   1     0.09   0.06  -0.01     0.03   0.11  -0.25    -0.01   0.04   0.00
    20   6     0.07   0.05  -0.01     0.02   0.12  -0.18     0.02   0.05   0.00
    21   6    -0.01   0.01  -0.02     0.02   0.02  -0.13    -0.04   0.04  -0.01
    22   1     0.12   0.05  -0.05     0.01   0.16  -0.17     0.06   0.09  -0.04
    23   1     0.08   0.08   0.05     0.00   0.16  -0.14     0.05   0.05   0.06
    24   1    -0.01  -0.02  -0.09     0.03  -0.01  -0.16    -0.08   0.05  -0.08
    25   1    -0.05   0.01   0.01     0.03  -0.04  -0.14    -0.09  -0.01   0.03
[...]
 .00074338,0.00003893,0.00045918,0.00423782,-0.00369369,-0.00083031,-0.
 00081203,0.00114884,0.02666175,0.00226315,-0.06420745,-0.02254390,-0.0
 0910868,0.00631499,0.01613753,0.00527577,-0.00199273,-0.00395838,-0.00
 174264,-0.00396839,-0.00025817,0.00120889,0.00149790,-0.13159818,0.137
 67258,0.15090543,0.00001333,-0.00019115,0.00013533,0.00070978,0.000280
 39,-0.00003757,-0.00142541,-0.00012496,-0.00058428,-0.00013188,-0.0001
 0372,0.00005668,0.00004071,-0.00019361,0.00022021,-0.00019830,0.000228
 01,-0.00125389,-0.00013382,0.00109597,0.00046898,-0.00054620,0.0002779
 4,0.00009043,-0.00045330,-0.00004625,-0.00036192,0.00018584,-0.0000406
 1,0.00011054,-0.00013552,0.00015407,0.00044513,0.00029673,0.00002370,0
 .00015356,0.00035348,-0.00037472,-0.00008178,-0.00003824,0.00008304,-0
 .00000529,-0.00033852,0.00002883,0.00024461,0.00022768,0.00012456,-0.0
 0007437,0.00036433,0.00009797,0.00007948,-0.00009100,-0.00108468,-0.00
 067656,0.00006379,0.00005881,-0.00016530,0.00008434,0.00023461,-0.0000
 2073,0.00148599,0.00009847,0.00013737,-0.00010524,-0.00007375,-0.00015
 933,0.00007638,-0.00020179,0.00007401,0.00042053,0.00025277,-0.0006701
 2,0.00038142,-0.00112380,0.00072430,-0.02763448,0.02950059,0.01811087,
 0.00064549,0.00135357,-0.00026901,-0.00583046,-0.00366636,0.00102836,0
 .00127195,-0.00022363,0.00028473,-0.00043138,-0.00127035,-0.00128170,-
 0.15028532,0.14202792,0.09378949,0.18119054,-0.00001147,0.00003259,0.0
 0000353,-0.00030029,-0.00042441,-0.00030751,0.00093574,0.00032725,0.00
 208142,-0.00003435,-0.00006069,0.00009318,-0.00005211,0.00015979,-0.00
 018531,0.00067577,0.00005043,0.00030502,0.00036147,-0.00093962,-0.0009
 1417,0.00024389,0.00049709,-0.00081727,-0.00026432,0.00019976,-0.00007
 990,-0.00028277,-0.00011806,0.00008303,-0.00006738,0.00017471,0.000199
 54,0.00012100,-0.00013349,0.00008445,-0.00012263,-0.00028400,0.0001704
 0,-0.00007049,0.00005670,-0.00005080,-0.00046450,0.00008879,0.00050141
 ,0.00006205,-0.00007691,-0.00005077,0.00043127,0.00003651,0.00003807,-
 0.00021247,-0.00067328,-0.00083229,0.00001997,0.00001611,0.00006781,0.
 00025540,-0.00031180,0.00012491,-0.00249382,0.00229541,0.00077540,-0.0
 0002149,-0.00013381,-0.00012660,-0.00002802,0.00005751,-0.00004680,0.0
 0024971,-0.00053824,0.00009525,0.00024580,-0.00087500,-0.00028232,-0.0
 1206720,0.00814063,0.00685741,-0.00159843,0.00180740,0.00109712,-0.002
 08743,0.00100711,0.00068172,-0.00027325,-0.00035347,-0.00028000,0.0005
 7731,-0.00060757,-0.00013918,0.18340828,-0.28155618,-0.14985721,-0.167
 46973,0.27269658,0.00004912,-0.00030303,0.00019999,0.00056000,-0.00027
 141,-0.00053568,0.00007861,0.00136465,0.00131181,-0.00004711,0.0000921
 0,-0.00001344,0.00002256,-0.00000258,0.00011960,-0.00082253,-0.0005359
 4,-0.00187617,-0.00039479,0.00047758,0.00035752,-0.00092698,-0.0007788
 5,0.00025367,0.00013587,0.00012211,0.00062456,0.00014255,0.00011419,-0
 .00004423,0.00002591,-0.00019586,-0.00029265,0.00003295,0.00001440,-0.
 00020200,0.00059688,-0.00001438,-0.00037262,0.00010330,-0.00005903,-0.
 00001730,-0.00037250,0.00030235,-0.00006002,0.00034021,0.00017499,-0.0
 0006226,0.00006408,-0.00000963,-0.00007375,-0.00029661,-0.00081524,-0.
 00000072,-0.00004311,0.00000017,0.00001548,-0.00006895,0.00038910,-0.0
 0057474,0.00053667,-0.00147637,-0.00058588,-0.00025392,0.00003359,0.00
 027036,0.00015851,-0.00027014,-0.00047460,-0.00079230,0.00000934,0.000
 50967,0.00016145,0.00113700,-0.00015852,0.00435510,-0.00724809,-0.0040
 3526,-0.00232357,0.00203698,0.00196529,0.00110435,0.00131909,0.0005896
 6,0.00032422,-0.00025372,-0.00045905,0.00032186,-0.00069692,0.00033571
 ,0.10717435,-0.13534593,-0.08168211,-0.10980738,0.14032972,0.08581197,
 -0.00000152,-0.00000270,0.00000503,0.00001723,0.00001224,-0.00000551,0
 .00000488,-0.00002276,0.00002714,-0.00001858,-0.00002709,0.00001378,0.
 00000217,-0.00000533,0.00000265,0.00001026,0.00001588,-0.00003154,0.00
 001984,0.00001028,-0.00000652,0.00002437,0.00007869,-0.00003449,-0.000
 04548,-0.00001523,-0.00003861,-0.00000510,-0.00001528,0.00001875,0.000
 00074,0.00004359,0.00003673,0.00001777,-0.00000949,0.00001549,0.000003
 01,-0.00006590,0.00002605,-0.00001537,0.00001714,-0.00001013,0.0000075
 7,0.00000366,0.00001783,-0.00004188,-0.00003692,-0.00000002,0.00003836
 ,-0.00000829,0.00002924,0.00000320,0.00001998,-0.00005909,-0.00009496,
 -0.00007089,-0.00027860,0.00053993,0.00066343,-0.00046253,-0.00150738,
 -0.00143999,-0.00150770,-0.00003398,-0.00003423,-0.00006166,0.00000031
 ,0.00001746,0.00012366,0.00044203,0.00025407,-0.00023149,0.00014923,-0
 .00020389,0.00003148,-0.00075004,0.01116160,-0.01054118,-0.07494940,0.
 00361460,-0.00360578,0.00040347,-0.00017152,0.00102063,0.00357715,-0.0
 2105335,0.02049209,-0.00138628,0.01283445,-0.01287843,0.00007677,0.000
 19293,0.00007006,-0.00017778,0.00046374,-0.00040875,0.53599290,-0.0000
 1736,0.00001220,-0.00000144,0.00000584,0.00002464,0.00001436,-0.000013
 82,-0.00005372,-0.00006413,-0.00001241,-0.00003789,-0.00000011,0.00000
 646,-0.00000422,0.00000230,0.00003814,0.00003152,0.00002802,0.00000145
 ,-0.00000392,0.00000013,0.00006589,0.00004218,-0.00001579,-0.00003284,
 -0.00002029,-0.00003905,-0.00000343,-0.00000612,0.00000914,0.00000636,
 0.00002050,0.00001770,-0.00000572,0.00000120,0.00001537,-0.00003858,-0
 .00000535,0.00003748,-0.00000814,0.00000461,-0.00000372,0.00004040,-0.
 00000905,-0.00000684,-0.00003265,-0.00002195,0.00001006,0.00000010,0.0
 0000063,0.00001036,0.00002947,0.00003865,-0.00000835,-0.00013518,-0.00
 008267,-0.00044745,-0.00022144,0.00108182,-0.00075252,-0.00129063,-0.0
 0149256,-0.00255776,0.00006798,-0.00001250,0.00006094,-0.00002894,-0.0
 0003407,0.00010158,-0.00000465,-0.00008549,-0.00017514,-0.00023725,0.0
 0021343,0.00004874,0.00380785,0.01008073,-0.00242553,0.00242760,-0.127
 05671,0.04572974,-0.00033818,0.00080853,-0.00103224,0.00153893,-0.0094
 5782,0.00896810,0.00157310,-0.01836111,0.01800641,-0.00146558,-0.00005
 644,0.00077038,0.00015799,-0.00001552,-0.00023425,0.00857402,0.4748107
 7,-0.00001704,0.00000595,-0.00000015,0.00000888,0.00002515,0.00001890,
 -0.00001095,-0.00006585,-0.00009069,-0.00000155,-0.00002826,-0.0000139
 3,0.00001196,-0.00000283,0.00001227,0.00002750,0.00002812,0.00002112,-
 0.00000762,0.00000360,0.00003844,0.00003252,0.00000259,0.00002311,-0.0
 0000660,-0.00000736,-0.00001634,0.00001229,0.00000529,0.00000222,0.,-0
 .00000294,0.00000592,-0.00000624,0.00000480,0.00000367,-0.00001908,0.0
 0001283,0.00001636,-0.00000133,0.00000087,0.00000049,0.00002129,0.0000
 0387,-0.00000747,0.00000386,0.00000268,0.00000282,-0.00000823,0.000005
 27,-0.00000055,0.00000177,-0.00000322,0.00001017,-0.00014342,-0.000151
 67,-0.00050381,-0.00014390,0.00147122,-0.00029039,-0.00231264,-0.00290
 694,-0.00252150,0.00009119,-0.00002412,0.00004709,0.00000120,0.0000098
 5,0.00001616,0.00032607,-0.00012147,0.00019153,-0.00031191,0.00028945,
 -0.00009579,-0.00576271,0.01978466,-0.02607981,-0.00298039,0.04572717,
 -0.11379043,0.00041044,0.00094093,0.00079890,-0.00073912,0.00580777,-0
 .00585749,0.00029645,-0.00724096,0.00735320,0.00121120,0.00180184,-0.0
 0097707,-0.00041115,-0.00013631,-0.00040867,0.00026824,0.05506767,0.49
 033230,-0.00000713,0.00001016,-0.00000404,-0.00000680,0.00000315,0.000
 00812,-0.00001624,-0.00001236,-0.00002612,-0.00000050,-0.00000982,-0.0
 0000023,0.00000074,0.00000093,-0.00000289,0.00001482,0.00001298,0.0000
 3242,0.00000563,-0.00001516,-0.00001389,0.00003693,-0.00001384,-0.0000
 1405,-0.00000222,-0.00000929,-0.00001421,-0.00000472,0.00000128,0.0000
 0239,0.00001260,-0.00000468,-0.00000527,-0.00001772,0.00000571,0.00000
 173,-0.00003153,0.00003461,0.00002768,0.00000032,-0.00000603,-0.000004
 63,0.00002928,0.00000247,-0.00001114,0.00000491,0.00000150,0.00000216,
 -0.00001671,0.00000489,-0.00000280,0.00000725,0.00000216,0.00002515,0.
 00000873,0.00000551,-0.00004191,-0.00001419,0.00009837,-0.00003156,0.0
 0012473,-0.00027486,-0.00004839,0.00000797,-0.00000742,-0.00000130,0.0
 0001470,-0.00000116,0.00002072,0.00002752,0.00003472,-0.00000255,-0.00
 002659,-0.00002419,0.00002420,-0.00054226,-0.00007570,0.00041907,-0.00
 137021,-0.00039558,-0.00010260,0.00001546,-0.00015530,-0.00018060,0.00
 030868,0.00033313,0.00019361,-0.00016087,0.00015733,-0.00032221,0.0004
 1384,0.00062452,-0.00111799,0.00016868,-0.00012149,0.00012631,-0.08104
 948,-0.03378837,-0.08096070,0.08422381,0.00000514,0.00000081,-0.000001
 73,-0.00001154,-0.00000699,-0.00000051,0.00000186,0.00001557,0.0000090
 8,0.00000551,0.00001269,0.00000026,-0.00000328,0.00000162,-0.00000427,
 -0.00000937,-0.00000793,0.00000767,-0.00000229,-0.00000442,-0.00000774
 ,-0.00000731,-0.00001697,0.00000555,0.00000908,-0.00000210,0.00000247,
 -0.00000187,0.00000088,-0.00000349,0.00000211,-0.00000463,-0.00000691,
 -0.00000667,0.00000459,-0.00000270,-0.00000105,0.00001662,-0.00000748,
 0.00000412,-0.00000474,0.00000116,0.00000466,0.00000652,-0.00000309,0.
 00001322,0.00000621,-0.00000347,-0.00000875,0.00000108,-0.00000495,-0.
 00000365,-0.00001437,0.00001532,0.00006604,0.00004758,0.00018560,0.000
 00837,-0.00046860,0.00023812,0.00054182,0.00093080,0.00107523,-0.00002
 444,0.00000730,-0.00000102,0.00002482,0.00000469,-0.00001087,-0.000037
 94,0.00004069,-0.00002731,0.00005612,-0.00000495,-0.00007296,-0.000986
 69,-0.00463317,0.00245961,0.01037475,0.00867439,0.02197044,-0.00016525
 ,0.00013668,0.00024859,-0.00030988,0.00078771,-0.00058760,0.00028822,0
 .00087612,-0.00053016,0.00013630,0.00051858,-0.00072914,0.00001065,0.0
 0000464,0.00003408,-0.03419906,-0.07546258,-0.07646730,0.03702904,0.08
 176792,-0.00001747,0.00001276,0.00000044,0.00001017,0.00000944,0.00000
 595,-0.00000774,-0.00002793,-0.00001067,-0.00000887,-0.00003365,0.0000
 0718,0.00000016,-0.00000238,-0.00000545,0.00002799,0.00002809,0.000026
 21,0.00000750,-0.00001630,-0.00002435,0.00007006,-0.00000258,-0.000029
 97,-0.00000681,-0.00000520,-0.00001028,-0.00001167,-0.00000088,0.00000
 236,0.00001069,0.00000133,-0.00000317,-0.00002169,0.00000209,0.0000060
 1,-0.00005423,0.00003464,0.00003867,-0.00000021,-0.00000846,-0.0000042
 2,0.00003144,0.00000352,-0.00000842,-0.00000904,-0.00000865,0.00000759
 ,-0.00000786,0.00000238,-0.00000127,0.00001283,0.00001492,0.00000883,-
 0.00006758,-0.00004826,-0.00021739,0.00001027,0.00053696,-0.00020744,-
 0.00087078,-0.00097223,-0.00071313,0.00001887,-0.00003221,0.00000459,-
 0.00001718,-0.00002883,0.00002797,0.00006092,-0.00004512,0.00002005,-0
 .00007038,0.00012093,-0.00003215,0.00111819,0.00477753,-0.00126191,-0.
 00779421,-0.00821345,-0.01759050,0.00019588,0.00013031,0.00044011,0.00
 067585,-0.00010089,-0.00001971,-0.00043316,0.00033942,0.00078405,-0.00
 010062,-0.00011303,0.00042826,0.00008226,-0.00001840,-0.00003896,-0.08
 095696,-0.07550800,-0.22360661,0.08995150,0.08065761,0.24486053,0.0000
 0366,-0.00000256,0.00000088,-0.00000725,-0.00000070,-0.00000079,-0.000
 02102,0.00001911,-0.00000744,0.00000825,0.00001255,-0.00000698,0.00000
 143,0.00000102,0.00000169,-0.00001521,-0.00000593,-0.00002139,-0.00000
 155,0.00000451,0.00001070,-0.00003671,-0.00001296,0.00001608,0.0000118
 5,0.00000302,0.00000132,0.00000549,0.00000083,-0.00000398,-0.00000883,
 -0.00000344,-0.00000283,0.00000784,0.00000140,-0.00000193,0.00001609,0
 .00001097,-0.00001907,0.00000397,-0.00000255,0.00000614,-0.00001219,-0
 .00000339,0.00001336,0.00001677,0.00001377,-0.00000852,0.00000270,0.00
 000155,-0.00000390,-0.00000738,-0.00001540,0.00000126,0.00002155,0.000
 00743,0.00004052,-0.00005056,-0.00008875,-0.00001054,-0.00013702,0.000
 02266,0.00023332,-0.00000253,0.00000509,0.00000168,0.00003502,0.000025
 67,-0.00001801,0.00007318,0.00000135,0.00008507,0.00001062,0.00001162,
 -0.00001289,-0.00081582,-0.00104791,-0.00046780,0.00355184,0.00077862,
 0.00107090,-0.00006369,-0.00001734,0.00005459,0.00127769,0.00042506,-0
 .00128795,0.00062534,-0.00050558,0.00040738,-0.00016807,0.00113173,-0.
 00176570,-0.00027908,0.00022607,-0.00022501,-0.25065885,-0.08605539,0.
 04262756,-0.00968344,-0.00307675,0.00174764,0.27248205,0.00000092,0.00
 000221,-0.00000187,-0.00001931,-0.00001920,0.00000064,0.00003645,0.000
 01321,0.00003762,0.00001098,0.00000954,-0.00000312,-0.00000277,0.00000
 715,-0.00000909,0.00000337,-0.00000638,0.00002662,-0.00001297,-0.00001
 978,-0.00001758,0.00001119,-0.00002174,0.00000254,0.00003096,0.0000202
 2,0.00006067,-0.00000816,0.00000654,-0.00001317,-0.00000168,-0.0000188
 5,-0.00002967,-0.00001221,-0.00000184,-0.00001379,-0.00000935,0.000011
 13,-0.00001864,0.00000629,-0.00000619,0.00000507,-0.00000044,0.0000068
 0,-0.00001134,-0.00000602,0.00000077,0.00000802,-0.00000810,-0.0000065
 3,-0.00001158,0.00000446,0.00002403,-0.00000104,0.00000918,-0.00000247
 ,0.00000183,0.00007633,0.00004333,-0.00004971,-0.00012172,-0.00003845,
 0.00005089,0.00000482,0.00000023,-0.00000211,0.00004737,0.00002344,0.0
 0006807,0.00016262,0.00010956,-0.00011324,0.00000615,-0.00003308,-0.00
 000415,-0.00146323,-0.00011018,-0.00048680,-0.02176078,-0.00981596,0.0
 0569813,0.00011591,0.00004462,0.00005855,0.00084384,-0.00282539,0.0035
 3591,-0.00012195,0.00010418,-0.00063377,0.00078932,0.00038026,-0.00155
 566,0.00033118,-0.00042681,0.00066650,-0.08557069,-0.08109282,0.016439
 85,-0.00956280,-0.00498503,0.00218767,0.09470713,0.08908033,0.00000916
 ,-0.00001714,0.00000954,0.00002698,0.00000745,-0.00002193,-0.00002718,
 0.00003854,0.00002568,-0.00000786,0.00000490,0.00000261,0.00000137,-0.
 00000509,0.00000850,-0.00003471,-0.00001232,-0.00010378,0.00000301,0.0
 0003411,0.00002619,-0.00008218,0.00002462,0.00000291,0.00000196,0.0000
 1626,0.00001211,0.00001015,-0.00000346,-0.00000045,-0.00001240,0.00000
 318,0.00001303,0.00003239,-0.00001378,-0.00000054,0.00005280,-0.000052
 74,-0.00002712,-0.00000291,0.00001037,0.00000394,-0.00005421,-0.000013
 86,0.00002411,-0.00000067,0.00000308,-0.00000373,0.00003461,-0.0000038
 9,0.00000591,-0.00003163,-0.00000485,-0.00003095,-0.00000506,-0.000016
 35,0.00002342,-0.00007289,-0.00007460,-0.00000428,-0.00021400,-0.00003
 486,-0.00003818,-0.00000944,0.00000589,0.00000433,-0.00005614,-0.00000
 276,-0.00011199,-0.00019433,-0.00022462,0.00023992,0.00002717,0.000002
 58,0.00004035,0.00294553,0.00088215,-0.00011035,0.02042190,0.00868366,
 -0.00547111,-0.00017796,-0.00007509,0.00000804,-0.00083121,0.00350979,
 -0.00279063,-0.00049280,-0.00037949,0.00072423,-0.00127227,-0.00082983
 ,0.00068087,-0.00050482,0.00046247,-0.00038412,0.04016952,0.01549573,-
 0.05206329,-0.02469446,-0.00973728,0.00593909,-0.04513275,-0.02195409,
 0.05607059,0.00000170,0.00000133,0.00000054,-0.00000551,-0.00000811,-0
 .00000207,0.00001055,0.00001610,0.00003178,0.00000057,0.00000271,0.000
 00235,-0.00000352,0.00000182,-0.00000823,0.00000375,-0.00000276,0.0000
 0274,-0.00000521,-0.00001046,-0.00001679,0.00000610,-0.00000283,-0.000
 00842,0.00002160,0.00001732,0.00004322,-0.00000892,0.00000205,-0.00001
 037,0.00000073,-0.00001607,-0.00002190,-0.00000751,-0.00000447,-0.0000
 0778,-0.00000818,-0.00000093,-0.00000988,0.00000301,-0.00000315,0.0000
 0436,0.00000005,-0.00000243,-0.00000837,-0.00000555,0.00000048,0.00001
 074,-0.00000770,-0.00000186,-0.00001057,0.00000569,0.00001781,0.000007
 32,-0.00000415,-0.00001330,-0.00002017,-0.00002058,0.00004479,-0.00001
 875,0.00011899,-0.00021654,-0.00024736,0.00002324,-0.00000193,-0.00002
 987,-0.00000628,0.00000258,0.00000905,-0.00002797,-0.00001373,0.000022
 75,0.00001213,-0.00009877,0.00008840,-0.00017273,0.00082141,0.00063941
 ,-0.00128145,0.00079926,-0.00009642,-0.00002494,-0.00015219,-0.0006374
 6,0.00068633,-0.00024209,-0.00057298,0.00136395,-0.00011592,-0.0002032
 5,-0.00009979,-0.00030046,-0.00079393,0.00025492,-0.00023382,0.0003686
 3,-0.13059508,0.10538901,0.04849216,0.00752404,-0.00972604,-0.00357575
 ,-0.01618620,0.02148370,0.01017535,0.13843395,-0.00000144,-0.00000320,
 -0.00000151,0.00000113,0.00000716,0.00000401,-0.00001062,-0.00001188,-
 0.00005169,0.00000479,0.00000440,-0.00001134,0.00000696,0.00000050,0.0
 0001218,-0.00000565,-0.00000231,-0.00000288,-0.00000517,0.00001036,0.0
 0003477,-0.00002568,-0.00001014,0.00002249,-0.00000260,-0.00000468,-0.
 00000944,0.00001549,0.00000460,0.00000386,-0.00000208,-0.00000123,0.00
 000804,0.00000836,0.00000271,-0.00000089,0.00001959,0.00000031,-0.0000
 0296,-0.00000074,0.00000341,-0.00000076,-0.00000667,-0.00000095,0.0000
 0008,0.00000576,0.00000680,-0.00000480,0.00000343,0.00000056,0.0000042
 0,-0.00000727,-0.00000954,-0.00000085,0.00000485,-0.00000628,0.0000223
 5,-0.00004105,0.00001104,0.00003165,-0.00017830,0.00026093,0.00018975,
 0.00000358,0.00001972,0.00005486,0.00000573,0.00000562,-0.00000131,0.0
 0000738,-0.00004759,-0.00002466,-0.00013947,0.00020799,-0.00015425,-0.
 00029987,0.00022157,-0.00134927,0.01403300,-0.01889552,-0.00719093,0.0
 0016183,0.00061745,0.00090524,-0.00055643,0.00018042,-0.00031618,-0.00
 000536,-0.00249836,0.00394779,0.00015295,0.00009562,0.00019717,-0.0002
 3191,-0.00012015,-0.00010657,0.10497486,-0.17379861,-0.06028220,0.0061
 1560,-0.00824721,-0.00367316,-0.00657253,0.00954318,0.00427136,-0.1174
 3249,0.19245330,0.00000323,-0.00000299,0.00000010,0.00000471,-0.000000
 79,-0.00000431,0.00000179,0.00000476,0.00001319,-0.00000246,0.00000204
 ,0.00000397,-0.00000143,-0.00000026,0.00000187,-0.00000522,-0.00000442
 ,-0.00001141,0.00000728,0.00000489,0.00000145,-0.00000731,0.00000701,-
 0.00000481,-0.00001004,-0.00000337,-0.00001515,0.00000097,-0.00000229,
 0.00000565,0.00000030,0.00000723,0.00000900,0.00000717,-0.00000197,0.0
 0000218,0.00001062,-0.00001203,0.00000449,-0.00000329,0.00000372,-0.00
 000380,-0.00000743,-0.00000373,0.00000646,0.00000034,-0.00000150,-0.00
 000453,0.00000634,0.00000065,0.00000565,-0.00000188,-0.00000328,-0.000
 00623,0.00001220,0.00000100,0.00003572,0.00007243,-0.00012346,0.000007
 65,0.00007872,0.00014787,-0.00001733,-0.00000945,-0.00001232,-0.000045
 66,-0.00000450,0.00000278,-0.00000948,-0.00000625,0.00001054,0.0000210
 3,0.00011167,-0.00017928,-0.00004979,-0.00073254,0.00118452,0.00162839
 ,-0.01396818,0.01695609,0.00689390,0.00018649,-0.00042864,-0.00042352,
 0.00015041,-0.00067200,0.00094264,-0.00076703,0.00363431,-0.00275258,0
 .00014543,-0.00032305,-0.00001034,0.00012886,0.00007298,-0.00001254,0.
 04875063,-0.06112191,-0.07257066,0.01676849,-0.01870083,-0.00882234,0.
 00267738,-0.00391817,-0.00270288,-0.05359848,0.06347590,0.07788404\\0.
 00000046,-0.00000234,-0.00000347,0.00002028,0.00000604,-0.00000471,0.0
 0002234,-0.00005993,0.00003173,-0.00002042,-0.00000151,-0.00000128,-0.
 00000256,0.00000761,-0.00000987,-0.00002072,0.00003938,0.00000954,0.00
 000879,0.00000325,-0.00000019,-0.00003647,0.00002467,-0.00009770,-0.00
 005433,0.00000972,-0.00002446,0.00002650,0.00001081,0.00006049,0.00001
 492,-0.00000680,0.00002653,0.00002769,-0.00000335,-0.00000115,-0.00003
 462,-0.00003806,0.00000444,0.00004085,0.00001617,-0.00000438,0.0000269
 7,-0.00002699,0.00000881,0.00000029,0.00001366,-0.00000713,0.00001010,
 0.00001426,0.00001285,-0.00002935,-0.00000267,-0.00000589,-0.00000069,
 0.00000507,0.00000403,0.00000884,0.00000432,-0.00000037,0.00000292,0.0
 0000959,0.00001362,0.00000874,-0.00001270,-0.00000751,-0.00001619,-0.0
 0000816,0.00000327,0.00000362,0.00000220,0.00000467,0.00000151,0.00000
 100,-0.00000131,-0.00001054,-0.00004962,-0.00007458,-0.00000456,-0.000
 00479,0.00008114,-0.00000393,0.00002251,0.00001041,0.00002712,0.000008
 26,-0.00001581,-0.00000805,0.00000804,-0.00000469,0.00002690,-0.000006
 21,0.00000020,-0.00002867,0.00001839,0.00001566,-0.00005344,-0.0000592
 5,-0.00010643,0.00002522,0.00002953,0.00006820,0.00002902,0.00001429,0
 .00000465,-0.00000855,0.00001363,0.00001067\\\@


 EVERYBODY NEEDS BEAUTY AS WELL AS BREAD, PLACES TO PLAY IN AND PRAY IN,
 WHERE NATURE MAY HEAL AND CHEER AND GIVE STRENGTH TO BODY AND SOUL ALIKE.

                                    -- JOHN MUIR
 Job cpu time:       0 days  1 hours 26 minutes 38.9 seconds.
 Elapsed time:       0 days  0 hours 10 minutes 52.2 seconds.
 File lengths (MBytes):  RWF=    417 Int=      0 D2E=      0 Chk=     10 Scr=      1
 Normal termination of Gaussian 16 at Tue Feb 14 10:55:37 2023.
