 Entering Gaussian System, Link 0=/dragofs/sw/campus/0.2/software/gaussian/16.gaussian/gaussian/g16_legacy/g16
 Input=C10H24O2_pair_000_083_allign_FREQ_g16.com
 Output=C10H24O2_pair_000_083_allign_FREQ_g16.log
 Initial command:
 /dragofs/sw/campus/0.2/software/gaussian/16.gaussian/gaussian/g16_legacy/l1.exe "/tmp/jramos/52051/Gau-601655.inp" -scrdir="/tmp/jramos/52051/"
 Entering Link 1 = /dragofs/sw/campus/0.2/software/gaussian/16.gaussian/gaussian/g16_legacy/l1.exe PID=    601656.
  
 Copyright (c) 1988,1990,1992,1993,1995,1998,2003,2009,2016,
            Gaussian, Inc.  All Rights Reserved.
  
 This is part of the Gaussian(R) 16 program.  It is based on
 the Gaussian(R) 09 system (copyright 2009, Gaussian, Inc.),
 the Gaussian(R) 03 system (copyright 2003, Gaussian, Inc.),
 the Gaussian(R) 98 system (copyright 1998, Gaussian, Inc.),
 the Gaussian(R) 94 system (copyright 1995, Gaussian, Inc.),
 the Gaussian 92(TM) system (copyright 1992, Gaussian, Inc.),
 the Gaussian 90(TM) system (copyright 1990, Gaussian, Inc.),
 the Gaussian 88(TM) system (copyright 1988, Gaussian, Inc.),
 the Gaussian 86(TM) system (copyright 1986, Carnegie Mellon
 University), and the Gaussian 82(TM) system (copyright 1983,
 Carnegie Mellon University). Gaussian is a federally registered
 trademark of Gaussian, Inc.
  
 This software contains proprietary and confidential information,
 including trade secrets, belonging to Gaussian, Inc.
  
 This software is provided under written license and may be
 used, copied, transmitted, or stored only in accord with that
 written license.
  
 The following legend is applicable only to US Government
 contracts under FAR:
  
                    RESTRICTED RIGHTS LEGEND
  
 Use, reproduction and disclosure by the US Government is
 subject to restrictions as set forth in subparagraphs (a)
 and (c) of the Commercial Computer Software - Restricted
 Rights clause in FAR 52.227-19.
  
 Gaussian, Inc.
 340 Quinnipiac St., Bldg. 40, Wallingford CT 06492
  
  
 ---------------------------------------------------------------
 Warning -- This program may not be used in any manner that
 competes with the business of Gaussian, Inc. or will provide
 assistance to any competitor of Gaussian, Inc.  The licensee
 of this program is prohibited from giving any competitor of
 Gaussian, Inc. access to this program.  By using this program,
 the user acknowledges that Gaussian, Inc. is engaged in the
 business of creating and licensing software in the field of
 computational chemistry and represents and warrants to the
 licensee that it is not a competitor of Gaussian, Inc. and that
 it will not use this program in any manner prohibited above.
 ---------------------------------------------------------------
  

 Cite this work as:
 Gaussian 16, Revision A.03,
 M. J. Frisch, G. W. Trucks, H. B. Schlegel, G. E. Scuseria, 
 M. A. Robb, J. R. Cheeseman, G. Scalmani, V. Barone, 
 G. A. Petersson, H. Nakatsuji, X. Li, M. Caricato, A. V. Marenich, 
 J. Bloino, B. G. Janesko, R. Gomperts, B. Mennucci, H. P. Hratchian, 
 J. V. Ortiz, A. F. Izmaylov, J. L. Sonnenberg, D. Williams-Young, 
 F. Ding, F. Lipparini, F. Egidi, J. Goings, B. Peng, A. Petrone, 
 T. Henderson, D. Ranasinghe, V. G. Zakrzewski, J. Gao, N. Rega, 
 G. Zheng, W. Liang, M. Hada, M. Ehara, K. Toyota, R. Fukuda, 
 J. Hasegawa, M. Ishida, T. Nakajima, Y. Honda, O. Kitao, H. Nakai, 
 T. Vreven, K. Throssell, J. A. Montgomery, Jr., J. E. Peralta, 
 F. Ogliaro, M. J. Bearpark, J. J. Heyd, E. N. Brothers, K. N. Kudin, 
 V. N. Staroverov, T. A. Keith, R. Kobayashi, J. Normand, 
 K. Raghavachari, A. P. Rendell, J. C. Burant, S. S. Iyengar, 
 J. Tomasi, M. Cossi, J. M. Millam, M. Klene, C. Adamo, R. Cammi, 
 J. W. Ochterski, R. L. Martin, K. Morokuma, O. Farkas, 
 J. B. Foresman, and D. J. Fox, Gaussian, Inc., Wallingford CT, 2016.
 
 ******************************************
 Gaussian 16:  EM64L-G16RevA.03 25-Dec-2016
                14-Feb-2023 
 ******************************************
 %chk=C10H24O2_pair_000_083_allign_FREQ_gaussian.chk
 %nproc=8
 Will use up to    8 processors via shared memory.
 %mem=1000Mb
 ---------------------------------------------------------------------
 #p BLYP/6-311G** int=ultrafine EmpiricalDispersion=GD3 freq scale=1.0
 ---------------------------------------------------------------------
 1/10=4,30=1,38=1,114=1000000/1,3;
 2/12=2,17=6,18=5,40=1/2;
 3/5=4,6=6,7=101,11=2,25=1,30=1,71=2,74=402,75=-5,124=31,140=1/1,2,3;
 4//1;
 5/5=2,38=5,98=1/2;
 8/6=4,10=90,11=11/1;
 11/6=1,8=1,9=11,15=111,16=1/1,2,10;
 10/6=1/2;
 6/7=2,8=2,9=2,10=2,28=1/1;
 7/8=1,10=1,25=1/1,2,3,16;
 1/10=4,30=1/3;
 99//99;
 Leave Link    1 at Tue Feb 14 10:44:44 2023, MaxMem=   131072000 cpu:               0.5 elap:               0.1
 (Enter /dragofs/sw/campus/0.2/software/gaussian/16.gaussian/gaussian/g16_legacy/l101.exe)
 --------------------------------------------
 Conformer name C10H24O2_pair_000_083_allign.
 --------------------------------------------
 Symbolic Z-matrix:
 Charge =  0 Multiplicity = 1
 H                     3.0637    2.0965    2.869 
 C                     2.6243    2.4927    1.9448 
 C                     1.827     1.3921    1.2154 
 H                     1.9792    3.3456    2.2009 
 H                     3.4445    2.8688    1.3134 
 H                     1.3963    1.7948    0.2868 
 H                     0.9825    1.062     1.8418 
 C                     2.6744    0.1518    0.8837 
 C                     1.9178   -0.9317    0.0792 
 H                     3.5606    0.4743    0.2975 
 H                     1.034    -1.2342    0.663 
 H                     2.5669   -1.8231    0.0204 
 O                     3.1032   -0.3853    2.1645 
 H                     3.7014   -1.13      1.9835 
 C                     1.5145   -0.5114   -1.3495 
 H                     1.0252   -1.3396   -1.8812 
 H                     2.3945   -0.2079   -1.9371 
 H                     0.8128    0.3329   -1.3414 
 H                    -2.2875   -3.62     -2.1205 
 C                    -2.2943   -2.527    -2.2394 
 C                    -2.0755   -1.8093   -0.893 
 H                    -1.5035   -2.2596   -2.9574 
 H                    -3.2555   -2.2273   -2.6777 
 H                    -1.0848   -2.063    -0.4822 
 H                    -2.8163   -2.1603   -0.1516 
 C                    -2.1905   -0.2728   -1.0037 
 C                    -1.8793    0.4475    0.3259 
 H                    -1.4896    0.0806   -1.7767 
 H                    -0.9105    0.0911    0.7071 
 H                    -2.6349    0.1398    1.0716 
 O                    -3.4899    0.123    -1.5248 
 H                    -4.1527   -0.162    -0.8695 
 C                    -1.8629    1.9821    0.1929 
 H                    -1.7027    2.4688    1.1654 
 H                    -2.812     2.3387   -0.2288 
 H                    -1.0552    2.307    -0.4809 
 
 ITRead=  0  0  0  0  0  0  0  0  0  0  0  0  0  0  0  0  0  0  0  0
 ITRead=  0  0  0  0  0  0  0  0  0  0  0  0  0  0  0  0
 MicOpt= -1 -1 -1 -1 -1 -1 -1 -1 -1 -1 -1 -1 -1 -1 -1 -1 -1 -1 -1 -1
 MicOpt= -1 -1 -1 -1 -1 -1 -1 -1 -1 -1 -1 -1 -1 -1 -1 -1
 NAtoms=     36 NQM=       36 NQMF=       0 NMMI=      0 NMMIF=      0
                NMic=       0 NMicF=      0.
                    Isotopes and Nuclear Properties:
 (Nuclear quadrupole moments (NQMom) in fm**2, nuclear magnetic moments (NMagM)
  in nuclear magnetons)

  Atom         1           2           3           4           5           6           7           8           9          10
 IAtWgt=           1          12          12           1           1           1           1          12          12           1
 AtmWgt=   1.0078250  12.0000000  12.0000000   1.0078250   1.0078250   1.0078250   1.0078250  12.0000000  12.0000000   1.0078250
 NucSpn=           1           0           0           1           1           1           1           0           0           1
 AtZEff=  -0.0000000  -0.0000000  -0.0000000  -0.0000000  -0.0000000  -0.0000000  -0.0000000  -0.0000000  -0.0000000  -0.0000000
 NQMom=    0.0000000   0.0000000   0.0000000   0.0000000   0.0000000   0.0000000   0.0000000   0.0000000   0.0000000   0.0000000
 NMagM=    2.7928460   0.0000000   0.0000000   2.7928460   2.7928460   2.7928460   2.7928460   0.0000000   0.0000000   2.7928460
 AtZNuc=   1.0000000   6.0000000   6.0000000   1.0000000   1.0000000   1.0000000   1.0000000   6.0000000   6.0000000   1.0000000

  Atom        11          12          13          14          15          16          17          18          19          20
 IAtWgt=           1           1          16           1          12           1           1           1           1          12
 AtmWgt=   1.0078250   1.0078250  15.9949146   1.0078250  12.0000000   1.0078250   1.0078250   1.0078250   1.0078250  12.0000000
 NucSpn=           1           1           0           1           0           1           1           1           1           0
 AtZEff=  -0.0000000  -0.0000000  -0.0000000  -0.0000000  -0.0000000  -0.0000000  -0.0000000  -0.0000000  -0.0000000  -0.0000000
 NQMom=    0.0000000   0.0000000   0.0000000   0.0000000   0.0000000   0.0000000   0.0000000   0.0000000   0.0000000   0.0000000
 NMagM=    2.7928460   2.7928460   0.0000000   2.7928460   0.0000000   2.7928460   2.7928460   2.7928460   2.7928460   0.0000000
 AtZNuc=   1.0000000   1.0000000   8.0000000   1.0000000   6.0000000   1.0000000   1.0000000   1.0000000   1.0000000   6.0000000

  Atom        21          22          23          24          25          26          27          28          29          30
 IAtWgt=          12           1           1           1           1          12          12           1           1           1
 AtmWgt=  12.0000000   1.0078250   1.0078250   1.0078250   1.0078250  12.0000000  12.0000000   1.0078250   1.0078250   1.0078250
 NucSpn=           0           1           1           1           1           0           0           1           1           1
 AtZEff=  -0.0000000  -0.0000000  -0.0000000  -0.0000000  -0.0000000  -0.0000000  -0.0000000  -0.0000000  -0.0000000  -0.0000000
 NQMom=    0.0000000   0.0000000   0.0000000   0.0000000   0.0000000   0.0000000   0.0000000   0.0000000   0.0000000   0.0000000
 NMagM=    0.0000000   2.7928460   2.7928460   2.7928460   2.7928460   0.0000000   0.0000000   2.7928460   2.7928460   2.7928460
 AtZNuc=   6.0000000   1.0000000   1.0000000   1.0000000   1.0000000   6.0000000   6.0000000   1.0000000   1.0000000   1.0000000

  Atom        31          32          33          34          35          36
 IAtWgt=          16           1          12           1           1           1
 AtmWgt=  15.9949146   1.0078250  12.0000000   1.0078250   1.0078250   1.0078250
 NucSpn=           0           1           0           1           1           1
 AtZEff=  -0.0000000  -0.0000000  -0.0000000  -0.0000000  -0.0000000  -0.0000000
 NQMom=    0.0000000   0.0000000   0.0000000   0.0000000   0.0000000   0.0000000
 NMagM=    0.0000000   2.7928460   0.0000000   2.7928460   2.7928460   2.7928460
 AtZNuc=   8.0000000   1.0000000   6.0000000   1.0000000   1.0000000   1.0000000
 Leave Link  101 at Tue Feb 14 10:44:44 2023, MaxMem=   131072000 cpu:               0.7 elap:               0.1
 (Enter /dragofs/sw/campus/0.2/software/gaussian/16.gaussian/gaussian/g16_legacy/l103.exe)

 GradGradGradGradGradGradGradGradGradGradGradGradGradGradGradGradGradGrad
 Berny optimization.
 Initialization pass.
 Trust Radius=3.00D-01 FncErr=1.00D-07 GrdErr=1.00D-07 EigMax=2.50D+02 EigMin=1.00D-04
 Number of steps in this run=      2 maximum allowed number of steps=      2.
 GradGradGradGradGradGradGradGradGradGradGradGradGradGradGradGradGradGrad

 Leave Link  103 at Tue Feb 14 10:44:44 2023, MaxMem=   131072000 cpu:               0.1 elap:               0.0
 (Enter /dragofs/sw/campus/0.2/software/gaussian/16.gaussian/gaussian/g16_legacy/l202.exe)
                          Input orientation:                          
 ---------------------------------------------------------------------
 Center     Atomic      Atomic             Coordinates (Angstroms)
 Number     Number       Type             X           Y           Z
 ---------------------------------------------------------------------
      1          1           0        3.063700    2.096500    2.869000
      2          6           0        2.624300    2.492700    1.944800
      3          6           0        1.827000    1.392100    1.215400
      4          1           0        1.979200    3.345600    2.200900
      5          1           0        3.444500    2.868800    1.313400
      6          1           0        1.396300    1.794800    0.286800
      7          1           0        0.982500    1.062000    1.841800
      8          6           0        2.674400    0.151800    0.883700
      9          6           0        1.917800   -0.931700    0.079200
     10          1           0        3.560600    0.474300    0.297500
     11          1           0        1.034000   -1.234200    0.663000
     12          1           0        2.566900   -1.823100    0.020400
     13          8           0        3.103200   -0.385300    2.164500
     14          1           0        3.701400   -1.130000    1.983500
     15          6           0        1.514500   -0.511400   -1.349500
     16          1           0        1.025200   -1.339600   -1.881200
     17          1           0        2.394500   -0.207900   -1.937100
     18          1           0        0.812800    0.332900   -1.341400
     19          1           0       -2.287500   -3.620000   -2.120500
     20          6           0       -2.294300   -2.527000   -2.239400
     21          6           0       -2.075500   -1.809300   -0.893000
     22          1           0       -1.503500   -2.259600   -2.957400
     23          1           0       -3.255500   -2.227300   -2.677700
     24          1           0       -1.084800   -2.063000   -0.482200
     25          1           0       -2.816300   -2.160300   -0.151600
     26          6           0       -2.190500   -0.272800   -1.003700
     27          6           0       -1.879300    0.447500    0.325900
     28          1           0       -1.489600    0.080600   -1.776700
     29          1           0       -0.910500    0.091100    0.707100
     30          1           0       -2.634900    0.139800    1.071600
     31          8           0       -3.489900    0.123000   -1.524800
     32          1           0       -4.152700   -0.162000   -0.869500
     33          6           0       -1.862900    1.982100    0.192900
     34          1           0       -1.702700    2.468800    1.165400
     35          1           0       -2.812000    2.338700   -0.228800
     36          1           0       -1.055200    2.307000   -0.480900
 ---------------------------------------------------------------------
                    Distance matrix (angstroms):
                    1          2          3          4          5
     1  H    0.000000
     2  C    1.097357   0.000000
     3  C    2.181742   1.542411   0.000000
     4  H    1.784026   1.099627   2.193294   0.000000
     5  H    1.778018   1.101293   2.192385   1.778229   0.000000
     6  H    3.088528   2.178075   1.099985   2.531508   2.530318
     7  H    2.541008   2.180142   1.102054   2.517378   3.099222
     8  C    2.806213   2.570653   1.538329   3.524014   2.856534
     9  C    4.273882   3.963095   2.588289   4.775005   4.277600
    10  H    3.080756   2.768428   2.165702   3.790530   2.603682
    11  H    4.481036   4.249923   2.798472   4.922713   4.802930
    12  H    4.870790   4.725753   3.508987   5.640517   4.945296
    13  O    2.580157   2.925833   2.385084   3.896706   3.380832
    14  H    3.406035   3.779629   3.234863   4.800441   4.062688
    15  C    5.195855   4.594419   3.209312   5.262864   4.716109
    16  H    6.206985   5.646408   4.206424   6.286872   5.811120
    17  H    5.371842   4.734469   3.580546   5.470181   4.597209
    18  H    5.089627   4.329593   2.947496   4.794240   4.517145
    19  H    9.284871   8.832754   7.292358   9.241148   9.314076
    20  C    8.728154   8.179092   6.654330   8.512726   8.641231
    21  C    7.471231   6.974843   5.470267   7.251607   7.564603
    22  H    8.589637   7.978387   6.468339   8.375890   8.308004
    23  H    9.454809   8.844091   7.354461   9.069732   9.316068
    24  H    6.763286   6.356269   4.826815   6.770530   6.932632
    25  H    7.862491   7.459586   6.004038   7.671115   8.163069
    26  C    6.943919   6.286807   4.882274   6.383469   6.855059
    27  C    5.798259   5.204430   3.926848   5.177126   5.931332
    28  H    6.810207   6.049129   4.655376   6.205973   6.455085
    29  H    4.948708   4.449089   3.073252   4.601475   5.200889
    30  H    6.287556   5.827332   4.636538   5.730828   6.668209
    31  O    8.133256   7.418696   6.114633   7.360506   7.980019
    32  H    8.435261   7.803553   6.520648   7.702650   8.465710
    33  C    5.607672   4.844051   3.874141   4.544549   5.496385
    34  H    5.075375   4.396699   3.690605   3.923955   5.164840
    35  H    6.646719   5.856758   4.949958   5.465609   6.465538
    36  H    5.313330   4.411034   3.467211   4.180709   4.876723
                    6          7          8          9         10
     6  H    0.000000
     7  H    1.768121   0.000000
     8  C    2.165474   2.146845   0.000000
     9  C    2.783678   2.820706   1.547138   0.000000
    10  H    2.535356   3.062165   1.110400   2.173311   0.000000
    11  H    3.073700   2.581619   2.158846   1.101559   3.071851
    12  H    3.811886   3.761864   2.158025   1.104256   2.518387
    13  O    3.345460   2.587698   1.453545   2.460122   2.105663
    14  H    4.092277   3.495334   1.976689   2.616660   2.331566
    15  C    2.830196   3.597639   2.602381   1.542883   2.805484
    16  H    3.829152   4.430602   3.548071   2.192324   3.803317
    17  H    3.154828   4.229241   2.857384   2.194674   2.611249
    18  H    2.264654   3.270038   2.906789   2.199623   3.202560
    19  H    6.977502   6.950816   6.918970   5.454373   7.537260
    20  C    6.219338   6.346222   6.451178   5.065834   7.051490
    21  C    5.141484   5.007480   5.437290   4.202594   6.196591
    22  H    5.947422   6.343938   6.166340   4.763355   6.611633
    23  H    6.826770   7.014700   7.314875   6.003508   7.912628
    24  H    4.650789   4.409119   4.571937   3.257394   5.350286
    25  H    5.794912   5.365421   6.046936   4.896369   6.914308
    26  C    4.336530   4.466149   5.235438   4.299413   5.943604
    27  C    3.542076   3.296280   4.597256   4.047348   5.440040
    28  H    3.940169   4.490876   4.941831   4.009924   5.473740
    29  H    2.898374   2.411149   3.589760   3.072403   4.506146
    30  H    4.427811   3.811724   5.312637   4.781218   6.252627
    31  O    5.472820   5.676097   6.618179   5.738330   7.290661
    32  H    5.996457   5.934611   7.055599   6.192208   7.826989
    33  C    3.265928   3.414931   4.941082   4.774605   5.630165
    34  H    3.290899   3.105946   4.960529   5.084413   5.695051
    35  H    4.274513   4.507280   6.010056   5.758593   6.660556
    36  H    2.619459   3.331243   4.518510   4.431887   5.026958
                   11         12         13         14         15
    11  H    0.000000
    12  H    1.763383   0.000000
    13  O    2.693830   2.636674   0.000000
    14  H    2.978187   2.370915   0.972205   0.000000
    15  C    2.191683   2.169039   3.858506   4.034115   0.000000
    16  H    2.546398   2.495334   4.647199   4.705516   1.099106
    17  H    3.108822   2.543698   4.166155   4.234308   1.100812
    18  H    2.553889   3.095109   4.248891   4.641018   1.097857
    19  H    4.946946   5.601562   7.608164   7.675275   4.971221
    20  C    4.601395   5.406795   7.287950   7.465448   4.400173
    21  C    3.524325   4.731423   6.180212   6.489089   3.844611
    22  H    4.538463   5.062211   7.139226   7.264948   3.840556
    23  H    5.526874   6.429888   8.202008   8.445668   5.240356
    24  H    2.547098   3.693924   5.230587   5.464236   3.148973
    25  H    4.043024   5.396492   6.599653   6.935458   4.786404
    26  C    3.754941   5.107354   6.170365   6.661279   3.728744
    27  C    3.380690   5.001765   5.375808   6.031613   3.904399
    28  H    3.748252   4.827922   6.069920   6.523123   3.091534
    29  H    2.353603   4.028403   4.296599   4.938614   3.236238
    30  H    3.938992   5.658332   5.864806   6.526305   4.848021
    31  O    5.205202   6.546738   7.572204   8.098949   5.047496
    32  H    5.513622   6.978839   7.867853   8.412106   5.698213
    33  C    4.354034   5.842297   5.844137   6.622148   4.472513
    34  H    4.631862   6.161243   5.678095   6.544077   5.055362
    35  H    5.324719   6.805530   6.938130   7.703930   5.300721
    36  H    4.267711   5.516216   5.615951   6.364863   3.911675
                   16         17         18         19         20
    16  H    0.000000
    17  H    1.777316   0.000000
    18  H    1.770241   1.774570   0.000000
    19  H    4.028830   5.796308   5.083727   0.000000
    20  C    3.543629   5.239700   4.317349   1.099469   0.000000
    21  C    3.288084   4.861638   3.623860   2.197802   1.541350
    22  H    2.898091   4.521602   3.833766   1.779254   1.101086
    23  H    4.443739   6.045574   4.989127   1.785248   1.098104
    24  H    2.632985   4.202816   3.174815   2.560227   2.183103
    25  H    4.292108   5.843998   4.560925   2.507373   2.183085
    26  C    3.499828   4.679495   3.082325   3.529929   2.572770
    27  C    4.062159   4.880173   3.168663   4.764038   3.949764
    28  H    2.890001   3.898101   2.356732   3.801221   2.767889
    29  H    3.534563   4.243138   2.687858   4.864536   4.177465
    30  H    4.929907   5.870948   4.212659   4.944318   4.265038
    31  O    4.759448   5.908100   4.311719   3.976264   2.993762
    32  H    5.405638   6.633830   5.012365   4.123316   3.305072
    33  C    4.865871   5.240082   3.497615   6.075823   5.141417
    34  H    5.588123   5.794590   4.144135   6.943530   6.074592
    35  H    5.566365   6.042442   4.289556   6.273734   5.290138
    36  H    4.425675   4.510618   2.850781   6.271856   5.291053
                   21         22         23         24         25
    21  C    0.000000
    22  H    2.188996   0.000000
    23  H    2.179972   1.774480   0.000000
    24  H    1.102092   2.518050   3.091788   0.000000
    25  H    1.105287   3.099325   2.564872   1.765462   0.000000
    26  C    1.544769   2.869893   2.785062   2.167799   2.163413
    27  C    2.572423   4.271964   4.250893   2.754427   2.811867
    28  H    2.167009   2.621218   3.042467   2.536654   3.069644
    29  H    2.743914   4.393859   4.725555   2.466772   3.072172
    30  H    2.823397   4.823902   4.477227   3.109571   2.611433
    31  O    2.476587   3.416857   2.628314   3.413227   2.748249
    32  H    2.651209   3.972092   2.887909   3.629850   2.508894
    33  C    3.949569   5.295808   5.281925   4.174211   4.264637
    34  H    4.762156   6.276538   6.263702   4.861440   4.939956
    35  H    4.264915   5.504706   5.200208   4.735229   4.499664
    36  H    4.260841   5.214198   5.497920   4.370100   4.813178
                   26         27         28         29         30
    26  C    0.000000
    27  C    1.543863   0.000000
    28  H    1.101672   2.169656   0.000000
    29  H    2.167409   1.100413   2.550437   0.000000
    30  H    2.162082   1.105296   3.070510   1.763175   0.000000
    31  O    1.454869   2.474757   2.016544   3.411114   2.733606
    32  H    1.969902   2.639852   2.823822   3.614082   2.482472
    33  C    2.573664   1.540440   2.763038   2.178841   2.182239
    34  H    3.529775   2.195815   3.795374   2.547759   2.510386
    35  H    2.794041   2.180426   3.040354   3.089226   2.560774
    36  H    2.866635   2.188106   2.612405   2.518431   3.098784
                   31         32         33         34         35
    31  O    0.000000
    32  H    0.974652   0.000000
    33  C    3.008966   3.311954   0.000000
    34  H    3.991746   4.130911   1.099226   0.000000
    35  H    2.654899   2.908861   1.098083   1.786412   0.000000
    36  H    3.433271   3.980135   1.100884   1.776440   1.775079
                   36
    36  H    0.000000
 Stoichiometry    C10H24O2
 Framework group  C1[X(C10H24O2)]
 Deg. of freedom   102
 Full point group                 C1      NOp   1
 Largest Abelian subgroup         C1      NOp   1
 Largest concise Abelian subgroup C1      NOp   1
                         Standard orientation:                         
 ---------------------------------------------------------------------
 Center     Atomic      Atomic             Coordinates (Angstroms)
 Number     Number       Type             X           Y           Z
 ---------------------------------------------------------------------
      1          1           0       -4.475912    1.344158   -0.571921
      2          6           0       -3.795253    1.581034    0.255597
      3          6           0       -2.493614    0.763096    0.130119
      4          1           0       -3.587713    2.660795    0.240680
      5          1           0       -4.315275    1.351315    1.198811
      6          1           0       -1.820170    1.000378    0.966861
      7          1           0       -1.962974    1.040691   -0.795022
      8          6           0       -2.736111   -0.755494    0.090937
      9          6           0       -1.440349   -1.599779    0.048285
     10          1           0       -3.318234   -1.044920    0.991134
     11          1           0       -0.864580   -1.295173   -0.840049
     12          1           0       -1.728895   -2.652489   -0.118820
     13          8           0       -3.528794   -0.996289   -1.103411
     14          1           0       -3.758830   -1.940805   -1.115870
     15          6           0       -0.572139   -1.514994    1.320884
     16          1           0        0.305189   -2.172650    1.244612
     17          1           0       -1.143238   -1.818303    2.211746
     18          1           0       -0.203425   -0.495419    1.493536
     19          1           0        3.853324   -2.758603   -0.571667
     20          6           0        3.618436   -1.865983    0.025735
     21          6           0        2.638673   -0.932325   -0.711901
     22          1           0        3.191324   -2.202198    0.983297
     23          1           0        4.554030   -1.335704    0.247771
     24          1           0        1.677785   -1.444824   -0.881149
     25          1           0        3.035123   -0.681169   -1.712605
     26          6           0        2.373355    0.385318    0.049503
     27          6           0        1.321481    1.276289   -0.645655
     28          1           0        2.024415    0.143489    1.066086
     29          1           0        0.420081    0.676902   -0.843447
     30          1           0        1.717018    1.571848   -1.634531
     31          8           0        3.608823    1.116477    0.285447
     32          1           0        3.959308    1.363311   -0.589871
     33          6           0        0.954409    2.528976    0.172262
     34          1           0        0.253400    3.175556   -0.374380
     35          1           0        1.856983    3.107470    0.409935
     36          1           0        0.477716    2.248015    1.123982
 ---------------------------------------------------------------------
 Rotational constants (GHZ):           1.1221392           0.3689081           0.3047106
 Leave Link  202 at Tue Feb 14 10:44:44 2023, MaxMem=   131072000 cpu:               0.0 elap:               0.0
 (Enter /dragofs/sw/campus/0.2/software/gaussian/16.gaussian/gaussian/g16_legacy/l301.exe)
 Standard basis: 6-311G(d,p) (5D, 7F)
 Ernie: Thresh=  0.10000D-02 Tol=  0.10000D-05 Strict=F.
 There are   372 symmetry adapted cartesian basis functions of A   symmetry.
 There are   360 symmetry adapted basis functions of A   symmetry.
   360 basis functions,   576 primitive gaussians,   372 cartesian basis functions
    50 alpha electrons       50 beta electrons
       nuclear repulsion energy       765.9397427816 Hartrees.
 IExCor=  402 DFT=T Ex=B Corr=LYP ExCW=0 ScaHFX=  0.000000
 ScaDFX=  1.000000  1.000000  1.000000  1.000000 ScalE2=  1.000000  1.000000
 IRadAn=      5 IRanWt=     -1 IRanGd=            0 ICorTp=0 IEmpDi=131
 NAtoms=   36 NActive=   36 NUniq=   36 SFac= 1.00D+00 NAtFMM=   60 NAOKFM=F Big=F
 Integral buffers will be    131072 words long.
 Raffenetti 2 integral format.
 Two-electron integral symmetry is turned on.
 R6Disp:  Grimme-D3 Dispersion energy=       -0.0427706375 Hartrees.
 Nuclear repulsion after empirical dispersion term =      765.8969721442 Hartrees.
 Leave Link  301 at Tue Feb 14 10:44:45 2023, MaxMem=   131072000 cpu:               0.4 elap:               0.1
 (Enter /dragofs/sw/campus/0.2/software/gaussian/16.gaussian/gaussian/g16_legacy/l302.exe)
 NPDir=0 NMtPBC=     1 NCelOv=     1 NCel=       1 NClECP=     1 NCelD=      1
         NCelK=      1 NCelE2=     1 NClLst=     1 CellRange=     0.0.
 One-electron integrals computed using PRISM.
 One-electron integral symmetry used in STVInt
 NBasis=   360 RedAO= T EigKep=  1.58D-03  NBF=   360
 NBsUse=   360 1.00D-06 EigRej= -1.00D+00 NBFU=   360
 Precomputing XC quadrature grid using
 IXCGrd= 4 IRadAn=           5 IRanWt=          -1 IRanGd=           0 AccXCQ= 0.00D+00.
 Generated NRdTot=       0 NPtTot=           0 NUsed=           0 NTot=          32
 NSgBfM=   372   372   372   372   372 MxSgAt=    36 MxSgA2=    36.
 Leave Link  302 at Tue Feb 14 10:44:45 2023, MaxMem=   131072000 cpu:               3.4 elap:               0.4
 (Enter /dragofs/sw/campus/0.2/software/gaussian/16.gaussian/gaussian/g16_legacy/l303.exe)
 DipDrv:  MaxL=1.
 Leave Link  303 at Tue Feb 14 10:44:45 2023, MaxMem=   131072000 cpu:               0.3 elap:               0.1
 (Enter /dragofs/sw/campus/0.2/software/gaussian/16.gaussian/gaussian/g16_legacy/l401.exe)
 ExpMin= 1.03D-01 ExpMax= 8.59D+03 ExpMxC= 1.30D+03 IAcc=3 IRadAn=         5 AccDes= 0.00D+00
 Harris functional with IExCor=  402 and IRadAn=       5 diagonalized for initial guess.
 HarFok:  IExCor=  402 AccDes= 0.00D+00 IRadAn=         5 IDoV= 1 UseB2=F ITyADJ=14
 ICtDFT=  3500011 ScaDFX=  1.000000  1.000000  1.000000  1.000000
 FoFCou: FMM=F IPFlag=           0 FMFlag=      100000 FMFlg1=           0
         NFxFlg=           0 DoJE=T BraDBF=F KetDBF=T FulRan=T
         wScrn=  0.000000 ICntrl=       500 IOpCl=  0 I1Cent=   200000004 NGrid=           0
         NMat0=    1 NMatS0=      1 NMatT0=    0 NMatD0=    1 NMtDS0=    0 NMtDT0=    0
 Petite list used in FoFCou.
 Harris En= -546.317847375759    
 JPrj=0 DoOrth=F DoCkMO=F.
 Leave Link  401 at Tue Feb 14 10:44:48 2023, MaxMem=   131072000 cpu:              21.6 elap:               2.7
 (Enter /dragofs/sw/campus/0.2/software/gaussian/16.gaussian/gaussian/g16_legacy/l502.exe)
 Integral symmetry usage will be decided dynamically.
 Closed shell SCF:
 Using DIIS extrapolation, IDIIS=  1040.
 NGot=   131072000 LenX=   130788220 LenY=   130649395
 Requested convergence on RMS density matrix=1.00D-08 within 128 cycles.
 Requested convergence on MAX density matrix=1.00D-06.
 Requested convergence on             energy=1.00D-06.
 No special actions if energy rises.
 Fock matrices will be formed incrementally for  20 cycles.
 Integral accuracy reduced to 1.0D-05 until final iterations.

 Cycle   1  Pass 0  IDiag  1:
 FoFJK:  IHMeth= 1 ICntrl=     500 DoSepK=F KAlg= 0 I1Cent=           0 FoldK=F
 IRaf= 850000000 NMat=       1 IRICut=       1 DoRegI=T DoRafI=F ISym2E= 0 IDoP0=0 IntGTp=1.
 FoFCou: FMM=F IPFlag=           0 FMFlag=      100000 FMFlg1=           0
         NFxFlg=           0 DoJE=T BraDBF=F KetDBF=F FulRan=T
         wScrn=  0.000000 ICntrl=       500 IOpCl=  0 I1Cent=           0 NGrid=           0
         NMat0=    1 NMatS0=      1 NMatT0=    0 NMatD0=    1 NMtDS0=    0 NMtDT0=    0
 Symmetry not used in FoFCou.
 E= -545.352357525183    
 DIIS: error= 3.41D-02 at cycle   1 NSaved=   1.
 NSaved= 1 IEnMin= 1 EnMin= -545.352357525183     IErMin= 1 ErrMin= 3.41D-02
 ErrMax= 3.41D-02  0.00D+00 EMaxC= 1.00D-01 BMatC= 5.23D-01 BMatP= 5.23D-01
 IDIUse=3 WtCom= 6.59D-01 WtEn= 3.41D-01
 Coeff-Com:  0.100D+01
 Coeff-En:   0.100D+01
 Coeff:      0.100D+01
 Gap=     0.134 Goal=   None    Shift=    0.000
 GapD=    0.134 DampG=1.000 DampE=0.500 DampFc=0.5000 IDamp=-1.
 Damping current iteration by 5.00D-01
 RMSDP=4.70D-03 MaxDP=1.31D-01              OVMax= 2.13D-01

 Cycle   2  Pass 0  IDiag  1:
 RMSU=  2.33D-03    CP:  9.70D-01
 E= -545.470919100552     Delta-E=       -0.118561575368 Rises=F Damp=T
 DIIS: error= 1.51D-02 at cycle   2 NSaved=   2.
 NSaved= 2 IEnMin= 2 EnMin= -545.470919100552     IErMin= 2 ErrMin= 1.51D-02
 ErrMax= 1.51D-02  0.00D+00 EMaxC= 1.00D-01 BMatC= 7.26D-02 BMatP= 5.23D-01
 IDIUse=3 WtCom= 8.49D-01 WtEn= 1.51D-01
 Coeff-Com:  0.245D+00 0.755D+00
 Coeff-En:   0.389D+00 0.611D+00
 Coeff:      0.267D+00 0.733D+00
 Gap=     0.235 Goal=   None    Shift=    0.000
 RMSDP=1.10D-03 MaxDP=3.81D-02 DE=-1.19D-01 OVMax= 1.41D-01

 Cycle   3  Pass 0  IDiag  1:
 RMSU=  6.77D-04    CP:  9.76D-01  6.27D-01
 E= -545.857403867485     Delta-E=       -0.386484766934 Rises=F Damp=F
 DIIS: error= 7.53D-03 at cycle   3 NSaved=   3.
 NSaved= 3 IEnMin= 3 EnMin= -545.857403867485     IErMin= 3 ErrMin= 7.53D-03
 ErrMax= 7.53D-03  0.00D+00 EMaxC= 1.00D-01 BMatC= 1.45D-02 BMatP= 7.26D-02
 IDIUse=3 WtCom= 9.25D-01 WtEn= 7.53D-02
 Coeff-Com:  0.102D+00 0.348D+00 0.550D+00
 Coeff-En:   0.000D+00 0.000D+00 0.100D+01
 Coeff:      0.947D-01 0.322D+00 0.584D+00
 Gap=     0.219 Goal=   None    Shift=    0.000
 RMSDP=4.14D-04 MaxDP=1.48D-02 DE=-3.86D-01 OVMax= 3.08D-02

 Cycle   4  Pass 0  IDiag  1:
 RMSU=  3.12D-04    CP:  9.81D-01  6.63D-01  6.21D-01
 E= -545.863241889892     Delta-E=       -0.005838022407 Rises=F Damp=F
 DIIS: error= 5.48D-03 at cycle   4 NSaved=   4.
 NSaved= 4 IEnMin= 4 EnMin= -545.863241889892     IErMin= 4 ErrMin= 5.48D-03
 ErrMax= 5.48D-03  0.00D+00 EMaxC= 1.00D-01 BMatC= 7.45D-03 BMatP= 1.45D-02
 IDIUse=3 WtCom= 9.45D-01 WtEn= 5.48D-02
 Coeff-Com:  0.262D-01 0.970D-01 0.405D+00 0.472D+00
 Coeff-En:   0.000D+00 0.000D+00 0.361D+00 0.639D+00
 Coeff:      0.247D-01 0.917D-01 0.403D+00 0.481D+00
 Gap=     0.224 Goal=   None    Shift=    0.000
 RMSDP=2.02D-04 MaxDP=7.21D-03 DE=-5.84D-03 OVMax= 1.36D-02

 Cycle   5  Pass 0  IDiag  1:
 RMSU=  9.94D-05    CP:  9.78D-01  6.54D-01  7.24D-01  4.93D-01
 E= -545.869009693689     Delta-E=       -0.005767803797 Rises=F Damp=F
 DIIS: error= 5.67D-04 at cycle   5 NSaved=   5.
 NSaved= 5 IEnMin= 5 EnMin= -545.869009693689     IErMin= 5 ErrMin= 5.67D-04
 ErrMax= 5.67D-04  0.00D+00 EMaxC= 1.00D-01 BMatC= 1.41D-04 BMatP= 7.45D-03
 IDIUse=3 WtCom= 9.94D-01 WtEn= 5.67D-03
 Coeff-Com:  0.395D-02 0.157D-01 0.130D+00 0.206D+00 0.644D+00
 Coeff-En:   0.000D+00 0.000D+00 0.000D+00 0.000D+00 0.100D+01
 Coeff:      0.393D-02 0.156D-01 0.129D+00 0.205D+00 0.646D+00
 Gap=     0.223 Goal=   None    Shift=    0.000
 RMSDP=3.88D-05 MaxDP=9.49D-04 DE=-5.77D-03 OVMax= 2.05D-03

 Cycle   6  Pass 0  IDiag  1:
 RMSU=  1.90D-05    CP:  9.78D-01  6.53D-01  7.33D-01  5.28D-01  6.87D-01
 E= -545.869114872962     Delta-E=       -0.000105179273 Rises=F Damp=F
 DIIS: error= 2.70D-04 at cycle   6 NSaved=   6.
 NSaved= 6 IEnMin= 6 EnMin= -545.869114872962     IErMin= 6 ErrMin= 2.70D-04
 ErrMax= 2.70D-04  0.00D+00 EMaxC= 1.00D-01 BMatC= 2.30D-05 BMatP= 1.41D-04
 IDIUse=3 WtCom= 9.97D-01 WtEn= 2.70D-03
 Coeff-Com:  0.142D-02 0.455D-02 0.589D-01 0.101D+00 0.391D+00 0.443D+00
 Coeff-En:   0.000D+00 0.000D+00 0.000D+00 0.000D+00 0.682D-01 0.932D+00
 Coeff:      0.142D-02 0.454D-02 0.587D-01 0.101D+00 0.390D+00 0.445D+00
 Gap=     0.223 Goal=   None    Shift=    0.000
 RMSDP=1.08D-05 MaxDP=6.16D-04 DE=-1.05D-04 OVMax= 6.73D-04

 Cycle   7  Pass 0  IDiag  1:
 RMSU=  5.48D-06    CP:  9.78D-01  6.54D-01  7.32D-01  5.29D-01  7.26D-01
                    CP:  5.86D-01
 E= -545.869136055590     Delta-E=       -0.000021182628 Rises=F Damp=F
 DIIS: error= 4.09D-05 at cycle   7 NSaved=   7.
 NSaved= 7 IEnMin= 7 EnMin= -545.869136055590     IErMin= 7 ErrMin= 4.09D-05
 ErrMax= 4.09D-05  0.00D+00 EMaxC= 1.00D-01 BMatC= 5.64D-07 BMatP= 2.30D-05
 IDIUse=1 WtCom= 1.00D+00 WtEn= 0.00D+00
 Coeff-Com:  0.486D-03 0.699D-03 0.160D-01 0.281D-01 0.120D+00 0.193D+00
 Coeff-Com:  0.641D+00
 Coeff:      0.486D-03 0.699D-03 0.160D-01 0.281D-01 0.120D+00 0.193D+00
 Coeff:      0.641D+00
 Gap=     0.223 Goal=   None    Shift=    0.000
 RMSDP=2.50D-06 MaxDP=7.98D-05 DE=-2.12D-05 OVMax= 1.46D-04

 Initial convergence to 1.0D-05 achieved.  Increase integral accuracy.
 Cycle   8  Pass 1  IDiag  1:
 E= -545.869116415642     Delta-E=        0.000019639948 Rises=F Damp=F
 DIIS: error= 1.97D-05 at cycle   1 NSaved=   1.
 NSaved= 1 IEnMin= 1 EnMin= -545.869116415642     IErMin= 1 ErrMin= 1.97D-05
 ErrMax= 1.97D-05  0.00D+00 EMaxC= 1.00D-01 BMatC= 1.69D-07 BMatP= 1.69D-07
 IDIUse=1 WtCom= 1.00D+00 WtEn= 0.00D+00
 Coeff-Com:  0.100D+01
 Coeff:      0.100D+01
 Gap=     0.223 Goal=   None    Shift=    0.000
 RMSDP=2.50D-06 MaxDP=7.98D-05 DE= 1.96D-05 OVMax= 1.22D-04

 Cycle   9  Pass 1  IDiag  1:
 RMSU=  5.80D-06    CP:  1.00D+00
 E= -545.869116357899     Delta-E=        0.000000057744 Rises=F Damp=F
 DIIS: error= 3.91D-05 at cycle   2 NSaved=   2.
 NSaved= 2 IEnMin= 1 EnMin= -545.869116415642     IErMin= 1 ErrMin= 1.97D-05
 ErrMax= 3.91D-05  0.00D+00 EMaxC= 1.00D-01 BMatC= 2.86D-07 BMatP= 1.69D-07
 IDIUse=1 WtCom= 1.00D+00 WtEn= 0.00D+00
 Coeff-Com:  0.580D+00 0.420D+00
 Coeff:      0.580D+00 0.420D+00
 Gap=     0.223 Goal=   None    Shift=    0.000
 RMSDP=1.51D-06 MaxDP=5.99D-05 DE= 5.77D-08 OVMax= 1.06D-04

 Cycle  10  Pass 1  IDiag  1:
 RMSU=  1.42D-06    CP:  1.00D+00  9.13D-01
 E= -545.869116556683     Delta-E=       -0.000000198784 Rises=F Damp=F
 DIIS: error= 1.41D-05 at cycle   3 NSaved=   3.
 NSaved= 3 IEnMin= 3 EnMin= -545.869116556683     IErMin= 3 ErrMin= 1.41D-05
 ErrMax= 1.41D-05  0.00D+00 EMaxC= 1.00D-01 BMatC= 3.09D-08 BMatP= 1.69D-07
 IDIUse=1 WtCom= 1.00D+00 WtEn= 0.00D+00
 Coeff-Com:  0.679D-01 0.248D+00 0.684D+00
 Coeff:      0.679D-01 0.248D+00 0.684D+00
 Gap=     0.223 Goal=   None    Shift=    0.000
 RMSDP=4.29D-07 MaxDP=1.96D-05 DE=-1.99D-07 OVMax= 3.08D-05

 Cycle  11  Pass 1  IDiag  1:
 RMSU=  3.38D-07    CP:  1.00D+00  9.23D-01  8.20D-01
 E= -545.869116575069     Delta-E=       -0.000000018386 Rises=F Damp=F
 DIIS: error= 2.54D-06 at cycle   4 NSaved=   4.
 NSaved= 4 IEnMin= 4 EnMin= -545.869116575069     IErMin= 4 ErrMin= 2.54D-06
 ErrMax= 2.54D-06  0.00D+00 EMaxC= 1.00D-01 BMatC= 2.98D-09 BMatP= 3.09D-08
 IDIUse=1 WtCom= 1.00D+00 WtEn= 0.00D+00
 Coeff-Com:  0.323D-02 0.117D+00 0.388D+00 0.492D+00
 Coeff:      0.323D-02 0.117D+00 0.388D+00 0.492D+00
 Gap=     0.223 Goal=   None    Shift=    0.000
 RMSDP=1.70D-07 MaxDP=5.04D-06 DE=-1.84D-08 OVMax= 9.30D-06

 Cycle  12  Pass 1  IDiag  1:
 RMSU=  5.16D-08    CP:  1.00D+00  9.28D-01  7.98D-01  5.36D-01
 E= -545.869116578046     Delta-E=       -0.000000002977 Rises=F Damp=F
 DIIS: error= 4.83D-07 at cycle   5 NSaved=   5.
 NSaved= 5 IEnMin= 5 EnMin= -545.869116578046     IErMin= 5 ErrMin= 4.83D-07
 ErrMax= 4.83D-07  0.00D+00 EMaxC= 1.00D-01 BMatC= 1.03D-10 BMatP= 2.98D-09
 IDIUse=1 WtCom= 1.00D+00 WtEn= 0.00D+00
 Coeff-Com: -0.364D-03 0.579D-01 0.195D+00 0.275D+00 0.472D+00
 Coeff:     -0.364D-03 0.579D-01 0.195D+00 0.275D+00 0.472D+00
 Gap=     0.223 Goal=   None    Shift=    0.000
 RMSDP=2.65D-08 MaxDP=1.25D-06 DE=-2.98D-09 OVMax= 1.83D-06

 Cycle  13  Pass 1  IDiag  1:
 RMSU=  9.93D-09    CP:  1.00D+00  9.28D-01  7.96D-01  5.23D-01  5.36D-01
 E= -545.869116578142     Delta-E=       -0.000000000096 Rises=F Damp=F
 DIIS: error= 6.39D-08 at cycle   6 NSaved=   6.
 NSaved= 6 IEnMin= 6 EnMin= -545.869116578142     IErMin= 6 ErrMin= 6.39D-08
 ErrMax= 6.39D-08  0.00D+00 EMaxC= 1.00D-01 BMatC= 2.74D-12 BMatP= 1.03D-10
 IDIUse=1 WtCom= 1.00D+00 WtEn= 0.00D+00
 Coeff-Com: -0.291D-03 0.220D-01 0.745D-01 0.108D+00 0.225D+00 0.571D+00
 Coeff:     -0.291D-03 0.220D-01 0.745D-01 0.108D+00 0.225D+00 0.571D+00
 Gap=     0.223 Goal=   None    Shift=    0.000
 RMSDP=4.59D-09 MaxDP=1.79D-07 DE=-9.60D-11 OVMax= 2.42D-07

 SCF Done:  E(RB-LYP) =  -545.869116578     A.U. after   13 cycles
            NFock= 13  Conv=0.46D-08     -V/T= 2.0030
 KE= 5.442569500103D+02 PE=-2.803864781421D+03 EE= 9.478417426881D+02
 Leave Link  502 at Tue Feb 14 10:45:33 2023, MaxMem=   131072000 cpu:             359.2 elap:              45.2
 (Enter /dragofs/sw/campus/0.2/software/gaussian/16.gaussian/gaussian/g16_legacy/l801.exe)
 DoSCS=F DFT=T ScalE2(SS,OS)=  1.000000  1.000000
 Range of M.O.s used for correlation:     1   360
 NBasis=   360 NAE=    50 NBE=    50 NFC=     0 NFV=     0
 NROrb=    360 NOA=    50 NOB=    50 NVA=   310 NVB=   310
 Leave Link  801 at Tue Feb 14 10:45:33 2023, MaxMem=   131072000 cpu:               0.2 elap:               0.1
 (Enter /dragofs/sw/campus/0.2/software/gaussian/16.gaussian/gaussian/g16_legacy/l1101.exe)
 Using compressed storage, NAtomX=    36.
 Will process     37 centers per pass.
 R6Disp: Adding Grimme-D3 dispersion energy 1st derivatives to the gradient.
 Leave Link 1101 at Tue Feb 14 10:45:34 2023, MaxMem=   131072000 cpu:               3.3 elap:               0.5
 (Enter /dragofs/sw/campus/0.2/software/gaussian/16.gaussian/gaussian/g16_legacy/l1102.exe)
 Symmetrizing basis deriv contribution to polar:
 IMax=3 JMax=2 DiffMx= 0.00D+00
 Leave Link 1102 at Tue Feb 14 10:45:34 2023, MaxMem=   131072000 cpu:               0.4 elap:               0.1
 (Enter /dragofs/sw/campus/0.2/software/gaussian/16.gaussian/gaussian/g16_legacy/l1110.exe)
 Forming Gx(P) for the SCF density, NAtomX=    36.
 Integral derivatives from FoFJK, PRISM(SPDF).
 Do as many integral derivatives as possible in FoFJK.
 G2DrvN: MDV=     131069272.
 G2DrvN: will do    37 centers at a time, making    1 passes.
 Calling FoFCou, ICntrl=  3507 FMM=F I1Cent=   0 AccDes= 0.00D+00.
 FoFJK:  IHMeth= 1 ICntrl=    3507 DoSepK=F KAlg= 0 I1Cent=           0 FoldK=F
 IRaf=         0 NMat=       1 IRICut=       1 DoRegI=T DoRafI=F ISym2E= 0 IDoP0=0 IntGTp=1.
 FoFCou: FMM=F IPFlag=           0 FMFlag=      100000 FMFlg1=           0
         NFxFlg=           0 DoJE=F BraDBF=F KetDBF=F FulRan=T
         wScrn=  0.000000 ICntrl=      3507 IOpCl=  0 I1Cent=           0 NGrid=           0
         NMat0=    1 NMatS0=      1 NMatT0=    0 NMatD0=    1 NMtDS0=    0 NMtDT0=    0
 Symmetry not used in FoFCou.
 End of G2Drv F.D. properties file   721 does not exist.
 End of G2Drv F.D. properties file   722 does not exist.
 End of G2Drv F.D. properties file   788 does not exist.
 Leave Link 1110 at Tue Feb 14 10:49:12 2023, MaxMem=   131072000 cpu:            1740.7 elap:             218.7
 (Enter /dragofs/sw/campus/0.2/software/gaussian/16.gaussian/gaussian/g16_legacy/l1002.exe)
 Minotr:  Closed shell wavefunction.
          IDoAtm=111111111111111111111111111111111111
          Direct CPHF calculation.
          Differentiating once with respect to electric field.
                with respect to dipole field.
          Differentiating once with respect to nuclear coordinates.
          Requested convergence is 1.0D-08 RMS, and 1.0D-07 maximum.
          Secondary convergence is 1.0D-12 RMS, and 1.0D-12 maximum.
          NewPWx=T KeepS1=F KeepF1=F KeepIn=T MapXYZ=F SortEE=F KeepMc=T.
        10897 words used for storage of precomputed grid.
 Two-electron integrals replicated using symmetry.
          MDV=     131072000 using IRadAn=       1.
          Solving linear equations simultaneously, MaxMat=     384.
 FoF2E skips out because all densities are zero.
 CalDSu exits because no D1Ps are significant.
 FoFJK:  IHMeth= 1 ICntrl=     500 DoSepK=F KAlg= 0 I1Cent=           0 FoldK=F
 IRaf= 820000000 NMat=      56 IRICut=       1 DoRegI=T DoRafI=F ISym2E= 2 IDoP0=3 IntGTp=3.
 FoFCou: FMM=F IPFlag=           0 FMFlag=      100000 FMFlg1=           0
         NFxFlg=           0 DoJE=F BraDBF=F KetDBF=F FulRan=T
         wScrn=  0.000000 ICntrl=       500 IOpCl=  0 I1Cent=           0 NGrid=           0
         NMat0=   56 NMatS0=     56 NMatT0=    0 NMatD0=   56 NMtDS0=    0 NMtDT0=    0
 Integrals replicated using symmetry in FoFCou.
          There are   111 degrees of freedom in the 1st order CPHF.  IDoFFX=6 NUNeed=     3.
    108 vectors produced by pass  0 Test12= 1.55D-14 1.00D-09 XBig12= 1.14D+02 1.75D+00.
 AX will form    56 AO Fock derivatives at one time.
    108 vectors produced by pass  1 Test12= 1.55D-14 1.00D-09 XBig12= 9.77D+00 3.02D-01.
    108 vectors produced by pass  2 Test12= 1.55D-14 1.00D-09 XBig12= 3.33D-02 1.44D-02.
    108 vectors produced by pass  3 Test12= 1.55D-14 1.00D-09 XBig12= 3.24D-05 2.97D-04.
     92 vectors produced by pass  4 Test12= 1.55D-14 1.00D-09 XBig12= 3.35D-09 6.56D-06.
      6 vectors produced by pass  5 Test12= 1.55D-14 1.00D-09 XBig12= 4.84D-13 5.05D-08.
      1 vectors produced by pass  6 Test12= 1.55D-14 1.00D-09 XBig12= 1.27D-16 1.01D-09.
 InvSVY:  IOpt=1 It=  1 EMax= 2.31D-14
 Solved reduced A of dimension   531 with   111 vectors.
 FullF1:  Do perturbations      1 to       3.
 Isotropic polarizability for W=    0.000000      132.98 Bohr**3.
 End of Minotr F.D. properties file   721 does not exist.
 End of Minotr F.D. properties file   722 does not exist.
 End of Minotr F.D. properties file   788 does not exist.
 Leave Link 1002 at Tue Feb 14 10:53:24 2023, MaxMem=   131072000 cpu:            1999.0 elap:             251.2
 (Enter /dragofs/sw/campus/0.2/software/gaussian/16.gaussian/gaussian/g16_legacy/l601.exe)
 Copying SCF densities to generalized density rwf, IOpCl= 0 IROHF=0.

 **********************************************************************

            Population analysis using the SCF density.

 **********************************************************************

 Orbital symmetries:
       Occupied  (A) (A) (A) (A) (A) (A) (A) (A) (A) (A) (A) (A)
                 (A) (A) (A) (A) (A) (A) (A) (A) (A) (A) (A) (A)
                 (A) (A) (A) (A) (A) (A) (A) (A) (A) (A) (A) (A)
                 (A) (A) (A) (A) (A) (A) (A) (A) (A) (A) (A) (A)
                 (A) (A)
       Virtual   (A) (A) (A) (A) (A) (A) (A) (A) (A) (A) (A) (A)
                 (A) (A) (A) (A) (A) (A) (A) (A) (A) (A) (A) (A)
                 (A) (A) (A) (A) (A) (A) (A) (A) (A) (A) (A) (A)
                 (A) (A) (A) (A) (A) (A) (A) (A) (A) (A) (A) (A)
                 (A) (A) (A) (A) (A) (A) (A) (A) (A) (A) (A) (A)
                 (A) (A) (A) (A) (A) (A) (A) (A) (A) (A) (A) (A)
                 (A) (A) (A) (A) (A) (A) (A) (A) (A) (A) (A) (A)
                 (A) (A) (A) (A) (A) (A) (A) (A) (A) (A) (A) (A)
                 (A) (A) (A) (A) (A) (A) (A) (A) (A) (A) (A) (A)
                 (A) (A) (A) (A) (A) (A) (A) (A) (A) (A) (A) (A)
                 (A) (A) (A) (A) (A) (A) (A) (A) (A) (A) (A) (A)
                 (A) (A) (A) (A) (A) (A) (A) (A) (A) (A) (A) (A)
                 (A) (A) (A) (A) (A) (A) (A) (A) (A) (A) (A) (A)
                 (A) (A) (A) (A) (A) (A) (A) (A) (A) (A) (A) (A)
                 (A) (A) (A) (A) (A) (A) (A) (A) (A) (A) (A) (A)
                 (A) (A) (A) (A) (A) (A) (A) (A) (A) (A) (A) (A)
                 (A) (A) (A) (A) (A) (A) (A) (A) (A) (A) (A) (A)
                 (A) (A) (A) (A) (A) (A) (A) (A) (A) (A) (A) (A)
                 (A) (A) (A) (A) (A) (A) (A) (A) (A) (A) (A) (A)
                 (A) (A) (A) (A) (A) (A) (A) (A) (A) (A) (A) (A)
                 (A) (A) (A) (A) (A) (A) (A) (A) (A) (A) (A) (A)
                 (A) (A) (A) (A) (A) (A) (A) (A) (A) (A) (A) (A)
                 (A) (A) (A) (A) (A) (A) (A) (A) (A) (A) (A) (A)
                 (A) (A) (A) (A) (A) (A) (A) (A) (A) (A) (A) (A)
                 (A) (A) (A) (A) (A) (A) (A) (A) (A) (A) (A) (A)
                 (A) (A) (A) (A) (A) (A) (A) (A) (A) (A)
 The electronic state is 1-A.
 Alpha  occ. eigenvalues --  -18.75340 -18.75304  -9.95194  -9.94909  -9.90574
 Alpha  occ. eigenvalues --   -9.90224  -9.90117  -9.90059  -9.89818  -9.89038
 Alpha  occ. eigenvalues --   -9.88992  -9.88649  -0.91381  -0.91317  -0.71208
 Alpha  occ. eigenvalues --   -0.70672  -0.67342  -0.67213  -0.59988  -0.59867
 Alpha  occ. eigenvalues --   -0.54790  -0.53493  -0.52631  -0.50600  -0.45829
 Alpha  occ. eigenvalues --   -0.42445  -0.40618  -0.40142  -0.39886  -0.38869
 Alpha  occ. eigenvalues --   -0.38127  -0.37048  -0.35910  -0.35331  -0.34387
 Alpha  occ. eigenvalues --   -0.34029  -0.33095  -0.32852  -0.31028  -0.30847
 Alpha  occ. eigenvalues --   -0.30229  -0.29829  -0.29525  -0.29135  -0.28912
 Alpha  occ. eigenvalues --   -0.28624  -0.26873  -0.26428  -0.21698  -0.21594
 Alpha virt. eigenvalues --    0.00675   0.01436   0.02293   0.02780   0.04143
 Alpha virt. eigenvalues --    0.04826   0.05313   0.06323   0.06852   0.07720
 Alpha virt. eigenvalues --    0.08144   0.09067   0.09295   0.10158   0.10709
 Alpha virt. eigenvalues --    0.11147   0.11554   0.11691   0.12744   0.13348
 Alpha virt. eigenvalues --    0.14847   0.15125   0.15686   0.16098   0.16539
 Alpha virt. eigenvalues --    0.16927   0.18251   0.19192   0.19773   0.20172
 Alpha virt. eigenvalues --    0.20525   0.21673   0.21995   0.22217   0.26646
 Alpha virt. eigenvalues --    0.27185   0.28253   0.28896   0.29410   0.29621
 Alpha virt. eigenvalues --    0.30593   0.31771   0.33486   0.33821   0.35134
 Alpha virt. eigenvalues --    0.35999   0.37545   0.38051   0.39769   0.40430
 Alpha virt. eigenvalues --    0.41729   0.42702   0.43214   0.44384   0.45166
 Alpha virt. eigenvalues --    0.46007   0.48934   0.50237   0.50525   0.51389
 Alpha virt. eigenvalues --    0.51928   0.52624   0.53329   0.53442   0.53764
 Alpha virt. eigenvalues --    0.54867   0.55440   0.55601   0.55955   0.56139
 Alpha virt. eigenvalues --    0.56448   0.57084   0.57397   0.58023   0.58623
 Alpha virt. eigenvalues --    0.59276   0.59736   0.59955   0.61383   0.61871
 Alpha virt. eigenvalues --    0.62751   0.63652   0.63967   0.64339   0.66225
 Alpha virt. eigenvalues --    0.66501   0.67918   0.68969   0.72626   0.75638
 Alpha virt. eigenvalues --    0.77482   0.81434   0.82115   0.83174   0.84697
 Alpha virt. eigenvalues --    0.87272   0.87504   0.89287   0.90737   0.93053
 Alpha virt. eigenvalues --    0.94381   0.95941   0.97492   0.99156   1.01795
 Alpha virt. eigenvalues --    1.03821   1.03972   1.06408   1.09445   1.09721
 Alpha virt. eigenvalues --    1.14949   1.15664   1.17223   1.18345   1.19149
 Alpha virt. eigenvalues --    1.21474   1.22866   1.25775   1.26746   1.27980
 Alpha virt. eigenvalues --    1.30287   1.30614   1.35003   1.36119   1.37950
 Alpha virt. eigenvalues --    1.38624   1.39445   1.40371   1.40877   1.41250
 Alpha virt. eigenvalues --    1.41708   1.42481   1.42599   1.43237   1.44685
 Alpha virt. eigenvalues --    1.45421   1.46489   1.47181   1.47840   1.48416
 Alpha virt. eigenvalues --    1.48820   1.50044   1.50272   1.51141   1.51725
 Alpha virt. eigenvalues --    1.52990   1.54253   1.54607   1.55816   1.56719
 Alpha virt. eigenvalues --    1.57709   1.59557   1.60089   1.61347   1.62391
 Alpha virt. eigenvalues --    1.63276   1.64196   1.64780   1.66645   1.67588
 Alpha virt. eigenvalues --    1.67780   1.68962   1.69200   1.70306   1.70875
 Alpha virt. eigenvalues --    1.72335   1.72774   1.73900   1.74641   1.76084
 Alpha virt. eigenvalues --    1.76856   1.78790   1.83259   1.83660   1.85536
 Alpha virt. eigenvalues --    1.86938   1.88486   1.89897   1.91556   1.92080
 Alpha virt. eigenvalues --    1.93578   1.95661   1.96057   1.97580   1.99005
 Alpha virt. eigenvalues --    1.99787   2.01446   2.03144   2.03307   2.04919
 Alpha virt. eigenvalues --    2.07311   2.07882   2.08625   2.10464   2.11290
 Alpha virt. eigenvalues --    2.15110   2.15909   2.18726   2.21464   2.22359
 Alpha virt. eigenvalues --    2.24050   2.25071   2.25781   2.26527   2.27999
 Alpha virt. eigenvalues --    2.30035   2.31435   2.31848   2.32543   2.32844
 Alpha virt. eigenvalues --    2.36205   2.36621   2.37905   2.39653   2.40396
 Alpha virt. eigenvalues --    2.41558   2.42100   2.43179   2.43322   2.43942
 Alpha virt. eigenvalues --    2.44891   2.45742   2.47254   2.48850   2.49816
 Alpha virt. eigenvalues --    2.50373   2.51404   2.51925   2.52483   2.52913
 Alpha virt. eigenvalues --    2.53944   2.55253   2.56227   2.56701   2.57772
 Alpha virt. eigenvalues --    2.58117   2.59858   2.61989   2.62482   2.62910
 Alpha virt. eigenvalues --    2.64377   2.65335   2.66985   2.69123   2.70411
 Alpha virt. eigenvalues --    2.71564   2.74443   2.75621   2.77682   2.78782
 Alpha virt. eigenvalues --    2.82248   2.83303   2.85877   2.86919   2.91667
 Alpha virt. eigenvalues --    2.94735   2.99201   3.01291   3.04215   3.07265
 Alpha virt. eigenvalues --    3.10029   3.10838   3.18271   3.20164   3.20617
 Alpha virt. eigenvalues --    3.21681   3.31596   3.37846   3.61355   3.66242
 Alpha virt. eigenvalues --    3.67540   3.68751   3.69317   3.69595   3.69826
 Alpha virt. eigenvalues --    3.70354   3.71329   3.72172   3.72312   3.73012
 Alpha virt. eigenvalues --    3.74110   3.75594   3.78998   3.82315   3.91932
 Alpha virt. eigenvalues --    3.97273   4.02366   4.03893   4.12925   4.14953
 Alpha virt. eigenvalues --    4.21855   4.24488   4.78345   4.81548   5.11339
 Alpha virt. eigenvalues --    5.13126   5.45718   5.47478  23.43773  23.44751
 Alpha virt. eigenvalues --   23.54270  23.54286  23.55124  23.56436  23.62329
 Alpha virt. eigenvalues --   23.62564  23.63597  23.64390  49.46268  49.46598
          Condensed to atoms (all electrons):
               1          2          3          4          5          6
     1  H    0.573085   0.401172  -0.041194  -0.030298  -0.032333   0.009101
     2  C    0.401172   4.855655   0.363750   0.397317   0.395176  -0.032971
     3  C   -0.041194   0.363750   4.974668  -0.030531  -0.035654   0.390510
     4  H   -0.030298   0.397317  -0.030531   0.603230  -0.033133  -0.005732
     5  H   -0.032333   0.395176  -0.035654  -0.033133   0.614360  -0.007419
     6  H    0.009101  -0.032971   0.390510  -0.005732  -0.007419   0.609453
     7  H   -0.006069  -0.038860   0.386569  -0.006615   0.009016  -0.033746
     8  C   -0.008169  -0.048105   0.352540   0.007558  -0.005621  -0.036550
     9  C    0.000778   0.008040  -0.054699  -0.000326  -0.000106  -0.005642
    10  H    0.000036  -0.012202  -0.048729  -0.000447   0.006583  -0.001430
    11  H    0.000036  -0.000574  -0.016728  -0.000039   0.000034   0.000820
    12  H   -0.000106  -0.000470   0.009975   0.000033   0.000010  -0.000144
    13  O    0.019792  -0.004694  -0.058797  -0.000143  -0.000742   0.004371
    14  H   -0.001429   0.000165   0.010636   0.000071  -0.000053  -0.000925
    15  C   -0.000110  -0.000463  -0.004275  -0.000008  -0.000001   0.000813
    16  H    0.000008   0.000025  -0.000177  -0.000002  -0.000005   0.000259
    17  H    0.000001  -0.000137  -0.001143  -0.000001   0.000001   0.000558
    18  H   -0.000006  -0.000258   0.002927   0.000041   0.000013   0.001762
    19  H    0.000000  -0.000000  -0.000000  -0.000000   0.000000   0.000000
    20  C   -0.000000  -0.000000   0.000000   0.000000   0.000000   0.000001
    21  C    0.000000  -0.000000  -0.000021  -0.000000  -0.000000   0.000035
    22  H    0.000000   0.000000   0.000000  -0.000000  -0.000000  -0.000001
    23  H    0.000000  -0.000000   0.000000  -0.000000   0.000000   0.000000
    24  H   -0.000000   0.000000   0.000084   0.000000  -0.000000  -0.000011
    25  H   -0.000000   0.000000  -0.000002  -0.000000   0.000000  -0.000004
    26  C   -0.000000  -0.000000   0.000085   0.000001   0.000000  -0.000100
    27  C    0.000001   0.000038  -0.001823  -0.000009  -0.000006  -0.000007
    28  H    0.000000   0.000002  -0.000080  -0.000000   0.000000  -0.000327
    29  H   -0.000028   0.000163   0.003472  -0.000007   0.000015  -0.002185
    30  H    0.000000  -0.000006  -0.000066  -0.000000   0.000000   0.000012
    31  O   -0.000000   0.000000  -0.000000   0.000000  -0.000000   0.000000
    32  H    0.000000  -0.000000   0.000000  -0.000000   0.000000  -0.000002
    33  C   -0.000005  -0.000026  -0.000752   0.000108  -0.000001   0.000230
    34  H   -0.000007   0.000039   0.000311   0.000227  -0.000005  -0.000123
    35  H    0.000000  -0.000000   0.000042  -0.000007  -0.000000   0.000024
    36  H   -0.000002  -0.000036  -0.000490   0.000046   0.000002   0.002087
               7          8          9         10         11         12
     1  H   -0.006069  -0.008169   0.000778   0.000036   0.000036  -0.000106
     2  C   -0.038860  -0.048105   0.008040  -0.012202  -0.000574  -0.000470
     3  C    0.386569   0.352540  -0.054699  -0.048729  -0.016728   0.009975
     4  H   -0.006615   0.007558  -0.000326  -0.000447  -0.000039   0.000033
     5  H    0.009016  -0.005621  -0.000106   0.006583   0.000034   0.000010
     6  H   -0.033746  -0.036550  -0.005642  -0.001430   0.000820  -0.000144
     7  H    0.606310  -0.041789  -0.012018   0.013076   0.008786  -0.000412
     8  C   -0.041789   4.915257   0.386577   0.368981  -0.043399  -0.036068
     9  C   -0.012018   0.386577   4.997589  -0.055811   0.381568   0.386099
    10  H    0.013076   0.368981  -0.055811   0.669640   0.013952  -0.009771
    11  H    0.008786  -0.043399   0.381568   0.013952   0.613636  -0.042146
    12  H   -0.000412  -0.036068   0.386099  -0.009771  -0.042146   0.635054
    13  O    0.007804   0.253013  -0.036026  -0.029970   0.014085  -0.001666
    14  H   -0.000644  -0.036618  -0.002070  -0.007940  -0.002279   0.009067
    15  C    0.001357  -0.054542   0.307861   0.000649  -0.030565  -0.030385
    16  H   -0.000138   0.006878  -0.020125  -0.000451  -0.006143  -0.008748
    17  H    0.000196  -0.005369  -0.037440   0.007792   0.009794  -0.007087
    18  H    0.000050  -0.006661  -0.037686  -0.000868  -0.007911   0.009636
    19  H    0.000000   0.000000  -0.000001   0.000000   0.000004  -0.000000
    20  C   -0.000000  -0.000001   0.000034   0.000000  -0.000026  -0.000003
    21  C    0.000004   0.000041  -0.000793  -0.000001   0.000044   0.000039
    22  H    0.000000  -0.000000  -0.000024   0.000000   0.000035  -0.000007
    23  H   -0.000000   0.000000  -0.000001  -0.000000   0.000002   0.000000
    24  H   -0.000161   0.000021   0.001161  -0.000015   0.002172   0.000172
    25  H    0.000010  -0.000001  -0.000029   0.000000   0.000160  -0.000009
    26  C    0.000032  -0.000014   0.000624   0.000001  -0.000048  -0.000029
    27  C   -0.001039   0.000037  -0.001828  -0.000015  -0.000251   0.000070
    28  H    0.000067   0.000036  -0.000081   0.000002   0.000143  -0.000013
    29  H    0.001240  -0.000701   0.002742  -0.000231   0.000484   0.000157
    30  H    0.000259   0.000020  -0.000046   0.000002   0.000270  -0.000006
    31  O    0.000001   0.000000  -0.000001  -0.000000  -0.000001   0.000000
    32  H    0.000001   0.000000   0.000001   0.000000   0.000003  -0.000000
    33  C    0.000158   0.000046   0.000179   0.000001  -0.000045  -0.000005
    34  H    0.000315  -0.000005   0.000019  -0.000000  -0.000010  -0.000000
    35  H    0.000015  -0.000006  -0.000005  -0.000000  -0.000001   0.000000
    36  H   -0.000083   0.000026   0.000011   0.000012   0.000100  -0.000003
              13         14         15         16         17         18
     1  H    0.019792  -0.001429  -0.000110   0.000008   0.000001  -0.000006
     2  C   -0.004694   0.000165  -0.000463   0.000025  -0.000137  -0.000258
     3  C   -0.058797   0.010636  -0.004275  -0.000177  -0.001143   0.002927
     4  H   -0.000143   0.000071  -0.000008  -0.000002  -0.000001   0.000041
     5  H   -0.000742  -0.000053  -0.000001  -0.000005   0.000001   0.000013
     6  H    0.004371  -0.000925   0.000813   0.000259   0.000558   0.001762
     7  H    0.007804  -0.000644   0.001357  -0.000138   0.000196   0.000050
     8  C    0.253013  -0.036618  -0.054542   0.006878  -0.005369  -0.006661
     9  C   -0.036026  -0.002070   0.307861  -0.020125  -0.037440  -0.037686
    10  H   -0.029970  -0.007940   0.000649  -0.000451   0.007792  -0.000868
    11  H    0.014085  -0.002279  -0.030565  -0.006143   0.009794  -0.007911
    12  H   -0.001666   0.009067  -0.030385  -0.008748  -0.007087   0.009636
    13  O    7.911335   0.294780   0.004890  -0.000204   0.000009   0.000017
    14  H    0.294780   0.513020  -0.000655  -0.000012  -0.000039   0.000066
    15  C    0.004890  -0.000655   4.923221   0.390108   0.396492   0.403260
    16  H   -0.000204  -0.000012   0.390108   0.587378  -0.029349  -0.033691
    17  H    0.000009  -0.000039   0.396492  -0.029349   0.598279  -0.032689
    18  H    0.000017   0.000066   0.403260  -0.033691  -0.032689   0.593344
    19  H    0.000000  -0.000000   0.000016  -0.000001  -0.000000  -0.000003
    20  C    0.000000  -0.000000  -0.000298   0.000454   0.000003  -0.000061
    21  C    0.000000  -0.000000  -0.000259  -0.000253   0.000020  -0.000508
    22  H   -0.000000   0.000000   0.000128   0.001946  -0.000015  -0.000010
    23  H   -0.000000  -0.000000   0.000012  -0.000066   0.000000  -0.000012
    24  H   -0.000023   0.000004  -0.001252  -0.000448   0.000060  -0.000005
    25  H    0.000000  -0.000000  -0.000001   0.000074  -0.000001   0.000060
    26  C   -0.000000   0.000000  -0.002725  -0.000586   0.000104  -0.001663
    27  C    0.000016  -0.000002   0.000719   0.000080  -0.000016  -0.000369
    28  H   -0.000001   0.000000  -0.001040   0.000356  -0.000056   0.005524
    29  H   -0.000561   0.000029  -0.003126  -0.000019   0.000071  -0.001217
    30  H    0.000002  -0.000000  -0.000007  -0.000014  -0.000001   0.000231
    31  O   -0.000000  -0.000000   0.000014   0.000003  -0.000000  -0.000092
    32  H    0.000000  -0.000000  -0.000010  -0.000001   0.000000   0.000028
    33  C   -0.000000   0.000000  -0.000311   0.000003   0.000002  -0.000063
    34  H   -0.000001   0.000000   0.000019  -0.000000  -0.000000  -0.000097
    35  H    0.000000  -0.000000   0.000014  -0.000001  -0.000000  -0.000100
    36  H    0.000001  -0.000000  -0.000245  -0.000039   0.000000   0.001692
              19         20         21         22         23         24
     1  H    0.000000  -0.000000   0.000000   0.000000   0.000000  -0.000000
     2  C   -0.000000  -0.000000  -0.000000   0.000000  -0.000000   0.000000
     3  C   -0.000000   0.000000  -0.000021   0.000000   0.000000   0.000084
     4  H   -0.000000   0.000000  -0.000000  -0.000000  -0.000000   0.000000
     5  H    0.000000   0.000000  -0.000000  -0.000000   0.000000  -0.000000
     6  H    0.000000   0.000001   0.000035  -0.000001   0.000000  -0.000011
     7  H    0.000000  -0.000000   0.000004   0.000000  -0.000000  -0.000161
     8  C    0.000000  -0.000001   0.000041  -0.000000   0.000000   0.000021
     9  C   -0.000001   0.000034  -0.000793  -0.000024  -0.000001   0.001161
    10  H    0.000000   0.000000  -0.000001   0.000000  -0.000000  -0.000015
    11  H    0.000004  -0.000026   0.000044   0.000035   0.000002   0.002172
    12  H   -0.000000  -0.000003   0.000039  -0.000007   0.000000   0.000172
    13  O    0.000000   0.000000   0.000000  -0.000000  -0.000000  -0.000023
    14  H   -0.000000  -0.000000  -0.000000   0.000000  -0.000000   0.000004
    15  C    0.000016  -0.000298  -0.000259   0.000128   0.000012  -0.001252
    16  H   -0.000001   0.000454  -0.000253   0.001946  -0.000066  -0.000448
    17  H   -0.000000   0.000003   0.000020  -0.000015   0.000000   0.000060
    18  H   -0.000003  -0.000061  -0.000508  -0.000010  -0.000012  -0.000005
    19  H    0.603293   0.395557  -0.029775  -0.032951  -0.030578  -0.004524
    20  C    0.395557   4.867932   0.360528   0.398765   0.391411  -0.034344
    21  C   -0.029775   0.360528   4.969608  -0.035940  -0.038474   0.375144
    22  H   -0.032951   0.398765  -0.035940   0.604105  -0.031263  -0.009080
    23  H   -0.030578   0.391411  -0.038474  -0.031263   0.588848   0.010676
    24  H   -0.004524  -0.034344   0.375144  -0.009080   0.010676   0.625632
    25  H   -0.007052  -0.041735   0.386382   0.009591  -0.006288  -0.034190
    26  C    0.007724  -0.055017   0.375334  -0.004983  -0.012276  -0.035152
    27  C   -0.000375   0.008445  -0.063203  -0.000085   0.001386  -0.001661
    28  H   -0.000050  -0.007113  -0.047601   0.005295  -0.001435  -0.003019
    29  H   -0.000021  -0.000287  -0.001529   0.000020  -0.000252  -0.000357
    30  H    0.000018  -0.000394  -0.008562   0.000037  -0.000118   0.000196
    31  O   -0.000089  -0.008605  -0.043860  -0.000678   0.024602   0.005245
    32  H   -0.000038  -0.000792  -0.003350   0.000074  -0.000865  -0.000213
    33  C    0.000014  -0.000328   0.008459  -0.000003  -0.000017  -0.000344
    34  H   -0.000001   0.000014  -0.000389   0.000000   0.000002  -0.000003
    35  H    0.000002  -0.000012   0.001361   0.000001  -0.000116  -0.000255
    36  H    0.000001  -0.000006  -0.000057  -0.000009   0.000001   0.000042
              25         26         27         28         29         30
     1  H   -0.000000  -0.000000   0.000001   0.000000  -0.000028   0.000000
     2  C    0.000000  -0.000000   0.000038   0.000002   0.000163  -0.000006
     3  C   -0.000002   0.000085  -0.001823  -0.000080   0.003472  -0.000066
     4  H   -0.000000   0.000001  -0.000009  -0.000000  -0.000007  -0.000000
     5  H    0.000000   0.000000  -0.000006   0.000000   0.000015   0.000000
     6  H   -0.000004  -0.000100  -0.000007  -0.000327  -0.002185   0.000012
     7  H    0.000010   0.000032  -0.001039   0.000067   0.001240   0.000259
     8  C   -0.000001  -0.000014   0.000037   0.000036  -0.000701   0.000020
     9  C   -0.000029   0.000624  -0.001828  -0.000081   0.002742  -0.000046
    10  H    0.000000   0.000001  -0.000015   0.000002  -0.000231   0.000002
    11  H    0.000160  -0.000048  -0.000251   0.000143   0.000484   0.000270
    12  H   -0.000009  -0.000029   0.000070  -0.000013   0.000157  -0.000006
    13  O    0.000000  -0.000000   0.000016  -0.000001  -0.000561   0.000002
    14  H   -0.000000   0.000000  -0.000002   0.000000   0.000029  -0.000000
    15  C   -0.000001  -0.002725   0.000719  -0.001040  -0.003126  -0.000007
    16  H    0.000074  -0.000586   0.000080   0.000356  -0.000019  -0.000014
    17  H   -0.000001   0.000104  -0.000016  -0.000056   0.000071  -0.000001
    18  H    0.000060  -0.001663  -0.000369   0.005524  -0.001217   0.000231
    19  H   -0.007052   0.007724  -0.000375  -0.000050  -0.000021   0.000018
    20  C   -0.041735  -0.055017   0.008445  -0.007113  -0.000287  -0.000394
    21  C    0.386382   0.375334  -0.063203  -0.047601  -0.001529  -0.008562
    22  H    0.009591  -0.004983  -0.000085   0.005295   0.000020   0.000037
    23  H   -0.006288  -0.012276   0.001386  -0.001435  -0.000252  -0.000118
    24  H   -0.034190  -0.035152  -0.001661  -0.003019  -0.000357   0.000196
    25  H    0.633181  -0.037052  -0.008524   0.010267  -0.000081   0.006556
    26  C   -0.037052   4.901114   0.376938   0.385849  -0.035936  -0.036080
    27  C   -0.008524   0.376938   4.972342  -0.048256   0.372929   0.386424
    28  H    0.010267   0.385849  -0.048256   0.614533  -0.003267   0.010081
    29  H   -0.000081  -0.035936   0.372929  -0.003267   0.628355  -0.035128
    30  H    0.006556  -0.036080   0.386424   0.010081  -0.035128   0.632394
    31  O   -0.002136   0.274524  -0.043034  -0.029853   0.005253  -0.002598
    32  H    0.007500  -0.057840  -0.003761   0.010509  -0.000184   0.007626
    33  C   -0.000351  -0.055575   0.363556  -0.007182  -0.036700  -0.040367
    34  H    0.000015   0.007764  -0.028838   0.000033  -0.005415  -0.006749
    35  H   -0.000118  -0.012080  -0.037627  -0.001397   0.010982  -0.006676
    36  H    0.000036  -0.005186  -0.036282   0.004910  -0.009135   0.009651
              31         32         33         34         35         36
     1  H   -0.000000   0.000000  -0.000005  -0.000007   0.000000  -0.000002
     2  C    0.000000  -0.000000  -0.000026   0.000039  -0.000000  -0.000036
     3  C   -0.000000   0.000000  -0.000752   0.000311   0.000042  -0.000490
     4  H    0.000000  -0.000000   0.000108   0.000227  -0.000007   0.000046
     5  H   -0.000000   0.000000  -0.000001  -0.000005  -0.000000   0.000002
     6  H    0.000000  -0.000002   0.000230  -0.000123   0.000024   0.002087
     7  H    0.000001   0.000001   0.000158   0.000315   0.000015  -0.000083
     8  C    0.000000   0.000000   0.000046  -0.000005  -0.000006   0.000026
     9  C   -0.000001   0.000001   0.000179   0.000019  -0.000005   0.000011
    10  H   -0.000000   0.000000   0.000001  -0.000000  -0.000000   0.000012
    11  H   -0.000001   0.000003  -0.000045  -0.000010  -0.000001   0.000100
    12  H    0.000000  -0.000000  -0.000005  -0.000000   0.000000  -0.000003
    13  O   -0.000000   0.000000  -0.000000  -0.000001   0.000000   0.000001
    14  H   -0.000000  -0.000000   0.000000   0.000000  -0.000000  -0.000000
    15  C    0.000014  -0.000010  -0.000311   0.000019   0.000014  -0.000245
    16  H    0.000003  -0.000001   0.000003  -0.000000  -0.000001  -0.000039
    17  H   -0.000000   0.000000   0.000002  -0.000000  -0.000000   0.000000
    18  H   -0.000092   0.000028  -0.000063  -0.000097  -0.000100   0.001692
    19  H   -0.000089  -0.000038   0.000014  -0.000001   0.000002   0.000001
    20  C   -0.008605  -0.000792  -0.000328   0.000014  -0.000012  -0.000006
    21  C   -0.043860  -0.003350   0.008459  -0.000389   0.001361  -0.000057
    22  H   -0.000678   0.000074  -0.000003   0.000000   0.000001  -0.000009
    23  H    0.024602  -0.000865  -0.000017   0.000002  -0.000116   0.000001
    24  H    0.005245  -0.000213  -0.000344  -0.000003  -0.000255   0.000042
    25  H   -0.002136   0.007500  -0.000351   0.000015  -0.000118   0.000036
    26  C    0.274524  -0.057840  -0.055575   0.007764  -0.012080  -0.005186
    27  C   -0.043034  -0.003761   0.363556  -0.028838  -0.037627  -0.036282
    28  H   -0.029853   0.010509  -0.007182   0.000033  -0.001397   0.004910
    29  H    0.005253  -0.000184  -0.036700  -0.005415   0.010982  -0.009135
    30  H   -0.002598   0.007626  -0.040367  -0.006749  -0.006676   0.009651
    31  O    7.880356   0.298535  -0.007924  -0.000150   0.023446  -0.000573
    32  H    0.298535   0.524674  -0.000787  -0.000031  -0.000769   0.000044
    33  C   -0.007924  -0.000787   4.864592   0.395949   0.390740   0.399048
    34  H   -0.000150  -0.000031   0.395949   0.599014  -0.030221  -0.033197
    35  H    0.023446  -0.000769   0.390740  -0.030221   0.589768  -0.031313
    36  H   -0.000573   0.000044   0.399048  -0.033197  -0.031313   0.606186
 Mulliken charges:
               1
     1  H    0.115747
     2  C   -0.282741
     3  C   -0.200410
     4  H    0.098665
     5  H    0.089869
     6  H    0.107283
     7  H    0.106308
     8  C    0.032589
     9  C   -0.208526
    10  H    0.087153
    11  H    0.104040
    12  H    0.086766
    13  O   -0.377284
    14  H    0.224828
    15  C   -0.299298
    16  H    0.112899
    17  H    0.099959
    18  H    0.105316
    19  H    0.098830
    20  C   -0.274121
    21  C   -0.202423
    22  H    0.095052
    23  H    0.104819
    24  H    0.104449
    25  H    0.083743
    26  C    0.022249
    27  C   -0.205969
    28  H    0.103161
    29  H    0.110456
    30  H    0.083038
    31  O   -0.372384
    32  H    0.219648
    33  C   -0.272299
    34  H    0.101521
    35  H    0.104310
    36  H    0.092761
 Sum of Mulliken charges =  -0.00000
 Mulliken charges with hydrogens summed into heavy atoms:
               1
     2  C    0.021540
     3  C    0.013181
     8  C    0.119742
     9  C   -0.017720
    13  O   -0.152456
    15  C    0.018876
    20  C    0.024580
    21  C   -0.014232
    26  C    0.125409
    27  C   -0.012476
    31  O   -0.152737
    33  C    0.026293
 APT charges:
               1
     1  H   -0.000924
     2  C    0.084610
     3  C    0.062339
     4  H   -0.033822
     5  H   -0.035774
     6  H   -0.026043
     7  H   -0.033435
     8  C    0.493928
     9  C    0.066622
    10  H   -0.107797
    11  H   -0.035504
    12  H   -0.071648
    13  O   -0.575685
    14  H    0.216528
    15  C    0.059975
    16  H   -0.022954
    17  H   -0.028499
    18  H   -0.012197
    19  H   -0.037492
    20  C    0.065217
    21  C    0.077108
    22  H   -0.024531
    23  H    0.000918
    24  H   -0.046383
    25  H   -0.057953
    26  C    0.449673
    27  C    0.074256
    28  H   -0.045489
    29  H   -0.040056
    30  H   -0.060019
    31  O   -0.573139
    32  H    0.217289
    33  C    0.051036
    34  H   -0.028413
    35  H    0.000739
    36  H   -0.022480
 Sum of APT charges =   0.00000
 APT charges with hydrogens summed into heavy atoms:
               1
     2  C    0.014090
     3  C    0.002861
     8  C    0.386131
     9  C   -0.040530
    13  O   -0.359157
    15  C   -0.003675
    20  C    0.004112
    21  C   -0.027229
    26  C    0.404184
    27  C   -0.025819
    31  O   -0.355851
    33  C    0.000882
 Electronic spatial extent (au):  <R**2>=           3788.1994
 Charge=             -0.0000 electrons
 Dipole moment (field-independent basis, Debye):
    X=             -0.2754    Y=             -1.4166    Z=             -0.4250  Tot=              1.5044
 Quadrupole moment (field-independent basis, Debye-Ang):
   XX=            -87.1267   YY=            -78.0833   ZZ=            -82.6507
   XY=              4.2073   XZ=             -9.1303   YZ=             -1.8764
 Traceless Quadrupole moment (field-independent basis, Debye-Ang):
   XX=             -4.5064   YY=              4.5369   ZZ=             -0.0305
   XY=              4.2073   XZ=             -9.1303   YZ=             -1.8764
 Octapole moment (field-independent basis, Debye-Ang**2):
  XXX=              0.6842  YYY=            -11.5599  ZZZ=             -1.9013  XYY=            -16.3120
  XXY=            -18.3126  XXZ=            -17.7191  XZZ=              5.2314  YZZ=             -0.0221
  YYZ=             -9.8461  XYZ=            -10.5996
 Hexadecapole moment (field-independent basis, Debye-Ang**3):
 XXXX=          -3637.4051 YYYY=          -1187.8268 ZZZZ=           -348.8413 XXXY=            138.0263
 XXXZ=           -106.7063 YYYX=             86.0032 YYYZ=             12.4062 ZZZX=              9.9172
 ZZZY=              4.2182 XXYY=           -735.4519 XXZZ=           -655.0207 YYZZ=           -254.6861
 XXYZ=            -17.9695 YYXZ=             11.5046 ZZXY=             20.3726
 N-N= 7.658969721442D+02 E-N=-2.803864782764D+03  KE= 5.442569500103D+02
  Exact polarizability: 146.459  -6.140 137.573  -0.532  -0.594 114.923
 Approx polarizability: 208.046   3.843 206.064   0.384  -0.913 205.767
 No NMR shielding tensors so no spin-rotation constants.
 Leave Link  601 at Tue Feb 14 10:53:24 2023, MaxMem=   131072000 cpu:               1.5 elap:               0.2
 (Enter /dragofs/sw/campus/0.2/software/gaussian/16.gaussian/gaussian/g16_legacy/l701.exe)
 ... and contract with generalized density number  0.
 Compute integral second derivatives.
 R6Disp: Adding Grimme-D3 dispersion energy 2nd derivatives to the Hessian.
 Leave Link  701 at Tue Feb 14 10:53:24 2023, MaxMem=   131072000 cpu:               1.8 elap:               0.2
 (Enter /dragofs/sw/campus/0.2/software/gaussian/16.gaussian/gaussian/g16_legacy/l702.exe)
 L702 exits ... SP integral derivatives will be done elsewhere.
 Leave Link  702 at Tue Feb 14 10:53:24 2023, MaxMem=   131072000 cpu:               0.2 elap:               0.0
 (Enter /dragofs/sw/campus/0.2/software/gaussian/16.gaussian/gaussian/g16_legacy/l703.exe)
 Integral derivatives from FoFJK, PRISM(SPDF).
 Compute integral second derivatives, UseDBF=F ICtDFT=           0.
 Calling FoFJK, ICntrl=    100527 FMM=F ISym2X=0 I1Cent= 0 IOpClX= 0 NMat=1 NMatS=1 NMatT=0.
 FoFJK:  IHMeth= 1 ICntrl=  100527 DoSepK=F KAlg= 0 I1Cent=           0 FoldK=F
 IRaf=         0 NMat=       1 IRICut=       1 DoRegI=T DoRafI=F ISym2E= 0 IDoP0=0 IntGTp=1.
 FoFCou: FMM=F IPFlag=           0 FMFlag=      100000 FMFlg1=         800
         NFxFlg=           0 DoJE=F BraDBF=F KetDBF=F FulRan=T
         wScrn=  0.000000 ICntrl=    100527 IOpCl=  0 I1Cent=           0 NGrid=           0
         NMat0=    1 NMatS0=      1 NMatT0=    0 NMatD0=    1 NMtDS0=    0 NMtDT0=    0
 Symmetry not used in FoFCou.
 Leave Link  703 at Tue Feb 14 10:57:25 2023, MaxMem=   131072000 cpu:            1917.9 elap:             240.8
 (Enter /dragofs/sw/campus/0.2/software/gaussian/16.gaussian/gaussian/g16_legacy/l716.exe)
 Dipole        =-1.08355076D-01-5.57330582D-01-1.67220863D-01
 Polarizability= 1.46458516D+02-6.14007627D+00 1.37572868D+02
                -5.32034291D-01-5.93911316D-01 1.14923059D+02
 Full mass-weighted force constant matrix:
 Low frequencies ---   -1.2248   -0.0006    0.0007    0.0008    4.1962    7.4691
 Low frequencies ---   13.4616   31.0469   36.7870
 Diagonal vibrational polarizability:
       65.1744526      78.2772577      37.2438404
 Harmonic frequencies (cm**-1), IR intensities (KM/Mole), Raman scattering
 activities (A**4/AMU), depolarization ratios for plane and unpolarized
 incident light, reduced masses (AMU), force constants (mDyne/A),
 and normal coordinates:
                      1                      2                      3
                      A                      A                      A
 Frequencies --     13.2019                31.0187                36.7662
 Red. masses --      3.3482                 3.4860                 3.2559
 Frc consts  --      0.0003                 0.0020                 0.0026
 IR Inten    --      0.4841                 0.0362                 0.1623
  Atom  AN      X      Y      Z        X      Y      Z        X      Y      Z
     1   1    -0.07  -0.09  -0.16     0.00   0.10   0.03    -0.01   0.02  -0.07
     2   6    -0.08  -0.00  -0.18     0.06   0.09  -0.02    -0.13  -0.04   0.05
     3   6    -0.05   0.02  -0.11     0.01   0.02  -0.05    -0.08   0.04   0.15
     4   1    -0.11   0.00  -0.27     0.11   0.08  -0.06    -0.18  -0.02   0.19
     5   1    -0.07   0.06  -0.16     0.09   0.15   0.02    -0.26  -0.16  -0.05
     6   1    -0.06   0.11  -0.12     0.06   0.02  -0.10    -0.20  -0.01   0.27
     7   1    -0.06  -0.04  -0.13    -0.02  -0.03  -0.09     0.04   0.15   0.25
     8   6    -0.01   0.01   0.02    -0.07   0.03   0.01    -0.00   0.03  -0.02
     9   6     0.01   0.05   0.09    -0.11  -0.03  -0.04     0.03   0.08   0.04
    10   1    -0.01   0.07   0.04    -0.03   0.09   0.05    -0.09  -0.08  -0.11
    11   1     0.01  -0.00   0.08    -0.14  -0.08  -0.07     0.07   0.13   0.08
    12   1     0.04   0.03   0.16    -0.17  -0.02  -0.00     0.08   0.08  -0.00
    13   8    -0.00  -0.10   0.03    -0.15   0.03   0.07     0.14   0.10  -0.13
    14   1     0.02  -0.11   0.11    -0.20   0.04   0.11     0.20   0.09  -0.25
    15   6    -0.01   0.16   0.09    -0.04  -0.04  -0.08    -0.04   0.09   0.09
    16   1     0.02   0.19   0.14    -0.07  -0.08  -0.11    -0.03   0.10   0.13
    17   1    -0.01   0.18   0.11    -0.01  -0.01  -0.05    -0.08   0.08   0.06
    18   1    -0.05   0.18   0.04     0.01  -0.06  -0.11    -0.06   0.09   0.11
    19   1     0.01   0.01  -0.24     0.30   0.09   0.02     0.15   0.01  -0.00
    20   6     0.04  -0.02  -0.18     0.25   0.08   0.01     0.12   0.01  -0.01
    21   6    -0.01   0.01  -0.07     0.13  -0.02   0.04     0.06  -0.05  -0.01
    22   1     0.11  -0.07  -0.17     0.32   0.06   0.04     0.17   0.01   0.00
    23   1     0.06  -0.03  -0.21     0.21   0.16  -0.04     0.10   0.06  -0.05
    24   1    -0.01   0.01  -0.04     0.17  -0.10   0.09     0.08  -0.11   0.03
[...]
 150483,0.00548754,-0.00208627,0.00006913,0.00028700,0.00009262,0.00162
 244,-0.00001677,0.00081631,-0.00018585,0.00199405,0.00103364,-0.000806
 60,-0.00167439,0.00040843,-0.00008117,0.01763378,-0.09033931,-0.036082
 15,0.00896456,-0.01411297,0.01742729,-0.00583257,0.00943420,-0.0025339
 8,-0.00414551,-0.00598784,-0.00038234,0.00103569,0.00323066,-0.1403227
 7,-0.12917269,0.33370921,0.00000826,-0.00000037,0.00001077,0.00001655,
 -0.00001834,-0.00002774,-0.00003441,-0.00001979,0.00006798,-0.00000963
 ,-0.00000148,-0.00000197,0.00002531,0.00001641,-0.00000100,-0.00002534
 ,-0.00000740,0.00003464,0.00001957,0.00002603,-0.00008580,-0.00002597,
 0.00005613,-0.00004679,-0.00009964,-0.00001168,0.00010484,0.00004200,0
 .00000666,0.00000235,0.00002639,0.00003637,-0.00007719,0.00002295,-0.0
 0000059,-0.00004135,0.00004831,-0.00002008,0.00003156,-0.00001609,-0.0
 0000542,-0.00001259,0.00000317,-0.00013529,-0.00001848,0.00001447,-0.0
 0004295,0.00002102,-0.00001887,0.00004378,-0.00002366,0.00000249,0.000
 12551,0.00006254,0.00005267,-0.00010222,-0.00004235,0.00005825,0.00005
 632,0.00023128,0.00174245,0.00021748,0.00051839,0.00004663,-0.00011355
 ,-0.00019600,-0.00007827,0.00034413,0.00014180,0.00072198,-0.00073615,
 -0.00023109,0.00006714,0.00155434,-0.00046815,-0.03362318,-0.01194125,
 0.02824966,0.00146912,-0.00086435,0.00041730,-0.00583298,0.00266546,-0
 .00388179,0.00092799,0.00049402,0.00040333,-0.00009883,-0.00039715,-0.
 00176724,-0.22274244,-0.07135950,0.17352774,0.25723121,0.00000536,0.00
 000588,0.00001032,0.00001491,-0.00001286,-0.00001002,-0.00003414,-0.00
 001299,0.00000608,-0.00000458,-0.00002578,-0.00001377,0.00001500,0.000
 01099,-0.00000282,-0.00003054,-0.00000508,0.00004498,0.00000793,0.0000
 3152,-0.00005975,-0.00001539,0.00011057,0.00005975,0.00001069,-0.00006
 278,-0.00001636,0.00001197,-0.00002657,-0.00001138,-0.00000892,0.00004
 929,0.00003321,0.00002920,-0.00001584,-0.00000742,-0.00000035,-0.00006
 710,-0.00002537,0.00002066,0.00000477,0.00000539,-0.00001192,0.0001290
 8,0.00003299,0.00001307,-0.00005241,-0.00005862,-0.00000549,-0.0000368
 6,-0.00000740,0.00003699,-0.00003557,0.00003117,-0.00009899,0.00002329
 ,-0.00003466,-0.00002155,-0.00069954,0.00001213,0.00280223,0.00157317,
 -0.00234538,-0.00031151,0.00012995,0.00023441,0.00014866,-0.00016686,-
 0.00054783,-0.00074674,-0.00016720,0.00030951,-0.00033739,-0.00050342,
 0.00112421,0.01043252,0.00169773,-0.00611730,-0.00062038,-0.00005366,0
 .00083579,0.00151424,0.00046335,0.00015429,0.00052590,-0.00003411,0.00
 003062,-0.00022284,0.00026518,-0.00028502,-0.09349111,-0.05126766,0.10
 686117,0.08048898,0.04965518,0.00000478,0.00000250,0.00000925,0.000010
 88,-0.00001374,-0.00001128,-0.00003780,-0.00000982,0.00001322,-0.00000
 602,-0.00001181,-0.00000614,0.00001595,0.00001042,-0.00000372,-0.00002
 174,-0.00000857,0.00002858,0.00001152,0.00002091,-0.00004774,-0.000027
 36,0.00005887,0.00001361,-0.00002306,-0.00004119,0.00001754,0.00001947
 ,-0.00000972,-0.00000710,0.00000780,0.00003562,-0.00000186,0.00002807,
 -0.00000868,-0.00000665,0.00002542,-0.00003228,0.00000423,-0.00000026,
 -0.00000072,-0.00000355,-0.00004439,0.00003759,0.00004154,0.00000548,-
 0.00003910,-0.00002864,-0.00001590,-0.00000347,-0.00001535,-0.00000540
 ,0.00001602,0.00001240,-0.00007538,0.00001907,0.00000828,0.00037243,-0
 .00028557,-0.00000922,-0.00128877,-0.00040066,0.00079768,-0.00030087,0
 .00009981,-0.00006334,0.00014776,-0.00023424,-0.00054104,-0.00027513,0
 .00034167,-0.00016853,0.00050762,-0.00006468,-0.00026095,-0.01390344,-
 0.00221330,0.00611803,-0.00319789,-0.00067603,0.00292731,-0.00191350,-
 0.00003169,0.00103502,0.00036278,0.00000002,-0.00052720,0.00061498,0.0
 0063481,-0.00091076,0.21547514,0.10303158,-0.23624898,-0.19676114,-0.1
 0005114,0.22820783,0.00001013,0.00000285,0.00001773,0.00002870,-0.0000
 0022,0.00008286,-0.00002924,0.00017143,-0.00010209,0.00004213,0.000022
 29,-0.00001207,-0.00005485,-0.00000802,-0.00000700,-0.00030091,0.00013
 479,-0.00027946,0.00000658,-0.00009244,0.00024521,-0.00007278,-0.00000
 518,0.00006976,0.00019775,0.00015842,-0.00031512,-0.00007896,-0.000018
 94,-0.00000362,0.00000436,-0.00024278,0.00020462,-0.00011542,-0.000046
 53,0.00012998,-0.00002549,-0.00002464,0.00002518,0.00002159,0.00000068
 ,0.00000715,-0.00015167,0.00011231,-0.00003654,0.00004317,-0.00005921,
 -0.00001109,-0.00000343,-0.00003289,0.00004561,-0.00002302,0.00010876,
 -0.00006155,-0.00002386,-0.00005671,-0.00009212,0.00060181,-0.00023180
 ,0.00004141,-0.00057864,-0.00021930,-0.00074918,-0.00003086,-0.0000431
 3,-0.00007261,-0.00002064,0.00004779,0.00008145,0.00038297,-0.00031363
 ,0.00005095,0.00019578,0.00023101,-0.00020100,0.00034504,-0.00675099,0
 .00139895,-0.07431430,-0.00084194,-0.00068803,0.00024627,0.00102337,0.
 00040856,0.00165834,0.02887899,-0.00176739,-0.00015196,-0.02311212,0.0
 0132948,-0.00010139,0.00027285,-0.00011728,-0.00000487,-0.00039504,0.0
 0017728,0.53376338,0.00001354,0.00002430,0.00002028,-0.00007640,-0.000
 02694,0.00008615,0.00004914,-0.00009326,-0.00045976,-0.00002082,-0.000
 05120,-0.00000178,0.00000677,-0.00002773,-0.00003143,-0.00011238,-0.00
 003020,0.00008425,-0.00012000,0.00003627,0.00016016,-0.00003123,0.0000
 9477,0.00009716,0.00020601,0.00001332,-0.00007049,-0.00001601,-0.00002
 198,-0.00001236,-0.00005867,-0.00002421,0.00007882,-0.00002140,-0.0000
 2614,0.00004586,0.00003776,-0.00011052,0.00002316,0.00001331,-0.000006
 03,0.00001333,-0.00022365,0.00006199,0.00005660,0.00003300,-0.00006287
 ,-0.00001442,-0.00002640,0.00000667,0.00001536,0.00001962,0.00015046,-
 0.00004690,0.00000064,-0.00003207,-0.00012094,0.00003405,-0.00010781,0
 .00048923,-0.00083501,0.00047657,-0.00132325,0.00001969,0.00000125,-0.
 00001346,0.00002638,-0.00006854,-0.00000459,0.00018038,0.00019839,0.00
 017238,-0.00005603,-0.00009491,-0.00002167,-0.00343847,-0.02058733,-0.
 00690429,0.00035483,-0.16623497,0.01228498,0.00015918,0.00094927,0.001
 16733,-0.00010236,-0.01263399,0.00096353,-0.00017188,-0.01077844,0.000
 85356,0.00183958,-0.00130580,0.00081342,-0.00030199,-0.00025823,-0.000
 25299,-0.00043743,0.42937616,-0.00005710,-0.00006572,-0.00008096,-0.00
 007337,0.00028657,-0.00010982,-0.00026002,-0.00026085,0.00091159,-0.00
 001784,-0.00014340,0.00001330,0.00006462,-0.00003513,-0.00000967,0.000
 20891,0.00011551,-0.00042411,0.00005822,0.00023942,-0.00008916,0.00020
 723,-0.00008828,-0.00022150,0.00000420,0.00010647,-0.00001675,0.000012
 14,-0.00004327,-0.00000899,0.00001560,-0.00009674,-0.00000034,-0.00009
 292,0.00002364,-0.00001747,-0.00016417,0.00016415,-0.00011405,0.000001
 20,0.00001962,-0.00001724,0.00013975,-0.00020251,-0.00005715,-0.000065
 14,0.00014962,0.00006035,0.00000009,0.00003752,0.00002937,-0.00007515,
 -0.00010306,-0.00012752,-0.00007460,-0.00043634,-0.00064088,0.00000694
 ,-0.00192926,0.00081456,-0.00166488,-0.00096209,-0.00555460,0.00009654
 ,0.00009194,0.00002211,-0.00004403,0.00008413,0.00007646,0.00028867,0.
 00005160,-0.00002012,-0.00038358,-0.00024454,0.00016101,0.00103737,-0.
 03054107,0.00326832,-0.00098495,0.01201869,-0.07587523,-0.00003380,-0.
 00084290,0.00089138,0.00078137,0.01148389,-0.00095820,-0.00039084,0.02
 116914,-0.00153075,-0.00041889,-0.00047045,0.00086320,-0.00001892,-0.0
 0046486,-0.00038204,0.00592027,0.01546201,0.53844842,0.00002843,-0.000
 01155,0.00001358,-0.00001618,0.00001380,-0.00002987,0.00004542,-0.0001
 8885,0.00003501,-0.00003181,-0.00007237,-0.00004192,0.00005791,0.00000
 948,-0.00000797,-0.00000877,0.00001667,0.00017092,0.00000814,0.0001482
 5,-0.00015277,0.00003015,0.00019800,0.00003853,-0.00000036,0.00000902,
 0.00006118,0.00005145,-0.00004425,-0.00001772,0.00000043,0.00001738,-0
 .00001127,0.00000148,-0.00001705,-0.00003893,0.00003657,-0.00010858,0.
 00000973,0.00001139,-0.00000417,-0.00000089,0.00004669,-0.00009621,-0.
 00000061,-0.00001761,0.00000952,-0.00001264,-0.00001109,0.00002289,0.0
 0000034,0.00003203,-0.00000813,0.00001044,0.00001794,-0.00001816,-0.00
 000252,-0.00001319,-0.00004531,0.00001162,0.00023525,0.00011998,-0.000
 10945,0.00000522,0.00000125,-0.00000007,0.00001240,0.00001123,0.000015
 90,0.00001100,-0.00002419,0.00002917,-0.00002197,0.00005055,-0.0000111
 1,-0.00057422,0.00049955,-0.00022591,-0.00116873,0.00033736,0.00051848
 ,0.00007038,-0.00006266,-0.00032638,0.00010975,0.00005029,0.00040071,0
 .00001776,-0.00029641,-0.00029240,0.00059182,-0.00097784,-0.00011359,0
 .00008735,0.00011164,0.00002938,-0.04973141,-0.01551498,-0.03230505,0.
 04937584,0.00000643,-0.00001014,-0.00001126,-0.00002511,0.00002987,0.0
 0006145,0.00014029,0.00019831,-0.00015046,0.00002004,0.00004076,-0.000
 00663,-0.00004539,-0.00002508,0.00000633,0.00002392,-0.00001668,-0.000
 00976,-0.00001209,-0.00017636,0.00012788,-0.00005381,-0.00019708,-0.00
 002955,-0.00003513,0.00001477,-0.00000045,-0.00004141,0.00005939,0.000
 02794,0.00000522,-0.00000961,-0.00005013,0.00000970,0.00001835,0.00001
 069,-0.00000562,0.00007089,0.00003863,-0.00001822,-0.00000068,-0.00000
 282,0.00001732,0.00000434,-0.00001567,-0.00002302,0.00005741,0.0000490
 1,0.00003413,-0.00000323,0.00000458,-0.00004659,-0.00006326,-0.0000004
 2,-0.00003861,-0.00017666,-0.00025807,0.00004917,-0.00072554,0.0003190
 2,-0.00061248,-0.00011097,-0.00205078,0.00003801,0.00002841,-0.0000212
 1,-0.00003138,0.00004137,0.00000969,0.00006860,0.00005562,0.00000565,-
 0.00010795,-0.00003888,0.00007158,0.00119231,-0.00618370,0.00365968,-0
 .00491335,-0.01369504,-0.02927662,0.00020949,0.00015516,0.00015170,0.0
 0062479,0.00072994,-0.00001375,-0.00066967,0.00085423,0.00021259,-0.00
 026033,0.00074092,0.00006633,0.00008218,-0.00002351,-0.00003367,-0.015
 45391,-0.08900592,-0.09447835,0.01763978,0.09974170,-0.00002125,0.0000
 2287,-0.00000067,0.00007508,-0.00005969,-0.00000145,-0.00004780,0.0002
 0038,-0.00002640,0.00002686,0.00010645,0.00006854,-0.00003601,0.000004
 63,0.00001343,0.00001712,-0.00004747,-0.00015262,-0.00000646,-0.000151
 82,0.00011596,-0.00005341,-0.00020795,-0.00009142,-0.00003605,-0.00001
 451,-0.00003903,-0.00003050,0.00004834,0.00002196,0.00001029,0.0000106
 8,-0.00002256,0.00002995,0.00001351,0.00003676,0.00001640,0.00010158,0
 .00005722,-0.00002547,0.00000440,-0.00001450,-0.00005310,0.00011934,0.
 00000964,0.00000681,0.00001045,0.00002924,0.00003496,-0.00002405,-0.00
 000617,-0.00003740,-0.00004339,-0.00000969,0.00001112,-0.00001234,-0.0
 0000302,0.00000308,0.00000901,0.00003929,-0.00021943,0.00022869,0.0001
 8887,-0.00000225,0.00001325,-0.00001442,0.00000809,0.00002592,0.000007
 09,0.00002160,-0.00001345,0.00000886,0.00000024,-0.00009800,-0.0000001
 1,-0.00036045,0.00104077,0.00036283,0.00114630,0.00310147,0.00464926,-
 0.00011764,0.00021287,0.00038490,0.00018179,-0.00064583,0.00025097,-0.
 00019180,-0.00058673,0.00066482,0.00025483,-0.00059333,0.00002857,0.00
 005986,0.00001902,0.00002039,-0.03218900,-0.09550740,-0.24146575,0.035
 38169,0.10438641,0.26167368,-0.00003545,-0.00002487,-0.00003645,-0.000
 01078,0.00009633,-0.00002368,-0.00000862,-0.00000436,0.00028984,0.0000
 2134,0.00000488,0.00001598,-0.00003060,-0.00001870,0.00000889,0.000102
 71,0.00007636,-0.00022621,0.00001699,-0.00004734,0.00008968,0.00008291
 ,-0.00016767,-0.00008465,-0.00000758,-0.00000920,-0.00000516,-0.000036
 70,0.00002201,0.00001633,0.00000115,-0.00001637,0.00000097,-0.00002083
 ,0.00002754,-0.00000658,-0.00009088,0.00011249,-0.00005936,0.00000105,
 0.00001131,-0.00000032,0.00010224,-0.00008219,0.00001986,-0.00001577,0
 .00004696,0.00001096,-0.00003233,0.00001806,0.00000513,-0.00000397,-0.
 00001950,-0.00008470,0.00001364,0.00001480,0.00003108,-0.00003558,0.00
 003240,-0.00006052,-0.00015394,0.00013798,0.00015525,-0.00000739,0.000
 00143,0.00000004,0.00004355,-0.00002499,0.00000844,0.00006063,0.000029
 14,0.00006621,0.00001467,-0.00004106,-0.00000179,-0.00084392,0.0003651
 1,-0.00130196,0.00139478,0.00111010,0.00142473,-0.00007331,0.00005596,
 0.00004610,0.00140533,-0.00070138,-0.00039975,0.00067074,0.00055161,0.
 00006793,0.00017947,-0.00177510,-0.00003116,-0.00017571,-0.00024979,-0
 .00003320,-0.23409979,0.06875936,-0.08182327,-0.00271277,0.00005376,-0
 .00071425,0.25379725,-0.00001168,-0.00000519,-0.00000735,0.00003701,0.
 00001190,-0.00003947,-0.00011305,0.00006370,0.00018808,0.00001583,0.00
 003606,0.00002364,0.00000123,0.00001358,0.00001154,0.00005360,-0.00001
 237,-0.00011748,0.00000183,-0.00007350,-0.00003361,-0.00004316,-0.0000
 9802,-0.00010232,-0.00012854,-0.00011625,0.00010905,0.00001681,0.00003
 300,0.00001466,0.00002878,0.00011565,-0.00009632,0.00007832,0.00002110
 ,-0.00003392,0.00000856,0.00006126,0.00001365,-0.00001918,0.00000500,-
 0.00001622,0.00003740,0.00002307,0.00002736,-0.00000392,-0.00000780,-0
 .00000023,0.00001374,-0.00000338,-0.00002960,-0.00003211,-0.00002512,0
 .00005006,-0.00001833,0.00003032,0.00000774,-0.00008596,0.00007404,-0.
 00007160,-0.00006701,-0.00002790,-0.00009343,-0.00001702,-0.00000385,0
 .00000374,-0.00003301,-0.00013420,-0.00014449,-0.00027055,0.00032084,-
 0.00003601,0.00004861,0.00002359,0.00005529,0.00298218,0.00000281,0.00
 130689,0.02911843,-0.01231166,0.01190578,-0.00017219,0.00000381,-0.000
 16079,-0.00075312,-0.00647395,0.00024578,-0.00039314,0.00094372,0.0002
 9847,-0.00178752,0.00142075,0.00003294,-0.00038162,-0.00066777,-0.0000
 8027,0.06686362,-0.06737481,0.02945946,-0.01259381,0.00406757,-0.00415
 679,-0.07503286,0.07773499,0.00001151,0.00001961,0.00001414,0.00001401
 ,-0.00005704,0.00006231,0.00010212,0.00013837,-0.00028462,0.00001552,0
 .00003481,-0.00000282,-0.00002984,-0.00000099,0.00000003,-0.00005615,-
 0.00003639,0.00007085,0.00001556,-0.00009759,0.00008841,-0.00004628,-0
 .00000949,0.00008937,0.00003837,-0.00000526,-0.00002921,-0.00002387,0.
 00001558,0.00000512,-0.00000407,-0.00001333,0.00002368,0.00000021,-0.0
 0000406,0.00001786,0.00001332,-0.00003368,-0.00000163,0.00000829,-0.00
 000377,0.00001321,-0.00008841,0.00006311,-0.00001562,0.00002810,-0.000
 04307,-0.00001257,-0.00000198,-0.00001704,0.00000084,0.00000907,0.0000
 5058,0.00004612,0.00000360,0.00002925,0.00001129,-0.00000284,-0.000008
 72,-0.00005545,-0.00020031,0.00004097,-0.00004485,-0.00000573,-0.00000
 318,0.00000827,0.00001646,-0.00003987,-0.00001848,-0.00001223,0.000106
 18,0.00001010,0.00002835,0.00004484,0.00000699,0.00063132,-0.00051752,
 -0.00001148,-0.00236074,0.00165020,-0.00106394,-0.00001183,0.00004160,
 0.00001782,0.00024797,0.00030132,0.00063390,-0.00023862,0.00024775,-0.
 00024764,0.00001468,-0.00082148,-0.00070604,-0.00015676,0.00021074,0.0
 0009328,-0.08310212,0.03076343,-0.08221518,-0.02394683,0.00934187,-0.0
 0995321,0.09141063,-0.03448496,0.08557785,0.00000511,0.00000920,-0.000
 00195,0.00004362,-0.00001779,0.00001018,-0.00024372,0.00002959,0.00002
 602,-0.00000545,-0.00000246,0.00001694,0.00002799,0.00001241,0.0000008
 7,-0.00043879,0.00011389,-0.00019426,0.00003699,0.00000786,-0.00001880
 ,0.00000492,0.00003201,0.00001008,-0.00006647,-0.00001242,0.00006477,0
 .00003169,-0.00000458,-0.00000709,0.00001662,0.00002738,-0.00004376,0.
 00000936,0.00000465,-0.00003408,0.00000341,0.00001024,-0.00003041,-0.0
 0000191,-0.00000317,-0.00000074,0.00003920,-0.00007610,-0.00005179,0.0
 0000006,-0.00000120,0.00000508,0.00001147,0.00000693,-0.00000620,-0.00
 004071,0.00005635,0.00008716,-0.00000058,-0.00001702,-0.00003065,-0.00
 002412,-0.00007568,0.00002885,0.00018875,0.00001407,-0.00036524,0.0000
 2789,-0.00001477,-0.00001943,-0.00000380,0.00001501,0.00001085,-0.0000
 2328,0.00000451,0.00000727,-0.00000088,0.00014759,0.00001249,-0.000191
 12,0.00000180,0.00075475,0.00014203,-0.00037542,-0.00059158,0.00011627
 ,-0.00036866,-0.00056689,0.00074455,-0.00036629,-0.00041832,0.00142540
 ,0.00038510,-0.00021807,0.00008914,-0.00049881,-0.00069822,0.00015197,
 0.00041676,0.00011450,-0.17763451,-0.05018813,0.11010539,0.00342332,0.
 00217894,-0.00314378,-0.01951253,-0.00734818,0.01767951,0.19164812,-0.
 00002911,-0.00004920,-0.00003188,-0.00003143,0.00012160,-0.00006724,-0
 .00006407,-0.00013974,0.00028101,0.00001058,-0.00002962,-0.00002493,-0
 .00001759,-0.00000946,0.00000618,0.00021421,0.00017986,-0.00008675,0.0
 0001165,-0.00001489,-0.00000507,0.00010763,-0.00005979,-0.00001535,-0.
 00010408,-0.00001086,0.00011411,-0.00000520,0.00001093,0.00000681,0.00
 002094,0.00000535,-0.00004297,-0.00002544,0.00003804,-0.00006694,-0.00
 007723,0.00006794,-0.00009969,0.00000458,0.00000423,0.00000713,0.00023
 434,-0.00029776,0.00004872,-0.00006747,0.00009732,0.00002093,-0.000074
 19,0.00008642,0.00000411,0.00006276,-0.00002791,-0.00013352,-0.0000002
 5,-0.00000138,0.00000878,0.00009389,0.00005393,-0.00006000,0.00018214,
 -0.00004262,-0.00006502,0.00000540,-0.00003386,-0.00007238,0.00000077,
 0.00000490,-0.00000195,0.00000157,-0.00002351,0.00004176,0.00018278,0.
 00025085,-0.00015089,-0.00087078,0.00109636,0.00192748,-0.02440381,-0.
 01095784,0.02016291,0.00026943,-0.00023624,-0.00113786,0.00032520,0.00
 112164,0.00015865,-0.00001146,-0.00641484,0.00015119,0.00004714,0.0000
 4101,-0.00037820,0.00024737,0.00004585,0.00019447,-0.04964234,-0.06242
 552,0.04044546,0.01081786,0.00355332,-0.00751726,0.00668779,0.00232906
 ,-0.00690275,0.05589641,0.07166643,0.00008282,0.00003371,0.00007083,-0
 .00000157,-0.00016035,0.00010744,0.00021854,0.00003259,-0.00072625,-0.
 00001958,-0.00002006,-0.00008027,0.00001343,0.00002114,-0.00001434,-0.
 00034323,-0.00003184,0.00049377,-0.00002089,0.00002493,-0.00006036,-0.
 00012037,0.00032889,0.00025846,0.00008572,0.00003323,-0.00001536,0.000
 02910,-0.00003665,-0.00002347,-0.00002219,-0.00000479,0.00003346,0.000
 00595,-0.00005135,-0.00000180,0.00012953,-0.00026521,0.00006960,0.0000
 2728,-0.00001942,0.00002056,-0.00012477,0.00005179,-0.00002310,0.00002
 940,-0.00008638,-0.00004393,0.00000131,-0.00001027,0.00000323,0.000079
 64,0.00004403,0.00011029,0.00000526,0.00003924,0.00002352,0.00000155,0
 .00007351,-0.00003234,-0.00005328,-0.00011946,0.00023538,0.00000030,-0
 .00000340,0.00001689,-0.00000198,-0.00001387,-0.00000329,-0.00001308,0
 .00003044,-0.00003085,-0.00000910,-0.00010765,-0.00006961,-0.00088458,
 -0.00074341,0.00069315,0.00188522,0.00151228,-0.00268335,0.00012497,0.
 00005544,0.00033069,-0.00005933,0.00037756,-0.00011225,-0.00040236,0.0
 0061187,0.00097649,0.00015784,0.00013514,-0.00013924,-0.00002508,0.000
 04332,-0.00010413,0.10957080,0.04113475,-0.13562257,0.02092121,0.00785
 856,-0.01683126,-0.00877502,-0.00404928,0.00787129,-0.12249345,-0.0467
 1905,0.14530273\\0.00002443,-0.00003010,0.00004178,0.00001546,0.000065
 84,-0.00004468,0.00001180,0.00000647,-0.00003367,0.00000592,-0.0000084
 7,-0.00000886,-0.00004244,-0.00002218,0.00002980,0.00000852,-0.0000124
 2,0.00001080,-0.00002881,-0.00000790,0.00002553,0.00004342,0.00003632,
 -0.00006562,-0.00000128,0.00000404,0.00001162,-0.00002946,-0.00001303,
 0.00002336,-0.00001750,-0.00000671,0.00000852,0.00000604,-0.00000914,-
 0.00001039,0.00002540,-0.00004661,0.00001658,-0.00002597,0.00003109,0.
 00000397,0.00000893,0.00002039,-0.00001271,-0.00000310,-0.00000540,-0.
 00000369,-0.00000492,-0.00000398,0.00000759,0.00000456,-0.00000848,0.0
 0000487,-0.00000187,0.00001843,-0.00000698,0.00002310,-0.00002776,-0.0
 0003571,0.00003987,-0.00000187,0.00000572,-0.00001230,-0.00000462,0.00
 001546,-0.00001804,0.00000347,-0.00000422,-0.00000902,0.00000313,-0.00
 000197,-0.00001982,-0.00000708,0.00001330,0.00005443,0.00003846,0.0000
 0960,-0.00002191,0.00002905,-0.00002648,-0.00002142,-0.00001298,0.0000
 1874,0.00002088,-0.00001554,0.00001362,0.00000136,-0.00000343,0.000008
 67,-0.00001413,0.00002073,-0.00004495,-0.00001815,-0.00001097,0.000025
 81,-0.00002438,0.00000854,0.00002332,0.00000300,-0.00001946,-0.0000291
 4,0.00002366,-0.00000747,0.00000365,-0.00000627,-0.00000037,0.00000673
 \\\@


    WHAT WE HAVE LEARNED
 IS LIKE A HANDFUL OF EARTH;
  WHAT WE HAVE YET TO LEARN
   IS LIKE THE WHOLE WORLD.

         -- AVVAYIAR
 Job cpu time:       0 days  1 hours 40 minutes 52.3 seconds.
 Elapsed time:       0 days  0 hours 12 minutes 40.7 seconds.
 File lengths (MBytes):  RWF=    417 Int=      0 D2E=      0 Chk=     10 Scr=      1
 Normal termination of Gaussian 16 at Tue Feb 14 10:57:25 2023.
