 Entering Gaussian System, Link 0=/dragofs/sw/campus/0.2/software/gaussian/16.gaussian/gaussian/g16_legacy/g16
 Input=C10H24O2_pair_000_030_allign_FREQ_g16.com
 Output=C10H24O2_pair_000_030_allign_FREQ_g16.log
 Initial command:
 /dragofs/sw/campus/0.2/software/gaussian/16.gaussian/gaussian/g16_legacy/l1.exe "/tmp/jramos/52049/Gau-1448743.inp" -scrdir="/tmp/jramos/52049/"
 Entering Link 1 = /dragofs/sw/campus/0.2/software/gaussian/16.gaussian/gaussian/g16_legacy/l1.exe PID=   1448744.
  
 Copyright (c) 1988,1990,1992,1993,1995,1998,2003,2009,2016,
            Gaussian, Inc.  All Rights Reserved.
  
 This is part of the Gaussian(R) 16 program.  It is based on
 the Gaussian(R) 09 system (copyright 2009, Gaussian, Inc.),
 the Gaussian(R) 03 system (copyright 2003, Gaussian, Inc.),
 the Gaussian(R) 98 system (copyright 1998, Gaussian, Inc.),
 the Gaussian(R) 94 system (copyright 1995, Gaussian, Inc.),
 the Gaussian 92(TM) system (copyright 1992, Gaussian, Inc.),
 the Gaussian 90(TM) system (copyright 1990, Gaussian, Inc.),
 the Gaussian 88(TM) system (copyright 1988, Gaussian, Inc.),
 the Gaussian 86(TM) system (copyright 1986, Carnegie Mellon
 University), and the Gaussian 82(TM) system (copyright 1983,
 Carnegie Mellon University). Gaussian is a federally registered
 trademark of Gaussian, Inc.
  
 This software contains proprietary and confidential information,
 including trade secrets, belonging to Gaussian, Inc.
  
 This software is provided under written license and may be
 used, copied, transmitted, or stored only in accord with that
 written license.
  
 The following legend is applicable only to US Government
 contracts under FAR:
  
                    RESTRICTED RIGHTS LEGEND
  
 Use, reproduction and disclosure by the US Government is
 subject to restrictions as set forth in subparagraphs (a)
 and (c) of the Commercial Computer Software - Restricted
 Rights clause in FAR 52.227-19.
  
 Gaussian, Inc.
 340 Quinnipiac St., Bldg. 40, Wallingford CT 06492
  
  
 ---------------------------------------------------------------
 Warning -- This program may not be used in any manner that
 competes with the business of Gaussian, Inc. or will provide
 assistance to any competitor of Gaussian, Inc.  The licensee
 of this program is prohibited from giving any competitor of
 Gaussian, Inc. access to this program.  By using this program,
 the user acknowledges that Gaussian, Inc. is engaged in the
 business of creating and licensing software in the field of
 computational chemistry and represents and warrants to the
 licensee that it is not a competitor of Gaussian, Inc. and that
 it will not use this program in any manner prohibited above.
 ---------------------------------------------------------------
  

 Cite this work as:
 Gaussian 16, Revision A.03,
 M. J. Frisch, G. W. Trucks, H. B. Schlegel, G. E. Scuseria, 
 M. A. Robb, J. R. Cheeseman, G. Scalmani, V. Barone, 
 G. A. Petersson, H. Nakatsuji, X. Li, M. Caricato, A. V. Marenich, 
 J. Bloino, B. G. Janesko, R. Gomperts, B. Mennucci, H. P. Hratchian, 
 J. V. Ortiz, A. F. Izmaylov, J. L. Sonnenberg, D. Williams-Young, 
 F. Ding, F. Lipparini, F. Egidi, J. Goings, B. Peng, A. Petrone, 
 T. Henderson, D. Ranasinghe, V. G. Zakrzewski, J. Gao, N. Rega, 
 G. Zheng, W. Liang, M. Hada, M. Ehara, K. Toyota, R. Fukuda, 
 J. Hasegawa, M. Ishida, T. Nakajima, Y. Honda, O. Kitao, H. Nakai, 
 T. Vreven, K. Throssell, J. A. Montgomery, Jr., J. E. Peralta, 
 F. Ogliaro, M. J. Bearpark, J. J. Heyd, E. N. Brothers, K. N. Kudin, 
 V. N. Staroverov, T. A. Keith, R. Kobayashi, J. Normand, 
 K. Raghavachari, A. P. Rendell, J. C. Burant, S. S. Iyengar, 
 J. Tomasi, M. Cossi, J. M. Millam, M. Klene, C. Adamo, R. Cammi, 
 J. W. Ochterski, R. L. Martin, K. Morokuma, O. Farkas, 
 J. B. Foresman, and D. J. Fox, Gaussian, Inc., Wallingford CT, 2016.
 
 ******************************************
 Gaussian 16:  EM64L-G16RevA.03 25-Dec-2016
                14-Feb-2023 
 ******************************************
 %chk=C10H24O2_pair_000_030_allign_FREQ_gaussian.chk
 %nproc=8
 Will use up to    8 processors via shared memory.
 %mem=1000Mb
 ---------------------------------------------------------------------
 #p BLYP/6-311G** int=ultrafine EmpiricalDispersion=GD3 freq scale=1.0
 ---------------------------------------------------------------------
 1/10=4,30=1,38=1,114=1000000/1,3;
 2/12=2,17=6,18=5,40=1/2;
 3/5=4,6=6,7=101,11=2,25=1,30=1,71=2,74=402,75=-5,124=31,140=1/1,2,3;
 4//1;
 5/5=2,38=5,98=1/2;
 8/6=4,10=90,11=11/1;
 11/6=1,8=1,9=11,15=111,16=1/1,2,10;
 10/6=1/2;
 6/7=2,8=2,9=2,10=2,28=1/1;
 7/8=1,10=1,25=1/1,2,3,16;
 1/10=4,30=1/3;
 99//99;
 Leave Link    1 at Tue Feb 14 10:44:44 2023, MaxMem=   131072000 cpu:               0.2 elap:               0.0
 (Enter /dragofs/sw/campus/0.2/software/gaussian/16.gaussian/gaussian/g16_legacy/l101.exe)
 --------------------------------------------
 Conformer name C10H24O2_pair_000_030_allign.
 --------------------------------------------
 Symbolic Z-matrix:
 Charge =  0 Multiplicity = 1
 H                     0.2831   -1.9418    0.5443 
 C                     1.2984   -2.2561    0.8137 
 C                     2.2604   -1.0572    0.9563 
 H                     1.2376   -2.8158    1.7583 
 H                     1.6521   -2.9515    0.0367 
 H                     3.248    -1.4216    1.2774 
 H                     1.9056   -0.3696    1.7408 
 C                     2.4498   -0.2385   -0.3303 
 C                     3.5542    0.8382   -0.2342 
 H                     2.6865   -0.9263   -1.1659 
 H                     3.3234    1.4948    0.6194 
 H                     3.4914    1.4692   -1.1384 
 O                     1.1654    0.4147   -0.6063 
 H                     1.2558    0.9053   -1.4419 
 C                     4.9877    0.2764   -0.1194 
 H                     5.728     1.0879   -0.1566 
 H                     5.2104   -0.4177   -0.9444 
 H                     5.14     -0.2654    0.8242 
 H                    -0.6102    1.6315    1.3468 
 C                    -1.188     0.8152    1.806 
 C                    -2.5127    0.5747    1.0531 
 H                    -0.5552   -0.0801    1.7837 
 H                    -1.373     1.0743    2.8589 
 H                    -3.1847    1.4334    1.2142 
 H                    -3.0207   -0.3134    1.4654 
 C                    -2.3337    0.3648   -0.4697 
 C                    -3.6491    0.0276   -1.2006 
 H                    -1.9237    1.3036   -0.8993 
 H                    -4.0294   -0.9228   -0.7912 
 H                    -3.3903   -0.1701   -2.2522 
 O                    -1.427    -0.7275   -0.7517 
 H                    -0.5109   -0.3861   -0.6687 
 C                    -4.7366    1.1192   -1.1207 
 H                    -4.353     2.0906   -1.4714 
 H                    -5.1062    1.2583   -0.0948 
 H                    -5.6004    0.8571   -1.749 
 
 ITRead=  0  0  0  0  0  0  0  0  0  0  0  0  0  0  0  0  0  0  0  0
 ITRead=  0  0  0  0  0  0  0  0  0  0  0  0  0  0  0  0
 MicOpt= -1 -1 -1 -1 -1 -1 -1 -1 -1 -1 -1 -1 -1 -1 -1 -1 -1 -1 -1 -1
 MicOpt= -1 -1 -1 -1 -1 -1 -1 -1 -1 -1 -1 -1 -1 -1 -1 -1
 NAtoms=     36 NQM=       36 NQMF=       0 NMMI=      0 NMMIF=      0
                NMic=       0 NMicF=      0.
                    Isotopes and Nuclear Properties:
 (Nuclear quadrupole moments (NQMom) in fm**2, nuclear magnetic moments (NMagM)
  in nuclear magnetons)

  Atom         1           2           3           4           5           6           7           8           9          10
 IAtWgt=           1          12          12           1           1           1           1          12          12           1
 AtmWgt=   1.0078250  12.0000000  12.0000000   1.0078250   1.0078250   1.0078250   1.0078250  12.0000000  12.0000000   1.0078250
 NucSpn=           1           0           0           1           1           1           1           0           0           1
 AtZEff=  -0.0000000  -0.0000000  -0.0000000  -0.0000000  -0.0000000  -0.0000000  -0.0000000  -0.0000000  -0.0000000  -0.0000000
 NQMom=    0.0000000   0.0000000   0.0000000   0.0000000   0.0000000   0.0000000   0.0000000   0.0000000   0.0000000   0.0000000
 NMagM=    2.7928460   0.0000000   0.0000000   2.7928460   2.7928460   2.7928460   2.7928460   0.0000000   0.0000000   2.7928460
 AtZNuc=   1.0000000   6.0000000   6.0000000   1.0000000   1.0000000   1.0000000   1.0000000   6.0000000   6.0000000   1.0000000

  Atom        11          12          13          14          15          16          17          18          19          20
 IAtWgt=           1           1          16           1          12           1           1           1           1          12
 AtmWgt=   1.0078250   1.0078250  15.9949146   1.0078250  12.0000000   1.0078250   1.0078250   1.0078250   1.0078250  12.0000000
 NucSpn=           1           1           0           1           0           1           1           1           1           0
 AtZEff=  -0.0000000  -0.0000000  -0.0000000  -0.0000000  -0.0000000  -0.0000000  -0.0000000  -0.0000000  -0.0000000  -0.0000000
 NQMom=    0.0000000   0.0000000   0.0000000   0.0000000   0.0000000   0.0000000   0.0000000   0.0000000   0.0000000   0.0000000
 NMagM=    2.7928460   2.7928460   0.0000000   2.7928460   0.0000000   2.7928460   2.7928460   2.7928460   2.7928460   0.0000000
 AtZNuc=   1.0000000   1.0000000   8.0000000   1.0000000   6.0000000   1.0000000   1.0000000   1.0000000   1.0000000   6.0000000

  Atom        21          22          23          24          25          26          27          28          29          30
 IAtWgt=          12           1           1           1           1          12          12           1           1           1
 AtmWgt=  12.0000000   1.0078250   1.0078250   1.0078250   1.0078250  12.0000000  12.0000000   1.0078250   1.0078250   1.0078250
 NucSpn=           0           1           1           1           1           0           0           1           1           1
 AtZEff=  -0.0000000  -0.0000000  -0.0000000  -0.0000000  -0.0000000  -0.0000000  -0.0000000  -0.0000000  -0.0000000  -0.0000000
 NQMom=    0.0000000   0.0000000   0.0000000   0.0000000   0.0000000   0.0000000   0.0000000   0.0000000   0.0000000   0.0000000
 NMagM=    0.0000000   2.7928460   2.7928460   2.7928460   2.7928460   0.0000000   0.0000000   2.7928460   2.7928460   2.7928460
 AtZNuc=   6.0000000   1.0000000   1.0000000   1.0000000   1.0000000   6.0000000   6.0000000   1.0000000   1.0000000   1.0000000

  Atom        31          32          33          34          35          36
 IAtWgt=          16           1          12           1           1           1
 AtmWgt=  15.9949146   1.0078250  12.0000000   1.0078250   1.0078250   1.0078250
 NucSpn=           0           1           0           1           1           1
 AtZEff=  -0.0000000  -0.0000000  -0.0000000  -0.0000000  -0.0000000  -0.0000000
 NQMom=    0.0000000   0.0000000   0.0000000   0.0000000   0.0000000   0.0000000
 NMagM=    0.0000000   2.7928460   0.0000000   2.7928460   2.7928460   2.7928460
 AtZNuc=   8.0000000   1.0000000   6.0000000   1.0000000   1.0000000   1.0000000
 Leave Link  101 at Tue Feb 14 10:44:44 2023, MaxMem=   131072000 cpu:               0.6 elap:               0.1
 (Enter /dragofs/sw/campus/0.2/software/gaussian/16.gaussian/gaussian/g16_legacy/l103.exe)

 GradGradGradGradGradGradGradGradGradGradGradGradGradGradGradGradGradGrad
 Berny optimization.
 Initialization pass.
 Trust Radius=3.00D-01 FncErr=1.00D-07 GrdErr=1.00D-07 EigMax=2.50D+02 EigMin=1.00D-04
 Number of steps in this run=      2 maximum allowed number of steps=      2.
 GradGradGradGradGradGradGradGradGradGradGradGradGradGradGradGradGradGrad

 Leave Link  103 at Tue Feb 14 10:44:44 2023, MaxMem=   131072000 cpu:               0.2 elap:               0.0
 (Enter /dragofs/sw/campus/0.2/software/gaussian/16.gaussian/gaussian/g16_legacy/l202.exe)
                          Input orientation:                          
 ---------------------------------------------------------------------
 Center     Atomic      Atomic             Coordinates (Angstroms)
 Number     Number       Type             X           Y           Z
 ---------------------------------------------------------------------
      1          1           0        0.283100   -1.941800    0.544300
      2          6           0        1.298400   -2.256100    0.813700
      3          6           0        2.260400   -1.057200    0.956300
      4          1           0        1.237600   -2.815800    1.758300
      5          1           0        1.652100   -2.951500    0.036700
      6          1           0        3.248000   -1.421600    1.277400
      7          1           0        1.905600   -0.369600    1.740800
      8          6           0        2.449800   -0.238500   -0.330300
      9          6           0        3.554200    0.838200   -0.234200
     10          1           0        2.686500   -0.926300   -1.165900
     11          1           0        3.323400    1.494800    0.619400
     12          1           0        3.491400    1.469200   -1.138400
     13          8           0        1.165400    0.414700   -0.606300
     14          1           0        1.255800    0.905300   -1.441900
     15          6           0        4.987700    0.276400   -0.119400
     16          1           0        5.728000    1.087900   -0.156600
     17          1           0        5.210400   -0.417700   -0.944400
     18          1           0        5.140000   -0.265400    0.824200
     19          1           0       -0.610200    1.631500    1.346800
     20          6           0       -1.188000    0.815200    1.806000
     21          6           0       -2.512700    0.574700    1.053100
     22          1           0       -0.555200   -0.080100    1.783700
     23          1           0       -1.373000    1.074300    2.858900
     24          1           0       -3.184700    1.433400    1.214200
     25          1           0       -3.020700   -0.313400    1.465400
     26          6           0       -2.333700    0.364800   -0.469700
     27          6           0       -3.649100    0.027600   -1.200600
     28          1           0       -1.923700    1.303600   -0.899300
     29          1           0       -4.029400   -0.922800   -0.791200
     30          1           0       -3.390300   -0.170100   -2.252200
     31          8           0       -1.427000   -0.727500   -0.751700
     32          1           0       -0.510900   -0.386100   -0.668700
     33          6           0       -4.736600    1.119200   -1.120700
     34          1           0       -4.353000    2.090600   -1.471400
     35          1           0       -5.106200    1.258300   -0.094800
     36          1           0       -5.600400    0.857100   -1.749000
 ---------------------------------------------------------------------
                    Distance matrix (angstroms):
                    1          2          3          4          5
     1  H    0.000000
     2  C    1.096447   0.000000
     3  C    2.204989   1.543742   0.000000
     4  H    1.774470   1.099650   2.186778   0.000000
     5  H    1.775194   1.101097   2.191818   1.775987   0.000000
     6  H    3.098173   2.170794   1.100566   2.493344   2.535119
     7  H    2.556547   2.187942   1.101870   2.535828   3.103937
     8  C    2.891495   2.589434   1.536711   3.531877   2.851558
     9  C    4.362861   3.970066   2.585295   4.763235   4.248905
    10  H    3.119672   2.759349   2.168508   3.771003   2.572482
    11  H    4.589040   4.267040   2.784991   4.922289   4.785642
    12  H    4.975901   4.743185   3.505114   5.641960   4.930160
    13  O    2.766844   3.027749   2.409820   4.004082   3.461449
    14  H    3.605151   3.883812   3.257605   4.907973   4.149484
    15  C    5.243488   4.571123   3.220836   5.210634   4.644344
    16  H    6.270349   5.634286   4.226612   6.250553   5.741696
    17  H    5.368183   4.666302   3.567089   5.370159   4.477075
    18  H    5.145691   4.326764   2.989397   4.754557   4.472218
    19  H    3.769677   4.363529   3.952460   4.833443   5.276197
    20  C    3.370025   4.074276   4.014889   4.366918   5.038315
    21  C    3.795807   4.753443   5.045290   5.104659   5.550920
    22  H    2.388469   3.018561   3.093044   3.270907   4.021084
    23  H    4.146914   4.734003   4.622205   4.812425   5.772617
    24  H    4.885323   5.819879   5.993222   6.156986   6.633889
    25  H    3.796736   4.780525   5.357466   4.947819   5.553001
    26  C    3.632663   4.659226   5.016106   5.275830   5.209692
    27  C    4.731322   5.809513   6.383667   6.381211   6.205535
    28  H    4.181694   5.097819   5.150080   5.833191   5.636339
    29  H    4.628129   5.721787   6.529426   6.150178   6.089375
    30  H    4.945018   5.977880   6.558340   6.670929   6.196858
    31  O    2.465478   3.494982   4.077117   4.214403   3.879253
    32  H    2.126501   2.994658   3.281936   3.853703   3.428912
    33  C    6.110592   7.180235   7.616341   7.711286   7.663267
    34  H    6.466585   7.486909   7.716180   8.109163   7.984883
    35  H    6.300289   7.361744   7.793147   7.763766   7.963311
    36  H    6.907144   7.990800   8.530848   8.517605   8.384087
                    6          7          8          9         10
     6  H    0.000000
     7  H    1.767337   0.000000
     8  C    2.149779   2.145413   0.000000
     9  C    2.735944   2.842057   1.545386   0.000000
    10  H    2.555449   3.060821   1.107846   2.175874   0.000000
    11  H    2.990658   2.596860   2.160888   1.101374   3.074844
    12  H    3.775190   3.766396   2.157358   1.104392   2.527259
    13  O    3.355227   2.583002   1.467150   2.454420   2.103611
    14  H    4.096086   3.489583   1.992378   2.597246   2.340478
    15  C    2.803714   3.657458   2.598180   1.543930   2.799495
    16  H    3.808457   4.509454   3.540636   2.189470   3.785024
    17  H    3.129732   4.258441   2.833751   2.196513   2.584145
    18  H    2.263151   3.363385   2.927588   2.202931   3.227530
    19  H    4.920563   3.238655   3.958935   4.524501   4.870753
    20  C    4.996077   3.313361   4.348293   5.162500   5.184280
    21  C    6.100917   4.570121   5.215505   6.207564   5.848815
    22  H    4.064516   2.478142   3.677514   4.669300   4.463722
    23  H    5.484916   3.752894   5.148615   5.822397   6.056480
    24  H    7.038086   5.425797   6.076868   6.918446   6.760477
    25  H    6.368677   4.934312   5.758170   6.887970   6.314390
    26  C    6.115469   4.837077   4.823409   5.911593   5.230109
    27  C    7.470653   6.297960   6.166426   7.312902   6.407102
    28  H    6.237886   4.943002   4.672187   5.537720   5.128106
    29  H    7.582114   6.476209   6.531518   7.805278   6.726346
    30  H    7.621769   6.635541   6.148589   7.301717   6.219275
    31  O    5.143408   4.176945   3.930175   5.247054   4.139078
    32  H    4.357625   3.412541   2.983629   4.267639   3.280608
    33  C    8.715526   7.384005   7.356115   8.342794   7.699904
    34  H    8.812869   7.452576   7.280447   8.100801   7.664827
    35  H    8.880172   7.428649   7.706426   8.671704   8.163694
    36  H    9.625266   8.368007   8.247349   9.279099   8.496660
                   11         12         13         14         15
    11  H    0.000000
    12  H    1.765996   0.000000
    13  O    2.706644   2.608712   0.000000
    14  H    2.978496   2.325511   0.973184   0.000000
    15  C    2.190940   2.167959   3.855668   4.008940   0.000000
    16  H    2.559266   2.472185   4.633870   4.656813   1.099072
    17  H    3.108681   2.559881   4.143577   4.199607   1.100906
    18  H    2.537771   3.094918   4.278588   4.646801   1.098692
    19  H    4.002625   4.798508   2.906537   3.433099   5.943275
    20  C    4.714086   5.567225   3.393830   4.065603   6.491282
    21  C    5.924082   6.453838   4.038270   4.531657   7.597351
    22  H    4.345048   5.226277   2.986200   3.828215   5.871339
    23  H    5.219996   6.308466   4.345821   5.043415   7.068622
    24  H    6.535512   7.078582   4.824452   5.201134   8.360937
    25  H    6.650783   7.236358   4.727103   5.312822   8.184982
    26  C    5.870760   5.966460   3.502121   3.757901   7.330308
    27  C    7.353967   7.284835   4.866462   4.988650   8.707767
    28  H    5.465809   5.422905   3.227775   3.249966   7.030706
    29  H    7.867544   7.899661   5.367405   5.630160   9.121266
    30  H    7.489442   7.161400   4.879076   4.837284   8.656736
    31  O    5.420778   5.400526   2.836600   3.215560   6.523496
    32  H    4.460812   4.436346   1.858805   2.320944   5.565540
    33  C    8.254249   8.235460   5.966115   6.004813   9.811979
    34  H    7.978317   7.876017   5.831790   5.732752   9.610822
    35  H    8.463106   8.663273   6.348721   6.512629  10.141575
    36  H    9.254739   9.132816   6.875866   6.863244  10.728498
                   16         17         18         19         20
    16  H    0.000000
    17  H    1.776336   0.000000
    18  H    1.771760   1.776541   0.000000
    19  H    6.536703   6.582416   6.077511   0.000000
    20  C    7.194249   7.072783   6.494244   1.100483   0.000000
    21  C    8.344812   8.038727   7.702076   2.196040   1.542572
    22  H    6.678891   6.387382   5.778432   1.767337   1.096583
    23  H    7.714767   7.748052   6.953702   1.782914   1.099980
    24  H    9.024117   8.863624   8.505213   2.585513   2.172374
    25  H    9.007457   8.577239   8.185992   3.099550   2.179113
    26  C    8.100118   7.599414   7.611013   2.806181   2.587334
    27  C    9.494429   8.874383   9.024076   4.277459   3.964463
    28  H    7.690685   7.338957   7.438284   2.622549   2.845775
    29  H    9.982609   9.254864   9.333787   4.773512   4.223700
    30  H    9.440206   8.703085   9.068591   4.891576   4.721221
    31  O    7.405663   6.647420   6.769231   3.261249   2.996477
    32  H    6.431080   5.728026   5.846023   2.853561   2.832971
    33  C   10.508964  10.066576  10.161052   4.835099   4.609832
    34  H   10.215707   9.900905  10.046769   4.707608   4.731302
    35  H   10.835716  10.486326  10.399559   4.736191   4.377404
    36  H   11.442100  10.915397  11.101241   5.923324   5.666485
                   21         22         23         24         25
    21  C    0.000000
    22  H    2.189599   0.000000
    23  H    2.193041   1.776933   0.000000
    24  H    1.102226   3.086954   2.473105   0.000000
    25  H    1.103076   2.496885   2.565632   1.772373   0.000000
    26  C    1.547585   2.904963   3.536370   2.168323   2.162530
    27  C    2.582612   4.299984   4.770299   2.832525   2.760204
    28  H    2.165660   3.314500   3.805249   2.464518   3.067557
    29  H    2.818568   4.405714   4.936406   3.207308   2.545798
    30  H    3.499988   4.932989   5.633948   3.824842   3.738675
    31  O    2.476242   2.758154   4.035571   3.409364   2.761683
    32  H    2.809793   2.471814   3.914070   3.742339   3.295264
    33  C    3.157153   5.230484   5.210858   2.821148   3.418270
    34  H    3.472428   5.452605   5.353948   3.001547   4.022317
    35  H    2.917400   5.102125   4.763925   2.331588   3.042002
    36  H    4.179163   6.229956   6.257062   3.866301   4.284541
                   26         27         28         29         30
    26  C    0.000000
    27  C    1.542140   0.000000
    28  H    1.110856   2.167017   0.000000
    29  H    2.153294   1.102496   3.066352   0.000000
    30  H    2.140053   1.100875   2.480533   1.763385   0.000000
    31  O    1.447324   2.389438   2.096155   2.610017   2.533129
    32  H    1.981427   3.209730   2.214558   3.561305   3.293186
    33  C    2.601317   1.542929   2.827619   2.185970   2.180622
    34  H    2.838901   2.196537   2.616900   3.106118   2.578217
    35  H    2.936945   2.204667   3.282922   2.530152   3.104676
    36  H    3.542640   2.190065   3.799931   2.559974   2.488552
                   31         32         33         34         35
    31  O    0.000000
    32  H    0.981164   0.000000
    33  C    3.807875   4.508522   0.000000
    34  H    4.125667   4.641132   1.101707   0.000000
    35  H    4.232190   4.914285   1.099283   1.776249   0.000000
    36  H    4.574148   5.349356   1.099822   1.776117   1.772448
                   36
    36  H    0.000000
 Stoichiometry    C10H24O2
 Framework group  C1[X(C10H24O2)]
 Deg. of freedom   102
 Full point group                 C1      NOp   1
 Largest Abelian subgroup         C1      NOp   1
 Largest concise Abelian subgroup C1      NOp   1
                         Standard orientation:                         
 ---------------------------------------------------------------------
 Center     Atomic      Atomic             Coordinates (Angstroms)
 Number     Number       Type             X           Y           Z
 ---------------------------------------------------------------------
      1          1           0       -0.513764    1.722853   -1.000919
      2          6           0       -1.572967    2.005441   -1.021610
      3          6           0       -2.422094    1.152335   -0.055001
      4          1           0       -1.641986    3.070661   -0.757464
      5          1           0       -1.929867    1.895351   -2.057426
      6          1           0       -3.462788    1.509806   -0.075423
      7          1           0       -2.065455    1.273294    0.980515
      8          6           0       -2.428350   -0.351055   -0.373218
      9          6           0       -3.426947   -1.169816    0.475695
     10          1           0       -2.663789   -0.493296   -1.446372
     11          1           0       -3.201823   -0.993872    1.539362
     12          1           0       -3.231576   -2.240634    0.288987
     13          8           0       -1.068697   -0.840497   -0.119605
     14          1           0       -1.044407   -1.784224   -0.355985
     15          6           0       -4.912850   -0.876600    0.175965
     16          1           0       -5.565440   -1.559769    0.737540
     17          1           0       -5.135853   -1.005213   -0.894419
     18          1           0       -5.191465    0.148879    0.455053
     19          1           0        0.656291   -0.083675    2.093898
     20          6           0        1.113730    0.881121    1.827477
     21          6           0        2.464286    0.680997    1.109509
     22          1           0        0.400643    1.409212    1.183177
     23          1           0        1.238958    1.468868    2.748795
     24          1           0        3.201696    0.281454    1.824697
     25          1           0        2.849215    1.653852    0.759996
     26          6           0        2.387061   -0.272674   -0.106866
     27          6           0        3.717243   -0.391126   -0.878088
     28          1           0        2.105660   -1.280813    0.265250
     29          1           0        3.969653    0.607087   -1.272241
     30          1           0        3.524665   -1.029871   -1.753784
     31          8           0        1.403680    0.174558   -1.070034
     32          1           0        0.521435   -0.118482   -0.756262
     33          6           0        4.895955   -0.958301   -0.059809
     34          1           0        4.637658   -1.930004    0.390560
     35          1           0        5.194797   -0.283153    0.754619
     36          1           0        5.777272   -1.112739   -0.699370
 ---------------------------------------------------------------------
 Rotational constants (GHZ):           1.5935677           0.3023576           0.2948064
 Leave Link  202 at Tue Feb 14 10:44:44 2023, MaxMem=   131072000 cpu:               0.0 elap:               0.0
 (Enter /dragofs/sw/campus/0.2/software/gaussian/16.gaussian/gaussian/g16_legacy/l301.exe)
 Standard basis: 6-311G(d,p) (5D, 7F)
 Ernie: Thresh=  0.10000D-02 Tol=  0.10000D-05 Strict=F.
 There are   372 symmetry adapted cartesian basis functions of A   symmetry.
 There are   360 symmetry adapted basis functions of A   symmetry.
   360 basis functions,   576 primitive gaussians,   372 cartesian basis functions
    50 alpha electrons       50 beta electrons
       nuclear repulsion energy       766.9037334382 Hartrees.
 IExCor=  402 DFT=T Ex=B Corr=LYP ExCW=0 ScaHFX=  0.000000
 ScaDFX=  1.000000  1.000000  1.000000  1.000000 ScalE2=  1.000000  1.000000
 IRadAn=      5 IRanWt=     -1 IRanGd=            0 ICorTp=0 IEmpDi=131
 NAtoms=   36 NActive=   36 NUniq=   36 SFac= 1.00D+00 NAtFMM=   60 NAOKFM=F Big=F
 Integral buffers will be    131072 words long.
 Raffenetti 2 integral format.
 Two-electron integral symmetry is turned on.
 R6Disp:  Grimme-D3 Dispersion energy=       -0.0407438377 Hartrees.
 Nuclear repulsion after empirical dispersion term =      766.8629896005 Hartrees.
 Leave Link  301 at Tue Feb 14 10:44:44 2023, MaxMem=   131072000 cpu:               0.4 elap:               0.1
 (Enter /dragofs/sw/campus/0.2/software/gaussian/16.gaussian/gaussian/g16_legacy/l302.exe)
 NPDir=0 NMtPBC=     1 NCelOv=     1 NCel=       1 NClECP=     1 NCelD=      1
         NCelK=      1 NCelE2=     1 NClLst=     1 CellRange=     0.0.
 One-electron integrals computed using PRISM.
 One-electron integral symmetry used in STVInt
 NBasis=   360 RedAO= T EigKep=  1.71D-03  NBF=   360
 NBsUse=   360 1.00D-06 EigRej= -1.00D+00 NBFU=   360
 Precomputing XC quadrature grid using
 IXCGrd= 4 IRadAn=           5 IRanWt=          -1 IRanGd=           0 AccXCQ= 0.00D+00.
 Generated NRdTot=       0 NPtTot=           0 NUsed=           0 NTot=          32
 NSgBfM=   371   371   371   371   371 MxSgAt=    36 MxSgA2=    36.
 Leave Link  302 at Tue Feb 14 10:44:45 2023, MaxMem=   131072000 cpu:               3.3 elap:               0.4
 (Enter /dragofs/sw/campus/0.2/software/gaussian/16.gaussian/gaussian/g16_legacy/l303.exe)
 DipDrv:  MaxL=1.
 Leave Link  303 at Tue Feb 14 10:44:45 2023, MaxMem=   131072000 cpu:               0.3 elap:               0.1
 (Enter /dragofs/sw/campus/0.2/software/gaussian/16.gaussian/gaussian/g16_legacy/l401.exe)
 ExpMin= 1.03D-01 ExpMax= 8.59D+03 ExpMxC= 1.30D+03 IAcc=3 IRadAn=         5 AccDes= 0.00D+00
 Harris functional with IExCor=  402 and IRadAn=       5 diagonalized for initial guess.
 HarFok:  IExCor=  402 AccDes= 0.00D+00 IRadAn=         5 IDoV= 1 UseB2=F ITyADJ=14
 ICtDFT=  3500011 ScaDFX=  1.000000  1.000000  1.000000  1.000000
 FoFCou: FMM=F IPFlag=           0 FMFlag=      100000 FMFlg1=           0
         NFxFlg=           0 DoJE=T BraDBF=F KetDBF=T FulRan=T
         wScrn=  0.000000 ICntrl=       500 IOpCl=  0 I1Cent=   200000004 NGrid=           0
         NMat0=    1 NMatS0=      1 NMatT0=    0 NMatD0=    1 NMtDS0=    0 NMtDT0=    0
 Petite list used in FoFCou.
 Harris En= -546.319881940426    
 JPrj=0 DoOrth=F DoCkMO=F.
 Leave Link  401 at Tue Feb 14 10:44:47 2023, MaxMem=   131072000 cpu:              19.6 elap:               2.5
 (Enter /dragofs/sw/campus/0.2/software/gaussian/16.gaussian/gaussian/g16_legacy/l502.exe)
 Integral symmetry usage will be decided dynamically.
 Closed shell SCF:
 Using DIIS extrapolation, IDIIS=  1040.
 NGot=   131072000 LenX=   130788220 LenY=   130649395
 Requested convergence on RMS density matrix=1.00D-08 within 128 cycles.
 Requested convergence on MAX density matrix=1.00D-06.
 Requested convergence on             energy=1.00D-06.
 No special actions if energy rises.
 Fock matrices will be formed incrementally for  20 cycles.
 Integral accuracy reduced to 1.0D-05 until final iterations.

 Cycle   1  Pass 0  IDiag  1:
 FoFJK:  IHMeth= 1 ICntrl=     500 DoSepK=F KAlg= 0 I1Cent=           0 FoldK=F
 IRaf= 810000000 NMat=       1 IRICut=       1 DoRegI=T DoRafI=F ISym2E= 0 IDoP0=0 IntGTp=1.
 FoFCou: FMM=F IPFlag=           0 FMFlag=      100000 FMFlg1=           0
         NFxFlg=           0 DoJE=T BraDBF=F KetDBF=F FulRan=T
         wScrn=  0.000000 ICntrl=       500 IOpCl=  0 I1Cent=           0 NGrid=           0
         NMat0=    1 NMatS0=      1 NMatT0=    0 NMatD0=    1 NMtDS0=    0 NMtDT0=    0
 Symmetry not used in FoFCou.
 E= -545.370502596180    
 DIIS: error= 3.61D-02 at cycle   1 NSaved=   1.
 NSaved= 1 IEnMin= 1 EnMin= -545.370502596180     IErMin= 1 ErrMin= 3.61D-02
 ErrMax= 3.61D-02  0.00D+00 EMaxC= 1.00D-01 BMatC= 5.11D-01 BMatP= 5.11D-01
 IDIUse=3 WtCom= 6.39D-01 WtEn= 3.61D-01
 Coeff-Com:  0.100D+01
 Coeff-En:   0.100D+01
 Coeff:      0.100D+01
 Gap=     0.129 Goal=   None    Shift=    0.000
 GapD=    0.129 DampG=1.000 DampE=0.500 DampFc=0.5000 IDamp=-1.
 Damping current iteration by 5.00D-01
 RMSDP=5.28D-03 MaxDP=2.45D-01              OVMax= 2.36D-01

 Cycle   2  Pass 0  IDiag  1:
 RMSU=  2.63D-03    CP:  9.75D-01
 E= -545.486866697169     Delta-E=       -0.116364100990 Rises=F Damp=T
 DIIS: error= 1.03D-02 at cycle   2 NSaved=   2.
 NSaved= 2 IEnMin= 2 EnMin= -545.486866697169     IErMin= 2 ErrMin= 1.03D-02
 ErrMax= 1.03D-02  0.00D+00 EMaxC= 1.00D-01 BMatC= 6.89D-02 BMatP= 5.11D-01
 IDIUse=3 WtCom= 8.97D-01 WtEn= 1.03D-01
 Coeff-Com:  0.242D+00 0.758D+00
 Coeff-En:   0.388D+00 0.612D+00
 Coeff:      0.257D+00 0.743D+00
 Gap=     0.202 Goal=   None    Shift=    0.000
 RMSDP=1.43D-03 MaxDP=8.28D-02 DE=-1.16D-01 OVMax= 1.86D-01

 Cycle   3  Pass 0  IDiag  1:
 RMSU=  7.64D-04    CP:  9.79D-01  5.42D-01
 E= -545.867103122012     Delta-E=       -0.380236424843 Rises=F Damp=F
 DIIS: error= 5.92D-03 at cycle   3 NSaved=   3.
 NSaved= 3 IEnMin= 3 EnMin= -545.867103122012     IErMin= 3 ErrMin= 5.92D-03
 ErrMax= 5.92D-03  0.00D+00 EMaxC= 1.00D-01 BMatC= 1.34D-02 BMatP= 6.89D-02
 IDIUse=3 WtCom= 9.41D-01 WtEn= 5.92D-02
 Coeff-Com:  0.918D-01 0.347D+00 0.561D+00
 Coeff-En:   0.000D+00 0.000D+00 0.100D+01
 Coeff:      0.863D-01 0.327D+00 0.587D+00
 Gap=     0.189 Goal=   None    Shift=    0.000
 RMSDP=4.95D-04 MaxDP=1.80D-02 DE=-3.80D-01 OVMax= 3.44D-02

 Cycle   4  Pass 0  IDiag  1:
 RMSU=  3.37D-04    CP:  9.84D-01  6.29D-01  6.39D-01
 E= -545.872456149032     Delta-E=       -0.005353027020 Rises=F Damp=F
 DIIS: error= 4.18D-03 at cycle   4 NSaved=   4.
 NSaved= 4 IEnMin= 4 EnMin= -545.872456149032     IErMin= 4 ErrMin= 4.18D-03
 ErrMax= 4.18D-03  0.00D+00 EMaxC= 1.00D-01 BMatC= 6.81D-03 BMatP= 1.34D-02
 IDIUse=3 WtCom= 9.58D-01 WtEn= 4.18D-02
 Coeff-Com:  0.207D-01 0.103D+00 0.407D+00 0.469D+00
 Coeff-En:   0.000D+00 0.000D+00 0.358D+00 0.642D+00
 Coeff:      0.198D-01 0.991D-01 0.405D+00 0.476D+00
 Gap=     0.194 Goal=   None    Shift=    0.000
 RMSDP=2.21D-04 MaxDP=1.14D-02 DE=-5.35D-03 OVMax= 1.47D-02

 Cycle   5  Pass 0  IDiag  1:
 RMSU=  1.02D-04    CP:  9.81D-01  6.01D-01  7.56D-01  5.39D-01
 E= -545.877718487167     Delta-E=       -0.005262338135 Rises=F Damp=F
 DIIS: error= 4.29D-04 at cycle   5 NSaved=   5.
 NSaved= 5 IEnMin= 5 EnMin= -545.877718487167     IErMin= 5 ErrMin= 4.29D-04
 ErrMax= 4.29D-04  0.00D+00 EMaxC= 1.00D-01 BMatC= 1.40D-04 BMatP= 6.81D-03
 IDIUse=3 WtCom= 9.96D-01 WtEn= 4.29D-03
 Coeff-Com:  0.250D-02 0.186D-01 0.132D+00 0.207D+00 0.639D+00
 Coeff-En:   0.000D+00 0.000D+00 0.000D+00 0.000D+00 0.100D+01
 Coeff:      0.249D-02 0.185D-01 0.132D+00 0.207D+00 0.641D+00
 Gap=     0.193 Goal=   None    Shift=    0.000
 RMSDP=3.76D-05 MaxDP=1.18D-03 DE=-5.26D-03 OVMax= 1.80D-03

 Cycle   6  Pass 0  IDiag  1:
 RMSU=  1.88D-05    CP:  9.81D-01  6.02D-01  7.60D-01  5.62D-01  6.94D-01
 E= -545.877820094574     Delta-E=       -0.000101607408 Rises=F Damp=F
 DIIS: error= 1.81D-04 at cycle   6 NSaved=   6.
 NSaved= 6 IEnMin= 6 EnMin= -545.877820094574     IErMin= 6 ErrMin= 1.81D-04
 ErrMax= 1.81D-04  0.00D+00 EMaxC= 1.00D-01 BMatC= 2.40D-05 BMatP= 1.40D-04
 IDIUse=3 WtCom= 9.98D-01 WtEn= 1.81D-03
 Coeff-Com:  0.701D-03 0.562D-02 0.583D-01 0.997D-01 0.387D+00 0.448D+00
 Coeff-En:   0.000D+00 0.000D+00 0.000D+00 0.000D+00 0.819D-01 0.918D+00
 Coeff:      0.700D-03 0.561D-02 0.582D-01 0.995D-01 0.387D+00 0.449D+00
 Gap=     0.193 Goal=   None    Shift=    0.000
 RMSDP=1.08D-05 MaxDP=5.49D-04 DE=-1.02D-04 OVMax= 6.80D-04

 Cycle   7  Pass 0  IDiag  1:
 RMSU=  5.78D-06    CP:  9.81D-01  6.02D-01  7.60D-01  5.63D-01  7.35D-01
                    CP:  5.87D-01
 E= -545.877841768085     Delta-E=       -0.000021673511 Rises=F Damp=F
 DIIS: error= 3.20D-05 at cycle   7 NSaved=   7.
 NSaved= 7 IEnMin= 7 EnMin= -545.877841768085     IErMin= 7 ErrMin= 3.20D-05
 ErrMax= 3.20D-05  0.00D+00 EMaxC= 1.00D-01 BMatC= 7.62D-07 BMatP= 2.40D-05
 IDIUse=1 WtCom= 1.00D+00 WtEn= 0.00D+00
 Coeff-Com:  0.289D-03 0.115D-02 0.177D-01 0.314D-01 0.135D+00 0.213D+00
 Coeff-Com:  0.602D+00
 Coeff:      0.289D-03 0.115D-02 0.177D-01 0.314D-01 0.135D+00 0.213D+00
 Coeff:      0.602D+00
 Gap=     0.193 Goal=   None    Shift=    0.000
 RMSDP=2.77D-06 MaxDP=1.08D-04 DE=-2.17D-05 OVMax= 1.82D-04

 Initial convergence to 1.0D-05 achieved.  Increase integral accuracy.
 Cycle   8  Pass 1  IDiag  1:
 E= -545.877875478370     Delta-E=       -0.000033710285 Rises=F Damp=F
 DIIS: error= 1.76D-05 at cycle   1 NSaved=   1.
 NSaved= 1 IEnMin= 1 EnMin= -545.877875478370     IErMin= 1 ErrMin= 1.76D-05
 ErrMax= 1.76D-05  0.00D+00 EMaxC= 1.00D-01 BMatC= 2.32D-07 BMatP= 2.32D-07
 IDIUse=1 WtCom= 1.00D+00 WtEn= 0.00D+00
 Coeff-Com:  0.100D+01
 Coeff:      0.100D+01
 Gap=     0.193 Goal=   None    Shift=    0.000
 RMSDP=2.77D-06 MaxDP=1.08D-04 DE=-3.37D-05 OVMax= 1.92D-04

 Cycle   9  Pass 1  IDiag  1:
 RMSU=  6.62D-06    CP:  1.00D+00
 E= -545.877875212548     Delta-E=        0.000000265822 Rises=F Damp=F
 DIIS: error= 3.94D-05 at cycle   2 NSaved=   2.
 NSaved= 2 IEnMin= 1 EnMin= -545.877875478370     IErMin= 1 ErrMin= 1.76D-05
 ErrMax= 3.94D-05  0.00D+00 EMaxC= 1.00D-01 BMatC= 6.75D-07 BMatP= 2.32D-07
 IDIUse=1 WtCom= 1.00D+00 WtEn= 0.00D+00
 Coeff-Com:  0.645D+00 0.355D+00
 Coeff:      0.645D+00 0.355D+00
 Gap=     0.193 Goal=   None    Shift=    0.000
 RMSDP=2.20D-06 MaxDP=9.30D-05 DE= 2.66D-07 OVMax= 1.44D-04

 Cycle  10  Pass 1  IDiag  1:
 RMSU=  1.98D-06    CP:  1.00D+00  8.57D-01
 E= -545.877875683027     Delta-E=       -0.000000470479 Rises=F Damp=F
 DIIS: error= 7.52D-06 at cycle   3 NSaved=   3.
 NSaved= 3 IEnMin= 3 EnMin= -545.877875683027     IErMin= 3 ErrMin= 7.52D-06
 ErrMax= 7.52D-06  0.00D+00 EMaxC= 1.00D-01 BMatC= 1.84D-08 BMatP= 2.32D-07
 IDIUse=1 WtCom= 1.00D+00 WtEn= 0.00D+00
 Coeff-Com:  0.849D-01 0.152D+00 0.763D+00
 Coeff:      0.849D-01 0.152D+00 0.763D+00
 Gap=     0.193 Goal=   None    Shift=    0.000
 RMSDP=4.10D-07 MaxDP=1.50D-05 DE=-4.70D-07 OVMax= 2.28D-05

 Cycle  11  Pass 1  IDiag  1:
 RMSU=  3.30D-07    CP:  1.00D+00  8.69D-01  8.83D-01
 E= -545.877875692032     Delta-E=       -0.000000009005 Rises=F Damp=F
 DIIS: error= 2.19D-06 at cycle   4 NSaved=   4.
 NSaved= 4 IEnMin= 4 EnMin= -545.877875692032     IErMin= 4 ErrMin= 2.19D-06
 ErrMax= 2.19D-06  0.00D+00 EMaxC= 1.00D-01 BMatC= 4.19D-09 BMatP= 1.84D-08
 IDIUse=1 WtCom= 1.00D+00 WtEn= 0.00D+00
 Coeff-Com:  0.587D-02 0.664D-01 0.455D+00 0.473D+00
 Coeff:      0.587D-02 0.664D-01 0.455D+00 0.473D+00
 Gap=     0.193 Goal=   None    Shift=    0.000
 RMSDP=1.56D-07 MaxDP=8.41D-06 DE=-9.01D-09 OVMax= 9.94D-06

 Cycle  12  Pass 1  IDiag  1:
 RMSU=  5.93D-08    CP:  1.00D+00  8.70D-01  8.85D-01  5.65D-01
 E= -545.877875695947     Delta-E=       -0.000000003914 Rises=F Damp=F
 DIIS: error= 4.31D-07 at cycle   5 NSaved=   5.
 NSaved= 5 IEnMin= 5 EnMin= -545.877875695947     IErMin= 5 ErrMin= 4.31D-07
 ErrMax= 4.31D-07  0.00D+00 EMaxC= 1.00D-01 BMatC= 1.22D-10 BMatP= 4.19D-09
 IDIUse=1 WtCom= 1.00D+00 WtEn= 0.00D+00
 Coeff-Com: -0.853D-04 0.304D-01 0.218D+00 0.255D+00 0.497D+00
 Coeff:     -0.853D-04 0.304D-01 0.218D+00 0.255D+00 0.497D+00
 Gap=     0.193 Goal=   None    Shift=    0.000
 RMSDP=3.39D-08 MaxDP=1.34D-06 DE=-3.91D-09 OVMax= 1.72D-06

 Cycle  13  Pass 1  IDiag  1:
 RMSU=  8.66D-09    CP:  1.00D+00  8.71D-01  8.83D-01  5.34D-01  4.88D-01
 E= -545.877875696073     Delta-E=       -0.000000000126 Rises=F Damp=F
 DIIS: error= 4.80D-08 at cycle   6 NSaved=   6.
 NSaved= 6 IEnMin= 6 EnMin= -545.877875696073     IErMin= 6 ErrMin= 4.80D-08
 ErrMax= 4.80D-08  0.00D+00 EMaxC= 1.00D-01 BMatC= 1.31D-12 BMatP= 1.22D-10
 IDIUse=1 WtCom= 1.00D+00 WtEn= 0.00D+00
 Coeff-Com: -0.164D-03 0.101D-01 0.730D-01 0.858D-01 0.196D+00 0.635D+00
 Coeff:     -0.164D-03 0.101D-01 0.730D-01 0.858D-01 0.196D+00 0.635D+00
 Gap=     0.193 Goal=   None    Shift=    0.000
 RMSDP=3.95D-09 MaxDP=1.34D-07 DE=-1.26D-10 OVMax= 2.09D-07

 SCF Done:  E(RB-LYP) =  -545.877875696     A.U. after   13 cycles
            NFock= 13  Conv=0.39D-08     -V/T= 2.0030
 KE= 5.442195636007D+02 PE=-2.806034917460D+03 EE= 9.490744885623D+02
 Leave Link  502 at Tue Feb 14 10:45:27 2023, MaxMem=   131072000 cpu:             313.9 elap:              39.4
 (Enter /dragofs/sw/campus/0.2/software/gaussian/16.gaussian/gaussian/g16_legacy/l801.exe)
 DoSCS=F DFT=T ScalE2(SS,OS)=  1.000000  1.000000
 Range of M.O.s used for correlation:     1   360
 NBasis=   360 NAE=    50 NBE=    50 NFC=     0 NFV=     0
 NROrb=    360 NOA=    50 NOB=    50 NVA=   310 NVB=   310
 Leave Link  801 at Tue Feb 14 10:45:27 2023, MaxMem=   131072000 cpu:               0.1 elap:               0.0
 (Enter /dragofs/sw/campus/0.2/software/gaussian/16.gaussian/gaussian/g16_legacy/l1101.exe)
 Using compressed storage, NAtomX=    36.
 Will process     37 centers per pass.
 R6Disp: Adding Grimme-D3 dispersion energy 1st derivatives to the gradient.
 Leave Link 1101 at Tue Feb 14 10:45:27 2023, MaxMem=   131072000 cpu:               3.0 elap:               0.4
 (Enter /dragofs/sw/campus/0.2/software/gaussian/16.gaussian/gaussian/g16_legacy/l1102.exe)
 Symmetrizing basis deriv contribution to polar:
 IMax=3 JMax=2 DiffMx= 0.00D+00
 Leave Link 1102 at Tue Feb 14 10:45:27 2023, MaxMem=   131072000 cpu:               0.3 elap:               0.1
 (Enter /dragofs/sw/campus/0.2/software/gaussian/16.gaussian/gaussian/g16_legacy/l1110.exe)
 Forming Gx(P) for the SCF density, NAtomX=    36.
 Integral derivatives from FoFJK, PRISM(SPDF).
 Do as many integral derivatives as possible in FoFJK.
 G2DrvN: MDV=     131069272.
 G2DrvN: will do    37 centers at a time, making    1 passes.
 Calling FoFCou, ICntrl=  3507 FMM=F I1Cent=   0 AccDes= 0.00D+00.
 FoFJK:  IHMeth= 1 ICntrl=    3507 DoSepK=F KAlg= 0 I1Cent=           0 FoldK=F
 IRaf=         0 NMat=       1 IRICut=       1 DoRegI=T DoRafI=F ISym2E= 0 IDoP0=0 IntGTp=1.
 FoFCou: FMM=F IPFlag=           0 FMFlag=      100000 FMFlg1=           0
         NFxFlg=           0 DoJE=F BraDBF=F KetDBF=F FulRan=T
         wScrn=  0.000000 ICntrl=      3507 IOpCl=  0 I1Cent=           0 NGrid=           0
         NMat0=    1 NMatS0=      1 NMatT0=    0 NMatD0=    1 NMtDS0=    0 NMtDT0=    0
 Symmetry not used in FoFCou.
 End of G2Drv F.D. properties file   721 does not exist.
 End of G2Drv F.D. properties file   722 does not exist.
 End of G2Drv F.D. properties file   788 does not exist.
 Leave Link 1110 at Tue Feb 14 10:48:39 2023, MaxMem=   131072000 cpu:            1526.5 elap:             191.6
 (Enter /dragofs/sw/campus/0.2/software/gaussian/16.gaussian/gaussian/g16_legacy/l1002.exe)
 Minotr:  Closed shell wavefunction.
          IDoAtm=111111111111111111111111111111111111
          Direct CPHF calculation.
          Differentiating once with respect to electric field.
                with respect to dipole field.
          Differentiating once with respect to nuclear coordinates.
          Requested convergence is 1.0D-08 RMS, and 1.0D-07 maximum.
          Secondary convergence is 1.0D-12 RMS, and 1.0D-12 maximum.
          NewPWx=T KeepS1=F KeepF1=F KeepIn=T MapXYZ=F SortEE=F KeepMc=T.
        10953 words used for storage of precomputed grid.
 Two-electron integrals replicated using symmetry.
          MDV=     131072000 using IRadAn=       1.
          Solving linear equations simultaneously, MaxMat=     384.
 FoF2E skips out because all densities are zero.
 CalDSu exits because no D1Ps are significant.
 FoFJK:  IHMeth= 1 ICntrl=     500 DoSepK=F KAlg= 0 I1Cent=           0 FoldK=F
 IRaf= 780000000 NMat=      56 IRICut=       1 DoRegI=T DoRafI=F ISym2E= 2 IDoP0=3 IntGTp=3.
 FoFCou: FMM=F IPFlag=           0 FMFlag=      100000 FMFlg1=           0
         NFxFlg=           0 DoJE=F BraDBF=F KetDBF=F FulRan=T
         wScrn=  0.000000 ICntrl=       500 IOpCl=  0 I1Cent=           0 NGrid=           0
         NMat0=   56 NMatS0=     56 NMatT0=    0 NMatD0=   56 NMtDS0=    0 NMtDT0=    0
 Integrals replicated using symmetry in FoFCou.
          There are   111 degrees of freedom in the 1st order CPHF.  IDoFFX=6 NUNeed=     3.
    108 vectors produced by pass  0 Test12= 1.55D-14 1.00D-09 XBig12= 1.15D+02 1.61D+00.
 AX will form    56 AO Fock derivatives at one time.
    108 vectors produced by pass  1 Test12= 1.55D-14 1.00D-09 XBig12= 9.41D+00 3.27D-01.
    108 vectors produced by pass  2 Test12= 1.55D-14 1.00D-09 XBig12= 3.74D-02 1.45D-02.
    108 vectors produced by pass  3 Test12= 1.55D-14 1.00D-09 XBig12= 4.11D-05 3.48D-04.
     94 vectors produced by pass  4 Test12= 1.55D-14 1.00D-09 XBig12= 3.90D-09 4.40D-06.
      4 vectors produced by pass  5 Test12= 1.55D-14 1.00D-09 XBig12= 5.60D-13 4.99D-08.
      1 vectors produced by pass  6 Test12= 1.55D-14 1.00D-09 XBig12= 1.71D-16 1.10D-09.
 InvSVY:  IOpt=1 It=  1 EMax= 1.95D-14
 Solved reduced A of dimension   531 with   111 vectors.
 FullF1:  Do perturbations      1 to       3.
 Isotropic polarizability for W=    0.000000      135.73 Bohr**3.
 End of Minotr F.D. properties file   721 does not exist.
 End of Minotr F.D. properties file   722 does not exist.
 End of Minotr F.D. properties file   788 does not exist.
 Leave Link 1002 at Tue Feb 14 10:52:02 2023, MaxMem=   131072000 cpu:            1618.1 elap:             203.1
 (Enter /dragofs/sw/campus/0.2/software/gaussian/16.gaussian/gaussian/g16_legacy/l601.exe)
 Copying SCF densities to generalized density rwf, IOpCl= 0 IROHF=0.

 **********************************************************************

            Population analysis using the SCF density.

 **********************************************************************

 Orbital symmetries:
       Occupied  (A) (A) (A) (A) (A) (A) (A) (A) (A) (A) (A) (A)
                 (A) (A) (A) (A) (A) (A) (A) (A) (A) (A) (A) (A)
                 (A) (A) (A) (A) (A) (A) (A) (A) (A) (A) (A) (A)
                 (A) (A) (A) (A) (A) (A) (A) (A) (A) (A) (A) (A)
                 (A) (A)
       Virtual   (A) (A) (A) (A) (A) (A) (A) (A) (A) (A) (A) (A)
                 (A) (A) (A) (A) (A) (A) (A) (A) (A) (A) (A) (A)
                 (A) (A) (A) (A) (A) (A) (A) (A) (A) (A) (A) (A)
                 (A) (A) (A) (A) (A) (A) (A) (A) (A) (A) (A) (A)
                 (A) (A) (A) (A) (A) (A) (A) (A) (A) (A) (A) (A)
                 (A) (A) (A) (A) (A) (A) (A) (A) (A) (A) (A) (A)
                 (A) (A) (A) (A) (A) (A) (A) (A) (A) (A) (A) (A)
                 (A) (A) (A) (A) (A) (A) (A) (A) (A) (A) (A) (A)
                 (A) (A) (A) (A) (A) (A) (A) (A) (A) (A) (A) (A)
                 (A) (A) (A) (A) (A) (A) (A) (A) (A) (A) (A) (A)
                 (A) (A) (A) (A) (A) (A) (A) (A) (A) (A) (A) (A)
                 (A) (A) (A) (A) (A) (A) (A) (A) (A) (A) (A) (A)
                 (A) (A) (A) (A) (A) (A) (A) (A) (A) (A) (A) (A)
                 (A) (A) (A) (A) (A) (A) (A) (A) (A) (A) (A) (A)
                 (A) (A) (A) (A) (A) (A) (A) (A) (A) (A) (A) (A)
                 (A) (A) (A) (A) (A) (A) (A) (A) (A) (A) (A) (A)
                 (A) (A) (A) (A) (A) (A) (A) (A) (A) (A) (A) (A)
                 (A) (A) (A) (A) (A) (A) (A) (A) (A) (A) (A) (A)
                 (A) (A) (A) (A) (A) (A) (A) (A) (A) (A) (A) (A)
                 (A) (A) (A) (A) (A) (A) (A) (A) (A) (A) (A) (A)
                 (A) (A) (A) (A) (A) (A) (A) (A) (A) (A) (A) (A)
                 (A) (A) (A) (A) (A) (A) (A) (A) (A) (A) (A) (A)
                 (A) (A) (A) (A) (A) (A) (A) (A) (A) (A) (A) (A)
                 (A) (A) (A) (A) (A) (A) (A) (A) (A) (A) (A) (A)
                 (A) (A) (A) (A) (A) (A) (A) (A) (A) (A) (A) (A)
                 (A) (A) (A) (A) (A) (A) (A) (A) (A) (A)
 The electronic state is 1-A.
 Alpha  occ. eigenvalues --  -18.77937 -18.72538  -9.96458  -9.93440  -9.91401
 Alpha  occ. eigenvalues --   -9.90626  -9.90531  -9.88763  -9.88596  -9.88537
 Alpha  occ. eigenvalues --   -9.88515  -9.87957  -0.93478  -0.88741  -0.72087
 Alpha  occ. eigenvalues --   -0.69423  -0.67792  -0.65814  -0.60749  -0.58678
 Alpha  occ. eigenvalues --   -0.55385  -0.53382  -0.51632  -0.48404  -0.47124
 Alpha  occ. eigenvalues --   -0.43802  -0.40928  -0.39624  -0.39122  -0.37992
 Alpha  occ. eigenvalues --   -0.37578  -0.36967  -0.36518  -0.35364  -0.34365
 Alpha  occ. eigenvalues --   -0.33702  -0.31879  -0.31621  -0.31363  -0.30685
 Alpha  occ. eigenvalues --   -0.30435  -0.29742  -0.29719  -0.28516  -0.28201
 Alpha  occ. eigenvalues --   -0.27904  -0.27110  -0.25153  -0.23494  -0.19462
 Alpha virt. eigenvalues --   -0.00132   0.02096   0.03568   0.03747   0.03893
 Alpha virt. eigenvalues --    0.05270   0.06199   0.06730   0.07579   0.07917
 Alpha virt. eigenvalues --    0.08840   0.09535   0.09762   0.10416   0.10460
 Alpha virt. eigenvalues --    0.11007   0.11214   0.12294   0.12557   0.13006
 Alpha virt. eigenvalues --    0.13472   0.13726   0.14991   0.15496   0.17280
 Alpha virt. eigenvalues --    0.17776   0.18393   0.19229   0.20178   0.20604
 Alpha virt. eigenvalues --    0.21195   0.21743   0.22992   0.23752   0.26134
 Alpha virt. eigenvalues --    0.27557   0.28106   0.28495   0.29719   0.29974
 Alpha virt. eigenvalues --    0.31150   0.31879   0.32425   0.32609   0.34908
 Alpha virt. eigenvalues --    0.35498   0.35726   0.38099   0.39012   0.40302
 Alpha virt. eigenvalues --    0.40930   0.42036   0.43924   0.44663   0.46366
 Alpha virt. eigenvalues --    0.46722   0.48015   0.50327   0.50747   0.51178
 Alpha virt. eigenvalues --    0.51712   0.52212   0.52789   0.53008   0.53618
 Alpha virt. eigenvalues --    0.53991   0.54218   0.54662   0.55051   0.55746
 Alpha virt. eigenvalues --    0.55968   0.56561   0.56757   0.56779   0.57394
 Alpha virt. eigenvalues --    0.58004   0.58449   0.58804   0.59299   0.60559
 Alpha virt. eigenvalues --    0.60837   0.61472   0.62300   0.62879   0.63771
 Alpha virt. eigenvalues --    0.65414   0.67483   0.68196   0.69571   0.75241
 Alpha virt. eigenvalues --    0.78549   0.80641   0.83525   0.86329   0.86681
 Alpha virt. eigenvalues --    0.89368   0.90222   0.92183   0.93138   0.94370
 Alpha virt. eigenvalues --    0.95672   0.97918   1.00183   1.02985   1.04112
 Alpha virt. eigenvalues --    1.04872   1.05603   1.08483   1.10307   1.12382
 Alpha virt. eigenvalues --    1.14359   1.15421   1.17611   1.19583   1.20995
 Alpha virt. eigenvalues --    1.22301   1.24914   1.26175   1.27356   1.30177
 Alpha virt. eigenvalues --    1.32547   1.33736   1.35214   1.35780   1.38241
 Alpha virt. eigenvalues --    1.38793   1.39642   1.40304   1.40922   1.41755
 Alpha virt. eigenvalues --    1.42041   1.42595   1.43330   1.43527   1.45125
 Alpha virt. eigenvalues --    1.45678   1.46353   1.47138   1.47753   1.48455
 Alpha virt. eigenvalues --    1.48702   1.50241   1.51723   1.51872   1.52035
 Alpha virt. eigenvalues --    1.52837   1.53812   1.54059   1.54807   1.57028
 Alpha virt. eigenvalues --    1.57576   1.58301   1.59560   1.60336   1.61099
 Alpha virt. eigenvalues --    1.62608   1.62929   1.64870   1.65759   1.67274
 Alpha virt. eigenvalues --    1.68611   1.68841   1.69910   1.70424   1.71201
 Alpha virt. eigenvalues --    1.71565   1.72759   1.73547   1.74715   1.76875
 Alpha virt. eigenvalues --    1.77896   1.81156   1.81807   1.85156   1.85768
 Alpha virt. eigenvalues --    1.86764   1.87865   1.90609   1.90817   1.93213
 Alpha virt. eigenvalues --    1.94990   1.95324   1.96106   1.96783   1.97829
 Alpha virt. eigenvalues --    1.99699   2.04311   2.05010   2.06171   2.07503
 Alpha virt. eigenvalues --    2.08029   2.08647   2.10095   2.10897   2.11963
 Alpha virt. eigenvalues --    2.17569   2.19612   2.20108   2.21863   2.22390
 Alpha virt. eigenvalues --    2.23469   2.25506   2.25990   2.26836   2.27249
 Alpha virt. eigenvalues --    2.28513   2.30311   2.32213   2.32946   2.33855
 Alpha virt. eigenvalues --    2.35628   2.37211   2.38040   2.39905   2.40244
 Alpha virt. eigenvalues --    2.40739   2.41618   2.42057   2.42672   2.43465
 Alpha virt. eigenvalues --    2.44837   2.46814   2.47308   2.48169   2.49109
 Alpha virt. eigenvalues --    2.50354   2.50705   2.51267   2.52312   2.53755
 Alpha virt. eigenvalues --    2.54708   2.55270   2.56640   2.56988   2.57961
 Alpha virt. eigenvalues --    2.59460   2.60051   2.61233   2.62098   2.63408
 Alpha virt. eigenvalues --    2.64316   2.64731   2.66415   2.67395   2.68987
 Alpha virt. eigenvalues --    2.70893   2.72545   2.74513   2.76950   2.80240
 Alpha virt. eigenvalues --    2.80985   2.83094   2.85149   2.85733   2.86574
 Alpha virt. eigenvalues --    2.90485   2.98769   3.01810   3.04422   3.07198
 Alpha virt. eigenvalues --    3.10265   3.14297   3.17818   3.18277   3.19885
 Alpha virt. eigenvalues --    3.23456   3.30078   3.31506   3.66506   3.67710
 Alpha virt. eigenvalues --    3.68273   3.68651   3.69455   3.70004   3.70718
 Alpha virt. eigenvalues --    3.71082   3.71887   3.71990   3.74361   3.75227
 Alpha virt. eigenvalues --    3.75627   3.76821   3.78914   3.83739   3.93167
 Alpha virt. eigenvalues --    3.97239   4.02355   4.03372   4.12758   4.14103
 Alpha virt. eigenvalues --    4.24183   4.26016   4.86317   4.89011   5.17341
 Alpha virt. eigenvalues --    5.22611   5.44535   5.60728  23.41917  23.45260
 Alpha virt. eigenvalues --   23.52915  23.54798  23.55375  23.56920  23.60987
 Alpha virt. eigenvalues --   23.63375  23.63755  23.65812  49.43726  49.51116
          Condensed to atoms (all electrons):
               1          2          3          4          5          6
     1  H    0.599953   0.359200  -0.030254  -0.027011  -0.031069   0.007659
     2  C    0.359200   4.906115   0.363919   0.393811   0.396656  -0.034238
     3  C   -0.030254   0.363919   4.950273  -0.029761  -0.036776   0.395363
     4  H   -0.027011   0.393811  -0.029761   0.600426  -0.032253  -0.006720
     5  H   -0.031069   0.396656  -0.036776  -0.032253   0.608648  -0.006579
     6  H    0.007659  -0.034238   0.395363  -0.006720  -0.006579   0.609591
     7  H   -0.008342  -0.037146   0.394532  -0.005464   0.009156  -0.032187
     8  C   -0.005420  -0.051406   0.355376   0.007635  -0.006835  -0.038774
     9  C   -0.000126   0.007082  -0.050389  -0.000356   0.000077  -0.007192
    10  H   -0.000152  -0.009713  -0.053054  -0.000271   0.006430  -0.000499
    11  H    0.000071  -0.000275  -0.012045  -0.000023   0.000041   0.000364
    12  H    0.000039  -0.000445   0.008967   0.000029  -0.000004   0.000163
    13  O   -0.001816   0.002528  -0.051040  -0.000019  -0.000248   0.004389
    14  H   -0.000624  -0.000246   0.010687   0.000064  -0.000046  -0.000875
    15  C    0.000056  -0.000241  -0.007285  -0.000007  -0.000051   0.001628
    16  H    0.000000   0.000015  -0.000010  -0.000002  -0.000005   0.000077
    17  H    0.000011  -0.000103  -0.001073  -0.000000  -0.000004   0.000484
    18  H   -0.000007  -0.000221   0.002181   0.000036   0.000053   0.002624
    19  H    0.000943  -0.000292  -0.000169  -0.000038  -0.000011   0.000045
    20  C   -0.001815  -0.000831  -0.000817   0.000073   0.000077   0.000024
    21  C   -0.001679   0.000256   0.000017  -0.000002  -0.000002  -0.000006
    22  H    0.001737   0.000353  -0.002385   0.000305   0.000021   0.000206
    23  H    0.000021   0.000030   0.000034  -0.000005  -0.000002  -0.000004
    24  H    0.000187  -0.000023   0.000000  -0.000000  -0.000000   0.000000
    25  H    0.001589  -0.000216  -0.000001  -0.000008  -0.000010  -0.000000
    26  C   -0.002178   0.000326   0.000110   0.000001   0.000017   0.000001
    27  C    0.000128  -0.000016   0.000001   0.000001  -0.000001  -0.000000
    28  H    0.002002  -0.000303   0.000046  -0.000004  -0.000009  -0.000002
    29  H    0.000431  -0.000041   0.000000  -0.000001  -0.000001  -0.000000
    30  H   -0.000201   0.000018  -0.000000   0.000000   0.000001  -0.000000
    31  O    0.041900  -0.010676   0.000244  -0.000072  -0.000187  -0.000008
    32  H   -0.021002   0.008363  -0.003837   0.000127   0.000329   0.000001
    33  C   -0.000001   0.000000   0.000000  -0.000000  -0.000000  -0.000000
    34  H    0.000002  -0.000000  -0.000000  -0.000000  -0.000000   0.000000
    35  H   -0.000000  -0.000000  -0.000000   0.000000   0.000000  -0.000000
    36  H    0.000001  -0.000000   0.000000   0.000000  -0.000000  -0.000000
               7          8          9         10         11         12
     1  H   -0.008342  -0.005420  -0.000126  -0.000152   0.000071   0.000039
     2  C   -0.037146  -0.051406   0.007082  -0.009713  -0.000275  -0.000445
     3  C    0.394532   0.355376  -0.050389  -0.053054  -0.012045   0.008967
     4  H   -0.005464   0.007635  -0.000356  -0.000271  -0.000023   0.000029
     5  H    0.009156  -0.006835   0.000077   0.006430   0.000041  -0.000004
     6  H   -0.032187  -0.038774  -0.007192  -0.000499   0.000364   0.000163
     7  H    0.593912  -0.039950  -0.007443   0.010440   0.006612  -0.000408
     8  C   -0.039950   4.916624   0.377858   0.382279  -0.040426  -0.035910
     9  C   -0.007443   0.377858   4.959772  -0.052887   0.391791   0.389366
    10  H    0.010440   0.382279  -0.052887   0.644741   0.011537  -0.009068
    11  H    0.006612  -0.040426   0.391791   0.011537   0.600720  -0.040699
    12  H   -0.000408  -0.035910   0.389366  -0.009068  -0.040699   0.632956
    13  O    0.000285   0.228682  -0.028418  -0.028846   0.007158  -0.003569
    14  H   -0.000040  -0.030302  -0.006913  -0.006231  -0.001158   0.008760
    15  C    0.000289  -0.052335   0.325589   0.000634  -0.030097  -0.033684
    16  H   -0.000112   0.006749  -0.021642  -0.000353  -0.004576  -0.008746
    17  H    0.000111  -0.006031  -0.039585   0.007711   0.009198  -0.006211
    18  H    0.000272  -0.005918  -0.034168  -0.000961  -0.008396   0.009179
    19  H    0.000696  -0.000795   0.000036   0.000160   0.000611  -0.000026
    20  C    0.001148  -0.000106  -0.000003   0.000006  -0.000021  -0.000001
    21  C   -0.000041   0.000033  -0.000004  -0.000013  -0.000011   0.000001
    22  H   -0.000010  -0.000533   0.000035  -0.000074  -0.000073   0.000003
    23  H    0.000196   0.000004   0.000000   0.000004   0.000009  -0.000000
    24  H   -0.000016   0.000002   0.000000  -0.000001  -0.000001   0.000000
    25  H   -0.000008   0.000003  -0.000000  -0.000002  -0.000000   0.000000
    26  C    0.000062   0.000039  -0.000001   0.000051   0.000010  -0.000002
    27  C   -0.000003   0.000001   0.000000  -0.000001  -0.000000   0.000000
    28  H   -0.000006  -0.000157   0.000013   0.000005   0.000005   0.000000
    29  H   -0.000000  -0.000000   0.000000  -0.000000  -0.000000   0.000000
    30  H    0.000001  -0.000003  -0.000000   0.000002   0.000000  -0.000000
    31  O   -0.000247   0.000210  -0.000012   0.000051   0.000002   0.000002
    32  H   -0.000121  -0.001272   0.000866  -0.001507  -0.000232  -0.000180
    33  C    0.000000  -0.000000  -0.000000   0.000000   0.000000   0.000000
    34  H   -0.000000   0.000000  -0.000000  -0.000000  -0.000000   0.000000
    35  H    0.000000  -0.000000   0.000000   0.000000   0.000000  -0.000000
    36  H   -0.000000  -0.000000   0.000000   0.000000   0.000000   0.000000
              13         14         15         16         17         18
     1  H   -0.001816  -0.000624   0.000056   0.000000   0.000011  -0.000007
     2  C    0.002528  -0.000246  -0.000241   0.000015  -0.000103  -0.000221
     3  C   -0.051040   0.010687  -0.007285  -0.000010  -0.001073   0.002181
     4  H   -0.000019   0.000064  -0.000007  -0.000002  -0.000000   0.000036
     5  H   -0.000248  -0.000046  -0.000051  -0.000005  -0.000004   0.000053
     6  H    0.004389  -0.000875   0.001628   0.000077   0.000484   0.002624
     7  H    0.000285  -0.000040   0.000289  -0.000112   0.000111   0.000272
     8  C    0.228682  -0.030302  -0.052335   0.006749  -0.006031  -0.005918
     9  C   -0.028418  -0.006913   0.325589  -0.021642  -0.039585  -0.034168
    10  H   -0.028846  -0.006231   0.000634  -0.000353   0.007711  -0.000961
    11  H    0.007158  -0.001158  -0.030097  -0.004576   0.009198  -0.008396
    12  H   -0.003569   0.008760  -0.033684  -0.008746  -0.006211   0.009179
    13  O    7.933803   0.287889   0.004329  -0.000187   0.000030  -0.000079
    14  H    0.287889   0.497884  -0.000089  -0.000070   0.000009   0.000067
    15  C    0.004329  -0.000089   4.891638   0.390363   0.399384   0.401744
    16  H   -0.000187  -0.000070   0.390363   0.589882  -0.030852  -0.029715
    17  H    0.000030   0.000009   0.399384  -0.030852   0.599882  -0.034107
    18  H   -0.000079   0.000067   0.401744  -0.029715  -0.034107   0.589916
    19  H    0.009083  -0.000128   0.000015  -0.000001   0.000001  -0.000001
    20  C    0.000738   0.000115   0.000000  -0.000000  -0.000000  -0.000000
    21  C   -0.001715   0.000033  -0.000000  -0.000000  -0.000000   0.000000
    22  H   -0.000687   0.000061   0.000002   0.000000  -0.000000  -0.000001
    23  H    0.000191  -0.000028   0.000000   0.000000   0.000000   0.000000
    24  H   -0.000042  -0.000004  -0.000000   0.000000  -0.000000  -0.000000
    25  H   -0.000028   0.000006  -0.000000  -0.000000  -0.000000   0.000000
    26  C    0.000485   0.001105   0.000000  -0.000000   0.000000  -0.000000
    27  C    0.000011  -0.000024   0.000000  -0.000000  -0.000000  -0.000000
    28  H    0.002182  -0.000104  -0.000000   0.000000   0.000000  -0.000000
    29  H    0.000004  -0.000003  -0.000000   0.000000  -0.000000   0.000000
    30  H   -0.000024   0.000014  -0.000000  -0.000000  -0.000000   0.000000
    31  O   -0.013917   0.001555   0.000000  -0.000000   0.000000  -0.000000
    32  H    0.053024  -0.005568  -0.000102   0.000005  -0.000012   0.000002
    33  C    0.000001  -0.000003  -0.000000   0.000000  -0.000000   0.000000
    34  H   -0.000001  -0.000001   0.000000  -0.000000  -0.000000   0.000000
    35  H    0.000000   0.000000  -0.000000   0.000000   0.000000  -0.000000
    36  H   -0.000000   0.000000   0.000000  -0.000000   0.000000  -0.000000
              19         20         21         22         23         24
     1  H    0.000943  -0.001815  -0.001679   0.001737   0.000021   0.000187
     2  C   -0.000292  -0.000831   0.000256   0.000353   0.000030  -0.000023
     3  C   -0.000169  -0.000817   0.000017  -0.002385   0.000034   0.000000
     4  H   -0.000038   0.000073  -0.000002   0.000305  -0.000005  -0.000000
     5  H   -0.000011   0.000077  -0.000002   0.000021  -0.000002  -0.000000
     6  H    0.000045   0.000024  -0.000006   0.000206  -0.000004   0.000000
     7  H    0.000696   0.001148  -0.000041  -0.000010   0.000196  -0.000016
     8  C   -0.000795  -0.000106   0.000033  -0.000533   0.000004   0.000002
     9  C    0.000036  -0.000003  -0.000004   0.000035   0.000000   0.000000
    10  H    0.000160   0.000006  -0.000013  -0.000074   0.000004  -0.000001
    11  H    0.000611  -0.000021  -0.000011  -0.000073   0.000009  -0.000001
    12  H   -0.000026  -0.000001   0.000001   0.000003  -0.000000   0.000000
    13  O    0.009083   0.000738  -0.001715  -0.000687   0.000191  -0.000042
    14  H   -0.000128   0.000115   0.000033   0.000061  -0.000028  -0.000004
    15  C    0.000015   0.000000  -0.000000   0.000002   0.000000  -0.000000
    16  H   -0.000001  -0.000000  -0.000000   0.000000   0.000000   0.000000
    17  H    0.000001  -0.000000  -0.000000  -0.000000   0.000000  -0.000000
    18  H   -0.000001  -0.000000   0.000000  -0.000001   0.000000  -0.000000
    19  H    0.608987   0.395073  -0.038386  -0.038419  -0.030327  -0.006039
    20  C    0.395073   4.882182   0.334706   0.405608   0.389592  -0.030072
    21  C   -0.038386   0.334706   5.103905  -0.042852  -0.030305   0.359123
    22  H   -0.038419   0.405608  -0.042852   0.592805  -0.031015   0.010860
    23  H   -0.030327   0.389592  -0.030305  -0.031015   0.612991  -0.007081
    24  H   -0.006039  -0.030072   0.359123   0.010860  -0.007081   0.642215
    25  H    0.009334  -0.038756   0.391311  -0.010816  -0.003920  -0.036573
    26  C   -0.004011  -0.037436   0.300360  -0.002866   0.007697  -0.024734
    27  C    0.000177   0.008640  -0.068531   0.000223  -0.000336  -0.003817
    28  H    0.007154  -0.008379  -0.074714  -0.001003  -0.000200  -0.000686
    29  H    0.000072  -0.000282  -0.015447  -0.000026  -0.000016   0.000857
    30  H   -0.000011  -0.000652   0.013203  -0.000103   0.000027  -0.000982
    31  O   -0.000460   0.007678  -0.066932   0.006018   0.000327   0.005218
    32  H   -0.003351  -0.001140   0.015662  -0.002047   0.000070  -0.001766
    33  C   -0.000058  -0.000372   0.000044  -0.000024  -0.000004  -0.000449
    34  H    0.000003  -0.000095  -0.001920   0.000004   0.000000   0.001100
    35  H    0.000033  -0.000136   0.002820  -0.000016   0.000040   0.000040
    36  H   -0.000001   0.000018  -0.000318   0.000004  -0.000002   0.000337
              25         26         27         28         29         30
     1  H    0.001589  -0.002178   0.000128   0.002002   0.000431  -0.000201
     2  C   -0.000216   0.000326  -0.000016  -0.000303  -0.000041   0.000018
     3  C   -0.000001   0.000110   0.000001   0.000046   0.000000  -0.000000
     4  H   -0.000008   0.000001   0.000001  -0.000004  -0.000001   0.000000
     5  H   -0.000010   0.000017  -0.000001  -0.000009  -0.000001   0.000001
     6  H   -0.000000   0.000001  -0.000000  -0.000002  -0.000000  -0.000000
     7  H   -0.000008   0.000062  -0.000003  -0.000006  -0.000000   0.000001
     8  C    0.000003   0.000039   0.000001  -0.000157  -0.000000  -0.000003
     9  C   -0.000000  -0.000001   0.000000   0.000013   0.000000  -0.000000
    10  H   -0.000002   0.000051  -0.000001   0.000005  -0.000000   0.000002
    11  H   -0.000000   0.000010  -0.000000   0.000005  -0.000000   0.000000
    12  H    0.000000  -0.000002   0.000000   0.000000   0.000000  -0.000000
    13  O   -0.000028   0.000485   0.000011   0.002182   0.000004  -0.000024
    14  H    0.000006   0.001105  -0.000024  -0.000104  -0.000003   0.000014
    15  C   -0.000000   0.000000   0.000000  -0.000000  -0.000000  -0.000000
    16  H   -0.000000  -0.000000  -0.000000   0.000000   0.000000  -0.000000
    17  H   -0.000000   0.000000  -0.000000   0.000000  -0.000000  -0.000000
    18  H    0.000000  -0.000000  -0.000000  -0.000000   0.000000   0.000000
    19  H    0.009334  -0.004011   0.000177   0.007154   0.000072  -0.000011
    20  C   -0.038756  -0.037436   0.008640  -0.008379  -0.000282  -0.000652
    21  C    0.391311   0.300360  -0.068531  -0.074714  -0.015447   0.013203
    22  H   -0.010816  -0.002866   0.000223  -0.001003  -0.000026  -0.000103
    23  H   -0.003920   0.007697  -0.000336  -0.000200  -0.000016   0.000027
    24  H   -0.036573  -0.024734  -0.003817  -0.000686   0.000857  -0.000982
    25  H    0.620238  -0.042250  -0.007721   0.012711   0.008272  -0.000336
    26  C   -0.042250   4.912327   0.386444   0.377538  -0.038446  -0.036436
    27  C   -0.007721   0.386444   4.958593  -0.042440   0.392005   0.386790
    28  H    0.012711   0.377538  -0.042440   0.700894   0.013202  -0.012452
    29  H    0.008272  -0.038446   0.392005   0.013202   0.614723  -0.039283
    30  H   -0.000336  -0.036436   0.386790  -0.012452  -0.039283   0.616125
    31  O    0.003557   0.275309  -0.051656  -0.032339   0.005364   0.009674
    32  H   -0.001742  -0.039606   0.002428  -0.021147  -0.001602   0.002121
    33  C   -0.000291  -0.050656   0.325060  -0.001638  -0.036859  -0.032206
    34  H    0.000257  -0.005527  -0.037703   0.007369   0.009606  -0.006181
    35  H    0.000785  -0.006173  -0.032729  -0.000754  -0.008521   0.008944
    36  H   -0.000163   0.007120  -0.025089  -0.000252  -0.004322  -0.009081
              31         32         33         34         35         36
     1  H    0.041900  -0.021002  -0.000001   0.000002  -0.000000   0.000001
     2  C   -0.010676   0.008363   0.000000  -0.000000  -0.000000  -0.000000
     3  C    0.000244  -0.003837   0.000000  -0.000000  -0.000000   0.000000
     4  H   -0.000072   0.000127  -0.000000  -0.000000   0.000000   0.000000
     5  H   -0.000187   0.000329  -0.000000  -0.000000   0.000000  -0.000000
     6  H   -0.000008   0.000001  -0.000000   0.000000  -0.000000  -0.000000
     7  H   -0.000247  -0.000121   0.000000  -0.000000   0.000000  -0.000000
     8  C    0.000210  -0.001272  -0.000000   0.000000  -0.000000  -0.000000
     9  C   -0.000012   0.000866  -0.000000  -0.000000   0.000000   0.000000
    10  H    0.000051  -0.001507   0.000000  -0.000000   0.000000   0.000000
    11  H    0.000002  -0.000232   0.000000  -0.000000   0.000000   0.000000
    12  H    0.000002  -0.000180   0.000000   0.000000  -0.000000   0.000000
    13  O   -0.013917   0.053024   0.000001  -0.000001   0.000000  -0.000000
    14  H    0.001555  -0.005568  -0.000003  -0.000001   0.000000   0.000000
    15  C    0.000000  -0.000102  -0.000000   0.000000  -0.000000   0.000000
    16  H   -0.000000   0.000005   0.000000  -0.000000   0.000000  -0.000000
    17  H    0.000000  -0.000012  -0.000000  -0.000000   0.000000   0.000000
    18  H   -0.000000   0.000002   0.000000   0.000000  -0.000000  -0.000000
    19  H   -0.000460  -0.003351  -0.000058   0.000003   0.000033  -0.000001
    20  C    0.007678  -0.001140  -0.000372  -0.000095  -0.000136   0.000018
    21  C   -0.066932   0.015662   0.000044  -0.001920   0.002820  -0.000318
    22  H    0.006018  -0.002047  -0.000024   0.000004  -0.000016   0.000004
    23  H    0.000327   0.000070  -0.000004   0.000000   0.000040  -0.000002
    24  H    0.005218  -0.001766  -0.000449   0.001100   0.000040   0.000337
    25  H    0.003557  -0.001742  -0.000291   0.000257   0.000785  -0.000163
    26  C    0.275309  -0.039606  -0.050656  -0.005527  -0.006173   0.007120
    27  C   -0.051656   0.002428   0.325060  -0.037703  -0.032729  -0.025089
    28  H   -0.032339  -0.021147  -0.001638   0.007369  -0.000754  -0.000252
    29  H    0.005364  -0.001602  -0.036859   0.009606  -0.008521  -0.004322
    30  H    0.009674   0.002121  -0.032206  -0.006181   0.008944  -0.009081
    31  O    7.909303   0.302723   0.003860  -0.000091  -0.000075  -0.000185
    32  H    0.302723   0.464366  -0.000068  -0.000069   0.000008   0.000002
    33  C    0.003860  -0.000068   4.904634   0.394537   0.398490   0.392564
    34  H   -0.000091  -0.000069   0.394537   0.613595  -0.036179  -0.031815
    35  H   -0.000075   0.000008   0.398490  -0.036179   0.602895  -0.031463
    36  H   -0.000185   0.000002   0.392564  -0.031815  -0.031463   0.601044
 Mulliken charges:
               1
     1  H    0.115765
     2  C   -0.292242
     3  C   -0.202854
     4  H    0.099509
     5  H    0.092585
     6  H    0.104463
     7  H    0.113830
     8  C    0.040677
     9  C   -0.203345
    10  H    0.099584
    11  H    0.109907
    12  H    0.089487
    13  O   -0.404177
    14  H    0.244208
    15  C   -0.291779
    16  H    0.109179
    17  H    0.101158
    18  H    0.107499
    19  H    0.090096
    20  C   -0.304765
    21  C   -0.178596
    22  H    0.114705
    23  H    0.092010
    24  H    0.092345
    25  H    0.094775
    26  C    0.021320
    27  C   -0.190436
    28  H    0.073468
    29  H    0.100314
    30  H    0.101030
    31  O   -0.396138
    32  H    0.256278
    33  C   -0.296558
    34  H    0.093108
    35  H    0.101988
    36  H    0.101602
 Sum of Mulliken charges =  -0.00000
 Mulliken charges with hydrogens summed into heavy atoms:
               1
     2  C    0.015616
     3  C    0.015439
     8  C    0.140262
     9  C   -0.003952
    13  O   -0.159969
    15  C    0.026057
    20  C   -0.007953
    21  C    0.008524
    26  C    0.094788
    27  C    0.010908
    31  O   -0.139860
    33  C    0.000140
 APT charges:
               1
     1  H    0.023878
     2  C    0.073389
     3  C    0.064616
     4  H   -0.033871
     5  H   -0.032569
     6  H   -0.030334
     7  H   -0.022135
     8  C    0.520500
     9  C    0.061424
    10  H   -0.095939
    11  H   -0.032397
    12  H   -0.063516
    13  O   -0.660767
    14  H    0.212392
    15  C    0.072881
    16  H   -0.030019
    17  H   -0.022033
    18  H   -0.015348
    19  H   -0.017262
    20  C    0.083394
    21  C    0.056121
    22  H   -0.021839
    23  H   -0.046930
    24  H   -0.050138
    25  H   -0.043143
    26  C    0.526397
    27  C    0.088830
    28  H   -0.109196
    29  H   -0.040334
    30  H   -0.047465
    31  O   -0.760445
    32  H    0.401803
    33  C    0.081818
    34  H   -0.030337
    35  H   -0.022496
    36  H   -0.038931
 Sum of APT charges =   0.00000
 APT charges with hydrogens summed into heavy atoms:
               1
     2  C    0.030827
     3  C    0.012147
     8  C    0.424561
     9  C   -0.034489
    13  O   -0.448374
    15  C    0.005482
    20  C   -0.002637
    21  C   -0.037160
    26  C    0.417201
    27  C    0.001031
    31  O   -0.358642
    33  C   -0.009946
 Electronic spatial extent (au):  <R**2>=           4114.2886
 Charge=             -0.0000 electrons
 Dipole moment (field-independent basis, Debye):
    X=             -2.7429    Y=             -1.7072    Z=              0.7117  Tot=              3.3082
 Quadrupole moment (field-independent basis, Debye-Ang):
   XX=            -76.7039   YY=            -77.7677   ZZ=            -84.3364
   XY=              1.1155   XZ=              2.7247   YZ=              1.7921
 Traceless Quadrupole moment (field-independent basis, Debye-Ang):
   XX=              2.8988   YY=              1.8349   ZZ=             -4.7337
   XY=              1.1155   XZ=              2.7247   YZ=              1.7921
 Octapole moment (field-independent basis, Debye-Ang**2):
  XXX=            -21.4875  YYY=            -12.6639  ZZZ=             -3.4170  XYY=             -7.1458
  XXY=             -3.8347  XXZ=             -1.9816  XZZ=             -6.2853  YZZ=             -3.1802
  YYZ=             -3.1829  XYZ=              0.4384
 Hexadecapole moment (field-independent basis, Debye-Ang**3):
 XXXX=          -4625.8922 YYYY=           -629.9008 ZZZZ=           -524.2633 XXXY=             32.8759
 XXXZ=            -31.0781 YYYX=             17.1119 YYYZ=              5.1209 ZZZX=              3.0143
 ZZZY=              3.9238 XXYY=           -874.6239 XXZZ=           -858.1719 YYZZ=           -196.6195
 XXYZ=              3.4410 YYXZ=             -3.2016 ZZXY=              3.7386
 N-N= 7.668629896005D+02 E-N=-2.806034924659D+03  KE= 5.442195636007D+02
  Exact polarizability: 160.504  -0.769 125.726  -2.066  -0.266 120.964
 Approx polarizability: 212.685  -0.673 205.287   1.409  -1.271 201.586
 No NMR shielding tensors so no spin-rotation constants.
 Leave Link  601 at Tue Feb 14 10:52:02 2023, MaxMem=   131072000 cpu:               1.3 elap:               0.2
 (Enter /dragofs/sw/campus/0.2/software/gaussian/16.gaussian/gaussian/g16_legacy/l701.exe)
 ... and contract with generalized density number  0.
 Compute integral second derivatives.
 R6Disp: Adding Grimme-D3 dispersion energy 2nd derivatives to the Hessian.
 Leave Link  701 at Tue Feb 14 10:52:02 2023, MaxMem=   131072000 cpu:               1.6 elap:               0.2
 (Enter /dragofs/sw/campus/0.2/software/gaussian/16.gaussian/gaussian/g16_legacy/l702.exe)
 L702 exits ... SP integral derivatives will be done elsewhere.
 Leave Link  702 at Tue Feb 14 10:52:03 2023, MaxMem=   131072000 cpu:               0.1 elap:               0.0
 (Enter /dragofs/sw/campus/0.2/software/gaussian/16.gaussian/gaussian/g16_legacy/l703.exe)
 Integral derivatives from FoFJK, PRISM(SPDF).
 Compute integral second derivatives, UseDBF=F ICtDFT=           0.
 Calling FoFJK, ICntrl=    100527 FMM=F ISym2X=0 I1Cent= 0 IOpClX= 0 NMat=1 NMatS=1 NMatT=0.
 FoFJK:  IHMeth= 1 ICntrl=  100527 DoSepK=F KAlg= 0 I1Cent=           0 FoldK=F
 IRaf=         0 NMat=       1 IRICut=       1 DoRegI=T DoRafI=F ISym2E= 0 IDoP0=0 IntGTp=1.
 FoFCou: FMM=F IPFlag=           0 FMFlag=      100000 FMFlg1=         800
         NFxFlg=           0 DoJE=F BraDBF=F KetDBF=F FulRan=T
         wScrn=  0.000000 ICntrl=    100527 IOpCl=  0 I1Cent=           0 NGrid=           0
         NMat0=    1 NMatS0=      1 NMatT0=    0 NMatD0=    1 NMtDS0=    0 NMtDT0=    0
 Symmetry not used in FoFCou.
 Leave Link  703 at Tue Feb 14 10:55:31 2023, MaxMem=   131072000 cpu:            1659.3 elap:             208.2
 (Enter /dragofs/sw/campus/0.2/software/gaussian/16.gaussian/gaussian/g16_legacy/l716.exe)
 Dipole        =-1.07912979D+00-6.71646132D-01 2.80017096D-01
 Polarizability= 1.60504451D+02-7.69366406D-01 1.25726473D+02
                -2.06589918D+00-2.65984541D-01 1.20963527D+02
 Full mass-weighted force constant matrix:
 Low frequencies ---   -0.0004   -0.0003    0.0005    2.6623    4.3508    6.4149
 Low frequencies ---   16.7431   27.1303   45.1095
 Diagonal vibrational polarizability:
       40.7489612      37.9248615      26.1226843
 Harmonic frequencies (cm**-1), IR intensities (KM/Mole), Raman scattering
 activities (A**4/AMU), depolarization ratios for plane and unpolarized
 incident light, reduced masses (AMU), force constants (mDyne/A),
 and normal coordinates:
                      1                      2                      3
                      A                      A                      A
 Frequencies --     16.7262                27.0945                45.0920
 Red. masses --      3.2786                 3.3466                 2.8364
 Frc consts  --      0.0005                 0.0014                 0.0034
 IR Inten    --      0.3866                 0.0145                 0.4884
  Atom  AN      X      Y      Z        X      Y      Z        X      Y      Z
     1   1     0.05  -0.08   0.05     0.03  -0.05  -0.10     0.02  -0.08   0.02
     2   6     0.06  -0.04  -0.00     0.03  -0.05  -0.12     0.04   0.01   0.15
     3   6    -0.01   0.01  -0.02     0.02   0.01  -0.09     0.06  -0.04   0.12
     4   1     0.08  -0.03  -0.03     0.04  -0.03  -0.18     0.15  -0.01   0.28
     5   1     0.10  -0.06  -0.02     0.04  -0.10  -0.12    -0.06   0.17   0.17
     6   1     0.00   0.03  -0.09     0.03   0.04  -0.09     0.08   0.02   0.22
     7   1    -0.06   0.04  -0.00     0.03   0.03  -0.09     0.13  -0.15   0.11
     8   6    -0.02  -0.01   0.04    -0.04  -0.00  -0.04    -0.03  -0.01  -0.02
     9   6    -0.11   0.05  -0.01     0.01   0.05   0.06    -0.04  -0.04  -0.07
    10   1     0.07  -0.04   0.02    -0.12  -0.03  -0.02    -0.06   0.11  -0.03
    11   1    -0.20   0.10  -0.00     0.12   0.05   0.04     0.01  -0.17  -0.06
    12   1    -0.11   0.04   0.05    -0.06   0.04   0.05    -0.12  -0.03  -0.19
    13   8    -0.05  -0.03   0.17    -0.03  -0.03  -0.13    -0.04  -0.10  -0.10
    14   1    -0.06  -0.04   0.23    -0.07  -0.03  -0.12    -0.09  -0.07  -0.22
    15   6    -0.07   0.06  -0.17    -0.01   0.11   0.21    -0.04   0.09   0.03
    16   1    -0.14   0.11  -0.19     0.02   0.13   0.26    -0.06   0.06  -0.03
    17   1     0.02   0.01  -0.18    -0.12   0.13   0.23    -0.09   0.24   0.02
    18   1    -0.08   0.08  -0.24     0.06   0.12   0.24     0.04   0.08   0.17
    19   1     0.19  -0.13   0.16    -0.04  -0.23  -0.03    -0.02   0.11  -0.05
    20   6     0.06  -0.09   0.07    -0.09  -0.19   0.03    -0.02   0.10  -0.09
    21   6     0.03   0.02  -0.02    -0.06  -0.08   0.05    -0.01   0.07  -0.06
    22   1    -0.04  -0.20   0.10    -0.10  -0.20   0.03    -0.01   0.07  -0.12
    23   1     0.07  -0.03   0.03    -0.14  -0.23   0.06    -0.04   0.14  -0.11
    24   1     0.12   0.11  -0.06    -0.05  -0.08   0.05    -0.01   0.13  -0.03
[...]
 6558,-0.00094859,0.00032640,0.00076039,-0.00057651,0.00024678,0.001500
 71,-0.00179365,-0.00760401,-0.00067989,0.00025886,0.00271818,0.0058004
 2,-0.01900197,-0.06194795,-0.00794762,0.00917047,0.00338641,-0.0066424
 2,0.00507186,0.00518095,-0.00013854,-0.00008879,0.00017135,0.00030010,
 0.00166187,0.00220590,0.01476061,0.05876207,0.06948841,0.00105503,0.00
 044780,-0.00042926,-0.00042199,0.00044611,0.00020067,0.00008658,0.0001
 2942,-0.00084911,0.00010844,-0.00036078,0.00024912,-0.00011118,0.00003
 740,-0.00005478,0.00004766,-0.00039434,0.00040865,-0.00002464,0.000086
 06,0.00004156,-0.00760811,0.00648571,-0.00317562,0.00187814,-0.0015988
 5,0.00028229,0.00099501,-0.00073156,-0.00007267,-0.00012200,0.00006885
 ,0.00005146,-0.00024428,-0.00021306,0.00009134,0.00200800,-0.00141392,
 0.00171654,0.00225731,-0.00126400,0.00116032,0.00030749,0.00088188,0.0
 0012658,0.00046135,-0.00004450,0.00004117,-0.00003296,-0.00008452,-0.0
 0003845,0.00008383,-0.00011792,0.00008695,0.00014885,-0.00056584,0.000
 08135,0.00054985,0.00044773,0.00017696,0.00014922,-0.00079054,0.000857
 29,0.00051926,0.00026223,0.00004217,-0.00019553,-0.00025832,-0.0002287
 8,0.00027175,-0.00047830,-0.00099946,-0.00015496,0.00020714,-0.0001677
 5,-0.02531922,-0.00260204,-0.00112546,-0.00127185,0.00263523,0.0005450
 4,0.00275295,-0.00287182,-0.00062077,0.00024785,0.00014387,0.00009749,
 -0.00010069,0.00006612,-0.00002982,-0.37564876,-0.11704474,-0.02750176
 ,0.39715385,-0.00008316,-0.00125322,0.00194046,0.00158602,0.00008503,-
 0.00021772,0.00046930,0.00061308,0.00000372,-0.00082685,0.00012133,-0.
 00035339,-0.00013647,-0.00001340,0.00000597,-0.00024003,-0.00037462,0.
 00012375,-0.00011500,-0.00014826,-0.00009759,-0.00155122,0.00489980,-0
 .00206943,0.00114554,-0.00104212,0.00020169,0.00082796,-0.00042151,-0.
 00010564,-0.00008789,0.00000537,-0.00000918,-0.00017724,-0.00017270,0.
 00008307,0.00259435,-0.00836068,0.00286959,-0.00141743,-0.00099109,0.0
 0029338,0.00016244,0.00046959,0.00005750,0.00020187,-0.00006405,0.0000
 4361,-0.00000175,-0.00001817,-0.00002926,0.00008305,-0.00004828,0.0000
 7596,-0.00008915,-0.00074425,-0.00022675,0.00004943,0.00073851,-0.0005
 6510,0.00112764,-0.00105027,-0.00012526,0.00013244,0.00012505,-0.00021
 309,-0.00023062,-0.00025655,0.00019326,0.00004933,-0.00024426,-0.00043
 801,-0.00016148,-0.00005055,0.00012689,0.03434349,0.00787799,0.0026177
 0,0.00305225,-0.00512172,-0.00146617,0.00064545,-0.00011976,0.00064003
 ,0.00007140,0.00021353,-0.00031772,-0.00021799,-0.00011549,0.00005322,
 -0.16195971,-0.09940543,-0.02262576,0.11887513,0.10434497,-0.00009455,
 0.00221166,-0.00076498,-0.00113694,0.00008387,-0.00016170,-0.00060225,
 -0.00011710,0.00005105,0.00036547,-0.00020430,0.00004897,0.00057540,-0
 .00037373,0.00001690,0.00024430,0.00011189,-0.00011629,-0.00006058,-0.
 00002907,-0.00017369,0.00084255,-0.00123879,0.00016993,-0.00028735,0.0
 0017034,-0.00012182,0.00022367,-0.00001687,-0.00003712,0.00000773,-0.0
 0003906,-0.00001093,0.00006498,0.00006625,-0.00005569,-0.00435346,0.00
 000521,-0.00590949,0.00417189,0.00266856,0.00036136,-0.00003823,-0.000
 08433,0.00007154,-0.00003555,0.00003237,-0.00001626,0.00000105,-0.0000
 1135,-0.00000164,-0.00004298,0.00001363,-0.00004900,0.00003305,-0.0003
 1789,-0.00018685,0.00072044,-0.00116617,-0.00016608,0.00290312,-0.0008
 9564,-0.00020318,-0.00048780,0.00035557,-0.00202437,-0.00051853,0.0005
 4736,0.00029584,-0.00041147,-0.00035229,-0.00038197,-0.00019538,-0.000
 01666,0.00003008,0.00700637,0.00421208,-0.00195395,-0.00145498,0.00080
 459,-0.00032322,-0.00038609,-0.00119908,0.00077943,0.00000137,-0.00005
 187,-0.00014647,-0.00005903,-0.00002756,0.00021963,-0.03557469,-0.0238
 5245,-0.01169333,0.02930198,0.01869388,0.02225927,-0.00000553,-0.00007
 128,0.00003921,0.00004270,0.00002187,-0.00001826,0.00000781,0.00000481
 ,0.00000015,-0.00002709,0.00001006,-0.00001679,-0.00002126,0.00000945,
 0.00000659,-0.00001421,0.00000019,-0.00000150,0.00001238,0.00000399,0.
 00000903,0.00008929,-0.00006384,0.00001824,-0.00002216,0.00002384,-0.0
 0000613,-0.00001061,0.00000841,0.00000579,0.00000173,0.00000147,-0.000
 00146,-0.00000049,-0.00000198,0.00000568,-0.00022503,-0.00012847,-0.00
 000851,-0.00005065,0.00002589,-0.00000739,-0.00000580,-0.00001470,-0.0
 0000261,-0.00000966,-0.00000131,-0.00000012,0.00000088,0.00000258,0.00
 000074,0.00000255,0.00000071,0.00000133,-0.00004539,-0.00002637,0.0000
 1647,-0.00008279,0.00055199,0.00062398,0.00003201,-0.00146904,-0.00096
 797,-0.00019237,-0.00006939,-0.00003834,0.00013902,-0.00001753,0.00006
 921,-0.00099106,0.00115374,-0.00061691,0.00013176,0.00013279,-0.000141
 17,-0.01890718,0.01897485,0.00128341,-0.11850420,0.04583899,0.00438877
 ,0.00062994,0.00036593,0.00056058,0.00754966,-0.00633741,-0.00074105,-
 0.00758000,0.00681176,0.00018493,-0.00536258,-0.00067489,-0.00145430,0
 .00007926,0.00151641,-0.00063749,0.48245164,0.00001408,-0.00006391,0.0
 0005227,0.00003842,0.00001371,-0.00001730,0.00000566,0.00001171,-0.000
 00278,-0.00002745,0.00000960,-0.00002091,-0.00001538,0.00000544,0.0000
 0776,-0.00002050,0.00000159,-0.00000353,0.00001465,0.00000008,0.000008
 34,0.00013221,-0.00007083,0.00004087,-0.00002642,0.00003061,-0.0000101
 9,-0.00001616,0.00001054,0.00000388,0.00000250,0.00000102,-0.00000443,
 -0.00000113,-0.00000341,0.00001064,-0.00028967,-0.00011469,-0.00005992
 ,-0.00000740,0.00005741,0.00000166,-0.00000889,-0.00002055,-0.00000276
 ,-0.00001579,-0.00000337,-0.00000026,0.00000258,0.00000354,-0.00000002
 ,0.00000450,0.00000150,0.00000245,-0.00002617,-0.00003366,0.00004106,0
 .00016313,0.00011155,-0.00030545,-0.00062497,-0.00015438,-0.00008253,-
 0.00003736,0.00000430,0.00003139,-0.00010193,-0.00002591,-0.00010819,-
 0.00024162,0.00021083,-0.00029004,0.00004669,0.00007294,-0.00007414,0.
 00153027,0.00518000,0.00429320,0.04522581,-0.12287921,-0.00545889,-0.0
 0144839,0.00036509,-0.00030174,0.02133226,-0.01949644,-0.00255735,0.00
 457425,-0.00493009,-0.00011117,-0.00398687,0.00096084,-0.00099466,-0.0
 0040670,0.00096538,-0.00016708,0.05120419,0.47446819,0.00000218,-0.000
 02301,0.00004342,0.00002811,-0.00000028,-0.00002100,-0.00000495,0.0000
 2072,0.00001707,-0.00002099,0.00001651,-0.00001540,-0.00000704,0.00000
 262,0.00000187,-0.00000875,-0.00000090,-0.00000939,0.00000078,-0.00000
 855,-0.00000098,0.00011334,-0.00010257,0.00003941,-0.00003130,0.000024
 88,0.00000259,-0.00001897,0.00001593,0.00000062,0.00000256,-0.00000179
 ,0.00000114,0.00000318,0.00000201,-0.00000552,-0.00030370,-0.00005743,
 -0.00007015,0.00001470,-0.00001082,-0.00002035,-0.00000534,-0.00001593
 ,-0.00000385,-0.00000938,-0.00000068,0.00000017,0.00000023,0.00000238,
 0.00000106,-0.00000121,0.00000377,-0.00000166,0.00007305,0.00004997,0.
 00002578,0.00022655,-0.00007559,0.00005641,-0.00044384,-0.00014361,-0.
 00057298,0.00007312,0.00002509,0.00007932,-0.00003459,0.00001859,-0.00
 004268,-0.00131465,-0.00033836,-0.00106581,0.00003422,0.00023219,0.000
 01357,-0.00651750,0.01245780,0.00176248,0.00256122,-0.00537923,-0.0760
 5525,0.00059038,-0.00007643,0.00025085,-0.00908885,0.00789143,0.000458
 38,0.02163597,-0.02171947,0.00045838,-0.00432179,-0.00016813,-0.000159
 04,-0.00024073,0.00083935,0.00030100,0.00406659,-0.00024964,0.53245044
 ,-0.00000030,0.00001363,-0.00000471,-0.00000681,-0.00000204,0.00000230
 ,0.00000270,0.00000048,0.00000232,0.00000212,-0.00000093,0.00000282,0.
 00000467,-0.00000241,-0.00000282,0.00000450,-0.00000330,0.00000137,-0.
 00000485,-0.00000188,-0.00000410,-0.00005157,0.00002067,-0.00001460,0.
 00000578,-0.00000479,0.00000071,0.00000854,-0.00000516,-0.00000256,-0.
 00000104,-0.00000092,-0.00000045,-0.00000106,0.00000017,-0.00000009,0.
 00006307,-0.00002147,0.00001571,-0.00002206,0.00000476,0.00000590,0.00
 000043,0.00000424,0.00000114,0.00000426,0.00000139,0.00000005,-0.00000
 013,-0.00000160,-0.00000052,-0.00000035,-0.00000108,-0.00000007,-0.000
 00325,0.00000174,-0.00001993,-0.00001692,-0.00005392,-0.00003806,-0.00
 001106,-0.00010209,0.00006384,0.00002478,-0.00000212,0.00001520,-0.000
 00003,-0.00000356,0.00001543,-0.00000513,-0.00007737,-0.00000424,-0.00
 000930,-0.00001580,0.00015723,0.00129089,0.00171014,-0.00078256,0.0083
 8892,0.02054151,-0.00834414,-0.00034475,-0.00042744,0.00022858,-0.0030
 3707,0.00354045,0.00001769,0.00073972,-0.00065812,0.00013514,0.0001107
 2,-0.00042171,0.00016405,-0.00005549,-0.00012801,0.00005684,-0.0759516
 3,-0.07672801,0.02857173,0.08245588,-0.00000165,-0.00000313,-0.0000003
 8,-0.00000871,0.00000669,-0.00000570,-0.00000636,-0.00000627,0.0000019
 0,-0.00000056,0.00000353,-0.00000226,-0.00000117,0.00000047,0.00000036
 ,0.00000743,0.00000232,-0.00000082,-0.00000216,0.00000162,-0.00000057,
 -0.00000239,0.00000200,0.00000009,0.00000377,-0.00000984,0.00000591,-0
 .00000052,0.00000023,0.00000007,-0.00000022,-0.00000038,0.00000313,0.0
 0000243,0.00000481,-0.00000933,0.00006059,0.00005006,0.00000458,0.0000
 2498,-0.00003135,0.00000143,0.00000355,0.00000547,0.00000033,0.0000049
 2,0.00000160,0.00000022,-0.00000151,-0.00000102,0.00000116,-0.00000347
 ,0.00000084,-0.00000311,0.00004847,0.00001989,0.00000662,-0.00004286,0
 .00003429,0.00007249,0.00035338,0.00000359,-0.00004061,-0.00000635,0.0
 0000362,-0.00000593,0.00003014,0.00000140,0.00003724,-0.00004598,0.000
 01587,0.00011073,-0.00004255,0.00010131,-0.00020154,-0.00154931,-0.000
 28396,-0.00013045,-0.00734163,-0.02099905,0.00800655,0.00120605,0.0007
 0005,0.00014160,0.00393362,-0.00191928,-0.00102267,-0.00003473,0.00022
 992,-0.00063823,0.00008135,0.00069023,-0.00023041,-0.00000911,-0.00000
 789,0.00007417,-0.07685254,-0.22787549,0.06780193,0.08187097,0.2524662
 8,-0.00000165,0.00000343,0.00000286,-0.00000211,0.00000215,-0.00000245
 ,0.00000083,0.00000318,0.00000417,0.00000056,-0.00000069,0.00000202,0.
 00000389,-0.00000316,-0.00000230,0.00000196,-0.00000196,-0.00000001,-0
 .00000323,-0.00000236,-0.00000494,-0.00002200,0.00001404,-0.00000386,0
 .00000179,0.00000025,0.00000378,0.00000577,-0.00000575,-0.00000334,-0.
 00000095,-0.00000110,-0.00000435,-0.00000112,0.00000071,0.00000182,0.0
 0001874,-0.00003016,-0.00000515,-0.00000534,0.00001375,0.00001495,-0.0
 0000102,0.00000152,0.00000014,0.00000074,0.00000046,0.00000039,0.00000
 115,-0.00000214,-0.00000137,0.00000041,-0.00000042,0.00000048,-0.00005
 637,-0.00001266,0.00000208,0.00001403,-0.00008209,0.00000227,-0.000182
 63,0.00018877,0.00001701,0.00002265,-0.00000999,0.00001350,-0.00000062
 ,0.00000626,0.00000128,0.00021093,-0.00000163,-0.00015536,0.00007402,-
 0.00020989,0.00010230,0.00032402,0.00091087,0.00017973,-0.00145766,-0.
 00160615,0.00008558,-0.00032590,-0.00010105,0.00004892,0.00021959,-0.0
 0037671,0.00103576,-0.00043102,-0.00030156,0.00024573,-0.00007683,-0.0
 0029923,-0.00010401,-0.00005907,0.00004870,-0.00001397,0.02844112,0.06
 756644,-0.07052495,-0.03152350,-0.07539555,0.07200741,0.00000683,0.000
 00152,0.00003101,-0.00000275,0.00000522,-0.00001624,-0.00000681,0.0000
 1838,0.00002255,-0.00000759,0.00000840,-0.00000345,0.00001540,-0.00001
 034,-0.00000680,0.00000607,-0.00000625,-0.00000720,-0.00001487,-0.0000
 1423,-0.00001723,-0.00000340,-0.00000831,0.00001652,-0.00000532,0.0000
 0496,0.00000789,0.00000719,-0.00000491,-0.00001019,-0.00000225,-0.0000
 0528,-0.00000526,0.00000086,0.00000387,-0.00000379,-0.00003940,-0.0000
 3153,-0.00004786,0.00002683,0.00001310,0.00001625,-0.00000193,-0.00000
 008,-0.00000006,0.00000076,0.00000135,0.00000017,0.00000181,-0.0000032
 4,-0.00000187,-0.00000186,0.00000094,-0.00000118,0.00007105,0.00006486
 ,0.00003293,0.00010998,-0.00039777,-0.00032910,-0.00097170,0.00101617,
 -0.00007316,0.00021294,-0.00001574,0.00010002,-0.00004028,0.00000806,-
 0.00001345,-0.00067659,-0.00076140,-0.00109099,-0.00001259,0.00003878,
 -0.00004485,0.00028789,0.00008312,0.00186459,-0.00752274,0.00205730,0.
 02132452,0.00006647,0.00003473,-0.00012667,0.00103432,-0.00029519,-0.0
 0055885,-0.00258510,0.00324644,-0.00045121,-0.00012377,-0.00003986,-0.
 00079462,-0.00000792,-0.00001816,-0.00001704,-0.07046943,0.00866875,0.
 07504227,-0.00457511,0.00131024,0.01090508,0.07645963,-0.00000619,0.00
 000830,-0.00001513,-0.00000578,-0.00000049,0.00000155,0.00000180,-0.00
 000440,-0.00000229,0.00000691,-0.00000419,0.00000717,-0.00000338,0.000
 00253,0.00000023,0.00000307,0.00000034,0.00000256,-0.00000008,0.000003
 52,0.00000183,-0.00003144,0.00002028,-0.00001822,0.00000684,-0.0000066
 1,0.00000217,0.00000111,-0.00000117,0.00000173,0.00000011,0.00000143,0
 .00000096,-0.00000068,-0.00000111,0.00000010,0.00006788,0.00001253,0.0
 0002790,-0.00001097,-0.00001858,-0.00000455,0.00000174,0.00000448,-0.0
 0000002,0.00000314,0.00000059,0.00000020,-0.00000085,-0.00000044,0.000
 00001,-0.00000004,-0.00000094,0.00000056,-0.00006670,-0.00003041,-0.00
 002708,-0.00004406,-0.00006269,0.00021482,0.00023764,0.00027869,-0.000
 10082,-0.00002850,0.00001008,-0.00002407,0.00003116,0.00001809,0.00002
 342,-0.00015885,0.00031998,-0.00006014,0.00001734,-0.00026211,0.000093
 95,-0.00052414,0.00008428,-0.00018902,0.00715660,-0.00337154,-0.023008
 61,0.00002448,0.00005442,0.00004332,-0.00070015,0.00043060,-0.00027799
 ,0.00389914,-0.00275840,0.00021624,0.00009907,0.00008604,0.00035393,-0
 .00005614,-0.00000247,0.00004583,0.00839611,-0.04782614,-0.02539710,-0
 .00832224,0.00366408,0.02638411,-0.01276489,0.05113750,-0.00000787,0.0
 0000660,-0.00002249,-0.00000898,0.00000020,0.00000433,0.00000592,-0.00
 001250,-0.00000954,0.00000831,-0.00000774,0.00000977,-0.00000467,0.000
 00459,0.00000101,0.00000427,0.00000030,0.00000641,0.00000155,0.0000082
 4,0.00000561,-0.00006122,0.00003898,-0.00003071,0.00001265,-0.00000928
 ,-0.00000527,0.00000433,-0.00000183,0.00000419,-0.00000042,0.00000287,
 0.00000314,-0.00000162,-0.00000395,0.00000419,0.00012461,0.00001117,0.
 00005290,-0.00003558,-0.00001357,-0.00001207,0.00000220,0.00000667,0.0
 0000108,0.00000551,0.00000120,-0.00000062,-0.00000158,0.00000043,0.000
 00039,0.00000091,-0.00000308,0.00000197,-0.00001456,-0.00002027,-0.000
 01644,-0.00019349,0.00031903,0.00026540,-0.00053769,-0.00054405,-0.000
 43560,-0.00013559,-0.00002456,-0.00008674,0.00007607,-0.00000008,0.000
 06199,-0.00120809,0.00069450,-0.00029718,0.00009707,-0.00000959,-0.000
 02713,-0.00052929,-0.00051750,-0.00057275,0.00077116,-0.00067262,-0.00
 026103,-0.00003804,-0.00001333,0.00002444,0.00019498,-0.00064484,0.000
 65477,-0.00033659,-0.00015014,0.00170775,0.00047857,0.00005166,0.00033
 412,-0.00008132,-0.00007452,-0.00005906,0.07606532,-0.02580965,-0.2612
 4189,0.00235088,-0.00073078,-0.00905953,-0.08252123,0.02946367,0.28583
 508,0.00001212,-0.00004753,0.00003440,0.00004378,-0.00000436,-0.000007
 72,-0.00000394,0.00001232,-0.00000157,-0.00001795,0.00000925,-0.000018
 04,-0.00001639,0.00000744,0.00000964,-0.00002166,0.00000386,-0.0000069
 4,0.00001393,0.00000034,0.00001061,0.00016317,-0.00010502,0.00004409,-
 0.00003027,0.00002567,-0.00000518,-0.00002435,0.00001841,0.00000767,0.
 00000351,0.00000163,0.00000223,0.00000223,-0.00000100,-0.00000013,-0.0
 0031534,-0.00001859,-0.00006184,0.00003085,0.00001356,-0.00001120,-0.0
 0000479,-0.00002142,-0.00000502,-0.00001601,-0.00000437,-0.00000009,0.
 00000073,0.00000633,0.00000280,0.00000174,0.00000421,-0.00000036,0.000
 00952,-0.00000378,0.00002242,0.00008414,-0.00006504,-0.00011484,0.0002
 2863,-0.00004559,0.00027761,0.00001831,0.00002045,0.00004542,-0.000044
 30,-0.00001811,-0.00006696,-0.00006667,-0.00010756,-0.00011306,-0.0000
 3827,0.00007200,-0.00006658,0.00064908,0.00405412,0.00190975,-0.018230
 11,-0.00606464,-0.01240134,0.00033799,0.00002280,0.00020692,0.00061542
 ,0.00039750,-0.00024492,0.00012442,-0.00035897,0.00070109,-0.00225954,
 0.00020359,-0.00046797,0.00015790,0.00050868,-0.00012581,-0.19269152,-
 0.04892913,-0.11066659,-0.00900907,-0.00298810,-0.00609626,0.00876337,
 0.00277090,0.00551352,0.21152935,-0.00000502,0.00002067,-0.00002208,-0
 .00001500,-0.00000455,0.00000983,0.00000029,-0.00000801,-0.00000689,0.
 00001147,-0.00000630,0.00000795,0.00000300,0.00000015,-0.00000113,0.00
 000387,0.00000103,0.00000329,-0.00000044,0.00000286,0.00000181,-0.0000
 4308,0.00003581,-0.00001833,0.00001277,-0.00001288,0.00000004,0.000004
 69,-0.00000332,0.00000080,-0.00000033,0.00000095,0.00000242,-0.0000003
 8,-0.00000078,-0.00000106,0.00012149,0.00005145,0.00003097,0.00000400,
 -0.00001811,-0.00000272,0.00000368,0.00000729,0.00000135,0.00000425,-0
 .00000004,-0.00000004,-0.00000098,-0.00000006,0.00000016,-0.00000035,-
 0.00000079,0.00000007,0.00001360,-0.00000766,-0.00001320,-0.00008787,0
 .00011139,0.00012311,0.00024426,-0.00009979,-0.00024316,-0.00004380,-0
 .00000083,-0.00005011,0.00003290,-0.00000028,0.00003712,-0.00008868,0.
 00015786,0.00020861,-0.00005205,0.00003426,0.00000798,0.00045237,-0.00
 368469,-0.00129757,0.01995212,0.00588984,0.01454893,0.00032832,0.00034
 500,-0.00012967,-0.00056305,0.00041089,0.00042030,-0.00056406,0.000945
 65,-0.00019523,0.00181993,0.00015755,0.00023757,0.00008635,-0.00043289
 ,0.00006402,-0.04933127,-0.05898780,-0.03563566,-0.02072418,-0.0068725
 3,-0.01670037,-0.00220899,-0.00178609,-0.00134622,0.05063017,0.0637547
 6,-0.00000132,-0.00001116,-0.00000845,0.00001317,-0.00000502,0.0000117
 6,0.00000128,-0.00000694,-0.00001354,-0.00000027,-0.00000169,-0.000005
 69,-0.00001018,0.00000562,0.00000615,-0.00001081,0.00000556,0.00000128
 ,0.00001290,0.00000704,0.00001147,0.00005845,-0.00002633,0.00001109,-0
 .00000617,0.00000428,-0.00000395,-0.00000961,0.00000566,0.00000622,0.0
 0000196,0.00000255,0.00000200,0.00000021,-0.00000053,0.00000063,-0.000
 07950,0.00001470,-0.00000547,0.00000753,0.00000587,-0.00000094,-0.0000
 0028,-0.00000649,-0.00000118,-0.00000613,-0.00000266,0.00000018,-0.000
 00009,0.00000308,0.00000167,0.00000129,0.00000166,-0.00000039,-0.00003
 566,-0.00002919,-0.00000769,-0.00006553,0.00028177,0.00019656,0.000173
 86,-0.00066540,-0.00011438,-0.00013546,-0.00000680,-0.00005167,0.00002
 849,-0.00001277,-0.00000538,-0.00022964,0.00057501,0.00018604,0.000036
 87,0.00001705,0.00001285,0.00093925,-0.00028231,0.00028706,0.00324007,
 0.00074273,0.00095210,-0.00016154,-0.00013514,-0.00002080,-0.00034835,
 0.00036082,-0.00021069,0.00018523,0.00036263,0.00074354,0.00000502,-0.
 00014283,0.00024824,0.00011591,0.00002283,-0.00003395,-0.11112715,-0.0
 3542734,-0.12615304,0.00893341,0.00214784,0.00611343,-0.02322151,-0.00
 776123,-0.01684049,0.12169427,0.03995712,0.13468540\\-0.00001555,0.000
 00315,-0.00001488,0.00001573,-0.00002443,0.00001536,-0.00003997,0.0000
 6906,0.00007324,0.00000746,0.00000512,-0.00002560,-0.00001354,0.000004
 04,0.00001233,0.00000681,0.00000142,-0.00000664,0.00002959,-0.00005212
 ,-0.00006083,0.00002998,-0.00006197,0.00001543,0.00001042,0.00004970,0
 .00006478,-0.00000472,0.00000677,-0.00000764,0.00001273,-0.00004055,-0
 .00004599,-0.00000029,0.00001859,-0.00002398,-0.00003527,0.00001188,0.
 00000131,0.00000111,0.00000598,-0.00000835,0.00001599,-0.00002586,0.00
 000480,-0.00000771,-0.00001576,0.00000328,-0.00001111,0.00002387,0.000
 02184,-0.00000229,0.00001915,-0.00002752,0.00001088,0.00000881,0.00000
 033,-0.00007537,-0.00000123,-0.00000639,-0.00000883,0.00005977,0.00001
 841,0.00002354,-0.00001637,0.00000684,0.00001507,-0.00000455,-0.000016
 40,0.00002167,-0.00001825,0.00000221,-0.00000436,-0.00002301,0.0000089
 0,0.00006858,-0.00000002,0.00001615,-0.00003379,-0.00001832,0.00000023
 ,0.00000445,0.00000917,0.00000020,-0.00001168,0.00000408,0.00000110,0.
 00000860,-0.00000035,-0.00003077,0.00005533,0.00002821,-0.00000401,-0.
 00007490,-0.00002257,-0.00000487,0.00001014,-0.00000941,0.00006088,0.0
 0000447,0.00000634,0.00000681,0.00000481,0.00000789,-0.00004394,-0.000
 01798,-0.00000822,-0.00000662\\\@


 K N O W I N G  IS A BARRIER WHICH PREVENTS LEARNING

                     -- TEACHING OF THE BENE GESSERIT
 Job cpu time:       0 days  1 hours 25 minutes 50.0 seconds.
 Elapsed time:       0 days  0 hours 10 minutes 46.6 seconds.
 File lengths (MBytes):  RWF=    417 Int=      0 D2E=      0 Chk=     10 Scr=      1
 Normal termination of Gaussian 16 at Tue Feb 14 10:55:31 2023.
