 Copyright (c) 1988-2019, Gaussian, Inc.  All Rights Reserved.
  
 This is part of the Gaussian(R) 16 program.  It is based on
 the Gaussian(R) 09 system (copyright 2009, Gaussian, Inc.),
 the Gaussian(R) 03 system (copyright 2003, Gaussian, Inc.),
 the Gaussian(R) 98 system (copyright 1998, Gaussian, Inc.),
 the Gaussian(R) 94 system (copyright 1995, Gaussian, Inc.),
 the Gaussian 92(TM) system (copyright 1992, Gaussian, Inc.),
 the Gaussian 90(TM) system (copyright 1990, Gaussian, Inc.),
 the Gaussian 88(TM) system (copyright 1988, Gaussian, Inc.),
 the Gaussian 86(TM) system (copyright 1986, Carnegie Mellon
 University), and the Gaussian 82(TM) system (copyright 1983,
 Carnegie Mellon University). Gaussian is a federally registered
 trademark of Gaussian, Inc.
 Cite this work as:
 Gaussian 16, Revision C.01,
 M. J. Frisch, G. W. Trucks, H. B. Schlegel, G. E. Scuseria, 
 M. A. Robb, J. R. Cheeseman, G. Scalmani, V. Barone, 
 G. A. Petersson, H. Nakatsuji, X. Li, M. Caricato, A. V. Marenich, 
 J. Bloino, B. G. Janesko, R. Gomperts, B. Mennucci, H. P. Hratchian, 
 J. V. Ortiz, A. F. Izmaylov, J. L. Sonnenberg, D. Williams-Young, 
 F. Ding, F. Lipparini, F. Egidi, J. Goings, B. Peng, A. Petrone, 
 T. Henderson, D. Ranasinghe, V. G. Zakrzewski, J. Gao, N. Rega, 
 G. Zheng, W. Liang, M. Hada, M. Ehara, K. Toyota, R. Fukuda, 
 J. Hasegawa, M. Ishida, T. Nakajima, Y. Honda, O. Kitao, H. Nakai, 
 T. Vreven, K. Throssell, J. A. Montgomery, Jr., J. E. Peralta, 
 F. Ogliaro, M. J. Bearpark, J. J. Heyd, E. N. Brothers, K. N. Kudin, 
 V. N. Staroverov, T. A. Keith, R. Kobayashi, J. Normand, 
 K. Raghavachari, A. P. Rendell, J. C. Burant, S. S. Iyengar, 
 J. Tomasi, M. Cossi, J. M. Millam, M. Klene, C. Adamo, R. Cammi, 
 J. W. Ochterski, R. L. Martin, K. Morokuma, O. Farkas, 
 J. B. Foresman, and D. J. Fox, Gaussian, Inc., Wallingford CT, 2019.
 
 ******************************************
 Gaussian 16:  EM64L-G16RevC.01  3-Jul-2019
                 9-Jul-2023 
 ******************************************
 ----------------------------------------------------------------------
 #P B3LYP/6-31G(d) Integral=Ultrafine Opt=(Tight,MaxCycle=55) GFInput G
 FPrint SCF(Conver=8,XQC,MaxConventionalCycles=64,MaxCycle=128) Test
 ----------------------------------------------------------------------
 1/6=55,7=10,18=20,19=15,26=4,38=1/1,3;
 2/9=110,12=2,17=6,18=5,40=1/2;
 3/5=1,6=6,7=1,11=2,24=110,25=1,30=1,71=1,74=-5,75=-5/1,2,3;
 4//1;
 5/5=2,6=8,7=128,8=3,13=1,38=5,85=64/2,8;
 6/7=2,8=2,9=2,10=2,28=1/1;
 7//1,2,3,16;
 1/6=55,7=10,18=20,19=15,26=4/3(2);
 2/9=110/2;
 99//99;
 2/9=110/2;
 3/5=1,6=6,7=1,11=2,25=1,30=1,71=1,74=-5,75=-5/1,2,3;
 4/5=5,16=3,69=1/1;
 5/5=2,6=8,7=128,8=3,13=1,38=5,85=64/2,8;
 7//1,2,3,16;
 1/6=55,7=10,18=20,19=15,26=4/3(-5);
 2/9=110/2;
 6/7=2,8=2,9=2,10=2,19=2,28=1/1;
 99/9=1/99;
 ----------------------------------------------------------
 Optimization step - Input generated by PyRED DVE-DMDS-OPLS
 ----------------------------------------------------------
 Symbolic Z-matrix:
 Charge =  0 Multiplicity = 1
 C                     8.14209   0.84026   1.13212 
 H                     8.75235  -0.06486   1.04209 
 H                     8.25062   1.42095   0.20994 
 H                     8.54626   1.43183   1.96185 
 C                     6.67112   0.51618   1.38745 
 H                     6.56113  -0.07164   2.31324 
 H                     6.10078   1.44255   1.5146 
 O                     6.04131  -0.16434   0.30595 
 C                     6.38009  -1.53493   0.1852 
 H                     6.27694  -2.04563   1.15584 
 H                     7.42326  -1.65551  -0.15112 
 C                     5.46392  -2.20744  -0.83269 
 H                     5.42278  -1.58945  -1.7406 
 H                     5.91234  -3.17501  -1.10189 
 O                     4.1517   -2.4751   -0.33608 
 C                     3.05132  -1.70418  -0.82586 
 H                     2.18643  -2.37767  -0.87169 
 H                     3.25204  -1.35049  -1.84788 
 C                     2.70687  -0.52806   0.09811 
 H                     3.54752   0.17125   0.15252 
 H                     2.52181  -0.91643   1.10572 
 O                     1.50958   0.12883  -0.31691 
 C                     1.70449   1.16642  -1.26787 
 H                     2.14703   0.76978  -2.1977 
 H                     2.39369   1.92415  -0.86559 
 C                     0.3567    1.7951   -1.59299 
 H                    -0.36724   1.02276  -1.87014 
 H                     0.4657    2.45893  -2.4576 
 S                    -0.36618   2.86905  -0.29256 
 C                    -0.94186   1.684     0.9965 
 H                    -0.07962   1.34069   1.57424 
 H                    -1.57166   2.30036   1.64641 
 C                    -1.71914   0.45864   0.52051 
 H                    -2.08437  -0.06591   1.41147 
 H                    -1.05079  -0.22028  -0.0173 
 S                    -3.15932   0.9024   -0.53876 
 C                    -4.01302  -0.72288  -0.56634 
 H                    -3.27397  -1.50237  -0.79372 
 H                    -4.69133  -0.6747   -1.42424 
 C                    -4.78573  -1.1063    0.70266 
 H                    -5.06857  -2.16475   0.6516 
 H                    -4.1539   -0.99663   1.58965 
 S                    -6.28043  -0.10422   1.0634 
 C                    -7.4753   -0.75282  -0.17647 
 H                    -8.31429  -0.05109  -0.11848 
 H                    -7.04971  -0.64694  -1.18086 
 C                    -7.96057  -2.18093   0.07067 
 H                    -7.13971  -2.90487   0.02471 
 H                    -8.43225  -2.26921   1.05429 
 H                    -8.695    -2.46907  -0.69224 
 
 ITRead=  0  0  0  0  0  0  0  0  0  0  0  0  0  0  0  0  0  0  0  0
 ITRead=  0  0  0  0  0  0  0  0  0  0  0  0  0  0  0  0  0  0  0  0
 ITRead=  0  0  0  0  0  0  0  0  0  0
 MicOpt= -1 -1 -1 -1 -1 -1 -1 -1 -1 -1 -1 -1 -1 -1 -1 -1 -1 -1 -1 -1
 MicOpt= -1 -1 -1 -1 -1 -1 -1 -1 -1 -1 -1 -1 -1 -1 -1 -1 -1 -1 -1 -1
 MicOpt= -1 -1 -1 -1 -1 -1 -1 -1 -1 -1
 NAtoms=     50 NQM=       50 NQMF=       0 NMMI=      0 NMMIF=      0
                NMic=       0 NMicF=      0.
                          Input orientation:                          
 ---------------------------------------------------------------------
 Center     Atomic      Atomic             Coordinates (Angstroms)
 Number     Number       Type             X           Y           Z
 ---------------------------------------------------------------------
      1          6           0        8.142092    0.840263    1.132123
      2          1           0        8.752346   -0.064857    1.042094
      3          1           0        8.250620    1.420951    0.209944
      4          1           0        8.546259    1.431834    1.961850
      5          6           0        6.671120    0.516179    1.387449
      6          1           0        6.561134   -0.071643    2.313244
      7          1           0        6.100777    1.442551    1.514603
      8          8           0        6.041310   -0.164338    0.305947
      9          6           0        6.380086   -1.534927    0.185197
     10          1           0        6.276940   -2.045628    1.155844
     11          1           0        7.423263   -1.655513   -0.151116
     12          6           0        5.463921   -2.207442   -0.832693
     13          1           0        5.422775   -1.589454   -1.740597
     14          1           0        5.912335   -3.175013   -1.101894
     15          8           0        4.151704   -2.475097   -0.336081
     16          6           0        3.051321   -1.704180   -0.825860
     17          1           0        2.186430   -2.377672   -0.871689
     18          1           0        3.252036   -1.350490   -1.847878
     19          6           0        2.706866   -0.528056    0.098113
     20          1           0        3.547518    0.171252    0.152517
     21          1           0        2.521806   -0.916429    1.105718
     22          8           0        1.509584    0.128833   -0.316905
     23          6           0        1.704486    1.166416   -1.267871
     24          1           0        2.147025    0.769779   -2.197704
     25          1           0        2.393691    1.924153   -0.865593
     26          6           0        0.356699    1.795102   -1.592993
     27          1           0       -0.367244    1.022758   -1.870135
     28          1           0        0.465698    2.458927   -2.457597
     29         16           0       -0.366183    2.869048   -0.292562
     30          6           0       -0.941864    1.683999    0.996496
     31          1           0       -0.079615    1.340694    1.574236
     32          1           0       -1.571662    2.300364    1.646412
     33          6           0       -1.719140    0.458638    0.520508
     34          1           0       -2.084365   -0.065907    1.411469
     35          1           0       -1.050786   -0.220275   -0.017301
     36         16           0       -3.159320    0.902403   -0.538763
     37          6           0       -4.013022   -0.722879   -0.566335
     38          1           0       -3.273967   -1.502374   -0.793724
     39          1           0       -4.691332   -0.674696   -1.424239
     40          6           0       -4.785728   -1.106301    0.702657
     41          1           0       -5.068574   -2.164755    0.651602
     42          1           0       -4.153904   -0.996626    1.589652
     43         16           0       -6.280428   -0.104221    1.063402
     44          6           0       -7.475301   -0.752820   -0.176467
     45          1           0       -8.314286   -0.051089   -0.118478
     46          1           0       -7.049707   -0.646935   -1.180858
     47          6           0       -7.960565   -2.180930    0.070668
     48          1           0       -7.139712   -2.904871    0.024705
     49          1           0       -8.432246   -2.269208    1.054288
     50          1           0       -8.694997   -2.469070   -0.692244
 ---------------------------------------------------------------------
 Stoichiometry    C14H30O3S3
 Framework group  C1[X(C14H30O3S3)]
                         Standard orientation:                         
 ---------------------------------------------------------------------
 Center     Atomic      Atomic             Coordinates (Angstroms)
 Number     Number       Type             X           Y           Z
 ---------------------------------------------------------------------
      1          6           0       -8.142092    0.840263   -1.132123
      2          1           0       -8.752346   -0.064857   -1.042094
      3          1           0       -8.250620    1.420951   -0.209944
      4          1           0       -8.546259    1.431834   -1.961850
      5          6           0       -6.671120    0.516179   -1.387449
      6          1           0       -6.561134   -0.071643   -2.313244
      7          1           0       -6.100777    1.442551   -1.514603
      8          8           0       -6.041310   -0.164338   -0.305947
      9          6           0       -6.380086   -1.534927   -0.185197
     10          1           0       -6.276940   -2.045628   -1.155844
     11          1           0       -7.423263   -1.655513    0.151116
     12          6           0       -5.463921   -2.207442    0.832693
     13          1           0       -5.422775   -1.589454    1.740597
     14          1           0       -5.912335   -3.175013    1.101894
     15          8           0       -4.151704   -2.475097    0.336081
     16          6           0       -3.051321   -1.704180    0.825860
     17          1           0       -2.186430   -2.377672    0.871689
     18          1           0       -3.252036   -1.350490    1.847878
     19          6           0       -2.706866   -0.528056   -0.098113
     20          1           0       -3.547518    0.171252   -0.152517
     21          1           0       -2.521806   -0.916429   -1.105718
     22          8           0       -1.509584    0.128833    0.316905
     23          6           0       -1.704486    1.166416    1.267871
     24          1           0       -2.147025    0.769779    2.197704
     25          1           0       -2.393691    1.924153    0.865593
     26          6           0       -0.356699    1.795102    1.592993
     27          1           0        0.367244    1.022758    1.870135
     28          1           0       -0.465698    2.458927    2.457597
     29         16           0        0.366183    2.869048    0.292562
     30          6           0        0.941864    1.683999   -0.996496
     31          1           0        0.079615    1.340694   -1.574236
     32          1           0        1.571662    2.300364   -1.646412
     33          6           0        1.719140    0.458638   -0.520508
     34          1           0        2.084365   -0.065907   -1.411469
     35          1           0        1.050786   -0.220275    0.017301
     36         16           0        3.159320    0.902403    0.538763
     37          6           0        4.013022   -0.722879    0.566335
     38          1           0        3.273967   -1.502374    0.793724
     39          1           0        4.691332   -0.674696    1.424239
     40          6           0        4.785728   -1.106301   -0.702657
     41          1           0        5.068574   -2.164755   -0.651602
     42          1           0        4.153904   -0.996626   -1.589652
     43         16           0        6.280428   -0.104221   -1.063402
     44          6           0        7.475301   -0.752820    0.176467
     45          1           0        8.314286   -0.051089    0.118478
     46          1           0        7.049707   -0.646935    1.180858
     47          6           0        7.960565   -2.180930   -0.070668
     48          1           0        7.139712   -2.904871   -0.024705
     49          1           0        8.432246   -2.269208   -1.054288
     50          1           0        8.694997   -2.469070    0.692244
 ---------------------------------------------------------------------
 Standard basis: 6-31G(d) (6D, 7F)
   372 basis functions,   752 primitive gaussians,   372 cartesian basis functions
    93 alpha electrons       93 beta electrons
 Requested convergence on RMS density matrix=1.00D-08 within  64 cycles.
 Requested convergence on MAX density matrix=1.00D-06.
 Requested convergence on             energy=1.00D-06.
 SCF Done:  E(RB3LYP) =  -1971.74861167     A.U. after   13 cycles
            NFock= 13  Conv=0.59D-08     -V/T= 2.0058
 Mulliken charges:
     1  C   -0.461474
     2  H    0.150928
     3  H    0.158844
     4  H    0.147768
     5  C   -0.016938
     6  H    0.125258
     7  H    0.147633
     8  O   -0.470330
     9  C   -0.020714
    10  H    0.133392
    11  H    0.119726
    12  C   -0.036553
    13  H    0.137283
    14  H    0.139290
    15  O   -0.479567
    16  C   -0.038235
    17  H    0.146997
    18  H    0.125491
    19  C   -0.054138
    20  H    0.156422
    21  H    0.146175
    22  O   -0.479129
    23  C   -0.004328
    24  H    0.122056
    25  H    0.142437
    26  C   -0.444544
    27  H    0.197078
    28  H    0.176290
    29  S    0.088256
    30  C   -0.408559
    31  H    0.187199
    32  H    0.183589
    33  C   -0.419784
    34  H    0.166155
    35  H    0.189992
    36  S    0.122503
    37  C   -0.416926
    38  H    0.165356
    39  H    0.177568
    40  C   -0.412812
    41  H    0.169482
    42  H    0.179193
    43  S    0.102593
    44  C   -0.412516
    45  H    0.177933
    46  H    0.167718
    47  C   -0.435552
    48  H    0.149068
    49  H    0.164311
    50  H    0.148117
 Sum of Mulliken charges =  -0.00000
 Dipole moment (field-independent basis, Debye):
    X=             -3.5174    Y=             -3.3599    Z=              0.8428  Tot=              4.9367
 Quadrupole moment (field-independent basis, Debye-Ang):
   XX=           -121.8534   YY=           -155.2265   ZZ=           -141.8877
   XY=            -13.4636   XZ=              7.8435   YZ=             -2.3110
 Traceless Quadrupole moment (field-independent basis, Debye-Ang):
   XX=             17.8025   YY=            -15.5706   ZZ=             -2.2318
   XY=            -13.4636   XZ=              7.8435   YZ=             -2.3110
 Octapole moment (field-independent basis, Debye-Ang**2):
  XXX=           -159.6390  YYY=            -28.5484  ZZZ=              6.6757  XYY=            -21.5723
  XXY=            -77.6258  XXZ=             37.1430  XZZ=            -44.4240  YZZ=              3.8198
  YYZ=              1.8778  XYZ=              0.2317
 Hexadecapole moment (field-independent basis, Debye-Ang**3):
 XXXX=         -18533.6284 YYYY=          -2344.8262 ZZZZ=           -845.6301 XXXY=           -106.6193
 XXXZ=            631.0512 YYYX=            -20.1734 YYYZ=            -10.3129 ZZZX=             31.1689
 ZZZY=              1.6180 XXYY=          -3761.8376 XXZZ=          -3587.0596 YYZZ=           -486.6055
 XXYZ=            -92.1676 YYXZ=            -25.5256 ZZXY=             12.6153
 Step number   1 out of a maximum of   55
     Eigenvalues ---    0.00230   0.00230   0.00230   0.00230   0.00230
     Eigenvalues ---    0.00230   0.00305   0.00311   0.00390   0.00399
     Eigenvalues ---    0.00407   0.00426   0.00471   0.01294   0.01317
     Eigenvalues ---    0.01330   0.01367   0.01416   0.01467   0.04160
     Eigenvalues ---    0.04193   0.04202   0.04253   0.04260   0.04665
     Eigenvalues ---    0.04682   0.04730   0.04744   0.04858   0.05182
     Eigenvalues ---    0.05273   0.05462   0.05479   0.05564   0.05567
     Eigenvalues ---    0.05579   0.05610   0.05673   0.05676   0.05709
     Eigenvalues ---    0.05740   0.05820   0.05867   0.05924   0.05997
     Eigenvalues ---    0.06008   0.06068   0.11187   0.11223   0.11237
     Eigenvalues ---    0.11499   0.11614   0.11665   0.11832   0.11838
     Eigenvalues ---    0.11847   0.11857   0.11873   0.11923   0.13703
     Eigenvalues ---    0.13769   0.13840   0.13890   0.13956   0.14039
     Eigenvalues ---    0.14056   0.14083   0.14105   0.14126   0.14131
     Eigenvalues ---    0.14162   0.16000   0.16000   0.16000   0.16000
     Eigenvalues ---    0.16000   0.16000   0.21989   0.22018   0.22024
     Eigenvalues ---    0.22034   0.22045   0.22049   0.22051   0.22053
     Eigenvalues ---    0.22065   0.22069   0.22097   0.22140   0.22988
     Eigenvalues ---    0.23067   0.23202   0.23470   0.23520   0.23546
     Eigenvalues ---    0.25000   0.25000   0.25000   0.25000   0.25000
     Eigenvalues ---    0.25000   0.28984   0.29019   0.29570   0.29633
     Eigenvalues ---    0.29687   0.29825   0.30144   0.33296   0.33389
     Eigenvalues ---    0.33446   0.33501   0.33632   0.33687   0.33695
     Eigenvalues ---    0.33788   0.33909   0.33963   0.34000   0.34040
     Eigenvalues ---    0.34070   0.34101   0.34132   0.34173   0.34187
     Eigenvalues ---    0.34191   0.34203   0.34207   0.34210   0.34222
     Eigenvalues ---    0.34245   0.34259   0.34272   0.34295   0.34305
     Eigenvalues ---    0.34324   0.34353   0.34444   0.40982   0.41228
     Eigenvalues ---    0.41378   0.41779   0.42328   0.42917
 Maximum Force            0.010916     0.000015     NO 
 RMS     Force            0.001232     0.000010     NO 
 Maximum Displacement     0.972524     0.000060     NO 
 RMS     Displacement     0.237785     0.000040     NO 
                          Input orientation:                          
 ---------------------------------------------------------------------
 Center     Atomic      Atomic             Coordinates (Angstroms)
 Number     Number       Type             X           Y           Z
 ---------------------------------------------------------------------
      1          6           0        7.750054    1.024267    1.340752
      2          1           0        8.458323    0.191556    1.271053
      3          1           0        7.858074    1.643142    0.443694
      4          1           0        8.031621    1.627328    2.211879
      5          6           0        6.308287    0.539582    1.482968
      6          1           0        6.199944   -0.089456    2.381511
      7          1           0        5.634894    1.395733    1.595518
      8          8           0        5.828839   -0.163161    0.341588
      9          6           0        6.323641   -1.483730    0.206863
     10          1           0        6.211806   -2.038494    1.152496
     11          1           0        7.391985   -1.487945   -0.064779
     12          6           0        5.548609   -2.199420   -0.887689
     13          1           0        5.515475   -1.559595   -1.781098
     14          1           0        6.080009   -3.124756   -1.147879
     15          8           0        4.241091   -2.562205   -0.478150
     16          6           0        3.173638   -1.781599   -0.992001
     17          1           0        2.318757   -2.455176   -1.120082
     18          1           0        3.434526   -1.375194   -1.980340
     19          6           0        2.793697   -0.656295   -0.023419
     20          1           0        3.638771    0.029557    0.115048
     21          1           0        2.548459   -1.094764    0.949674
     22          8           0        1.630933    0.035891   -0.469031
     23          6           0        1.892256    1.115780   -1.355340
     24          1           0        2.375565    0.757283   -2.280322
     25          1           0        2.572070    1.839714   -0.881220
     26          6           0        0.573605    1.785000   -1.716897
     27          1           0       -0.134951    1.047182   -2.105602
     28          1           0        0.746451    2.515635   -2.514553
     29         16           0       -0.228446    2.759499   -0.384938
     30          6           0       -0.720057    1.493406    0.861117
     31          1           0        0.181226    1.067969    1.310369
     32          1           0       -1.245642    2.077567    1.623628
     33          6           0       -1.603226    0.345213    0.377348
     34          1           0       -1.874358   -0.254156    1.254613
     35          1           0       -1.038042   -0.297025   -0.304586
     36         16           0       -3.145163    0.934798   -0.439812
     37          6           0       -4.049634   -0.659852   -0.540628
     38          1           0       -3.344004   -1.442536   -0.848875
     39          1           0       -4.758929   -0.535148   -1.365101
     40          6           0       -4.783258   -1.106162    0.730987
     41          1           0       -5.092332   -2.153187    0.625545
     42          1           0       -4.116517   -1.065054    1.598033
     43         16           0       -6.239972   -0.097758    1.210135
     44          6           0       -7.508990   -0.678372    0.010893
     45          1           0       -8.305439    0.068791    0.095139
     46          1           0       -7.111065   -0.595916   -1.006949
     47          6           0       -8.064252   -2.077530    0.275684
     48          1           0       -7.287334   -2.846143    0.200615
     49          1           0       -8.504601   -2.140941    1.275610
     50          1           0       -8.840500   -2.322876   -0.460308
 ---------------------------------------------------------------------
 Stoichiometry    C14H30O3S3
 Framework group  C1[X(C14H30O3S3)]
                         Standard orientation:                         
 ---------------------------------------------------------------------
 Center     Atomic      Atomic             Coordinates (Angstroms)
 Number     Number       Type             X           Y           Z
 ---------------------------------------------------------------------
      1          6           0       -7.716025    1.016654   -1.450682
      2          1           0       -8.424435    0.184027   -1.381406
      3          1           0       -7.836191    1.644820   -0.561663
      4          1           0       -7.986782    1.610247   -2.331684
      5          6           0       -6.272126    0.531917   -1.569096
      6          1           0       -6.151609   -0.106428   -2.459490
      7          1           0       -5.598054    1.387497   -1.681917
      8          8           0       -5.806924   -0.158317   -0.414266
      9          6           0       -6.302315   -1.477881   -0.272071
     10          1           0       -6.177759   -2.042447   -1.210284
     11          1           0       -7.374088   -1.480289   -0.014266
     12          6           0       -5.540937   -2.181263    0.839903
     13          1           0       -5.519931   -1.532048    1.726882
     14          1           0       -6.074884   -3.104333    1.102911
     15          8           0       -4.227912   -2.547051    0.451181
     16          6           0       -3.167872   -1.760038    0.970575
     17          1           0       -2.314155   -2.431392    1.116804
     18          1           0       -3.441897   -1.343520    1.951118
     19          6           0       -2.776355   -0.644607   -0.004793
     20          1           0       -3.620142    0.038921   -0.161409
     21          1           0       -2.518149   -1.093042   -0.969958
     22          8           0       -1.620052    0.053366    0.448537
     23          6           0       -1.893758    1.142257    1.319969
     24          1           0       -2.388717    0.793031    2.242334
     25          1           0       -2.567979    1.860499    0.829487
     26          6           0       -0.580472    1.816536    1.691518
     27          1           0        0.123608    1.083541    2.097115
     28          1           0       -0.764264    2.555346    2.479133
     29         16           0        0.237959    2.777763    0.359880
     30          6           0        0.746756    1.499122   -0.866306
     31          1           0       -0.148266    1.068101   -1.322695
     32          1           0        1.281689    2.075750   -1.628050
     33          6           0        1.624548    0.356947   -0.359076
     34          1           0        1.907538   -0.251346   -1.226396
     35          1           0        1.051112   -0.278641    0.322200
     36         16           0        3.155261    0.956603    0.471744
     37          6           0        4.059695   -0.636011    0.601049
     38          1           0        3.350789   -1.416102    0.908349
     39          1           0        4.758134   -0.501949    1.433285
     40          6           0        4.810123   -1.094945   -0.656185
     41          1           0        5.118688   -2.140500   -0.535733
     42          1           0        4.154646   -1.063610   -1.532182
     43         16           0        6.272075   -0.090205   -1.127006
     44          6           0        7.525926   -0.656933    0.094623
     45          1           0        8.322769    0.090084    0.012844
     46          1           0        7.114767   -0.564171    1.106299
     47          6           0        8.085757   -2.058252   -0.148210
     48          1           0        7.308581   -2.826795   -0.075128
     49          1           0        8.539088   -2.131741   -1.141624
     50          1           0        8.852604   -2.295084    0.600320
 ---------------------------------------------------------------------
 Standard basis: 6-31G(d) (6D, 7F)
   372 basis functions,   752 primitive gaussians,   372 cartesian basis functions
    93 alpha electrons       93 beta electrons
 Requested convergence on RMS density matrix=1.00D-08 within  64 cycles.
 Requested convergence on MAX density matrix=1.00D-06.
 Requested convergence on             energy=1.00D-06.
 SCF Done:  E(RB3LYP) =  -1971.74853404     A.U. after   11 cycles
            NFock= 11  Conv=0.69D-08     -V/T= 2.0058
 Step number   2 out of a maximum of   55
     Eigenvalues ---    0.00227   0.00230   0.00230   0.00230   0.00230
     Eigenvalues ---    0.00275   0.00310   0.00312   0.00390   0.00399
     Eigenvalues ---    0.00404   0.00445   0.00479   0.01297   0.01330
     Eigenvalues ---    0.01367   0.01415   0.01466   0.01616   0.04160
     Eigenvalues ---    0.04196   0.04205   0.04244   0.04254   0.04662
     Eigenvalues ---    0.04684   0.04872   0.04887   0.05154   0.05269
     Eigenvalues ---    0.05327   0.05462   0.05478   0.05563   0.05567
     Eigenvalues ---    0.05579   0.05610   0.05672   0.05673   0.05713
     Eigenvalues ---    0.05737   0.05834   0.05852   0.05922   0.05996
     Eigenvalues ---    0.06068   0.06184   0.11174   0.11185   0.11238
     Eigenvalues ---    0.11479   0.11509   0.11547   0.11831   0.11836
     Eigenvalues ---    0.11848   0.11857   0.11871   0.11921   0.13701
     Eigenvalues ---    0.13730   0.13840   0.13869   0.13897   0.14014
     Eigenvalues ---    0.14056   0.14082   0.14105   0.14129   0.14131
     Eigenvalues ---    0.14160   0.16000   0.16000   0.16000   0.16000
     Eigenvalues ---    0.16000   0.16000   0.21716   0.22004   0.22018
     Eigenvalues ---    0.22021   0.22036   0.22046   0.22050   0.22055
     Eigenvalues ---    0.22058   0.22064   0.22135   0.22966   0.23043
     Eigenvalues ---    0.23067   0.23201   0.23470   0.23520   0.23537
     Eigenvalues ---    0.24934   0.25000   0.25000   0.25000   0.25000
     Eigenvalues ---    0.28937   0.29016   0.29487   0.29570   0.29633
     Eigenvalues ---    0.29687   0.30137   0.33296   0.33383   0.33444
     Eigenvalues ---    0.33481   0.33608   0.33632   0.33685   0.33731
     Eigenvalues ---    0.33791   0.33909   0.33963   0.33983   0.34043
     Eigenvalues ---    0.34073   0.34101   0.34132   0.34173   0.34187
     Eigenvalues ---    0.34191   0.34203   0.34207   0.34210   0.34222
     Eigenvalues ---    0.34245   0.34272   0.34294   0.34305   0.34320
     Eigenvalues ---    0.34352   0.34418   0.35641   0.41109   0.41320
     Eigenvalues ---    0.41772   0.42318   0.42843   0.47051
 Maximum Force            0.013990     0.000015     NO 
 RMS     Force            0.001713     0.000010     NO 
 Maximum Displacement     0.909302     0.000060     NO 
 RMS     Displacement     0.195443     0.000040     NO 
                          Input orientation:                          
 ---------------------------------------------------------------------
 Center     Atomic      Atomic             Coordinates (Angstroms)
 Number     Number       Type             X           Y           Z
 ---------------------------------------------------------------------
      1          6           0        8.159908    0.902607    1.350512
      2          1           0        8.791536    0.012054    1.261985
      3          1           0        8.300082    1.513962    0.452750
      4          1           0        8.512803    1.475070    2.216268
      5          6           0        6.685383    0.543785    1.525581
      6          1           0        6.544209   -0.080154    2.423038
      7          1           0        6.091997    1.454414    1.659349
      8          8           0        6.119074   -0.106431    0.392558
      9          6           0        6.492712   -1.463751    0.238788
     10          1           0        6.357086   -2.015335    1.183023
     11          1           0        7.552681   -1.548828   -0.051857
     12          6           0        5.647313   -2.113320   -0.848170
     13          1           0        5.633818   -1.466983   -1.737421
     14          1           0        6.130303   -3.059470   -1.126074
     15          8           0        4.331459   -2.439470   -0.429357
     16          6           0        3.258875   -1.672211   -0.957369
     17          1           0        2.423465   -2.366238   -1.102363
     18          1           0        3.523784   -1.260202   -1.942260
     19          6           0        2.812942   -0.562472    0.001574
     20          1           0        3.622250    0.160961    0.151255
     21          1           0        2.572255   -1.010994    0.971327
     22          8           0        1.624638    0.073901   -0.462197
     23          6           0        1.848464    1.164350   -1.345490
     24          1           0        2.362576    0.824694   -2.260922
     25          1           0        2.487654    1.920273   -0.864663
     26          6           0        0.508685    1.773611   -1.736129
     27          1           0       -0.153697    1.007229   -2.150993
     28          1           0        0.673491    2.516090   -2.524546
     29         16           0       -0.374815    2.714829   -0.430574
     30          6           0       -0.860838    1.432303    0.798607
     31          1           0        0.042068    0.992537    1.228611
     32          1           0       -1.373008    2.008350    1.576500
     33          6           0       -1.757203    0.300184    0.301222
     34          1           0       -2.012815   -0.323425    1.166479
     35          1           0       -1.208489   -0.324874   -0.409716
     36         16           0       -3.311941    0.915899   -0.470555
     37          6           0       -4.228152   -0.671586   -0.576798
     38          1           0       -3.524212   -1.459583   -0.874994
     39          1           0       -4.929618   -0.546687   -1.407919
     40          6           0       -4.972749   -1.107189    0.691760
     41          1           0       -5.283810   -2.154456    0.592752
     42          1           0       -4.312450   -1.058889    1.563499
     43         16           0       -6.431344   -0.091045    1.148147
     44          6           0       -7.706477   -0.728914   -0.014716
     45          1           0       -8.488662    0.037437    0.009431
     46          1           0       -7.300427   -0.727770   -1.032698
     47          6           0       -8.288829   -2.095267    0.345700
     48          1           0       -7.525346   -2.880786    0.330105
     49          1           0       -8.734229   -2.079335    1.345248
     50          1           0       -9.066507   -2.378425   -0.375126
 ---------------------------------------------------------------------
 Stoichiometry    C14H30O3S3
 Framework group  C1[X(C14H30O3S3)]
                         Standard orientation:                         
 ---------------------------------------------------------------------
 Center     Atomic      Atomic             Coordinates (Angstroms)
 Number     Number       Type             X           Y           Z
 ---------------------------------------------------------------------
      1          6           0       -8.165388    0.808597   -1.449965
      2          1           0       -8.794647   -0.078109   -1.317076
      3          1           0       -8.312772    1.466999   -0.587315
      4          1           0       -8.515067    1.332265   -2.347339
      5          6           0       -6.688716    0.446067   -1.597070
      6          1           0       -6.540294   -0.224880   -2.458731
      7          1           0       -6.097500    1.350245   -1.776433
      8          8           0       -6.126939   -0.140066   -0.427420
      9          6           0       -6.497089   -1.488425   -0.202733
     10          1           0       -6.354174   -2.089667   -1.115039
     11          1           0       -7.558457   -1.561444    0.086080
     12          6           0       -5.655961   -2.075411    0.922464
     13          1           0       -5.649743   -1.381994    1.775597
     14          1           0       -6.137511   -3.006891    1.248292
     15          8           0       -4.336639   -2.419028    0.529314
     16          6           0       -3.269636   -1.620613    1.021203
     17          1           0       -2.432853   -2.302849    1.208167
     18          1           0       -3.541618   -1.157005    1.980908
     19          6           0       -2.821693   -0.562658    0.006301
     20          1           0       -3.632441    0.148780   -0.186782
     21          1           0       -2.573902   -1.061994   -0.936454
     22          8           0       -1.638174    0.102006    0.441763
     23          6           0       -1.870669    1.237725    1.263634
     24          1           0       -2.389020    0.946139    2.193142
     25          1           0       -2.509475    1.964341    0.739102
     26          6           0       -0.535166    1.871907    1.628392
     27          1           0        0.127251    1.131370    2.087754
     28          1           0       -0.706965    2.655255    2.374642
     29         16           0        0.352903    2.744433    0.278959
     30          6           0        0.850226    1.399184   -0.876441
     31          1           0       -0.048731    0.933669   -1.287184
     32          1           0        1.365069    1.934230   -1.681382
     33          6           0        1.747319    0.298725   -0.313616
     34          1           0        2.009988   -0.369752   -1.142495
     35          1           0        1.196482   -0.289002    0.426906
     36         16           0        3.295531    0.960675    0.432585
     37          6           0        4.216220   -0.615518    0.629533
     38          1           0        3.513095   -1.388761    0.965839
     39          1           0        4.912415   -0.443480    1.456657
     40          6           0        4.969612   -1.116293   -0.609433
     41          1           0        5.283464   -2.155587   -0.452288
     42          1           0        4.314261   -1.117431   -1.486229
     43         16           0        6.427562   -0.121102   -1.111741
     44          6           0        7.697934   -0.690791    0.091048
     45          1           0        8.477772    0.075901    0.029999
     46          1           0        7.285946   -0.636162    1.105171
     47          6           0        8.286783   -2.072532   -0.191799
     48          1           0        7.525759   -2.858760   -0.138149
     49          1           0        8.737958   -2.108978   -1.188214
     50          1           0        9.061149   -2.313637    0.547646
 ---------------------------------------------------------------------
 Standard basis: 6-31G(d) (6D, 7F)
   372 basis functions,   752 primitive gaussians,   372 cartesian basis functions
    93 alpha electrons       93 beta electrons
 Requested convergence on RMS density matrix=1.00D-08 within  64 cycles.
 Requested convergence on MAX density matrix=1.00D-06.
 Requested convergence on             energy=1.00D-06.
 SCF Done:  E(RB3LYP) =  -1971.74891588     A.U. after   11 cycles
            NFock= 11  Conv=0.59D-08     -V/T= 2.0058
 Step number   3 out of a maximum of   55
     Eigenvalues ---    0.00218   0.00230   0.00230   0.00230   0.00236
     Eigenvalues ---    0.00309   0.00310   0.00387   0.00391   0.00399
     Eigenvalues ---    0.00434   0.00454   0.00573   0.01285   0.01330
     Eigenvalues ---    0.01366   0.01418   0.01466   0.01736   0.04007
     Eigenvalues ---    0.04187   0.04211   0.04230   0.04267   0.04656
     Eigenvalues ---    0.04683   0.04724   0.04880   0.05122   0.05195
     Eigenvalues ---    0.05462   0.05479   0.05541   0.05563   0.05576
     Eigenvalues ---    0.05608   0.05637   0.05673   0.05732   0.05737
     Eigenvalues ---    0.05826   0.05857   0.05907   0.05997   0.06017
     Eigenvalues ---    0.06060   0.06264   0.11213   0.11232   0.11268
     Eigenvalues ---    0.11483   0.11653   0.11737   0.11821   0.11829
     Eigenvalues ---    0.11853   0.11858   0.11899   0.11938   0.13724
     Eigenvalues ---    0.13782   0.13835   0.13876   0.13978   0.14055
     Eigenvalues ---    0.14059   0.14076   0.14107   0.14122   0.14140
     Eigenvalues ---    0.14189   0.15998   0.16000   0.16000   0.16000
     Eigenvalues ---    0.16000   0.16001   0.20552   0.22006   0.22021
     Eigenvalues ---    0.22027   0.22041   0.22050   0.22058   0.22061
     Eigenvalues ---    0.22067   0.22109   0.22137   0.22919   0.23065
     Eigenvalues ---    0.23201   0.23469   0.23520   0.23529   0.24221
     Eigenvalues ---    0.24915   0.25000   0.25000   0.25000   0.25633
     Eigenvalues ---    0.28942   0.29029   0.29473   0.29570   0.29634
     Eigenvalues ---    0.29689   0.30140   0.33296   0.33390   0.33444
     Eigenvalues ---    0.33494   0.33631   0.33678   0.33687   0.33770
     Eigenvalues ---    0.33798   0.33908   0.33962   0.33985   0.34046
     Eigenvalues ---    0.34075   0.34101   0.34132   0.34173   0.34187
     Eigenvalues ---    0.34191   0.34203   0.34207   0.34210   0.34222
     Eigenvalues ---    0.34244   0.34272   0.34294   0.34305   0.34317
     Eigenvalues ---    0.34355   0.34416   0.36665   0.41113   0.41316
     Eigenvalues ---    0.41772   0.42317   0.42830   0.48994
 Maximum Force            0.003599     0.000015     NO 
 RMS     Force            0.000610     0.000010     NO 
 Maximum Displacement     0.405347     0.000060     NO 
 RMS     Displacement     0.131562     0.000040     NO 
                          Input orientation:                          
 ---------------------------------------------------------------------
 Center     Atomic      Atomic             Coordinates (Angstroms)
 Number     Number       Type             X           Y           Z
 ---------------------------------------------------------------------
      1          6           0        8.082592    0.897242    1.211788
      2          1           0        8.718676    0.009667    1.125286
      3          1           0        8.191985    1.488927    0.296733
      4          1           0        8.455529    1.491993    2.053796
      5          6           0        6.616585    0.531648    1.437348
      6          1           0        6.506371   -0.072877    2.352286
      7          1           0        6.020160    1.440718    1.567994
      8          8           0        6.023124   -0.147996    0.336051
      9          6           0        6.403841   -1.505505    0.201204
     10          1           0        6.298816   -2.036627    1.160983
     11          1           0        7.455287   -1.591779   -0.118673
     12          6           0        5.529772   -2.182381   -0.844460
     13          1           0        5.492874   -1.557115   -1.747921
     14          1           0        6.002446   -3.136518   -1.113218
     15          8           0        4.225502   -2.485966   -0.378653
     16          6           0        3.150515   -1.707525   -0.881716
     17          1           0        2.293512   -2.382674   -0.984462
     18          1           0        3.388793   -1.317541   -1.882195
     19          6           0        2.770549   -0.570448    0.073316
     20          1           0        3.605001    0.132345    0.181661
     21          1           0        2.553391   -0.996340    1.058614
     22          8           0        1.584753    0.092210   -0.358287
     23          6           0        1.807154    1.160934   -1.268181
     24          1           0        2.278974    0.790604   -2.194429
     25          1           0        2.483466    1.907244   -0.824483
     26          6           0        0.472612    1.800888   -1.625752
     27          1           0       -0.225847    1.044489   -1.997990
     28          1           0        0.632309    2.517839   -2.438557
     29         16           0       -0.335099    2.805437   -0.318015
     30          6           0       -0.895228    1.563098    0.919425
     31          1           0       -0.022416    1.167211    1.443111
     32          1           0       -1.486887    2.156591    1.624462
     33          6           0       -1.715578    0.386789    0.393847
     34          1           0       -2.033536   -0.208019    1.258892
     35          1           0       -1.090576   -0.252439   -0.237436
     36         16           0       -3.207823    0.925654   -0.541151
     37          6           0       -4.096029   -0.679854   -0.609740
     38          1           0       -3.372995   -1.464935   -0.867011
     39          1           0       -4.784744   -0.597502   -1.456668
     40          6           0       -4.854143   -1.082288    0.661470
     41          1           0       -5.150874   -2.136356    0.594393
     42          1           0       -4.207795   -0.994266    1.540600
     43         16           0       -6.333176   -0.070092    1.056972
     44          6           0       -7.573717   -0.760471   -0.113229
     45          1           0       -8.383874   -0.023436   -0.103888
     46          1           0       -7.156490   -0.752350   -1.126679
     47          6           0       -8.107647   -2.145152    0.252077
     48          1           0       -7.313926   -2.900361    0.252270
     49          1           0       -8.564810   -2.138263    1.246381
     50          1           0       -8.865488   -2.464008   -0.475005
 ---------------------------------------------------------------------
 Stoichiometry    C14H30O3S3
 Framework group  C1[X(C14H30O3S3)]
                         Standard orientation:                         
 ---------------------------------------------------------------------
 Center     Atomic      Atomic             Coordinates (Angstroms)
 Number     Number       Type             X           Y           Z
 ---------------------------------------------------------------------
      1          6           0       -8.081012    0.872897   -1.249585
      2          1           0       -8.716417   -0.013954   -1.151455
      3          1           0       -8.193179    1.477957   -0.343658
      4          1           0       -8.452528    1.454727   -2.101194
      5          6           0       -6.614108    0.505512   -1.466224
      6          1           0       -6.501107   -0.112384   -2.371842
      7          1           0       -6.018276    1.413161   -1.608906
      8          8           0       -6.022603   -0.157134   -0.353574
      9          6           0       -6.402290   -1.512889   -0.199536
     10          1           0       -6.294445   -2.058059   -1.151091
     11          1           0       -7.454412   -1.595498    0.119086
     12          6           0       -5.530049   -2.173302    0.858112
     13          1           0       -5.495931   -1.534686    1.752296
     14          1           0       -6.002414   -3.123840    1.139852
     15          8           0       -4.224368   -2.482409    0.399950
     16          6           0       -3.151361   -1.695496    0.893977
     17          1           0       -2.293935   -2.368166    1.008747
     18          1           0       -3.392416   -1.290982    1.888000
     19          6           0       -2.770246   -0.572298   -0.076890
     20          1           0       -3.605136    0.127953   -0.197615
     21          1           0       -2.550312   -1.012513   -1.055253
     22          8           0       -1.586144    0.097901    0.347663
     23          6           0       -1.811781    1.179755    1.241094
     24          1           0       -2.285443    0.822698    2.171604
     25          1           0       -2.487773    1.918713    0.784786
     26          6           0       -0.478734    1.826308    1.592314
     27          1           0        0.219586    1.076226    1.977372
     28          1           0       -0.641085    2.555054    2.394027
     29         16           0        0.331099    2.812210    0.271759
     30          6           0        0.895418    1.552256   -0.945808
     31          1           0        0.024253    1.147757   -1.465643
     32          1           0        1.488168    2.135850   -1.658153
     33          6           0        1.715679    0.384706   -0.400917
     34          1           0        2.036295   -0.222521   -1.256298
     35          1           0        1.089807   -0.245745    0.238282
     36         16           0        3.205150    0.938897    0.529536
     37          6           0        4.094786   -0.664503    0.624008
     38          1           0        3.371921   -1.446432    0.891165
     39          1           0        4.781394   -0.568907    1.471256
     40          6           0        4.856334   -1.084940   -0.639297
     41          1           0        5.153953   -2.137593   -0.555908
     42          1           0        4.212001   -1.010614   -1.521166
     43         16           0        6.335300   -0.077190   -1.046238
     44          6           0        7.573729   -0.748884    0.137003
     45          1           0        8.383172   -0.011233    0.118668
     46          1           0        7.154074   -0.726183    1.149229
     47          6           0        8.109907   -2.138272   -0.206482
     48          1           0        7.316940   -2.894219   -0.197372
     49          1           0        8.569436   -2.145640   -1.199691
     50          1           0        8.866326   -2.445544    0.527040
 ---------------------------------------------------------------------
 Standard basis: 6-31G(d) (6D, 7F)
   372 basis functions,   752 primitive gaussians,   372 cartesian basis functions
    93 alpha electrons       93 beta electrons
 Requested convergence on RMS density matrix=1.00D-08 within  64 cycles.
 Requested convergence on MAX density matrix=1.00D-06.
 Requested convergence on             energy=1.00D-06.
 SCF Done:  E(RB3LYP) =  -1971.74933342     A.U. after   11 cycles
            NFock= 11  Conv=0.64D-08     -V/T= 2.0058
 Step number   4 out of a maximum of   55
     Eigenvalues ---    0.00198   0.00230   0.00230   0.00231   0.00242
     Eigenvalues ---    0.00309   0.00310   0.00390   0.00398   0.00411
     Eigenvalues ---    0.00427   0.00450   0.00613   0.01281   0.01331
     Eigenvalues ---    0.01366   0.01418   0.01465   0.01692   0.04195
     Eigenvalues ---    0.04207   0.04235   0.04264   0.04493   0.04644
     Eigenvalues ---    0.04682   0.04763   0.04877   0.05140   0.05339
     Eigenvalues ---    0.05469   0.05478   0.05560   0.05565   0.05577
     Eigenvalues ---    0.05606   0.05657   0.05674   0.05732   0.05739
     Eigenvalues ---    0.05770   0.05857   0.05898   0.05913   0.06026
     Eigenvalues ---    0.06060   0.06225   0.11195   0.11241   0.11279
     Eigenvalues ---    0.11484   0.11607   0.11710   0.11806   0.11810
     Eigenvalues ---    0.11836   0.11859   0.11892   0.11975   0.13723
     Eigenvalues ---    0.13772   0.13873   0.13882   0.13926   0.13979
     Eigenvalues ---    0.14056   0.14070   0.14085   0.14102   0.14135
     Eigenvalues ---    0.14202   0.15994   0.16000   0.16000   0.16000
     Eigenvalues ---    0.16000   0.16002   0.21246   0.22018   0.22021
     Eigenvalues ---    0.22024   0.22043   0.22050   0.22057   0.22061
     Eigenvalues ---    0.22070   0.22112   0.22694   0.23060   0.23135
     Eigenvalues ---    0.23228   0.23469   0.23520   0.23967   0.24374
     Eigenvalues ---    0.24770   0.25000   0.25000   0.25006   0.25594
     Eigenvalues ---    0.28980   0.29042   0.29464   0.29572   0.29634
     Eigenvalues ---    0.29741   0.30240   0.33296   0.33390   0.33444
     Eigenvalues ---    0.33491   0.33632   0.33685   0.33707   0.33748
     Eigenvalues ---    0.33793   0.33910   0.33963   0.34030   0.34047
     Eigenvalues ---    0.34074   0.34101   0.34132   0.34174   0.34184
     Eigenvalues ---    0.34192   0.34203   0.34207   0.34211   0.34222
     Eigenvalues ---    0.34249   0.34272   0.34297   0.34305   0.34326
     Eigenvalues ---    0.34368   0.34636   0.36247   0.41112   0.41350
     Eigenvalues ---    0.41772   0.42304   0.42936   0.49291
 Maximum Force            0.001060     0.000015     NO 
 RMS     Force            0.000262     0.000010     NO 
 Maximum Displacement     0.666082     0.000060     NO 
 RMS     Displacement     0.227631     0.000040     NO 
                          Input orientation:                          
 ---------------------------------------------------------------------
 Center     Atomic      Atomic             Coordinates (Angstroms)
 Number     Number       Type             X           Y           Z
 ---------------------------------------------------------------------
      1          6           0        7.928656    0.720463    1.239462
      2          1           0        8.527803   -0.193864    1.169695
      3          1           0        8.076384    1.299068    0.321426
      4          1           0        8.314086    1.306236    2.082129
      5          6           0        6.445213    0.419386    1.445857
      6          1           0        6.296287   -0.173612    2.362874
      7          1           0        5.886758    1.354109    1.562589
      8          8           0        5.838706   -0.241728    0.340335
      9          6           0        6.163646   -1.615017    0.217882
     10          1           0        6.020695   -2.134920    1.178900
     11          1           0        7.215508   -1.748553   -0.084264
     12          6           0        5.276009   -2.259958   -0.836663
     13          1           0        5.289962   -1.643221   -1.746524
     14          1           0        5.707100   -3.238787   -1.087631
     15          8           0        3.948492   -2.487787   -0.394264
     16          6           0        2.925241   -1.649870   -0.909468
     17          1           0        2.029843   -2.271103   -1.027737
     18          1           0        3.198543   -1.270392   -1.904945
     19          6           0        2.598291   -0.494164    0.043302
     20          1           0        3.471142    0.158311    0.165394
     21          1           0        2.343872   -0.909569    1.024142
     22          8           0        1.459197    0.238412   -0.401121
     23          6           0        1.755473    1.294553   -1.304352
     24          1           0        2.217222    0.901860   -2.226504
     25          1           0        2.466876    1.999809   -0.848419
     26          6           0        0.465349    2.010354   -1.677587
     27          1           0       -0.263193    1.297478   -2.077290
     28          1           0        0.679688    2.732013   -2.473781
     29         16           0       -0.315694    3.031868   -0.368364
     30          6           0       -0.814786    1.806228    0.910609
     31          1           0        0.073082    1.481634    1.457605
     32          1           0       -1.449233    2.389574    1.586201
     33          6           0       -1.557677    0.566180    0.418817
     34          1           0       -1.859275   -0.012764    1.300436
     35          1           0       -0.885095   -0.061267   -0.174219
     36         16           0       -3.056874    0.983024   -0.566131
     37          6           0       -3.853730   -0.671445   -0.580156
     38          1           0       -3.080134   -1.426486   -0.772353
     39          1           0       -4.516761   -0.671710   -1.451125
     40          6           0       -4.632210   -1.046898    0.686928
     41          1           0       -4.866425   -2.118628    0.672378
     42          1           0       -4.023896   -0.870668    1.579759
     43         16           0       -6.182079   -0.104111    0.968023
     44          6           0       -7.340224   -0.968201   -0.171189
     45          1           0       -8.192412   -0.285308   -0.254325
     46          1           0       -6.887452   -1.024763   -1.167796
     47          6           0       -7.802848   -2.345558    0.303083
     48          1           0       -6.964882   -3.045031    0.397860
     49          1           0       -8.295342   -2.278278    1.278047
     50          1           0       -8.513013   -2.776451   -0.414366
 ---------------------------------------------------------------------
 Stoichiometry    C14H30O3S3
 Framework group  C1[X(C14H30O3S3)]
                         Standard orientation:                         
 ---------------------------------------------------------------------
 Center     Atomic      Atomic             Coordinates (Angstroms)
 Number     Number       Type             X           Y           Z
 ---------------------------------------------------------------------
      1          6           0       -7.928136    0.617209   -1.290984
      2          1           0       -8.525289   -0.293680   -1.174681
      3          1           0       -8.076797    1.241298   -0.403397
      4          1           0       -8.315114    1.158682   -2.162092
      5          6           0       -6.444119    0.309219   -1.482516
      6          1           0       -6.294230   -0.329191   -2.368356
      7          1           0       -5.887718    1.238011   -1.646739
      8          8           0       -5.835814   -0.293699   -0.345170
      9          6           0       -6.157755   -1.659704   -0.153103
     10          1           0       -6.014013   -2.227356   -1.086591
     11          1           0       -7.209224   -1.779991    0.155898
     12          6           0       -5.268372   -2.248454    0.932385
     13          1           0       -5.283343   -1.586411    1.809813
     14          1           0       -5.697270   -3.214218    1.232850
     15          8           0       -3.940519   -2.495589    0.501509
     16          6           0       -2.918898   -1.630448    0.973107
     17          1           0       -2.022124   -2.242975    1.122318
     18          1           0       -3.192676   -1.201570    1.948187
     19          6           0       -2.594762   -0.523840   -0.037178
     20          1           0       -3.469057    0.119743   -0.191801
     21          1           0       -2.339784   -0.987896   -0.995810
     22          8           0       -1.457095    0.232754    0.369020
     23          6           0       -1.755337    1.332697    1.217676
     24          1           0       -2.215924    0.986279    2.158759
     25          1           0       -2.468411    2.012411    0.726893
     26          6           0       -0.466628    2.069250    1.553559
     27          1           0        0.263583    1.379111    1.988563
     28          1           0       -0.682249    2.829890    2.312238
     29         16           0        0.311767    3.024735    0.193879
     30          6           0        0.813060    1.736894   -1.021533
     31          1           0       -0.074294    1.383091   -1.550970
     32          1           0        1.446020    2.286588   -1.726118
     33          6           0        1.558786    0.524962   -0.467839
     34          1           0        1.861329   -0.097292   -1.319107
     35          1           0        0.887758   -0.073044    0.156548
     36         16           0        3.057418    0.994404    0.494035
     37          6           0        3.857838   -0.655524    0.591564
     38          1           0        3.085935   -1.401498    0.822142
     39          1           0        4.521166   -0.610216    1.461128
     40          6           0        4.636692   -1.093075   -0.655205
     41          1           0        4.873219   -2.162187   -0.586443
     42          1           0        4.027696   -0.963636   -1.555549
     43         16           0        6.184433   -0.162449   -0.984435
     44          6           0        7.344823   -0.965197    0.196601
     45          1           0        8.195568   -0.277152    0.244624
     46          1           0        6.892514   -0.972124    1.194997
     47          6           0        7.810250   -2.363839   -0.207438
     48          1           0        6.973759   -3.069004   -0.266254
     49          1           0        8.302265   -2.345027   -1.184781
     50          1           0        8.521585   -2.756288    0.530615
 ---------------------------------------------------------------------
 Standard basis: 6-31G(d) (6D, 7F)
   372 basis functions,   752 primitive gaussians,   372 cartesian basis functions
    93 alpha electrons       93 beta electrons
 Requested convergence on RMS density matrix=1.00D-08 within  64 cycles.
 Requested convergence on MAX density matrix=1.00D-06.
 Requested convergence on             energy=1.00D-06.
 SCF Done:  E(RB3LYP) =  -1971.74892680     A.U. after   11 cycles
            NFock= 11  Conv=0.43D-08     -V/T= 2.0058
 Step number   5 out of a maximum of   55
     Eigenvalues ---    0.00139   0.00230   0.00230   0.00231   0.00300
     Eigenvalues ---    0.00309   0.00369   0.00390   0.00402   0.00418
     Eigenvalues ---    0.00450   0.00583   0.01202   0.01330   0.01366
     Eigenvalues ---    0.01417   0.01461   0.01692   0.01832   0.03931
     Eigenvalues ---    0.04231   0.04260   0.04390   0.04585   0.04681
     Eigenvalues ---    0.04768   0.04861   0.04978   0.05148   0.05246
     Eigenvalues ---    0.05463   0.05477   0.05524   0.05558   0.05577
     Eigenvalues ---    0.05601   0.05673   0.05680   0.05739   0.05750
     Eigenvalues ---    0.05823   0.05856   0.05906   0.05979   0.06046
     Eigenvalues ---    0.06117   0.06340   0.11063   0.11240   0.11274
     Eigenvalues ---    0.11488   0.11564   0.11695   0.11780   0.11795
     Eigenvalues ---    0.11815   0.11857   0.11864   0.11935   0.13283
     Eigenvalues ---    0.13770   0.13771   0.13882   0.13887   0.13962
     Eigenvalues ---    0.14057   0.14060   0.14084   0.14093   0.14150
     Eigenvalues ---    0.14621   0.15960   0.16000   0.16000   0.16000
     Eigenvalues ---    0.16000   0.16002   0.18448   0.22018   0.22022
     Eigenvalues ---    0.22041   0.22050   0.22050   0.22058   0.22069
     Eigenvalues ---    0.22080   0.22158   0.22889   0.23058   0.23173
     Eigenvalues ---    0.23234   0.23470   0.23524   0.23917   0.24388
     Eigenvalues ---    0.24882   0.25000   0.25005   0.25374   0.28997
     Eigenvalues ---    0.29020   0.29421   0.29571   0.29634   0.29725
     Eigenvalues ---    0.29799   0.33291   0.33384   0.33426   0.33457
     Eigenvalues ---    0.33522   0.33632   0.33688   0.33762   0.33798
     Eigenvalues ---    0.33907   0.33955   0.33965   0.34045   0.34056
     Eigenvalues ---    0.34101   0.34107   0.34132   0.34175   0.34183
     Eigenvalues ---    0.34192   0.34203   0.34207   0.34211   0.34222
     Eigenvalues ---    0.34251   0.34271   0.34297   0.34305   0.34327
     Eigenvalues ---    0.34553   0.36358   0.37428   0.41112   0.41339
     Eigenvalues ---    0.41771   0.42336   0.42943   0.49827
 Maximum Force            0.008815     0.000015     NO 
 RMS     Force            0.000914     0.000010     NO 
 Maximum Displacement     0.715950     0.000060     NO 
 RMS     Displacement     0.235357     0.000040     NO 
                          Input orientation:                          
 ---------------------------------------------------------------------
 Center     Atomic      Atomic             Coordinates (Angstroms)
 Number     Number       Type             X           Y           Z
 ---------------------------------------------------------------------
      1          6           0        8.073993    0.916639    1.184870
      2          1           0        8.717047    0.033454    1.105503
      3          1           0        8.176303    1.500190    0.263785
      4          1           0        8.444198    1.522654    2.020013
      5          6           0        6.611405    0.541819    1.417678
      6          1           0        6.508606   -0.056348    2.337664
      7          1           0        6.008885    1.447550    1.543525
      8          8           0        6.019450   -0.150786    0.323582
      9          6           0        6.410802   -1.506211    0.196387
     10          1           0        6.310933   -2.031162    1.160102
     11          1           0        7.462773   -1.586794   -0.123629
     12          6           0        5.539089   -2.197100   -0.842420
     13          1           0        5.506021   -1.581940   -1.752870
     14          1           0        6.016041   -3.152656   -1.100140
     15          8           0        4.232758   -2.493251   -0.377903
     16          6           0        3.157577   -1.711701   -0.875728
     17          1           0        2.295267   -2.380423   -0.980518
     18          1           0        3.393753   -1.317726   -1.875069
     19          6           0        2.782746   -0.575728    0.083227
     20          1           0        3.620131    0.123813    0.191861
     21          1           0        2.567448   -1.004662    1.067620
     22          8           0        1.597899    0.093061   -0.341982
     23          6           0        1.820848    1.163775   -1.249005
     24          1           0        2.289220    0.796284   -2.178163
     25          1           0        2.499942    1.906847   -0.803982
     26          6           0        0.488728    1.809190   -1.603859
     27          1           0       -0.206674    1.059723   -1.995711
     28          1           0        0.656227    2.541005   -2.402046
     29         16           0       -0.328568    2.792389   -0.287046
     30          6           0       -0.876031    1.532872    0.938358
     31          1           0        0.000819    1.123930    1.444983
     32          1           0       -1.456430    2.118070    1.659430
     33          6           0       -1.709894    0.371583    0.402100
     34          1           0       -2.025881   -0.235455    1.259523
     35          1           0       -1.094823   -0.262892   -0.243256
     36         16           0       -3.203795    0.936797   -0.514728
     37          6           0       -4.099903   -0.663617   -0.605617
     38          1           0       -3.376394   -1.451569   -0.852897
     39          1           0       -4.774724   -0.575734   -1.462982
     40          6           0       -4.880581   -1.061456    0.653217
     41          1           0       -5.179605   -2.114850    0.585117
     42          1           0       -4.249396   -0.971087    1.542980
     43         16           0       -6.366497   -0.044807    1.011967
     44          6           0       -7.590655   -0.776697   -0.150657
     45          1           0       -8.397855   -0.037541   -0.189758
     46          1           0       -7.153087   -0.814169   -1.154943
     47          6           0       -8.135939   -2.142888    0.264418
     48          1           0       -7.343746   -2.898135    0.314228
     49          1           0       -8.612178   -2.091234    1.248366
     50          1           0       -8.880356   -2.492574   -0.462436
 ---------------------------------------------------------------------
 Stoichiometry    C14H30O3S3
 Framework group  C1[X(C14H30O3S3)]
                         Standard orientation:                         
 ---------------------------------------------------------------------
 Center     Atomic      Atomic             Coordinates (Angstroms)
 Number     Number       Type             X           Y           Z
 ---------------------------------------------------------------------
      1          6           0       -8.073589    0.904521   -1.212487
      2          1           0       -8.716123    0.021253   -1.129902
      3          1           0       -8.178493    1.492886   -0.294762
      4          1           0       -8.442343    1.505782   -2.051698
      5          6           0       -6.610168    0.529648   -1.439917
      6          1           0       -6.504767   -0.073326   -2.356465
      7          1           0       -6.008080    1.435182   -1.569195
      8          8           0       -6.020197   -0.156644   -0.340784
      9          6           0       -6.410764   -1.511688   -0.207275
     10          1           0       -6.308249   -2.041682   -1.167948
     11          1           0       -7.463409   -1.591415    0.110735
     12          6           0       -5.540908   -2.196332    0.837207
     13          1           0       -5.510435   -1.576307    1.744441
     14          1           0       -6.017696   -3.150887    1.098911
     15          8           0       -4.233271   -2.493898    0.377292
     16          6           0       -3.159866   -1.708841    0.873428
     17          1           0       -2.297270   -2.376300    0.983769
     18          1           0       -3.398666   -1.309742    1.870109
     19          6           0       -2.783720   -0.577688   -0.090696
     20          1           0       -3.621407    0.120588   -0.204987
     21          1           0       -2.565805   -1.011683   -1.072291
     22          8           0       -1.600392    0.094311    0.333680
     23          6           0       -1.826289    1.169659    1.234470
     24          1           0       -2.296518    0.806743    2.164488
     25          1           0       -2.504942    1.909803    0.783928
     26          6           0       -0.495507    1.818029    1.588957
     27          1           0        0.199582    1.071221    1.986399
     28          1           0       -0.665434    2.553949    2.382845
     29         16           0        0.324051    2.794863    0.268815
     30          6           0        0.875348    1.529280   -0.948595
     31          1           0       -0.000002    1.116939   -1.455058
     32          1           0        1.456949    2.111099   -1.671432
     33          6           0        1.708891    0.371536   -0.404236
     34          1           0        2.027343   -0.239803   -1.257680
     35          1           0        1.092833   -0.259989    0.243070
     36         16           0        3.200217    0.942829    0.513016
     37          6           0        4.097384   -0.656353    0.614498
     38          1           0        3.373931   -1.443561    0.864299
     39          1           0        4.770151   -0.563363    1.472938
     40          6           0        4.881288   -1.060260   -0.640393
     41          1           0        5.180991   -2.113035   -0.565993
     42          1           0        4.252092   -0.975139   -1.532080
     43         16           0        6.367222   -0.044336   -1.001121
     44          6           0        7.589268   -0.769038    0.168208
     45          1           0        8.395788   -0.029033    0.205235
     46          1           0        7.149408   -0.801515    1.171666
     47          6           0        8.136597   -2.136979   -0.238324
     48          1           0        7.345121   -2.893120   -0.285940
     49          1           0        8.615069   -2.090181   -1.221431
     50          1           0        8.879608   -2.482189    0.492099
 ---------------------------------------------------------------------
 Standard basis: 6-31G(d) (6D, 7F)
   372 basis functions,   752 primitive gaussians,   372 cartesian basis functions
    93 alpha electrons       93 beta electrons
 Requested convergence on RMS density matrix=1.00D-08 within  64 cycles.
 Requested convergence on MAX density matrix=1.00D-06.
 Requested convergence on             energy=1.00D-06.
 SCF Done:  E(RB3LYP) =  -1971.74938345     A.U. after   11 cycles
            NFock= 11  Conv=0.56D-08     -V/T= 2.0058
 Step number   6 out of a maximum of   55
     Eigenvalues ---    0.00197   0.00230   0.00231   0.00237   0.00303
     Eigenvalues ---    0.00311   0.00387   0.00393   0.00405   0.00417
     Eigenvalues ---    0.00457   0.00636   0.01187   0.01331   0.01367
     Eigenvalues ---    0.01417   0.01459   0.01628   0.01752   0.04141
     Eigenvalues ---    0.04230   0.04275   0.04408   0.04643   0.04681
     Eigenvalues ---    0.04763   0.04869   0.05088   0.05133   0.05350
     Eigenvalues ---    0.05457   0.05477   0.05523   0.05558   0.05573
     Eigenvalues ---    0.05601   0.05666   0.05675   0.05739   0.05757
     Eigenvalues ---    0.05839   0.05869   0.05907   0.06027   0.06093
     Eigenvalues ---    0.06127   0.06468   0.11153   0.11243   0.11277
     Eigenvalues ---    0.11491   0.11593   0.11768   0.11790   0.11811
     Eigenvalues ---    0.11856   0.11881   0.11947   0.12137   0.13238
     Eigenvalues ---    0.13779   0.13797   0.13878   0.13902   0.13990
     Eigenvalues ---    0.14057   0.14059   0.14085   0.14128   0.14146
     Eigenvalues ---    0.14572   0.15981   0.16000   0.16000   0.16000
     Eigenvalues ---    0.16000   0.16006   0.19158   0.22018   0.22022
     Eigenvalues ---    0.22041   0.22045   0.22050   0.22058   0.22066
     Eigenvalues ---    0.22121   0.22287   0.22985   0.23059   0.23153
     Eigenvalues ---    0.23200   0.23446   0.23506   0.23850   0.24419
     Eigenvalues ---    0.24962   0.25000   0.25017   0.25854   0.28885
     Eigenvalues ---    0.29029   0.29328   0.29571   0.29633   0.29714
     Eigenvalues ---    0.29784   0.32993   0.33292   0.33395   0.33446
     Eigenvalues ---    0.33508   0.33631   0.33684   0.33726   0.33856
     Eigenvalues ---    0.33902   0.33939   0.33964   0.34020   0.34052
     Eigenvalues ---    0.34101   0.34116   0.34130   0.34174   0.34181
     Eigenvalues ---    0.34192   0.34203   0.34206   0.34211   0.34222
     Eigenvalues ---    0.34254   0.34271   0.34295   0.34305   0.34330
     Eigenvalues ---    0.34526   0.35859   0.37278   0.41133   0.41400
     Eigenvalues ---    0.41771   0.42303   0.42955   0.48769
 Maximum Force            0.000858     0.000015     NO 
 RMS     Force            0.000149     0.000010     NO 
 Maximum Displacement     0.086846     0.000060     NO 
 RMS     Displacement     0.028862     0.000040     NO 
                          Input orientation:                          
 ---------------------------------------------------------------------
 Center     Atomic      Atomic             Coordinates (Angstroms)
 Number     Number       Type             X           Y           Z
 ---------------------------------------------------------------------
      1          6           0        8.038006    0.915985    1.170099
      2          1           0        8.681127    0.031918    1.101982
      3          1           0        8.143965    1.490325    0.243641
      4          1           0        8.405205    1.530206    2.000557
      5          6           0        6.574395    0.543967    1.401157
      6          1           0        6.467815   -0.044598    2.326914
      7          1           0        5.971609    1.451102    1.515179
      8          8           0        5.986348   -0.159699    0.311984
      9          6           0        6.377704   -1.516609    0.200338
     10          1           0        6.272751   -2.031721    1.168889
     11          1           0        7.430901   -1.601402   -0.114397
     12          6           0        5.509855   -2.216540   -0.836233
     13          1           0        5.482122   -1.609838   -1.752766
     14          1           0        5.984237   -3.176649   -1.082296
     15          8           0        4.200074   -2.503682   -0.374437
     16          6           0        3.131489   -1.712806   -0.873377
     17          1           0        2.264412   -2.375458   -0.979660
     18          1           0        3.372908   -1.319602   -1.871969
     19          6           0        2.766221   -0.574399    0.087094
     20          1           0        3.609321    0.118023    0.195433
     21          1           0        2.547866   -1.001983    1.071529
     22          8           0        1.586848    0.104460   -0.337296
     23          6           0        1.817931    1.172966   -1.244537
     24          1           0        2.283665    0.803167   -2.174139
     25          1           0        2.502078    1.910697   -0.798349
     26          6           0        0.489802    1.827477   -1.597028
     27          1           0       -0.212353    1.083090   -1.986103
     28          1           0        0.658661    2.558872   -2.395386
     29         16           0       -0.317050    2.809503   -0.273991
     30          6           0       -0.865134    1.547740    0.950182
     31          1           0        0.010989    1.144186    1.463045
     32          1           0       -1.453115    2.129869    1.667527
     33          6           0       -1.689909    0.380663    0.412483
     34          1           0       -2.014322   -0.221032    1.270456
     35          1           0       -1.065386   -0.256361   -0.221039
     36         16           0       -3.176048    0.934891   -0.523930
     37          6           0       -4.066320   -0.669286   -0.613284
     38          1           0       -3.341695   -1.454119   -0.867199
     39          1           0       -4.746666   -0.580929   -1.466179
     40          6           0       -4.839466   -1.071623    0.649034
     41          1           0       -5.138485   -2.124810    0.579927
     42          1           0       -4.203439   -0.983877    1.535447
     43         16           0       -6.325032   -0.057075    1.017218
     44          6           0       -7.549981   -0.780255   -0.150669
     45          1           0       -8.355619   -0.039300   -0.186221
     46          1           0       -7.111803   -0.812925   -1.154891
     47          6           0       -8.099635   -2.147081    0.256808
     48          1           0       -7.309654   -2.904646    0.305186
     49          1           0       -8.578196   -2.098631    1.239805
     50          1           0       -8.843104   -2.491724   -0.473376
 ---------------------------------------------------------------------
 Stoichiometry    C14H30O3S3
 Framework group  C1[X(C14H30O3S3)]
                         Standard orientation:                         
 ---------------------------------------------------------------------
 Center     Atomic      Atomic             Coordinates (Angstroms)
 Number     Number       Type             X           Y           Z
 ---------------------------------------------------------------------
      1          6           0       -8.034036    0.902076   -1.197913
      2          1           0       -8.676301    0.017574   -1.127410
      3          1           0       -8.142989    1.480474   -0.274331
      4          1           0       -8.399857    1.512105   -2.032059
      5          6           0       -6.569418    0.530730   -1.423613
      6          1           0       -6.459829   -0.061889   -2.346427
      7          1           0       -5.967399    1.438045   -1.540226
      8          8           0       -5.983296   -0.167315   -0.329796
      9          6           0       -6.373359   -1.524164   -0.212993
     10          1           0       -6.265374   -2.043526   -1.178938
     11          1           0       -7.427244   -1.608765    0.099479
     12          6           0       -5.507307   -2.218385    0.828908
     13          1           0       -5.482581   -1.607512    1.742753
     14          1           0       -5.981193   -3.177926    1.078121
     15          8           0       -4.196037   -2.506078    0.371702
     16          6           0       -3.129628   -1.711704    0.869738
     17          1           0       -2.262053   -2.372853    0.981193
     18          1           0       -3.374012   -1.314272    1.865932
     19          6           0       -2.763266   -0.577224   -0.094954
     20          1           0       -3.606893    0.113713   -0.208540
     21          1           0       -2.541942   -1.009000   -1.076894
     22          8           0       -1.585752    0.104927    0.329317
     23          6           0       -1.820353    1.177252    1.231132
     24          1           0       -2.287993    0.811115    2.161226
     25          1           0       -2.504231    1.912157    0.779895
     26          6           0       -0.493873    1.834905    1.583988
     27          1           0        0.208164    1.093107    1.978187
     28          1           0       -0.665586    2.569704    2.378602
     29         16           0        0.315163    2.811881    0.258549
[...]
     19          6           0        2.686135   -0.873698    0.668973
     20          1           0        3.482643   -0.212490    1.035859
     21          1           0        2.312119   -1.464824    1.511081
     22          8           0        1.580867   -0.119763    0.184657
     23          6           0        1.935111    1.030333   -0.570875
     24          1           0        2.463572    0.743613   -1.495376
     25          1           0        2.608917    1.676443    0.012685
     26          6           0        0.670605    1.788532   -0.949219
     27          1           0       -0.029687    1.129183   -1.472027
     28          1           0        0.936332    2.591573   -1.645779
     29         16           0       -0.198942    2.663143    0.409353
     30          6           0       -0.907182    1.307544    1.435062
     31          1           0       -0.098804    0.810162    1.976014
     32          1           0       -1.535762    1.838949    2.157346
     33          6           0       -1.722608    0.244042    0.703210
     34          1           0       -2.149562   -0.426324    1.459248
     35          1           0       -1.066274   -0.353154    0.063047
     36         16           0       -3.091166    0.963959   -0.297560
     37          6           0       -4.020244   -0.579791   -0.655380
     38          1           0       -3.299271   -1.364705   -0.919030
     39          1           0       -4.601756   -0.369703   -1.558599
     40          6           0       -4.937586   -1.079902    0.467703
     41          1           0       -5.262963   -2.104852    0.250956
     42          1           0       -4.398178   -1.117021    1.419297
     43         16           0       -6.419411   -0.044451    0.791209
     44          6           0       -7.536998   -0.587142   -0.566862
     45          1           0       -8.311823    0.186050   -0.601099
     46          1           0       -6.997255   -0.530208   -1.519172
     47          6           0       -8.167083   -1.965812   -0.370567
     48          1           0       -7.409633   -2.756069   -0.324908
     49          1           0       -8.745869   -2.002322    0.557508
     50          1           0       -8.838591   -2.200132   -1.206554
 ---------------------------------------------------------------------
 Stoichiometry    C14H30O3S3
 Framework group  C1[X(C14H30O3S3)]
                         Standard orientation:                         
 ---------------------------------------------------------------------
 Center     Atomic      Atomic             Coordinates (Angstroms)
 Number     Number       Type             X           Y           Z
 ---------------------------------------------------------------------
      1          6           0       -7.892669    1.245373    0.295267
      2          1           0       -8.606971    0.467204    0.005629
      3          1           0       -7.845815    1.278889    1.388852
      4          1           0       -8.284193    2.204586   -0.063006
      5          6           0       -6.503542    0.995805   -0.289192
      6          1           0       -6.549123    0.954173   -1.389530
      7          1           0       -5.831636    1.817099   -0.017996
      8          8           0       -5.878065   -0.180986    0.214423
      9          6           0       -6.365912   -1.393089   -0.336963
     10          1           0       -6.291367   -1.372915   -1.436489
     11          1           0       -7.423796   -1.555908   -0.072336
     12          6           0       -5.549101   -2.558253    0.205482
     13          1           0       -5.556986   -2.525632    1.305402
     14          1           0       -6.034512   -3.490596   -0.107277
     15          8           0       -4.224971   -2.622698   -0.291284
     16          6           0       -3.251077   -1.813344    0.363041
     17          1           0       -2.441115   -2.463378    0.721190
     18          1           0       -3.687171   -1.298231    1.225747
     19          6           0       -2.678194   -0.806411   -0.638350
     20          1           0       -3.472904   -0.124278   -0.969043
     21          1           0       -2.303199   -1.349697   -1.511666
     22          8           0       -1.572878   -0.082777   -0.109930
     23          6           0       -1.927078    1.023441    0.708522
     24          1           0       -2.458007    0.685881    1.614253
     25          1           0       -2.598629    1.702523    0.160909
     26          6           0       -0.662284    1.757052    1.131717
     27          1           0        0.035868    1.068136    1.617984
     28          1           0       -0.928354    2.519952    1.871902
     29         16           0        0.211566    2.705500   -0.173506
     30          6           0        0.920052    1.408777   -1.272545
     31          1           0        0.112132    0.944003   -1.842407
     32          1           0        1.551017    1.979063   -1.962367
     33          6           0        1.732273    0.304374   -0.600121
     34          1           0        2.159898   -0.322967   -1.391862
     35          1           0        1.073637   -0.326923    0.003940
     36         16           0        3.099687    0.964488    0.442569
     37          6           0        4.025671   -0.598483    0.714708
     38          1           0        3.302949   -1.395856    0.932131
     39          1           0        4.605498   -0.440615    1.629572
     40          6           0        4.944747   -1.035926   -0.432847
     41          1           0        5.268118   -2.071994   -0.273573
     42          1           0        4.407389   -1.018441   -1.386164
     43         16           0        6.428824    0.013734   -0.694283
     44          6           0        7.542597   -0.606497    0.633382
     45          1           0        8.318495    0.162283    0.712826
     46          1           0        7.000836   -0.602500    1.586240
     47          6           0        8.171060   -1.972914    0.360967
     48          1           0        7.412537   -2.758115    0.269195
     49          1           0        8.751842   -1.957949   -0.566458
     50          1           0        8.840370   -2.255097    1.183829
 ---------------------------------------------------------------------
 Standard basis: 6-31G(d) (6D, 7F)
   372 basis functions,   752 primitive gaussians,   372 cartesian basis functions
    93 alpha electrons       93 beta electrons
 Requested convergence on RMS density matrix=1.00D-08 within  64 cycles.
 Requested convergence on MAX density matrix=1.00D-06.
 Requested convergence on             energy=1.00D-06.
 SCF Done:  E(RB3LYP) =  -1971.75009258     A.U. after    3 cycles
            NFock=  3  Conv=0.53D-08     -V/T= 2.0058
 Step number  45 out of a maximum of   55
     Eigenvalues ---    0.00102   0.00197   0.00230   0.00281   0.00304
     Eigenvalues ---    0.00332   0.00354   0.00388   0.00427   0.00435
     Eigenvalues ---    0.00450   0.00569   0.00603   0.00684   0.00801
     Eigenvalues ---    0.00818   0.01091   0.01397   0.01536   0.04395
     Eigenvalues ---    0.04462   0.04589   0.04680   0.04745   0.04766
     Eigenvalues ---    0.04886   0.04965   0.05307   0.05395   0.05446
     Eigenvalues ---    0.05464   0.05487   0.05531   0.05563   0.05595
     Eigenvalues ---    0.05609   0.05669   0.05691   0.05763   0.05813
     Eigenvalues ---    0.05862   0.05916   0.05992   0.06026   0.06107
     Eigenvalues ---    0.06183   0.06731   0.11122   0.11198   0.11289
     Eigenvalues ---    0.11373   0.11475   0.11729   0.11792   0.11807
     Eigenvalues ---    0.11860   0.11923   0.12030   0.12150   0.12842
     Eigenvalues ---    0.13391   0.13720   0.13776   0.13998   0.14051
     Eigenvalues ---    0.14068   0.14102   0.14182   0.14242   0.14363
     Eigenvalues ---    0.14827   0.15938   0.15978   0.16011   0.16015
     Eigenvalues ---    0.16043   0.16072   0.19341   0.20383   0.20944
     Eigenvalues ---    0.21293   0.22085   0.22171   0.22310   0.22638
     Eigenvalues ---    0.22892   0.23067   0.23190   0.23238   0.23385
     Eigenvalues ---    0.23498   0.23566   0.24096   0.24503   0.25228
     Eigenvalues ---    0.25550   0.25652   0.26928   0.27602   0.28814
     Eigenvalues ---    0.29213   0.29620   0.29650   0.29980   0.30197
     Eigenvalues ---    0.30661   0.31859   0.33288   0.33424   0.33442
     Eigenvalues ---    0.33553   0.33627   0.33785   0.33837   0.33913
     Eigenvalues ---    0.33950   0.33986   0.34092   0.34102   0.34112
     Eigenvalues ---    0.34167   0.34179   0.34191   0.34203   0.34213
     Eigenvalues ---    0.34222   0.34230   0.34242   0.34270   0.34279
     Eigenvalues ---    0.34296   0.34309   0.34349   0.34556   0.34714
     Eigenvalues ---    0.34943   0.35605   0.38106   0.40101   0.42091
     Eigenvalues ---    0.42159   0.42625   0.43389   0.55851
 Maximum Force            0.000000     0.000015     YES
 RMS     Force            0.000000     0.000010     YES
 Maximum Displacement     0.000246     0.000060     NO 
 RMS     Displacement     0.000064     0.000040     NO 
 Optimization completed on the basis of negligible forces.
    -- Stationary point found.
                          Input orientation:                          
 ---------------------------------------------------------------------
 Center     Atomic      Atomic             Coordinates (Angstroms)
 Number     Number       Type             X           Y           Z
 ---------------------------------------------------------------------
      1          6           0        7.901916    1.219715   -0.158948
      2          1           0        8.615576    0.425384    0.084756
      3          1           0        7.852794    1.314936   -1.248795
      4          1           0        8.295745    2.156607    0.251994
      5          6           0        6.513632    0.939644    0.413572
      6          1           0        6.561482    0.835941    1.509707
      7          1           0        5.842477    1.775928    0.190621
      8          8           0        5.885191   -0.205930   -0.154236
      9          6           0        6.372254   -1.447933    0.326823
     10          1           0        6.300076   -1.489704    1.425898
     11          1           0        7.429310   -1.597140    0.051096
     12          6           0        5.552417   -2.579424   -0.278675
     13          1           0        5.558019   -2.484820   -1.375018
     14          1           0        6.036987   -3.528647   -0.020078
     15          8           0        4.229242   -2.669817    0.216591
     16          6           0        3.255267   -1.823391   -0.388885
     17          1           0        2.443499   -2.450980   -0.781339
     18          1           0        3.690358   -1.261084   -1.222123
     19          6           0        2.686135   -0.873698    0.668973
     20          1           0        3.482643   -0.212490    1.035859
     21          1           0        2.312119   -1.464824    1.511081
     22          8           0        1.580867   -0.119763    0.184657
     23          6           0        1.935111    1.030333   -0.570875
     24          1           0        2.463572    0.743613   -1.495376
     25          1           0        2.608917    1.676443    0.012685
     26          6           0        0.670605    1.788532   -0.949219
     27          1           0       -0.029687    1.129183   -1.472027
     28          1           0        0.936332    2.591573   -1.645779
     29         16           0       -0.198942    2.663143    0.409353
     30          6           0       -0.907182    1.307544    1.435062
     31          1           0       -0.098804    0.810162    1.976014
     32          1           0       -1.535762    1.838949    2.157346
     33          6           0       -1.722608    0.244042    0.703210
     34          1           0       -2.149562   -0.426324    1.459248
     35          1           0       -1.066274   -0.353154    0.063047
     36         16           0       -3.091166    0.963959   -0.297560
     37          6           0       -4.020244   -0.579791   -0.655380
     38          1           0       -3.299271   -1.364705   -0.919030
     39          1           0       -4.601756   -0.369703   -1.558599
     40          6           0       -4.937586   -1.079902    0.467703
     41          1           0       -5.262963   -2.104852    0.250956
     42          1           0       -4.398178   -1.117021    1.419297
     43         16           0       -6.419411   -0.044451    0.791209
     44          6           0       -7.536998   -0.587142   -0.566862
     45          1           0       -8.311823    0.186050   -0.601099
     46          1           0       -6.997255   -0.530208   -1.519172
     47          6           0       -8.167083   -1.965812   -0.370567
     48          1           0       -7.409633   -2.756069   -0.324908
     49          1           0       -8.745869   -2.002322    0.557508
     50          1           0       -8.838591   -2.200132   -1.206554
 ---------------------------------------------------------------------
 Stoichiometry    C14H30O3S3
 Framework group  C1[X(C14H30O3S3)]
                         Standard orientation:                         
 ---------------------------------------------------------------------
 Center     Atomic      Atomic             Coordinates (Angstroms)
 Number     Number       Type             X           Y           Z
 ---------------------------------------------------------------------
      1          6           0       -7.892669    1.245373    0.295267
      2          1           0       -8.606971    0.467204    0.005629
      3          1           0       -7.845815    1.278889    1.388852
      4          1           0       -8.284193    2.204586   -0.063006
      5          6           0       -6.503542    0.995805   -0.289192
      6          1           0       -6.549123    0.954173   -1.389530
      7          1           0       -5.831636    1.817099   -0.017996
      8          8           0       -5.878065   -0.180986    0.214423
      9          6           0       -6.365912   -1.393089   -0.336963
     10          1           0       -6.291367   -1.372915   -1.436489
     11          1           0       -7.423796   -1.555908   -0.072336
     12          6           0       -5.549101   -2.558253    0.205482
     13          1           0       -5.556986   -2.525632    1.305402
     14          1           0       -6.034512   -3.490596   -0.107277
     15          8           0       -4.224971   -2.622698   -0.291284
     16          6           0       -3.251077   -1.813344    0.363041
     17          1           0       -2.441115   -2.463378    0.721190
     18          1           0       -3.687171   -1.298231    1.225747
     19          6           0       -2.678194   -0.806411   -0.638350
     20          1           0       -3.472904   -0.124278   -0.969043
     21          1           0       -2.303199   -1.349697   -1.511666
     22          8           0       -1.572878   -0.082777   -0.109930
     23          6           0       -1.927078    1.023441    0.708522
     24          1           0       -2.458007    0.685881    1.614253
     25          1           0       -2.598629    1.702523    0.160909
     26          6           0       -0.662284    1.757052    1.131717
     27          1           0        0.035868    1.068136    1.617984
     28          1           0       -0.928354    2.519952    1.871902
     29         16           0        0.211566    2.705500   -0.173506
     30          6           0        0.920052    1.408777   -1.272545
     31          1           0        0.112132    0.944003   -1.842407
     32          1           0        1.551017    1.979063   -1.962367
     33          6           0        1.732273    0.304374   -0.600121
     34          1           0        2.159898   -0.322967   -1.391862
     35          1           0        1.073637   -0.326923    0.003940
     36         16           0        3.099687    0.964488    0.442569
     37          6           0        4.025671   -0.598483    0.714708
     38          1           0        3.302949   -1.395856    0.932131
     39          1           0        4.605498   -0.440615    1.629572
     40          6           0        4.944747   -1.035926   -0.432847
     41          1           0        5.268118   -2.071994   -0.273573
     42          1           0        4.407389   -1.018441   -1.386164
     43         16           0        6.428824    0.013734   -0.694283
     44          6           0        7.542597   -0.606497    0.633382
     45          1           0        8.318495    0.162283    0.712826
     46          1           0        7.000836   -0.602500    1.586240
     47          6           0        8.171060   -1.972914    0.360967
     48          1           0        7.412537   -2.758115    0.269195
     49          1           0        8.751842   -1.957949   -0.566458
     50          1           0        8.840370   -2.255097    1.183829
 ---------------------------------------------------------------------
 Mulliken charges:
     1  C   -0.461702
     2  H    0.151643
     3  H    0.159070
     4  H    0.148677
     5  C   -0.016777
     6  H    0.125417
     7  H    0.146983
     8  O   -0.475132
     9  C   -0.023806
    10  H    0.130855
    11  H    0.120097
    12  C   -0.045207
    13  H    0.137086
    14  H    0.144702
    15  O   -0.477494
    16  C   -0.035997
    17  H    0.136566
    18  H    0.143422
    19  C   -0.039430
    20  H    0.139650
    21  H    0.148316
    22  O   -0.478769
    23  C   -0.004202
    24  H    0.127845
    25  H    0.138237
    26  C   -0.442588
    27  H    0.193097
    28  H    0.175759
    29  S    0.088958
    30  C   -0.410198
    31  H    0.189739
    32  H    0.182690
    33  C   -0.415655
    34  H    0.164710
    35  H    0.187502
    36  S    0.122662
    37  C   -0.416269
    38  H    0.164713
    39  H    0.178261
    40  C   -0.411530
    41  H    0.167910
    42  H    0.179886
    43  S    0.103029
    44  C   -0.413510
    45  H    0.177713
    46  H    0.166126
    47  C   -0.433365
    48  H    0.149326
    49  H    0.164106
    50  H    0.146877
 Sum of Mulliken charges =  -0.00000
 Dipole moment (field-independent basis, Debye):
    X=             -3.8648    Y=             -3.0755    Z=              1.2218  Tot=              5.0881
 Quadrupole moment (field-independent basis, Debye-Ang):
   XX=           -119.8567   YY=           -154.0535   ZZ=           -144.0039
   XY=            -15.3502   XZ=              7.7147   YZ=             -1.3159
 Traceless Quadrupole moment (field-independent basis, Debye-Ang):
   XX=             19.4480   YY=            -14.7488   ZZ=             -4.6992
   XY=            -15.3502   XZ=              7.7147   YZ=             -1.3159
 Octapole moment (field-independent basis, Debye-Ang**2):
  XXX=           -186.8516  YYY=            -27.7740  ZZZ=              0.1012  XYY=            -31.9952
  XXY=            -61.7107  XXZ=             56.1110  XZZ=            -19.4761  YZZ=              0.2824
  YYZ=              9.2529  XYZ=             -2.9441
 Hexadecapole moment (field-independent basis, Debye-Ang**3):
 XXXX=         -18751.8481 YYYY=          -2311.4115 ZZZZ=           -567.8468 XXXY=           -148.5159
 XXXZ=            641.5890 YYYX=             -4.0215 YYYZ=              3.0031 ZZZX=              9.7701
 ZZZY=              1.9626 XXYY=          -3745.2174 XXZZ=          -3612.0600 YYZZ=           -453.5680
 XXYZ=            -53.5572 YYXZ=            -35.6748 ZZXY=             15.3895
 Job cpu time:       0 days 11 hours 40 minutes 35.5 seconds.
 Normal termination of Gaussian 16 at Sun Jul  9 08:48:07 2023.
