 Copyright (c) 1988-2019, Gaussian, Inc.  All Rights Reserved.
  
 This is part of the Gaussian(R) 16 program.  It is based on
 the Gaussian(R) 09 system (copyright 2009, Gaussian, Inc.),
 the Gaussian(R) 03 system (copyright 2003, Gaussian, Inc.),
 the Gaussian(R) 98 system (copyright 1998, Gaussian, Inc.),
 the Gaussian(R) 94 system (copyright 1995, Gaussian, Inc.),
 the Gaussian 92(TM) system (copyright 1992, Gaussian, Inc.),
 the Gaussian 90(TM) system (copyright 1990, Gaussian, Inc.),
 the Gaussian 88(TM) system (copyright 1988, Gaussian, Inc.),
 the Gaussian 86(TM) system (copyright 1986, Carnegie Mellon
 University), and the Gaussian 82(TM) system (copyright 1983,
 Carnegie Mellon University). Gaussian is a federally registered
 trademark of Gaussian, Inc.
 Cite this work as:
 Gaussian 16, Revision C.01,
 M. J. Frisch, G. W. Trucks, H. B. Schlegel, G. E. Scuseria, 
 M. A. Robb, J. R. Cheeseman, G. Scalmani, V. Barone, 
 G. A. Petersson, H. Nakatsuji, X. Li, M. Caricato, A. V. Marenich, 
 J. Bloino, B. G. Janesko, R. Gomperts, B. Mennucci, H. P. Hratchian, 
 J. V. Ortiz, A. F. Izmaylov, J. L. Sonnenberg, D. Williams-Young, 
 F. Ding, F. Lipparini, F. Egidi, J. Goings, B. Peng, A. Petrone, 
 T. Henderson, D. Ranasinghe, V. G. Zakrzewski, J. Gao, N. Rega, 
 G. Zheng, W. Liang, M. Hada, M. Ehara, K. Toyota, R. Fukuda, 
 J. Hasegawa, M. Ishida, T. Nakajima, Y. Honda, O. Kitao, H. Nakai, 
 T. Vreven, K. Throssell, J. A. Montgomery, Jr., J. E. Peralta, 
 F. Ogliaro, M. J. Bearpark, J. J. Heyd, E. N. Brothers, K. N. Kudin, 
 V. N. Staroverov, T. A. Keith, R. Kobayashi, J. Normand, 
 K. Raghavachari, A. P. Rendell, J. C. Burant, S. S. Iyengar, 
 J. Tomasi, M. Cossi, J. M. Millam, M. Klene, C. Adamo, R. Cammi, 
 J. W. Ochterski, R. L. Martin, K. Morokuma, O. Farkas, 
 J. B. Foresman, and D. J. Fox, Gaussian, Inc., Wallingford CT, 2019.
 
 ******************************************
 Gaussian 16:  EM64L-G16RevC.01  3-Jul-2019
                 9-Jul-2023 
 ******************************************
 ----------------------------------------------------------------------
 #P B3LYP/6-31G(d) Integral=Ultrafine SCF(Conver=8,XQC,MaxConventionalC
 ycles=64,MaxCycle=128) NoSymm Test Pop=mk IOp(6/33=2) GFInput GFPrint
 ----------------------------------------------------------------------
 1/38=1,172=1/1;
 2/12=2,15=1,17=6,18=5,40=1/2;
 3/5=1,6=6,7=1,11=2,24=110,25=1,30=1,74=-5,75=-5/1,2,3;
 4//1;
 5/5=2,6=8,7=128,8=3,13=1,38=5,85=64/2,8;
 6/7=2,8=2,9=2,10=2,15=8,20=1,28=1,33=2/1,2;
 99/5=1,9=1/99;
 -------------------------------------------------
 MEP step - Input generated by PyRED DVE-DMDS-OPLS
 -------------------------------------------------
 Symbolic Z-matrix:
 Charge =  0 Multiplicity = 1
 C                     3.47858   4.77189  -4.52008 
 H                     2.71119   4.99056  -5.27126 
 H                     4.10659   5.66434  -4.41688 
 H                     4.10636   3.95571  -4.8931 
 C                     2.87489   4.4034   -3.1669 
 H                     3.6716    4.22915  -2.43859 
 H                     2.23892   5.221    -2.79112 
 O                     2.12217   3.19045  -3.18812 
 C                     0.87755   3.27728  -3.85632 
 H                     1.00953   3.2864   -4.95026 
 H                     0.34959   4.2005   -3.57002 
 C                     0.02106   2.08332  -3.48063 
 H                    -0.85821   2.05046  -4.14671 
 H                     0.59689   1.15849  -3.64109 
 O                    -0.39136   2.2201   -2.13282 
 C                    -1.30194   1.22663  -1.68797 
 H                    -2.04922   1.01686  -2.47272 
 H                    -1.82411   1.65854  -0.82796 
 C                    -0.6613   -0.09129  -1.24989 
 H                     0.01946  -0.47092  -2.02669 
 H                    -1.46842  -0.82959  -1.13456 
 O                     0.        0.        0. 
 C                     1.42259   0.        0. 
 H                     1.80088  -0.57718  -0.85689 
 H                     1.73228  -0.52274   0.91154 
 C                     2.00938   1.41408   0. 
 H                     1.64703   1.95582   0.87971 
 H                     1.70809   1.97879  -0.88554 
 S                     3.84079   1.41997   0.14118 
 C                     4.32235   0.9223   -1.56616 
 H                     4.04193  -0.12587  -1.7283 
 H                     3.77195   1.54161  -2.28074 
 C                     5.83298   1.04487  -1.78961 
 H                     6.08447   0.53879  -2.728 
 H                     6.39177   0.53314  -0.99877 
 S                     6.4926    2.75306  -1.99184 
 C                     7.00951   3.21865  -0.28448 
 H                     6.19374   3.01666   0.4132 
 H                     7.13608   4.30502  -0.33481 
 C                     8.30771   2.54458   0.1608 
 H                     8.17708   1.46001   0.22965 
 H                     9.10928   2.7254   -0.56154 
 S                     8.85537   3.04771   1.84476 
 C                     9.53781   4.72952   1.53605 
 H                     8.78302   5.33796   1.02595 
 H                     9.65682   5.15368   2.53878 
 C                     10.86784   4.75355   0.78387 
 H                     10.77313   4.32946  -0.22157 
 H                     11.2228   5.78622   0.67416 
 H                     11.6311   4.18136   1.32027 
 
 ITRead=  0  0  0  0  0  0  0  0  0  0  0  0  0  0  0  0  0  0  0  0
 ITRead=  0  0  0  0  0  0  0  0  0  0  0  0  0  0  0  0  0  0  0  0
 ITRead=  0  0  0  0  0  0  0  0  0  0
 MicOpt= -1 -1 -1 -1 -1 -1 -1 -1 -1 -1 -1 -1 -1 -1 -1 -1 -1 -1 -1 -1
 MicOpt= -1 -1 -1 -1 -1 -1 -1 -1 -1 -1 -1 -1 -1 -1 -1 -1 -1 -1 -1 -1
 MicOpt= -1 -1 -1 -1 -1 -1 -1 -1 -1 -1
 NAtoms=     50 NQM=       50 NQMF=       0 NMMI=      0 NMMIF=      0
                NMic=       0 NMicF=      0.
                          Input orientation:                          
 ---------------------------------------------------------------------
 Center     Atomic      Atomic             Coordinates (Angstroms)
 Number     Number       Type             X           Y           Z
 ---------------------------------------------------------------------
      1          6           0        3.478582    4.771887   -4.520076
      2          1           0        2.711193    4.990557   -5.271258
      3          1           0        4.106590    5.664336   -4.416878
      4          1           0        4.106364    3.955713   -4.893103
      5          6           0        2.874887    4.403403   -3.166898
      6          1           0        3.671598    4.229146   -2.438589
      7          1           0        2.238920    5.220995   -2.791120
      8          8           0        2.122171    3.190453   -3.188122
      9          6           0        0.877549    3.277280   -3.856324
     10          1           0        1.009530    3.286396   -4.950263
     11          1           0        0.349592    4.200497   -3.570022
     12          6           0        0.021063    2.083317   -3.480627
     13          1           0       -0.858214    2.050461   -4.146714
     14          1           0        0.596888    1.158487   -3.641093
     15          8           0       -0.391361    2.220102   -2.132824
     16          6           0       -1.301935    1.226632   -1.687965
     17          1           0       -2.049219    1.016855   -2.472722
     18          1           0       -1.824105    1.658535   -0.827956
     19          6           0       -0.661304   -0.091293   -1.249895
     20          1           0        0.019456   -0.470918   -2.026693
     21          1           0       -1.468421   -0.829589   -1.134556
     22          8           0        0.000000    0.000000    0.000000
     23          6           0        1.422588    0.000000    0.000000
     24          1           0        1.800878   -0.577178   -0.856890
     25          1           0        1.732276   -0.522740    0.911539
     26          6           0        2.009384    1.414084    0.000000
     27          1           0        1.647032    1.955816    0.879707
     28          1           0        1.708090    1.978792   -0.885535
     29         16           0        3.840793    1.419967    0.141175
     30          6           0        4.322354    0.922302   -1.566158
     31          1           0        4.041928   -0.125866   -1.728301
     32          1           0        3.771945    1.541609   -2.280741
     33          6           0        5.832984    1.044867   -1.789609
     34          1           0        6.084474    0.538785   -2.727996
     35          1           0        6.391773    0.533144   -0.998774
     36         16           0        6.492597    2.753059   -1.991840
     37          6           0        7.009508    3.218646   -0.284480
     38          1           0        6.193738    3.016661    0.413200
     39          1           0        7.136077    4.305019   -0.334807
     40          6           0        8.307711    2.544579    0.160795
     41          1           0        8.177085    1.460010    0.229652
     42          1           0        9.109284    2.725401   -0.561537
     43         16           0        8.855366    3.047712    1.844757
     44          6           0        9.537810    4.729517    1.536048
     45          1           0        8.783023    5.337959    1.025955
     46          1           0        9.656817    5.153681    2.538775
     47          6           0       10.867840    4.753548    0.783868
     48          1           0       10.773132    4.329462   -0.221571
     49          1           0       11.222802    5.786224    0.674158
     50          1           0       11.631104    4.181356    1.320268
 ---------------------------------------------------------------------
 Stoichiometry    C14H30O3S3
 Framework group  C1[X(C14H30O3S3)]
 Standard basis: 6-31G(d) (6D, 7F)
   372 basis functions,   752 primitive gaussians,   372 cartesian basis functions
    93 alpha electrons       93 beta electrons
 Requested convergence on RMS density matrix=1.00D-08 within  64 cycles.
 Requested convergence on MAX density matrix=1.00D-06.
 Requested convergence on             energy=1.00D-06.
 SCF Done:  E(RB3LYP) =  -1971.75489206     A.U. after   13 cycles
            NFock= 13  Conv=0.45D-08     -V/T= 2.0058
 Mulliken charges:
     1  C   -0.461578
     2  H    0.143859
     3  H    0.148602
     4  H    0.159862
     5  C   -0.034033
     6  H    0.181573
     7  H    0.124698
     8  O   -0.467049
     9  C   -0.021264
    10  H    0.124266
    11  H    0.134758
    12  C   -0.033857
    13  H    0.122806
    14  H    0.132524
    15  O   -0.461682
    16  C   -0.027957
    17  H    0.112456
    18  H    0.160035
    19  C   -0.038500
    20  H    0.126035
    21  H    0.136300
    22  O   -0.469616
    23  C   -0.020498
    24  H    0.122516
    25  H    0.153935
    26  C   -0.453713
    27  H    0.176560
    28  H    0.221231
    29  S    0.061899
    30  C   -0.408071
    31  H    0.162474
    32  H    0.211900
    33  C   -0.433968
    34  H    0.181927
    35  H    0.183226
    36  S    0.076731
    37  C   -0.424243
    38  H    0.222810
    39  H    0.174873
    40  C   -0.412861
    41  H    0.179203
    42  H    0.182583
    43  S    0.083210
    44  C   -0.410578
    45  H    0.168928
    46  H    0.177082
    47  C   -0.435450
    48  H    0.153911
    49  H    0.148039
    50  H    0.164108
 Sum of Mulliken charges =  -0.00000
 Dipole moment (field-independent basis, Debye):
    X=             -1.3175    Y=              0.3774    Z=             -3.8442  Tot=              4.0812
 Quadrupole moment (field-independent basis, Debye-Ang):
   XX=           -147.8412   YY=           -135.0313   ZZ=           -141.5494
   XY=              6.2809   XZ=             -5.7685   YZ=             -2.8670
 Traceless Quadrupole moment (field-independent basis, Debye-Ang):
   XX=             -6.3672   YY=              6.4427   ZZ=             -0.0755
   XY=              6.2809   XZ=             -5.7685   YZ=             -2.8670
 Octapole moment (field-independent basis, Debye-Ang**2):
  XXX=          -1851.6457  YYY=           -960.5670  ZZZ=            429.8251  XYY=           -522.3176
  XXY=           -257.1996  XXZ=            114.6886  XZZ=           -664.4164  YZZ=           -336.4076
  YYZ=            147.1928  XYZ=             14.3431
 Hexadecapole moment (field-independent basis, Debye-Ang**3):
 XXXX=         -27073.3207 YYYY=          -6761.3776 ZZZZ=          -4047.5953 XXXY=          -4662.0975
 XXXZ=             98.9285 YYYX=          -5096.1594 YYYZ=           1196.7192 ZZZX=            354.1671
 ZZZY=           1146.1557 XXYY=          -4844.2951 XXZZ=          -5629.4309 YYZZ=          -1817.4166
 XXYZ=            605.5397 YYXZ=            227.5749 ZZXY=          -2015.4330
 Merz-Kollman atomic radii used.
 Atom Element Radius
    1     6    1.50
    2     1    1.20
    3     1    1.20
    4     1    1.20
    5     6    1.50
    6     1    1.20
    7     1    1.20
    8     8    1.40
    9     6    1.50
   10     1    1.20
   11     1    1.20
   12     6    1.50
   13     1    1.20
   14     1    1.20
   15     8    1.40
   16     6    1.50
   17     1    1.20
   18     1    1.20
   19     6    1.50
   20     1    1.20
   21     1    1.20
   22     8    1.40
   23     6    1.50
   24     1    1.20
   25     1    1.20
   26     6    1.50
   27     1    1.20
   28     1    1.20
   29    16    1.75
   30     6    1.50
   31     1    1.20
   32     1    1.20
   33     6    1.50
   34     1    1.20
   35     1    1.20
   36    16    1.75
   37     6    1.50
   38     1    1.20
   39     1    1.20
   40     6    1.50
   41     1    1.20
   42     1    1.20
   43    16    1.75
   44     6    1.50
   45     1    1.20
   46     1    1.20
   47     6    1.50
   48     1    1.20
   49     1    1.20
   50     1    1.20
 Generate VDW surfaces: Layer= 4 Dens= 1 Start= 1.400 Inc= 0.200
            Electrostatic Properties Using The SCF Density.


       Atomic Center    1 is at   3.478582  4.771887 -4.520076
       Atomic Center    2 is at   2.711193  4.990557 -5.271258
       Atomic Center    3 is at   4.106590  5.664336 -4.416878
       Atomic Center    4 is at   4.106364  3.955713 -4.893103
       Atomic Center    5 is at   2.874887  4.403403 -3.166898
       Atomic Center    6 is at   3.671598  4.229146 -2.438589
       Atomic Center    7 is at   2.238920  5.220995 -2.791120
       Atomic Center    8 is at   2.122171  3.190453 -3.188122
       Atomic Center    9 is at   0.877549  3.277280 -3.856324
       Atomic Center   10 is at   1.009530  3.286396 -4.950263
       Atomic Center   11 is at   0.349592  4.200497 -3.570022
       Atomic Center   12 is at   0.021063  2.083317 -3.480627
       Atomic Center   13 is at  -0.858214  2.050461 -4.146714
       Atomic Center   14 is at   0.596888  1.158487 -3.641093
       Atomic Center   15 is at  -0.391361  2.220102 -2.132824
       Atomic Center   16 is at  -1.301935  1.226632 -1.687965
       Atomic Center   17 is at  -2.049219  1.016855 -2.472722
       Atomic Center   18 is at  -1.824105  1.658535 -0.827956
       Atomic Center   19 is at  -0.661304 -0.091293 -1.249895
       Atomic Center   20 is at   0.019456 -0.470918 -2.026693
       Atomic Center   21 is at  -1.468421 -0.829589 -1.134556
       Atomic Center   22 is at   0.000000  0.000000  0.000000
       Atomic Center   23 is at   1.422588  0.000000  0.000000
       Atomic Center   24 is at   1.800878 -0.577178 -0.856890
       Atomic Center   25 is at   1.732276 -0.522740  0.911539
       Atomic Center   26 is at   2.009384  1.414084  0.000000
       Atomic Center   27 is at   1.647032  1.955816  0.879707
       Atomic Center   28 is at   1.708090  1.978792 -0.885535
       Atomic Center   29 is at   3.840793  1.419967  0.141175
       Atomic Center   30 is at   4.322354  0.922302 -1.566158
       Atomic Center   31 is at   4.041928 -0.125866 -1.728301
       Atomic Center   32 is at   3.771945  1.541609 -2.280741
       Atomic Center   33 is at   5.832984  1.044867 -1.789609
       Atomic Center   34 is at   6.084474  0.538785 -2.727996
       Atomic Center   35 is at   6.391773  0.533144 -0.998774
       Atomic Center   36 is at   6.492597  2.753059 -1.991840
       Atomic Center   37 is at   7.009508  3.218646 -0.284480
       Atomic Center   38 is at   6.193738  3.016661  0.413200
       Atomic Center   39 is at   7.136077  4.305019 -0.334807
       Atomic Center   40 is at   8.307711  2.544579  0.160795
       Atomic Center   41 is at   8.177085  1.460010  0.229652
       Atomic Center   42 is at   9.109284  2.725401 -0.561537
       Atomic Center   43 is at   8.855366  3.047712  1.844757
       Atomic Center   44 is at   9.537810  4.729517  1.536048
       Atomic Center   45 is at   8.783023  5.337959  1.025955
       Atomic Center   46 is at   9.656817  5.153681  2.538775
       Atomic Center   47 is at  10.867840  4.753548  0.783868
       Atomic Center   48 is at  10.773132  4.329462 -0.221571
       Atomic Center   49 is at  11.222802  5.786224  0.674158
       Atomic Center   50 is at  11.631104  4.181356  1.320268
      ESP Fit Center   51 is at   5.297235  4.771887 -3.470076
      ESP Fit Center   52 is at   5.578582  4.771887 -4.520076
      ESP Fit Center   53 is at   2.733912  6.735421 -4.520076
      ESP Fit Center   54 is at   3.219761  6.572029 -5.570076
      ESP Fit Center   55 is at   4.528582  4.771887 -6.338729
      ESP Fit Center   56 is at   4.003582  5.681214 -6.338729
      ESP Fit Center   57 is at   1.912306  6.374271 -4.752109
      ESP Fit Center   58 is at   1.209776  5.537028 -4.752109
      ESP Fit Center   59 is at   2.988644  6.564058 -5.790407
      ESP Fit Center   60 is at   1.912306  6.374271 -5.790407
      ESP Fit Center   61 is at   1.209776  5.537028 -5.790407
      ESP Fit Center   62 is at   3.698672  4.990557 -6.630407
      ESP Fit Center   63 is at   3.016341  5.929706 -6.630407
      ESP Fit Center   64 is at   1.912306  5.570983 -6.630407
      ESP Fit Center   65 is at   1.912306  4.410131 -6.630407
      ESP Fit Center   66 is at   3.016341  4.051408 -6.630407
      ESP Fit Center   67 is at   2.711193  4.990557 -6.951258
      ESP Fit Center   68 is at   5.094069  5.664336 -3.057729
      ESP Fit Center   69 is at   4.411738  6.603485 -3.057729
      ESP Fit Center   70 is at   5.704365  5.664336 -3.897729
      ESP Fit Center   71 is at   5.330557  6.691366 -3.897729
      ESP Fit Center   72 is at   4.384041  7.237837 -3.897729
      ESP Fit Center   73 is at   3.307703  7.048050 -3.897729
      ESP Fit Center   74 is at   5.704365  5.664336 -4.936027
      ESP Fit Center   75 is at   5.330557  6.691366 -4.936027
      ESP Fit Center   76 is at   4.384041  7.237837 -4.936027
      ESP Fit Center   77 is at   3.307703  7.048050 -4.936027
      ESP Fit Center   78 is at   5.094069  5.664336 -5.776027
      ESP Fit Center   79 is at   4.411738  6.603485 -5.776027
      ESP Fit Center   80 is at   4.411512  3.016564 -3.533954
      ESP Fit Center   81 is at   5.704139  3.955713 -4.373954
      ESP Fit Center   82 is at   4.383815  2.382212 -4.373954
      ESP Fit Center   83 is at   5.330331  2.928683 -4.373954
      ESP Fit Center   84 is at   5.704139  3.955713 -5.412252
      ESP Fit Center   85 is at   3.307477  2.571999 -5.412252
      ESP Fit Center   86 is at   4.383815  2.382212 -5.412252
      ESP Fit Center   87 is at   5.330331  2.928683 -5.412252
      ESP Fit Center   88 is at   5.093843  3.955713 -6.252252
      ESP Fit Center   89 is at   3.307477  3.375287 -6.252252
      ESP Fit Center   90 is at   4.411512  3.016564 -6.252252
      ESP Fit Center   91 is at   4.106364  3.955713 -6.573103
      ESP Fit Center   92 is at   1.824887  4.403403 -1.348245
      ESP Fit Center   93 is at   3.630383  6.057708 -2.116898
      ESP Fit Center   94 is at   3.671598  4.229146 -0.758589
      ESP Fit Center   95 is at   4.659077  4.229146 -1.079440
      ESP Fit Center   96 is at   3.976746  5.168295 -1.079440
      ESP Fit Center   97 is at   2.872711  4.809572 -1.079440
      ESP Fit Center   98 is at   2.872711  3.648720 -1.079440
      ESP Fit Center   99 is at   4.895565  5.256176 -1.919440
      ESP Fit Center  100 is at   3.949049  5.802647 -1.919440
      ESP Fit Center  101 is at   4.895565  5.256176 -2.957738
      ESP Fit Center  102 is at   2.238920  5.220995 -1.111120
      ESP Fit Center  103 is at   2.544068  6.160144 -1.431971
      ESP Fit Center  104 is at   1.440033  5.801421 -1.431971
      ESP Fit Center  105 is at   1.440033  4.640569 -1.431971
      ESP Fit Center  106 is at   3.462887  6.248025 -2.271971
      ESP Fit Center  107 is at   2.516371  6.794496 -2.271971
      ESP Fit Center  108 is at   1.440033  6.604709 -2.271971
      ESP Fit Center  109 is at   0.737503  5.767466 -2.271971
      ESP Fit Center  110 is at   2.516371  6.794496 -3.310269
      ESP Fit Center  111 is at   1.440033  6.604709 -3.310269
      ESP Fit Center  112 is at   1.440033  5.801421 -4.150269
      ESP Fit Center  113 is at   1.632171  4.039158 -1.490712
      ESP Fit Center  114 is at   2.646699  1.576120 -4.168122
      ESP Fit Center  115 is at   3.495404  2.192741 -4.168122
      ESP Fit Center  116 is at   2.612171  2.341748 -4.885532
      ESP Fit Center  117 is at  -0.867436  3.789654 -4.906324
      ESP Fit Center  118 is at   1.633045  1.622975 -4.906324
      ESP Fit Center  119 is at   0.210643  4.670110 -5.469412
      ESP Fit Center  120 is at  -0.491887  3.832867 -5.469412
      ESP Fit Center  121 is at   1.286981  1.712895 -5.469412
      ESP Fit Center  122 is at   2.233497  2.259366 -5.469412
      ESP Fit Center  123 is at   1.997009  3.286396 -6.309412
      ESP Fit Center  124 is at   1.314678  4.225545 -6.309412
      ESP Fit Center  125 is at   0.210643  3.866822 -6.309412
      ESP Fit Center  126 is at   0.210643  2.705970 -6.309412
      ESP Fit Center  127 is at   1.314678  2.347247 -6.309412
      ESP Fit Center  128 is at   1.009530  3.286396 -6.630263
      ESP Fit Center  129 is at   0.349592  4.200497 -1.890022
      ESP Fit Center  130 is at   0.654740  5.139646 -2.210873
      ESP Fit Center  131 is at  -0.449295  4.780923 -2.210873
      ESP Fit Center  132 is at   0.627043  5.773998 -3.050873
      ESP Fit Center  133 is at  -0.449295  5.584211 -3.050873
      ESP Fit Center  134 is at  -1.151825  4.746968 -3.050873
      ESP Fit Center  135 is at   0.627043  5.773998 -4.089171
      ESP Fit Center  136 is at  -0.449295  5.584211 -4.089171
      ESP Fit Center  137 is at  -1.151825  4.746968 -4.089171
      ESP Fit Center  138 is at   0.654740  5.139646 -4.929171
      ESP Fit Center  139 is at  -0.449295  4.780923 -4.929171
      ESP Fit Center  140 is at  -1.550810  3.475875 -3.480627
      ESP Fit Center  141 is at  -0.723607  0.119783 -3.480627
      ESP Fit Center  142 is at  -1.657101  3.434175 -3.627565
      ESP Fit Center  143 is at  -2.359631  2.596932 -3.627565
      ESP Fit Center  144 is at  -1.657101  3.434175 -4.665863
      ESP Fit Center  145 is at  -2.359631  2.596932 -4.665863
      ESP Fit Center  146 is at  -2.359631  1.503990 -4.665863
      ESP Fit Center  147 is at  -1.657101  0.666747 -4.665863
      ESP Fit Center  148 is at  -0.553066  2.989610 -5.505863
      ESP Fit Center  149 is at  -1.657101  2.630887 -5.505863
      ESP Fit Center  150 is at  -1.657101  1.470035 -5.505863
      ESP Fit Center  151 is at  -0.553066  1.111312 -5.505863
      ESP Fit Center  152 is at  -0.858214  2.050461 -5.826714
      ESP Fit Center  153 is at   2.194663  1.158487 -3.121944
      ESP Fit Center  154 is at   1.820855  0.131457 -3.121944
      ESP Fit Center  155 is at   2.194663  1.158487 -4.160242
      ESP Fit Center  156 is at  -0.201999 -0.225227 -4.160242
      ESP Fit Center  157 is at   0.874339 -0.415014 -4.160242
      ESP Fit Center  158 is at   1.820855  0.131457 -4.160242
      ESP Fit Center  159 is at   1.584367  1.158487 -5.000242
      ESP Fit Center  160 is at  -0.201999  0.578061 -5.000242
      ESP Fit Center  161 is at   0.902036  0.219338 -5.000242
      ESP Fit Center  162 is at   0.596888  1.158487 -5.321093
      ESP Fit Center  163 is at   0.098639  3.068807 -0.435414
      ESP Fit Center  164 is at  -0.881361  3.068807 -0.435414
      ESP Fit Center  165 is at   0.133167  3.834435 -1.152824
      ESP Fit Center  166 is at  -0.915889  3.834435 -1.152824
      ESP Fit Center  167 is at  -1.371361  3.917512 -2.132824
      ESP Fit Center  168 is at  -2.088771  3.200102 -2.132824
      ESP Fit Center  169 is at  -1.764594  3.217814 -3.112824
      ESP Fit Center  170 is at  -2.046605  3.190166 -1.687965
      ESP Fit Center  171 is at  -3.550636  1.563326 -1.953573
      ESP Fit Center  172 is at  -3.550636  0.470384 -1.953573
      ESP Fit Center  173 is at  -2.848106  2.400569 -2.991871
      ESP Fit Center  174 is at  -3.550636  1.563326 -2.991871
      ESP Fit Center  175 is at  -3.550636  0.470384 -2.991871
      ESP Fit Center  176 is at  -2.848106 -0.366859 -2.991871
      ESP Fit Center  177 is at  -1.771768 -0.556646 -2.991871
      ESP Fit Center  178 is at  -2.848106  1.597281 -3.831871
      ESP Fit Center  179 is at  -2.848106  0.436429 -3.831871
      ESP Fit Center  180 is at  -1.744071  0.077706 -3.831871
      ESP Fit Center  181 is at  -1.824105  1.658535  0.852044
      ESP Fit Center  182 is at  -1.518957  2.597684  0.531193
      ESP Fit Center  183 is at  -2.622992  2.238961  0.531193
      ESP Fit Center  184 is at  -2.622992  1.078109  0.531193
      ESP Fit Center  185 is at  -1.546654  3.232036 -0.308807
      ESP Fit Center  186 is at  -2.622992  3.042249 -0.308807
      ESP Fit Center  187 is at  -3.325522  2.205006 -0.308807
      ESP Fit Center  188 is at  -3.325522  1.112064 -0.308807
      ESP Fit Center  189 is at  -2.622992  0.274821 -0.308807
      ESP Fit Center  190 is at  -2.622992  3.042249 -1.347105
      ESP Fit Center  191 is at  -3.325522  2.205006 -1.347105
      ESP Fit Center  192 is at  -0.408177 -2.175982 -1.249895
      ESP Fit Center  193 is at   0.296907 -2.044419 -1.507544
      ESP Fit Center  194 is at   1.617231 -0.470918 -2.545842
      ESP Fit Center  195 is at  -0.779431 -1.854632 -2.545842
      ESP Fit Center  196 is at   0.296907 -2.044419 -2.545842
      ESP Fit Center  197 is at   1.243423 -1.497948 -2.545842
      ESP Fit Center  198 is at   1.006935 -0.470918 -3.385842
      ESP Fit Center  199 is at  -0.779431 -1.051344 -3.385842
      ESP Fit Center  200 is at   0.324604 -1.410067 -3.385842
      ESP Fit Center  201 is at   0.019456 -0.470918 -3.706693
      ESP Fit Center  202 is at  -2.267308 -0.249163  0.224593
      ESP Fit Center  203 is at  -2.267308 -1.410015  0.224593
      ESP Fit Center  204 is at  -1.163273 -1.768738  0.224593
      ESP Fit Center  205 is at  -2.969838 -0.283118 -0.615407
      ESP Fit Center  206 is at  -2.969838 -1.376060 -0.615407
      ESP Fit Center  207 is at  -2.267308 -2.213303 -0.615407
      ESP Fit Center  208 is at  -1.190970 -2.403090 -0.615407
      ESP Fit Center  209 is at  -2.969838 -0.283118 -1.653705
      ESP Fit Center  210 is at  -2.969838 -1.376060 -1.653705
      ESP Fit Center  211 is at  -2.267308 -2.213303 -1.653705
      ESP Fit Center  212 is at  -1.190970 -2.403090 -1.653705
      ESP Fit Center  213 is at  -2.267308 -1.410015 -2.493705
      ESP Fit Center  214 is at  -1.163273 -1.768738 -2.493705
      ESP Fit Center  215 is at   0.000000  0.000000  1.960000
      ESP Fit Center  216 is at   0.490000  0.848705  1.697410
      ESP Fit Center  217 is at  -0.490000  0.848705  1.697410
      ESP Fit Center  218 is at  -0.980000  0.000000  1.697410
      ESP Fit Center  219 is at  -0.490000 -0.848705  1.697410
      ESP Fit Center  220 is at  -0.524528  1.614333  0.980000
      ESP Fit Center  221 is at  -1.373233  0.997712  0.980000
      ESP Fit Center  222 is at  -1.697410  0.000000  0.980000
      ESP Fit Center  223 is at  -1.373233 -0.997712  0.980000
      ESP Fit Center  224 is at  -0.524528 -1.614333  0.980000
      ESP Fit Center  225 is at  -0.000000 -1.960000  0.000000
      ESP Fit Center  226 is at   0.677918 -1.963534  0.000000
      ESP Fit Center  227 is at   1.675715 -2.084689  0.000000
      ESP Fit Center  228 is at   3.282046 -0.975919  0.000000
      ESP Fit Center  229 is at   2.078329 -2.150679 -0.337741
      ESP Fit Center  230 is at   3.024845 -1.604208 -0.337741
      ESP Fit Center  231 is at   1.001991 -1.960892 -1.376039
      ESP Fit Center  232 is at   2.078329 -2.150679 -1.376039
      ESP Fit Center  233 is at   3.024845 -1.604208 -1.376039
      ESP Fit Center  234 is at   2.106026  0.361971 -2.216039
      ESP Fit Center  235 is at   2.106026 -1.516327 -2.216039
      ESP Fit Center  236 is at   1.800878 -0.577178 -2.536890
      ESP Fit Center  237 is at   1.732276 -0.522740  2.591539
      ESP Fit Center  238 is at   2.719755 -0.522740  2.270688
      ESP Fit Center  239 is at   2.037424  0.416409  2.270688
      ESP Fit Center  240 is at   0.933389  0.057686  2.270688
      ESP Fit Center  241 is at   0.933389 -1.103166  2.270688
      ESP Fit Center  242 is at   2.037424 -1.461889  2.270688
      ESP Fit Center  243 is at   0.933389 -1.906454  1.430688
      ESP Fit Center  244 is at   2.009727 -2.096241  1.430688
      ESP Fit Center  245 is at   2.956243 -1.549770  1.430688
      ESP Fit Center  246 is at   2.009727 -2.096241  0.392390
      ESP Fit Center  247 is at   2.956243 -1.549770  0.392390
      ESP Fit Center  248 is at   2.262511  3.498773  0.000000
      ESP Fit Center  249 is at   1.264714  3.377618  0.000000
      ESP Fit Center  250 is at   0.437511  2.806642  0.000000
      ESP Fit Center  251 is at   1.647032  1.955816  2.559707
      ESP Fit Center  252 is at   2.634511  1.955816  2.238856
      ESP Fit Center  253 is at   1.952180  2.894965  2.238856
      ESP Fit Center  254 is at   0.848145  2.536242  2.238856
      ESP Fit Center  255 is at   0.848145  1.375390  2.238856
      ESP Fit Center  256 is at   1.952180  1.016667  2.238856
      ESP Fit Center  257 is at   1.924483  3.529317  1.398856
      ESP Fit Center  258 is at   0.848145  3.339530  1.398856
      ESP Fit Center  259 is at   0.145615  2.502287  1.398856
      ESP Fit Center  260 is at   0.145615  1.409345  1.398856
      ESP Fit Center  261 is at   1.924483  3.529317  0.360558
      ESP Fit Center  262 is at   0.848145  3.339530  0.360558
      ESP Fit Center  263 is at   0.145615  2.502287  0.360558
      ESP Fit Center  264 is at   1.985541  3.552293 -0.366386
      ESP Fit Center  265 is at   0.909203  3.362506 -0.366386
      ESP Fit Center  266 is at   2.013238  1.039643 -2.244684
      ESP Fit Center  267 is at   3.840793  1.419967  2.591175
      ESP Fit Center  268 is at   4.903808  1.419967  2.348549
      ESP Fit Center  269 is at   4.372301  2.340565  2.348549
      ESP Fit Center  270 is at   3.309285  2.340565  2.348549
      ESP Fit Center  271 is at   2.777778  1.419967  2.348549
      ESP Fit Center  272 is at   3.309285  0.499369  2.348549
      ESP Fit Center  273 is at   4.372301  0.499369  2.348549
      ESP Fit Center  274 is at   5.756280  1.419967  1.668725
      ESP Fit Center  275 is at   4.636515  3.162355  1.668725
      ESP Fit Center  276 is at   3.568191  3.315957  1.668725
      ESP Fit Center  277 is at   3.568191 -0.476023  1.668725
      ESP Fit Center  278 is at   4.636515 -0.322421  1.668725
      ESP Fit Center  279 is at   5.452203  0.384376  1.668725
      ESP Fit Center  280 is at   4.372301  3.748654  0.686351
      ESP Fit Center  281 is at   3.309285  3.748654  0.686351
      ESP Fit Center  282 is at   4.372301 -0.908720  0.686351
      ESP Fit Center  283 is at   5.330044 -0.447495  0.686351
      ESP Fit Center  284 is at   5.992823  0.383604  0.686351
      ESP Fit Center  285 is at   4.372301  3.748654 -0.404001
      ESP Fit Center  286 is at   3.309285  3.748654 -0.404001
      ESP Fit Center  287 is at   5.077850 -0.732003 -0.516158
      ESP Fit Center  288 is at   3.797354  0.012975 -3.384811
      ESP Fit Center  289 is at   4.347076 -1.065015 -0.369152
      ESP Fit Center  290 is at   3.243041 -1.509580 -1.209152
      ESP Fit Center  291 is at   4.319379 -1.699367 -1.209152
      ESP Fit Center  292 is at   5.265895 -1.152896 -1.209152
      ESP Fit Center  293 is at   3.243041 -1.509580 -2.247450
      ESP Fit Center  294 is at   4.319379 -1.699367 -2.247450
      ESP Fit Center  295 is at   5.265895 -1.152896 -2.247450
      ESP Fit Center  296 is at   3.243041 -0.706292 -3.087450
      ESP Fit Center  297 is at   4.347076 -1.065015 -3.087450
      ESP Fit Center  298 is at   4.041928 -0.125866 -3.408301
      ESP Fit Center  299 is at   2.270528  0.995138 -2.799890
      ESP Fit Center  300 is at   4.759424  1.541609 -3.639890
      ESP Fit Center  301 is at   4.077093  2.480758 -3.639890
      ESP Fit Center  302 is at   2.973058  0.961183 -3.639890
      ESP Fit Center  303 is at   4.077093  0.602460 -3.639890
      ESP Fit Center  304 is at   3.771945  1.541609 -3.960741
      ESP Fit Center  305 is at   6.086111 -1.039822 -1.789609
      ESP Fit Center  306 is at   6.361925 -1.034716 -2.208847
      ESP Fit Center  307 is at   7.308441 -0.488245 -2.208847
      ESP Fit Center  308 is at   7.682249  0.538785 -3.247145
      ESP Fit Center  309 is at   5.285587 -0.844929 -3.247145
      ESP Fit Center  310 is at   6.361925 -1.034716 -3.247145
      ESP Fit Center  311 is at   7.308441 -0.488245 -3.247145
      ESP Fit Center  312 is at   7.071953  0.538785 -4.087145
      ESP Fit Center  313 is at   6.389622  1.477934 -4.087145
      ESP Fit Center  314 is at   5.285587  1.119211 -4.087145
      ESP Fit Center  315 is at   5.285587 -0.041641 -4.087145
      ESP Fit Center  316 is at   6.389622 -0.400364 -4.087145
      ESP Fit Center  317 is at   6.084474  0.538785 -4.407996
      ESP Fit Center  318 is at   6.391773  0.533144  0.681226
      ESP Fit Center  319 is at   6.696921 -0.406005  0.360375
      ESP Fit Center  320 is at   5.592886 -0.850570 -0.479625
      ESP Fit Center  321 is at   6.669224 -1.040357 -0.479625
      ESP Fit Center  322 is at   7.615740 -0.493886 -0.479625
      ESP Fit Center  323 is at   7.989548  0.533144 -1.517923
      ESP Fit Center  324 is at   6.669224 -1.040357 -1.517923
      ESP Fit Center  325 is at   7.615740 -0.493886 -1.517923
      ESP Fit Center  326 is at   5.961089  5.081746 -1.446664
      ESP Fit Center  327 is at   5.003346  4.620521 -1.446664
      ESP Fit Center  328 is at   7.981848  0.885597 -1.446664
      ESP Fit Center  329 is at   8.881170  2.753059 -2.537016
      ESP Fit Center  330 is at   8.644627  3.789422 -2.537016
      ESP Fit Center  331 is at   7.981848  4.620521 -2.537016
      ESP Fit Center  332 is at   7.024105  5.081746 -2.537016
      ESP Fit Center  333 is at   5.961089  5.081746 -2.537016
      ESP Fit Center  334 is at   7.981848  0.885597 -2.537016
      ESP Fit Center  335 is at   8.644627  1.716696 -2.537016
      ESP Fit Center  336 is at   8.408084  2.753059 -3.519390
      ESP Fit Center  337 is at   8.104007  3.788650 -3.519390
      ESP Fit Center  338 is at   7.288319  4.495447 -3.519390
      ESP Fit Center  339 is at   6.219995  4.649049 -3.519390
      ESP Fit Center  340 is at   5.238220  4.200688 -3.519390
      ESP Fit Center  341 is at   8.104007  1.717468 -3.519390
      ESP Fit Center  342 is at   7.555612  2.753059 -4.199214
      ESP Fit Center  343 is at   7.024105  3.673657 -4.199214
      ESP Fit Center  344 is at   5.961089  3.673657 -4.199214
      ESP Fit Center  345 is at   5.429582  2.753059 -4.199214
      ESP Fit Center  346 is at   5.961089  1.832461 -4.199214
      ESP Fit Center  347 is at   7.024105  1.832461 -4.199214
      ESP Fit Center  348 is at   6.492597  2.753059 -4.441840
      ESP Fit Center  349 is at   5.437635  4.611204 -0.284480
      ESP Fit Center  350 is at   8.539457  4.201884 -1.334480
      ESP Fit Center  351 is at   6.193738  3.016661  2.093200
      ESP Fit Center  352 is at   6.498886  3.955810  1.772349
      ESP Fit Center  353 is at   5.394851  3.597087  1.772349
      ESP Fit Center  354 is at   5.394851  2.436235  1.772349
      ESP Fit Center  355 is at   6.498886  2.077512  1.772349
      ESP Fit Center  356 is at   5.394851  4.400375  0.932349
      ESP Fit Center  357 is at   6.471189  1.443160  0.932349
      ESP Fit Center  358 is at   6.337190  4.885445  1.024342
      ESP Fit Center  359 is at   7.413528  5.878520  0.184342
      ESP Fit Center  360 is at   6.337190  5.688733  0.184342
      ESP Fit Center  361 is at   5.634660  4.851490  0.184342
      ESP Fit Center  362 is at   8.360044  5.332049 -0.853956
      ESP Fit Center  363 is at   7.413528  5.878520 -0.853956
      ESP Fit Center  364 is at   6.337190  5.688733 -0.853956
      ESP Fit Center  365 is at   5.634660  4.851490 -0.853956
      ESP Fit Center  366 is at   7.441225  5.244168 -1.693956
      ESP Fit Center  367 is at  10.167169  1.568660  0.160795
      ESP Fit Center  368 is at   7.378198  0.879584  1.588801
      ESP Fit Center  369 is at   8.482233  0.520861  1.588801
      ESP Fit Center  370 is at   6.675668  0.913539  0.748801
      ESP Fit Center  371 is at   7.378198  0.076296  0.748801
      ESP Fit Center  372 is at   8.454536 -0.113491  0.748801
      ESP Fit Center  373 is at   9.401052  0.432980  0.748801
      ESP Fit Center  374 is at   8.454536 -0.113491 -0.289497
      ESP Fit Center  375 is at   9.401052  0.432980 -0.289497
      ESP Fit Center  376 is at   8.482233  0.520861 -1.129497
      ESP Fit Center  377 is at  10.333251  1.698371 -0.042388
      ESP Fit Center  378 is at  10.707059  2.725401 -1.080686
      ESP Fit Center  379 is at   9.386735  1.151900 -1.080686
      ESP Fit Center  380 is at  10.333251  1.698371 -1.080686
      ESP Fit Center  381 is at  10.096763  2.725401 -1.920686
      ESP Fit Center  382 is at   9.414432  3.664550 -1.920686
      ESP Fit Center  383 is at   9.414432  1.786252 -1.920686
      ESP Fit Center  384 is at   9.109284  2.725401 -2.241537
      ESP Fit Center  385 is at   8.855366  3.047712  4.294757
      ESP Fit Center  386 is at   9.918381  3.047712  4.052131
      ESP Fit Center  387 is at   9.386874  3.968310  4.052131
      ESP Fit Center  388 is at   8.323858  3.968310  4.052131
      ESP Fit Center  389 is at   7.792351  3.047712  4.052131
      ESP Fit Center  390 is at   8.323858  2.127114  4.052131
      ESP Fit Center  391 is at   9.386874  2.127114  4.052131
      ESP Fit Center  392 is at  10.770853  3.047712  3.372307
      ESP Fit Center  393 is at   7.600989  4.495341  3.372307
      ESP Fit Center  394 is at   7.017470  3.587367  3.372307
      ESP Fit Center  395 is at   7.017470  2.508057  3.372307
      ESP Fit Center  396 is at   7.600989  1.600083  3.372307
      ESP Fit Center  397 is at   8.582764  1.151722  3.372307
      ESP Fit Center  398 is at   9.651088  1.305324  3.372307
      ESP Fit Center  399 is at  10.466776  2.012121  3.372307
      ESP Fit Center  400 is at   7.366115  4.915174  2.389933
      ESP Fit Center  401 is at   6.703336  4.084075  2.389933
      ESP Fit Center  402 is at   6.466793  3.047712  2.389933
      ESP Fit Center  403 is at   6.703336  2.011349  2.389933
      ESP Fit Center  404 is at   7.366115  1.180250  2.389933
      ESP Fit Center  405 is at   8.323858  0.719025  2.389933
      ESP Fit Center  406 is at   9.386874  0.719025  2.389933
      ESP Fit Center  407 is at  10.344617  1.180250  2.389933
      ESP Fit Center  408 is at  11.007396  2.011349  2.389933
      ESP Fit Center  409 is at   9.386874  0.719025  1.299581
      ESP Fit Center  410 is at  10.344617  1.180250  1.299581
      ESP Fit Center  411 is at  11.007396  2.011349  1.299581
      ESP Fit Center  412 is at  10.466776  2.012121  0.317207
      ESP Fit Center  413 is at   7.792825  5.241891  2.586048
      ESP Fit Center  414 is at   9.790937  6.814206  1.536048
      ESP Fit Center  415 is at   7.984136  5.918385  2.385104
      ESP Fit Center  416 is at   9.060474  6.911460  1.545104
      ESP Fit Center  417 is at   7.984136  6.721673  1.545104
      ESP Fit Center  418 is at   7.281606  5.884430  1.545104
      ESP Fit Center  419 is at   9.060474  6.911460  0.506806
      ESP Fit Center  420 is at   7.984136  6.721673  0.506806
      ESP Fit Center  421 is at   7.281606  5.884430  0.506806
      ESP Fit Center  422 is at   9.088171  6.277108 -0.333194
      ESP Fit Center  423 is at   7.984136  5.918385 -0.333194
      ESP Fit Center  424 is at   8.783023  5.337959 -0.654045
      ESP Fit Center  425 is at   9.656817  5.153681  4.218775
      ESP Fit Center  426 is at  10.644296  5.153681  3.897924
      ESP Fit Center  427 is at   9.961965  6.092830  3.897924
      ESP Fit Center  428 is at   8.857930  5.734107  3.897924
      ESP Fit Center  429 is at   8.857930  4.573255  3.897924
      ESP Fit Center  430 is at   9.961965  4.214532  3.897924
      ESP Fit Center  431 is at  11.254592  5.153681  3.057924
      ESP Fit Center  432 is at  10.880784  6.180711  3.057924
      ESP Fit Center  433 is at   9.934268  6.727182  3.057924
      ESP Fit Center  434 is at   8.857930  6.537395  3.057924
      ESP Fit Center  435 is at   8.155400  5.700152  3.057924
      ESP Fit Center  436 is at  10.880784  4.126651  3.057924
      ESP Fit Center  437 is at  11.392840  5.662875  2.602521
      ESP Fit Center  438 is at  11.120967  2.668859  0.783868
      ESP Fit Center  439 is at  12.686493  4.753548 -0.266132
      ESP Fit Center  440 is at   9.676875  6.127994 -0.266132
      ESP Fit Center  441 is at  12.397789  3.770310 -0.266132
      ESP Fit Center  442 is at  11.392840  5.662875 -1.034785
      ESP Fit Center  443 is at  12.370907  4.329462 -0.740720
      ESP Fit Center  444 is at   9.271715  4.875933 -0.740720
      ESP Fit Center  445 is at  11.050583  2.755961 -0.740720
      ESP Fit Center  446 is at  11.997099  3.302432 -0.740720
      ESP Fit Center  447 is at  11.760611  4.329462 -1.580720
      ESP Fit Center  448 is at  11.078280  5.268611 -1.580720
      ESP Fit Center  449 is at   9.974245  4.909888 -1.580720
      ESP Fit Center  450 is at   9.974245  3.749036 -1.580720
      ESP Fit Center  451 is at  11.078280  3.390313 -1.580720
      ESP Fit Center  452 is at  10.773132  4.329462 -1.901571
      ESP Fit Center  453 is at  12.210281  5.786224  2.033307
      ESP Fit Center  454 is at  11.527950  6.725373  2.033307
      ESP Fit Center  455 is at  12.820577  5.786224  1.193307
      ESP Fit Center  456 is at  12.446769  6.813254  1.193307
      ESP Fit Center  457 is at  11.500253  7.359725  1.193307
      ESP Fit Center  458 is at  10.423915  7.169938  1.193307
      ESP Fit Center  459 is at  12.820577  5.786224  0.155009
      ESP Fit Center  460 is at  12.446769  6.813254  0.155009
      ESP Fit Center  461 is at  11.500253  7.359725  0.155009
      ESP Fit Center  462 is at  10.423915  7.169938  0.155009
      ESP Fit Center  463 is at  12.210281  5.786224 -0.684991
      ESP Fit Center  464 is at  11.527950  6.725373 -0.684991
      ESP Fit Center  465 is at  10.423915  6.366650 -0.684991
      ESP Fit Center  466 is at  11.631104  4.181356  3.000268
      ESP Fit Center  467 is at  12.618583  4.181356  2.679417
      ESP Fit Center  468 is at  11.936252  5.120505  2.679417
      ESP Fit Center  469 is at  11.936252  3.242207  2.679417
      ESP Fit Center  470 is at  13.228879  4.181356  1.839417
      ESP Fit Center  471 is at  12.855071  5.208386  1.839417
      ESP Fit Center  472 is at  11.908555  2.607855  1.839417
      ESP Fit Center  473 is at  12.855071  3.154326  1.839417
      ESP Fit Center  474 is at  13.228879  4.181356  0.801119
      ESP Fit Center  475 is at  11.908555  2.607855  0.801119
      ESP Fit Center  476 is at  12.855071  3.154326  0.801119
      ESP Fit Center  477 is at   5.818409  4.771887 -3.986026
      ESP Fit Center  478 is at   4.519903  4.771887 -6.682401
      ESP Fit Center  479 is at   3.999242  5.673697 -6.682401
      ESP Fit Center  480 is at   1.751193  6.653326 -5.271258
      ESP Fit Center  481 is at   1.048424  5.950557 -5.271258
      ESP Fit Center  482 is at   3.225017  6.571944 -6.231258
      ESP Fit Center  483 is at   2.197369  6.571944 -6.231258
      ESP Fit Center  484 is at   1.365985  5.967908 -6.231258
      ESP Fit Center  485 is at   1.048424  4.990557 -6.231258
      ESP Fit Center  486 is at   3.671193  4.990557 -6.934027
      ESP Fit Center  487 is at   3.191193  5.821941 -6.934027
      ESP Fit Center  488 is at   2.231193  5.821941 -6.934027
      ESP Fit Center  489 is at   1.751193  4.990557 -6.934027
      ESP Fit Center  490 is at   2.231193  4.159173 -6.934027
      ESP Fit Center  491 is at   3.191193  4.159173 -6.934027
      ESP Fit Center  492 is at   2.711193  4.990557 -7.191258
      ESP Fit Center  493 is at   5.066590  5.664336 -2.754109
      ESP Fit Center  494 is at   4.586590  6.495720 -2.754109
      ESP Fit Center  495 is at   5.769359  5.664336 -3.456878
      ESP Fit Center  496 is at   5.451798  6.641687 -3.456878
      ESP Fit Center  497 is at   4.620414  7.245723 -3.456878
      ESP Fit Center  498 is at   3.592766  7.245723 -3.456878
      ESP Fit Center  499 is at   6.026590  5.664336 -4.416878
      ESP Fit Center  500 is at   5.769359  6.624336 -4.416878
      ESP Fit Center  501 is at   5.066590  7.327105 -4.416878
      ESP Fit Center  502 is at   4.106590  7.584336 -4.416878
      ESP Fit Center  503 is at   3.146590  7.327105 -4.416878
      ESP Fit Center  504 is at   5.769359  5.664336 -5.376878
      ESP Fit Center  505 is at   5.451798  6.641687 -5.376878
      ESP Fit Center  506 is at   4.620414  7.245723 -5.376878
      ESP Fit Center  507 is at   3.592766  7.245723 -5.376878
      ESP Fit Center  508 is at   4.586590  6.495720 -6.079647
      ESP Fit Center  509 is at   6.026364  3.955713 -4.893103
      ESP Fit Center  510 is at   4.106364  2.035713 -4.893103
      ESP Fit Center  511 is at   5.066364  2.292944 -4.893103
      ESP Fit Center  512 is at   5.769133  2.995713 -4.893103
      ESP Fit Center  513 is at   5.769133  3.955713 -5.853103
      ESP Fit Center  514 is at   3.592540  2.374326 -5.853103
      ESP Fit Center  515 is at   4.620188  2.374326 -5.853103
      ESP Fit Center  516 is at   5.451572  2.978362 -5.853103
      ESP Fit Center  517 is at   5.066364  3.955713 -6.555872
      ESP Fit Center  518 is at   3.626364  3.124329 -6.555872
      ESP Fit Center  519 is at   4.586364  3.124329 -6.555872
      ESP Fit Center  520 is at   4.106364  3.955713 -6.813103
      ESP Fit Center  521 is at   1.833566  4.403403 -1.004573
      ESP Fit Center  522 is at   3.654370  6.110232 -1.670522
      ESP Fit Center  523 is at   3.671598  4.229146 -0.518589
      ESP Fit Center  524 is at   4.151598  5.060530 -0.775820
      ESP Fit Center  525 is at   3.191598  5.060530 -0.775820
      ESP Fit Center  526 is at   2.711598  4.229146 -0.775820
      ESP Fit Center  527 is at   5.016806  5.206497 -1.478589
      ESP Fit Center  528 is at   4.185422  5.810533 -1.478589
      ESP Fit Center  529 is at   4.631598  5.891915 -2.438589
      ESP Fit Center  530 is at   2.238920  5.220995 -0.871120
      ESP Fit Center  531 is at   2.718920  6.052379 -1.128351
      ESP Fit Center  532 is at   1.758920  6.052379 -1.128351
      ESP Fit Center  533 is at   1.278920  5.220995 -1.128351
      ESP Fit Center  534 is at   2.752744  6.802382 -1.831120
      ESP Fit Center  535 is at   1.725096  6.802382 -1.831120
      ESP Fit Center  536 is at   0.893712  6.198346 -1.831120
      ESP Fit Center  537 is at   0.576151  5.220995 -1.831120
      ESP Fit Center  538 is at   3.198920  6.883764 -2.791120
      ESP Fit Center  539 is at   2.238920  7.140995 -2.791120
      ESP Fit Center  540 is at   1.278920  6.883764 -2.791120
      ESP Fit Center  541 is at   0.576151  6.180995 -2.791120
      ESP Fit Center  542 is at   1.725096  6.802382 -3.751120
      ESP Fit Center  543 is at   0.893712  6.198346 -3.751120
      ESP Fit Center  544 is at   2.663353  1.524865 -4.584739
      ESP Fit Center  545 is at   0.610510  5.134577 -5.352700
      ESP Fit Center  546 is at  -0.351229  4.695365 -5.352700
      ESP Fit Center  547 is at  -0.922839  3.805922 -5.352700
      ESP Fit Center  548 is at   0.495706  4.867783 -5.910263
      ESP Fit Center  549 is at  -0.335678  4.263747 -5.910263
      ESP Fit Center  550 is at  -0.653239  3.286396 -5.910263
      ESP Fit Center  551 is at   0.495706  1.705009 -5.910263
      ESP Fit Center  552 is at   1.523354  1.705009 -5.910263
      ESP Fit Center  553 is at   2.354738  2.309045 -5.910263
      ESP Fit Center  554 is at   1.969530  3.286396 -6.613032
      ESP Fit Center  555 is at   1.489530  4.117780 -6.613032
      ESP Fit Center  556 is at   0.529530  4.117780 -6.613032
      ESP Fit Center  557 is at   0.049530  3.286396 -6.613032
      ESP Fit Center  558 is at   0.529530  2.455012 -6.613032
      ESP Fit Center  559 is at   1.489530  2.455012 -6.613032
      ESP Fit Center  560 is at   1.009530  3.286396 -6.870263
      ESP Fit Center  561 is at  -0.130408  5.031881 -1.907253
      ESP Fit Center  562 is at  -0.164232  5.781884 -2.610022
      ESP Fit Center  563 is at  -0.995616  5.177848 -2.610022
      ESP Fit Center  564 is at   0.349592  6.120497 -3.570022
      ESP Fit Center  565 is at  -0.610408  5.863266 -3.570022
      ESP Fit Center  566 is at  -1.313177  5.160497 -3.570022
      ESP Fit Center  567 is at  -1.570408  4.200497 -3.570022
      ESP Fit Center  568 is at   0.863416  5.781884 -4.530022
      ESP Fit Center  569 is at  -0.164232  5.781884 -4.530022
      ESP Fit Center  570 is at  -0.995616  5.177848 -4.530022
      ESP Fit Center  571 is at  -1.313177  4.200497 -4.530022
      ESP Fit Center  572 is at  -0.130408  5.031881 -5.232791
      ESP Fit Center  573 is at   0.541723  1.181507 -5.642952
      ESP Fit Center  574 is at  -2.203422  3.027812 -3.186714
      ESP Fit Center  575 is at  -1.818214  3.713230 -4.146714
      ESP Fit Center  576 is at  -2.520983  3.010461 -4.146714
      ESP Fit Center  577 is at  -2.778214  2.050461 -4.146714
      ESP Fit Center  578 is at  -1.372038  3.631848 -5.106714
      ESP Fit Center  579 is at  -2.203422  3.027812 -5.106714
      ESP Fit Center  580 is at  -2.520983  2.050461 -5.106714
      ESP Fit Center  581 is at  -2.203422  1.073110 -5.106714
      ESP Fit Center  582 is at  -1.372038  0.469074 -5.106714
      ESP Fit Center  583 is at  -1.338214  2.881845 -5.809483
      ESP Fit Center  584 is at  -1.818214  2.050461 -5.809483
      ESP Fit Center  585 is at  -1.338214  1.219077 -5.809483
      ESP Fit Center  586 is at  -0.378214  1.219077 -5.809483
      ESP Fit Center  587 is at  -0.858214  2.050461 -6.066714
      ESP Fit Center  588 is at   1.942096  0.181136 -2.681093
      ESP Fit Center  589 is at   1.556888 -0.504282 -3.641093
      ESP Fit Center  590 is at   2.259657  0.198487 -3.641093
      ESP Fit Center  591 is at   2.259657  1.158487 -4.601093
      ESP Fit Center  592 is at   0.083064 -0.422900 -4.601093
      ESP Fit Center  593 is at   1.110712 -0.422900 -4.601093
      ESP Fit Center  594 is at   1.942096  0.181136 -4.601093
      ESP Fit Center  595 is at   1.556888  1.158487 -5.303862
      ESP Fit Center  596 is at   0.116888  0.327103 -5.303862
      ESP Fit Center  597 is at   1.076888  0.327103 -5.303862
      ESP Fit Center  598 is at   0.094589  3.061792 -0.114654
      ESP Fit Center  599 is at   0.149821  3.885690 -0.736207
      ESP Fit Center  600 is at  -0.932543  3.885690 -0.736207
      ESP Fit Center  601 is at  -0.128128  4.388018 -1.634377
      ESP Fit Center  602 is at  -1.165761  4.262026 -1.634377
      ESP Fit Center  603 is at  -2.025988  3.668255 -1.634377
      ESP Fit Center  604 is at  -2.025988  3.668255 -2.631271
      ESP Fit Center  605 is at  -3.410046  0.211419 -1.153915
      ESP Fit Center  606 is at  -2.760793  3.055982 -2.222015
      ESP Fit Center  607 is at  -3.711988  1.016855 -1.512722
      ESP Fit Center  608 is at  -3.394427  0.039504 -1.512722
      ESP Fit Center  609 is at  -3.711988  1.976855 -2.472722
      ESP Fit Center  610 is at  -3.969219  1.016855 -2.472722
      ESP Fit Center  611 is at  -3.711988  0.056855 -2.472722
      ESP Fit Center  612 is at  -3.009219 -0.645914 -2.472722
      ESP Fit Center  613 is at  -2.563043  2.598242 -3.432722
      ESP Fit Center  614 is at  -3.394427  1.994206 -3.432722
      ESP Fit Center  615 is at  -3.711988  1.016855 -3.432722
      ESP Fit Center  616 is at  -3.394427  0.039504 -3.432722
      ESP Fit Center  617 is at  -2.563043 -0.564532 -3.432722
      ESP Fit Center  618 is at  -3.009219  1.016855 -4.135491
      ESP Fit Center  619 is at  -2.529219  0.185471 -4.135491
      ESP Fit Center  620 is at  -1.569219  0.185471 -4.135491
      ESP Fit Center  621 is at  -1.824105  1.658535  1.092044
      ESP Fit Center  622 is at  -1.344105  2.489919  0.834813
      ESP Fit Center  623 is at  -2.304105  2.489919  0.834813
      ESP Fit Center  624 is at  -2.784105  1.658535  0.834813
      ESP Fit Center  625 is at  -2.304105  0.827151  0.834813
      ESP Fit Center  626 is at  -0.478897  2.635886  0.132044
      ESP Fit Center  627 is at  -1.310281  3.239922  0.132044
      ESP Fit Center  628 is at  -2.337929  3.239922  0.132044
      ESP Fit Center  629 is at  -3.169313  2.635886  0.132044
      ESP Fit Center  630 is at  -3.486874  1.658535  0.132044
      ESP Fit Center  631 is at  -3.169313  0.681184  0.132044
      ESP Fit Center  632 is at  -1.824105  3.578535 -0.827956
      ESP Fit Center  633 is at  -2.784105  3.321304 -0.827956
      ESP Fit Center  634 is at  -3.486874  2.618535 -0.827956
      ESP Fit Center  635 is at  -3.744105  1.658535 -0.827956
      ESP Fit Center  636 is at  -3.486874  0.698535 -0.827956
      ESP Fit Center  637 is at  -0.140644 -2.372456 -0.715845
      ESP Fit Center  638 is at  -0.140644 -2.372456 -1.783945
      ESP Fit Center  639 is at   0.019456 -2.390918 -2.026693
      ESP Fit Center  640 is at   0.979456 -2.133687 -2.026693
      ESP Fit Center  641 is at   1.682225 -0.470918 -2.986693
      ESP Fit Center  642 is at  -0.494368 -2.052305 -2.986693
      ESP Fit Center  643 is at   0.533280 -2.052305 -2.986693
      ESP Fit Center  644 is at   1.364664 -1.448269 -2.986693
      ESP Fit Center  645 is at  -0.940544 -0.470918 -3.689462
      ESP Fit Center  646 is at  -0.460544 -1.302302 -3.689462
      ESP Fit Center  647 is at   0.499456 -1.302302 -3.689462
      ESP Fit Center  648 is at  -2.428421 -0.829589  0.528213
      ESP Fit Center  649 is at  -1.948421 -1.660973  0.528213
      ESP Fit Center  650 is at  -3.131190 -0.829589 -0.174556
      ESP Fit Center  651 is at  -2.813629 -1.806940 -0.174556
      ESP Fit Center  652 is at  -1.982245 -2.410976 -0.174556
      ESP Fit Center  653 is at  -0.954597 -2.410976 -0.174556
      ESP Fit Center  654 is at  -3.388421 -0.829589 -1.134556
      ESP Fit Center  655 is at  -3.131190 -1.789589 -1.134556
      ESP Fit Center  656 is at  -2.428421 -2.492358 -1.134556
      ESP Fit Center  657 is at  -1.468421 -2.749589 -1.134556
      ESP Fit Center  658 is at  -0.508421 -2.492358 -1.134556
      ESP Fit Center  659 is at  -3.131190 -0.829589 -2.094556
      ESP Fit Center  660 is at  -2.813629 -1.806940 -2.094556
      ESP Fit Center  661 is at  -1.982245 -2.410976 -2.094556
      ESP Fit Center  662 is at  -0.954597 -2.410976 -2.094556
      ESP Fit Center  663 is at  -1.948421 -1.660973 -2.797325
      ESP Fit Center  664 is at   0.000000  0.000000  2.240000
      ESP Fit Center  665 is at  -0.485950  0.841690  2.018170
      ESP Fit Center  666 is at  -0.971900  0.000000  2.018170
      ESP Fit Center  667 is at  -0.485950 -0.841690  2.018170
      ESP Fit Center  668 is at  -0.541182  1.665588  1.396617
      ESP Fit Center  669 is at  -1.416834  1.029390  1.396617
      ESP Fit Center  670 is at  -1.751303  0.000000  1.396617
      ESP Fit Center  671 is at  -1.416834 -1.029390  1.396617
      ESP Fit Center  672 is at  -0.541182 -1.665588  1.396617
      ESP Fit Center  673 is at  -0.774400 -2.041924  0.498447
      ESP Fit Center  674 is at   0.263233 -2.167916  0.498447
      ESP Fit Center  675 is at   0.901928 -2.281163  0.534050
      ESP Fit Center  676 is at   0.901928 -2.281163 -0.534050
      ESP Fit Center  677 is at   0.840878 -2.239947 -0.856890
      ESP Fit Center  678 is at   1.800878 -2.497178 -0.856890
      ESP Fit Center  679 is at   2.760878 -2.239947 -0.856890
      ESP Fit Center  680 is at   1.287054 -2.158565 -1.816890
      ESP Fit Center  681 is at   2.314702 -2.158565 -1.816890
      ESP Fit Center  682 is at   2.280878 -1.408562 -2.519659
      ESP Fit Center  683 is at   1.800878 -0.577178 -2.776890
      ESP Fit Center  684 is at   1.732276 -0.522740  2.831539
      ESP Fit Center  685 is at   2.692276 -0.522740  2.574308
      ESP Fit Center  686 is at   2.212276  0.308644  2.574308
      ESP Fit Center  687 is at   1.252276  0.308644  2.574308
      ESP Fit Center  688 is at   0.772276 -0.522740  2.574308
      ESP Fit Center  689 is at   1.252276 -1.354124  2.574308
      ESP Fit Center  690 is at   2.212276 -1.354124  2.574308
      ESP Fit Center  691 is at   0.387068 -1.500091  1.871539
      ESP Fit Center  692 is at   1.218452 -2.104127  1.871539
      ESP Fit Center  693 is at   2.246100 -2.104127  1.871539
      ESP Fit Center  694 is at   3.077484 -1.500091  1.871539
      ESP Fit Center  695 is at   0.772276 -2.185509  0.911539
      ESP Fit Center  696 is at   1.732276 -2.442740  0.911539
      ESP Fit Center  697 is at   2.692276 -2.185509  0.911539
      ESP Fit Center  698 is at   3.395045 -1.482740  0.911539
      ESP Fit Center  699 is at   1.647032  1.955816  2.799707
      ESP Fit Center  700 is at   2.127032  2.787200  2.542476
      ESP Fit Center  701 is at   1.167032  2.787200  2.542476
      ESP Fit Center  702 is at   0.687032  1.955816  2.542476
      ESP Fit Center  703 is at   1.167032  1.124432  2.542476
      ESP Fit Center  704 is at   2.127032  1.124432  2.542476
      ESP Fit Center  705 is at   2.160856  3.537203  1.839707
      ESP Fit Center  706 is at   1.133208  3.537203  1.839707
      ESP Fit Center  707 is at   0.301824  2.933167  1.839707
      ESP Fit Center  708 is at  -0.015737  1.955816  1.839707
      ESP Fit Center  709 is at   1.647032  3.875816  0.879707
      ESP Fit Center  710 is at   0.687032  3.618585  0.879707
      ESP Fit Center  711 is at  -0.015737  2.915816  0.879707
      ESP Fit Center  712 is at   1.708090  3.898792 -0.885535
      ESP Fit Center  713 is at   3.840793  1.419967  2.941175
      ESP Fit Center  714 is at   4.912307  1.419967  2.728038
      ESP Fit Center  715 is at   4.376550  2.347925  2.728038
      ESP Fit Center  716 is at   3.305036  2.347925  2.728038
      ESP Fit Center  717 is at   2.769279  1.419967  2.728038
      ESP Fit Center  718 is at   3.305036  0.492009  2.728038
      ESP Fit Center  719 is at   4.376550  0.492009  2.728038
      ESP Fit Center  720 is at   5.820692  1.419967  2.121074
      ESP Fit Center  721 is at   5.555436  2.409916  2.121074
      ESP Fit Center  722 is at   4.830742  3.134610  2.121074
      ESP Fit Center  723 is at   3.840793  3.399866  2.121074
      ESP Fit Center  724 is at   2.850844  3.134610  2.121074
      ESP Fit Center  725 is at   3.840793 -0.559932  2.121074
      ESP Fit Center  726 is at   4.830742 -0.294676  2.121074
      ESP Fit Center  727 is at   5.555436  0.430018  2.121074
      ESP Fit Center  728 is at   4.640178  3.880220  1.212689
      ESP Fit Center  729 is at   3.570392  3.992659  1.212689
      ESP Fit Center  730 is at   2.547362  3.660256  1.212689
      ESP Fit Center  731 is at   3.570392 -1.152725  1.212689
      ESP Fit Center  732 is at   4.640178 -1.040286  1.212689
      ESP Fit Center  733 is at   5.571742 -0.502447  1.212689
      ESP Fit Center  734 is at   6.204010  0.367795  1.212689
      ESP Fit Center  735 is at   4.099144  4.208023  0.141175
      ESP Fit Center  736 is at   3.074537  4.113079  0.141175
      ESP Fit Center  737 is at   4.099144 -1.368089  0.141175
      ESP Fit Center  738 is at   5.088860 -1.086490  0.141175
      ESP Fit Center  739 is at   3.801694  0.020492 -3.728483
      ESP Fit Center  740 is at   3.528104 -1.707253 -0.768301
      ESP Fit Center  741 is at   4.555752 -1.707253 -0.768301
      ESP Fit Center  742 is at   5.387136 -1.103217 -0.768301
      ESP Fit Center  743 is at   3.081928 -1.788635 -1.728301
      ESP Fit Center  744 is at   4.041928 -2.045866 -1.728301
      ESP Fit Center  745 is at   5.001928 -1.788635 -1.728301
      ESP Fit Center  746 is at   2.379159 -0.125866 -2.688301
      ESP Fit Center  747 is at   2.696720 -1.103217 -2.688301
      ESP Fit Center  748 is at   3.528104 -1.707253 -2.688301
      ESP Fit Center  749 is at   4.555752 -1.707253 -2.688301
      ESP Fit Center  750 is at   3.081928 -0.125866 -3.391070
      ESP Fit Center  751 is at   3.561928 -0.957250 -3.391070
      ESP Fit Center  752 is at   4.521928 -0.957250 -3.391070
      ESP Fit Center  753 is at   2.426737  0.564258 -3.240741
      ESP Fit Center  754 is at   4.731945  1.541609 -3.943510
      ESP Fit Center  755 is at   3.291945  0.710225 -3.943510
      ESP Fit Center  756 is at   3.771945  1.541609 -4.200741
      ESP Fit Center  757 is at   7.941095  0.029654 -2.323659
      ESP Fit Center  758 is at   6.084474 -1.381215 -2.727996
      ESP Fit Center  759 is at   7.044474 -1.123984 -2.727996
      ESP Fit Center  760 is at   7.747243 -0.421215 -2.727996
      ESP Fit Center  761 is at   7.747243  0.538785 -3.687996
      ESP Fit Center  762 is at   4.739266 -0.438566 -3.687996
      ESP Fit Center  763 is at   5.570650 -1.042602 -3.687996
      ESP Fit Center  764 is at   6.598298 -1.042602 -3.687996
      ESP Fit Center  765 is at   7.429682 -0.438566 -3.687996
      ESP Fit Center  766 is at   7.044474  0.538785 -4.390765
      ESP Fit Center  767 is at   5.604474  1.370169 -4.390765
      ESP Fit Center  768 is at   5.124474  0.538785 -4.390765
      ESP Fit Center  769 is at   5.604474 -0.292599 -4.390765
      ESP Fit Center  770 is at   6.564474 -0.292599 -4.390765
      ESP Fit Center  771 is at   6.084474  0.538785 -4.647996
      ESP Fit Center  772 is at   6.391773  0.533144  0.921226
      ESP Fit Center  773 is at   6.871773 -0.298240  0.663995
      ESP Fit Center  774 is at   5.877949 -1.048243 -0.038774
      ESP Fit Center  775 is at   6.905597 -1.048243 -0.038774
      ESP Fit Center  776 is at   7.736981 -0.444207 -0.038774
      ESP Fit Center  777 is at   6.391773 -1.386856 -0.998774
      ESP Fit Center  778 is at   7.351773 -1.129625 -0.998774
      ESP Fit Center  779 is at   8.054542 -0.426856 -0.998774
      ESP Fit Center  780 is at   7.736981 -0.444207 -1.958774
      ESP Fit Center  781 is at   5.199166  4.993348 -0.920326
      ESP Fit Center  782 is at   8.561822  4.639407 -1.991840
      ESP Fit Center  783 is at   7.740664  5.259516 -1.991840
      ESP Fit Center  784 is at   6.750948  5.541115 -1.991840
      ESP Fit Center  785 is at   5.726341  5.446171 -1.991840
      ESP Fit Center  786 is at   8.561822  0.866711 -1.991840
      ESP Fit Center  787 is at   9.079460  2.753059 -3.063354
      ESP Fit Center  788 is at   8.855814  3.805231 -3.063354
      ESP Fit Center  789 is at   8.223546  4.675473 -3.063354
      ESP Fit Center  790 is at   7.291982  5.213312 -3.063354
      ESP Fit Center  791 is at   6.222196  5.325751 -3.063354
      ESP Fit Center  792 is at   8.223546  0.830645 -3.063354
      ESP Fit Center  793 is at   8.855814  1.700887 -3.063354
      ESP Fit Center  794 is at   8.472496  2.753059 -3.971739
      ESP Fit Center  795 is at   8.207240  3.743008 -3.971739
      ESP Fit Center  796 is at   7.482546  4.467702 -3.971739
      ESP Fit Center  797 is at   6.492597  4.732958 -3.971739
      ESP Fit Center  798 is at   4.777954  1.763110 -3.971739
      ESP Fit Center  799 is at   7.482546  1.038416 -3.971739
      ESP Fit Center  800 is at   8.207240  1.763110 -3.971739
      ESP Fit Center  801 is at   7.564111  2.753059 -4.578703
      ESP Fit Center  802 is at   7.028354  3.681017 -4.578703
      ESP Fit Center  803 is at   5.956840  1.825101 -4.578703
      ESP Fit Center  804 is at   7.028354  1.825101 -4.578703
      ESP Fit Center  805 is at   6.492597  2.753059 -4.791840
      ESP Fit Center  806 is at   5.713738  3.848045  2.075969
      ESP Fit Center  807 is at   5.233738  3.016661  2.075969
      ESP Fit Center  808 is at   5.679914  4.598048  1.373200
      ESP Fit Center  809 is at   4.848530  3.994012  1.373200
      ESP Fit Center  810 is at   5.233738  4.679430  0.413200
      ESP Fit Center  811 is at   6.656077  5.136403  1.327962
      ESP Fit Center  812 is at   6.622253  5.886406  0.625193
      ESP Fit Center  813 is at   5.790869  5.282370  0.625193
      ESP Fit Center  814 is at   7.136077  6.225019 -0.334807
      ESP Fit Center  815 is at   6.176077  5.967788 -0.334807
      ESP Fit Center  816 is at   5.473308  5.265019 -0.334807
      ESP Fit Center  817 is at   8.481285  5.282370 -1.294807
      ESP Fit Center  818 is at   7.649901  5.886406 -1.294807
      ESP Fit Center  819 is at   6.622253  5.886406 -1.294807
      ESP Fit Center  820 is at   6.831877  0.482659  1.189652
      ESP Fit Center  821 is at   7.663261 -0.121377  1.189652
      ESP Fit Center  822 is at   8.690909 -0.121377  1.189652
      ESP Fit Center  823 is at   8.177085 -0.459990  0.229652
      ESP Fit Center  824 is at   9.137085 -0.202759  0.229652
      ESP Fit Center  825 is at   9.839854  0.500010  0.229652
      ESP Fit Center  826 is at   8.690909 -0.121377 -0.730348
      ESP Fit Center  827 is at   9.522293  0.482659 -0.730348
      ESP Fit Center  828 is at   8.657085  0.628626 -1.433117
      ESP Fit Center  829 is at  10.069284  1.062632 -0.561537
      ESP Fit Center  830 is at  10.772053  1.765401 -0.561537
      ESP Fit Center  831 is at  10.772053  2.725401 -1.521537
      ESP Fit Center  832 is at   9.623108  1.144014 -1.521537
      ESP Fit Center  833 is at  10.454492  1.748050 -1.521537
      ESP Fit Center  834 is at  10.069284  2.725401 -2.224306
      ESP Fit Center  835 is at   9.589284  3.556785 -2.224306
      ESP Fit Center  836 is at   9.589284  1.894017 -2.224306
      ESP Fit Center  837 is at   8.855366  3.047712  4.644757
      ESP Fit Center  838 is at   9.926880  3.047712  4.431620
      ESP Fit Center  839 is at   9.391123  3.975670  4.431620
      ESP Fit Center  840 is at   8.319609  3.975670  4.431620
      ESP Fit Center  841 is at   7.783852  3.047712  4.431620
      ESP Fit Center  842 is at   8.319609  2.119754  4.431620
      ESP Fit Center  843 is at   9.391123  2.119754  4.431620
      ESP Fit Center  844 is at  10.835265  3.047712  3.824656
      ESP Fit Center  845 is at  10.570009  4.037661  3.824656
      ESP Fit Center  846 is at   7.865417  4.762355  3.824656
      ESP Fit Center  847 is at   7.140723  4.037661  3.824656
      ESP Fit Center  848 is at   6.875467  3.047712  3.824656
      ESP Fit Center  849 is at   7.140723  2.057763  3.824656
      ESP Fit Center  850 is at   7.865417  1.333069  3.824656
      ESP Fit Center  851 is at   8.855366  1.067813  3.824656
      ESP Fit Center  852 is at   9.845315  1.333069  3.824656
      ESP Fit Center  853 is at  10.570009  2.057763  3.824656
      ESP Fit Center  854 is at  11.442229  3.047712  2.916271
      ESP Fit Center  855 is at   7.561935  5.288001  2.916271
      ESP Fit Center  856 is at   6.762550  4.568232  2.916271
      ESP Fit Center  857 is at   6.325032  3.585551  2.916271
      ESP Fit Center  858 is at   6.325032  2.509873  2.916271
      ESP Fit Center  859 is at   6.762550  1.527192  2.916271
      ESP Fit Center  860 is at   7.561935  0.807423  2.916271
      ESP Fit Center  861 is at   8.584965  0.475020  2.916271
      ESP Fit Center  862 is at   9.654751  0.587459  2.916271
      ESP Fit Center  863 is at  10.586315  1.125298  2.916271
      ESP Fit Center  864 is at  11.218583  1.995540  2.916271
      ESP Fit Center  865 is at   6.474758  4.521722  1.844757
      ESP Fit Center  866 is at   6.474758  1.573702  1.844757
      ESP Fit Center  867 is at   7.167989  0.813264  1.844757
      ESP Fit Center  868 is at   8.089110  0.354600  1.844757
      ESP Fit Center  869 is at   9.113717  0.259656  1.844757
      ESP Fit Center  870 is at  10.103433  0.541255  1.844757
      ESP Fit Center  871 is at  10.924591  1.161364  1.844757
      ESP Fit Center  872 is at  11.466288  2.036235  1.844757
      ESP Fit Center  873 is at  10.586315  1.125298  0.773243
      ESP Fit Center  874 is at  11.218583  1.995540  0.773243
      ESP Fit Center  875 is at  10.058470  7.010680  2.070098
      ESP Fit Center  876 is at   9.017150  7.010680  2.070098
      ESP Fit Center  877 is at   8.269199  6.919346  1.985955
      ESP Fit Center  878 is at   7.437815  6.315310  1.985955
      ESP Fit Center  879 is at   7.120254  5.337959  1.985955
      ESP Fit Center  880 is at   8.783023  7.257959  1.025955
      ESP Fit Center  881 is at   7.823023  7.000728  1.025955
      ESP Fit Center  882 is at   7.120254  6.297959  1.025955
      ESP Fit Center  883 is at   9.296847  6.919346  0.065955
      ESP Fit Center  884 is at   8.269199  6.919346  0.065955
      ESP Fit Center  885 is at   7.437815  6.315310  0.065955
      ESP Fit Center  886 is at   9.263023  6.169343 -0.636814
      ESP Fit Center  887 is at   8.303023  6.169343 -0.636814
      ESP Fit Center  888 is at   8.783023  5.337959 -0.894045
      ESP Fit Center  889 is at   9.656817  5.153681  4.458775
      ESP Fit Center  890 is at  10.616817  5.153681  4.201544
      ESP Fit Center  891 is at  10.136817  5.985065  4.201544
      ESP Fit Center  892 is at   9.176817  5.985065  4.201544
      ESP Fit Center  893 is at   8.696817  5.153681  4.201544
      ESP Fit Center  894 is at  10.136817  4.322297  4.201544
      ESP Fit Center  895 is at  11.319586  5.153681  3.498775
      ESP Fit Center  896 is at  11.002025  6.131032  3.498775
      ESP Fit Center  897 is at  10.170641  6.735068  3.498775
      ESP Fit Center  898 is at   9.142993  6.735068  3.498775
      ESP Fit Center  899 is at   8.311609  6.131032  3.498775
      ESP Fit Center  900 is at   7.994048  5.153681  3.498775
      ESP Fit Center  901 is at  11.002025  4.176330  3.498775
      ESP Fit Center  902 is at  10.616817  6.816450  2.538775
      ESP Fit Center  903 is at   9.656817  7.073681  2.538775
      ESP Fit Center  904 is at   8.696817  6.816450  2.538775
      ESP Fit Center  905 is at  12.446364  5.768004  2.280244
      ESP Fit Center  906 is at  13.207667  4.753548  0.249818
      ESP Fit Center  907 is at  11.388500  2.472385  0.249818
      ESP Fit Center  908 is at  12.744236  4.753548 -0.712508
      ESP Fit Center  909 is at   9.639062  6.171633 -0.712508
      ESP Fit Center  910 is at  11.733132  2.666693 -0.221571
      ESP Fit Center  911 is at  12.435901  4.329462 -1.181571
      ESP Fit Center  912 is at   9.427924  5.306813 -1.181571
      ESP Fit Center  913 is at  11.286956  2.748075 -1.181571
      ESP Fit Center  914 is at  12.118340  3.352111 -1.181571
      ESP Fit Center  915 is at  11.733132  4.329462 -1.884340
      ESP Fit Center  916 is at  11.253132  5.160846 -1.884340
      ESP Fit Center  917 is at  10.293132  5.160846 -1.884340
      ESP Fit Center  918 is at   9.813132  4.329462 -1.884340
      ESP Fit Center  919 is at  10.293132  3.498078 -1.884340
      ESP Fit Center  920 is at  11.253132  3.498078 -1.884340
      ESP Fit Center  921 is at  10.773132  4.329462 -2.141571
      ESP Fit Center  922 is at  11.702802  6.617608  2.336927
      ESP Fit Center  923 is at  12.885571  5.786224  1.634158
      ESP Fit Center  924 is at  12.568010  6.763575  1.634158
      ESP Fit Center  925 is at  11.736626  7.367611  1.634158
      ESP Fit Center  926 is at  10.708978  7.367611  1.634158
      ESP Fit Center  927 is at  13.142802  5.786224  0.674158
      ESP Fit Center  928 is at  12.885571  6.746224  0.674158
      ESP Fit Center  929 is at  12.182802  7.448993  0.674158
      ESP Fit Center  930 is at  11.222802  7.706224  0.674158
      ESP Fit Center  931 is at  10.262802  7.448993  0.674158
      ESP Fit Center  932 is at  12.885571  5.786224 -0.285842
      ESP Fit Center  933 is at  12.568010  6.763575 -0.285842
      ESP Fit Center  934 is at  11.736626  7.367611 -0.285842
      ESP Fit Center  935 is at  10.708978  7.367611 -0.285842
      ESP Fit Center  936 is at   9.877594  6.763575 -0.285842
      ESP Fit Center  937 is at  12.182802  5.786224 -0.988611
      ESP Fit Center  938 is at  11.702802  6.617608 -0.988611
      ESP Fit Center  939 is at  10.742802  6.617608 -0.988611
      ESP Fit Center  940 is at  11.631104  4.181356  3.240268
      ESP Fit Center  941 is at  12.591104  4.181356  2.983037
      ESP Fit Center  942 is at  12.111104  5.012740  2.983037
      ESP Fit Center  943 is at  12.111104  3.349972  2.983037
      ESP Fit Center  944 is at  13.293873  4.181356  2.280268
      ESP Fit Center  945 is at  12.976312  5.158707  2.280268
      ESP Fit Center  946 is at  12.144928  2.599969  2.280268
      ESP Fit Center  947 is at  12.976312  3.204005  2.280268
      ESP Fit Center  948 is at  13.551104  4.181356  1.320268
      ESP Fit Center  949 is at  13.293873  5.141356  1.320268
      ESP Fit Center  950 is at  11.631104  2.261356  1.320268
      ESP Fit Center  951 is at  12.591104  2.518587  1.320268
      ESP Fit Center  952 is at  13.293873  3.221356  1.320268
      ESP Fit Center  953 is at  13.293873  4.181356  0.360268
      ESP Fit Center  954 is at  12.144928  2.599969  0.360268
      ESP Fit Center  955 is at  12.976312  3.204005  0.360268
      ESP Fit Center  956 is at   6.178582  4.771887 -4.520076
      ESP Fit Center  957 is at   2.445337  7.266362 -4.520076
      ESP Fit Center  958 is at   1.569394  6.681075 -4.520076
      ESP Fit Center  959 is at   2.923509  7.203820 -5.553321
      ESP Fit Center  960 is at   5.387770  4.771887 -6.429264
      ESP Fit Center  961 is at   5.084693  5.804072 -6.429264
      ESP Fit Center  962 is at   4.271687  6.508546 -6.429264
      ESP Fit Center  963 is at   4.511827  4.771887 -7.014551
      ESP Fit Center  964 is at   3.995205  5.666704 -7.014551
      ESP Fit Center  965 is at   1.945246  7.010192 -5.271258
      ESP Fit Center  966 is at   1.094410  6.422902 -5.271258
      ESP Fit Center  967 is at   2.444977  6.842132 -6.351258
      ESP Fit Center  968 is at   1.486201  6.404273 -6.351258
      ESP Fit Center  969 is at   0.916351  5.517570 -6.351258
      ESP Fit Center  970 is at   3.251193  5.925864 -7.141873
      ESP Fit Center  971 is at   2.171193  5.925864 -7.141873
      ESP Fit Center  972 is at   1.631193  4.990557 -7.141873
      ESP Fit Center  973 is at   2.171193  4.055250 -7.141873
      ESP Fit Center  974 is at   3.251193  4.055250 -7.141873
      ESP Fit Center  975 is at   2.711193  4.990557 -7.431258
      ESP Fit Center  976 is at   4.646590  6.599643 -2.546263
      ESP Fit Center  977 is at   5.977205  5.664336 -3.336878
      ESP Fit Center  978 is at   5.680251  6.675667 -3.336878
      ESP Fit Center  979 is at   4.883672  7.365907 -3.336878
      ESP Fit Center  980 is at   3.840374  7.515911 -3.336878
      ESP Fit Center  981 is at   6.266590  5.664336 -4.416878
      ESP Fit Center  982 is at   6.019175  6.668138 -4.416878
      ESP Fit Center  983 is at   5.333610  7.441981 -4.416878
      ESP Fit Center  984 is at   4.366949  7.808587 -4.416878
      ESP Fit Center  985 is at   3.340643  7.683971 -4.416878
      ESP Fit Center  986 is at   5.977205  5.664336 -5.496878
      ESP Fit Center  987 is at   5.680251  6.675667 -5.496878
      ESP Fit Center  988 is at   4.883672  7.365907 -5.496878
      ESP Fit Center  989 is at   3.840374  7.515911 -5.496878
      ESP Fit Center  990 is at   4.646590  6.599643 -6.287493
      ESP Fit Center  991 is at   4.366723  1.811462 -4.893103
      ESP Fit Center  992 is at   5.333384  2.178068 -4.893103
      ESP Fit Center  993 is at   5.976979  3.955713 -5.973103
      ESP Fit Center  994 is at   2.881372  2.541997 -5.973103
      ESP Fit Center  995 is at   3.840148  2.104138 -5.973103
      ESP Fit Center  996 is at   4.883446  2.254142 -5.973103
      ESP Fit Center  997 is at   5.680025  2.944382 -5.973103
      ESP Fit Center  998 is at   5.186364  3.955713 -6.763718
      ESP Fit Center  999 is at   3.566364  3.020406 -6.763718
      ESP Fit Center 1000 is at   4.646364  3.020406 -6.763718
      ESP Fit Center 1001 is at   4.106364  3.955713 -7.053103
      ESP Fit Center 1002 is at   1.841642  4.403403 -0.672423
      ESP Fit Center 1003 is at   3.667992  6.140062 -1.257710
      ESP Fit Center 1004 is at   4.430167  6.353662 -2.133653
      ESP Fit Center 1005 is at   4.211598  5.164453 -0.567974
      ESP Fit Center 1006 is at   3.131598  5.164453 -0.567974
      ESP Fit Center 1007 is at   4.448680  5.930717 -1.358589
      ESP Fit Center 1008 is at   2.238920  5.220995 -0.631120
      ESP Fit Center 1009 is at   2.778920  6.156302 -0.920505
      ESP Fit Center 1010 is at   1.698920  6.156302 -0.920505
      ESP Fit Center 1011 is at   1.158920  5.220995 -0.920505
      ESP Fit Center 1012 is at   3.016002  6.922566 -1.711120
      ESP Fit Center 1013 is at   1.972704  7.072570 -1.711120
      ESP Fit Center 1014 is at   1.013928  6.634711 -1.711120
      ESP Fit Center 1015 is at   0.444078  5.748008 -1.711120
      ESP Fit Center 1016 is at   2.499279  7.365246 -2.791120
      ESP Fit Center 1017 is at   1.472973  7.240630 -2.791120
      ESP Fit Center 1018 is at   0.622137  6.653340 -2.791120
      ESP Fit Center 1019 is at   1.972704  7.072570 -3.871120
      ESP Fit Center 1020 is at   1.013928  6.634711 -3.871120
      ESP Fit Center 1021 is at   2.940628  1.398282 -4.759316
      ESP Fit Center 1022 is at  -1.369895  4.359592 -4.889569
      ESP Fit Center 1023 is at   2.432829  1.327021 -4.889569
      ESP Fit Center 1024 is at  -0.954304  3.815161 -5.765512
      ESP Fit Center 1025 is at  -0.215462  4.700112 -6.030263
      ESP Fit Center 1026 is at  -0.785312  3.813409 -6.030263
      ESP Fit Center 1027 is at   0.743314  1.434821 -6.030263
      ESP Fit Center 1028 is at   1.786612  1.584825 -6.030263
      ESP Fit Center 1029 is at   2.583191  2.275065 -6.030263
      ESP Fit Center 1030 is at   2.089530  3.286396 -6.820878
      ESP Fit Center 1031 is at   0.469530  4.221703 -6.820878
      ESP Fit Center 1032 is at  -0.070470  3.286396 -6.820878
      ESP Fit Center 1033 is at   0.469530  2.351089 -6.820878
      ESP Fit Center 1034 is at   1.549530  2.351089 -6.820878
      ESP Fit Center 1035 is at   1.009530  3.286396 -7.110263
      ESP Fit Center 1036 is at  -0.190408  5.135804 -1.699407
      ESP Fit Center 1037 is at   0.083376  6.052072 -2.490022
      ESP Fit Center 1038 is at  -0.875400  5.614213 -2.490022
      ESP Fit Center 1039 is at  -1.445250  4.727510 -2.490022
      ESP Fit Center 1040 is at  -0.416355  6.220132 -3.570022
      ESP Fit Center 1041 is at  -1.267191  5.632842 -3.570022
      ESP Fit Center 1042 is at  -1.747642  4.717419 -3.570022
      ESP Fit Center 1043 is at   0.083376  6.052072 -4.650022
      ESP Fit Center 1044 is at  -0.875400  5.614213 -4.650022
      ESP Fit Center 1045 is at  -1.445250  4.727510 -4.650022
      ESP Fit Center 1046 is at  -1.888125  3.992505 -3.480627
      ESP Fit Center 1047 is at  -0.250643  0.193561 -5.389815
[...]
 1144 Fit       0.000267
 1145 Fit      -0.002057
 1146 Fit       0.002639
 1147 Fit       0.004052
 1148 Fit       0.004859
 1149 Fit       0.009317
 1150 Fit       0.009918
 1151 Fit       0.013426
 1152 Fit      -0.007225
 1153 Fit      -0.010578
 1154 Fit      -0.008643
 1155 Fit      -0.008326
 1156 Fit      -0.011401
 1157 Fit      -0.007171
 1158 Fit      -0.006091
 1159 Fit      -0.011305
 1160 Fit      -0.005133
 1161 Fit      -0.004598
 1162 Fit      -0.010081
 1163 Fit      -0.006523
 1164 Fit      -0.002676
 1165 Fit      -0.003848
 1166 Fit      -0.017076
 1167 Fit      -0.017435
 1168 Fit      -0.005684
 1169 Fit      -0.006646
 1170 Fit      -0.004972
 1171 Fit      -0.007148
 1172 Fit      -0.007521
 1173 Fit      -0.010117
 1174 Fit      -0.006677
 1175 Fit      -0.006628
 1176 Fit      -0.010088
 1177 Fit      -0.012428
 1178 Fit      -0.010797
 1179 Fit      -0.012401
 1180 Fit      -0.016645
 1181 Fit      -0.024562
 1182 Fit      -0.016790
 1183 Fit      -0.021109
 1184 Fit      -0.018710
 1185 Fit      -0.013083
 1186 Fit      -0.010703
 1187 Fit      -0.015300
 1188 Fit      -0.020189
 1189 Fit      -0.021483
 1190 Fit      -0.022748
 1191 Fit      -0.020162
 1192 Fit      -0.016742
 1193 Fit      -0.010830
 1194 Fit      -0.018631
 1195 Fit      -0.021140
 1196 Fit      -0.020574
 1197 Fit      -0.018317
 1198 Fit      -0.013995
 1199 Fit      -0.016288
 1200 Fit      -0.018380
 1201 Fit      -0.015812
 1202 Fit      -0.011693
 1203 Fit      -0.019085
 1204 Fit      -0.019118
 1205 Fit      -0.015517
 1206 Fit      -0.011754
 1207 Fit      -0.010029
 1208 Fit      -0.019971
 1209 Fit      -0.019297
 1210 Fit       0.007593
 1211 Fit       0.002915
 1212 Fit       0.002185
 1213 Fit       0.009833
 1214 Fit       0.008166
 1215 Fit       0.008440
 1216 Fit       0.012717
 1217 Fit       0.010898
 1218 Fit       0.010833
 1219 Fit       0.010732
 1220 Fit       0.011853
 1221 Fit       0.002732
 1222 Fit      -0.003161
 1223 Fit       0.008820
 1224 Fit       0.007807
 1225 Fit       0.009400
 1226 Fit       0.007405
 1227 Fit       0.004167
 1228 Fit      -0.001341
 1229 Fit       0.012047
 1230 Fit       0.010801
 1231 Fit       0.008810
 1232 Fit       0.005523
 1233 Fit       0.003570
 1234 Fit       0.008235
 1235 Fit       0.010087
 1236 Fit       0.008349
 1237 Fit       0.006985
 1238 Fit       0.002221
 1239 Fit       0.001012
 1240 Fit       0.005274
 1241 Fit       0.006485
 1242 Fit       0.006939
 1243 Fit       0.007394
 1244 Fit      -0.016210
 1245 Fit      -0.000383
 1246 Fit      -0.003784
 1247 Fit      -0.001778
 1248 Fit      -0.000310
 1249 Fit      -0.001260
 1250 Fit      -0.003872
 1251 Fit      -0.006160
 1252 Fit      -0.008893
 1253 Fit      -0.013585
 1254 Fit      -0.011453
 1255 Fit      -0.008668
 1256 Fit      -0.007036
 1257 Fit      -0.006948
 1258 Fit      -0.006668
 1259 Fit      -0.012679
 1260 Fit      -0.014093
 1261 Fit      -0.013215
 1262 Fit      -0.011172
 1263 Fit      -0.010065
 1264 Fit       0.001973
 1265 Fit      -0.001883
 1266 Fit      -0.010715
 1267 Fit      -0.010906
 1268 Fit      -0.010759
 1269 Fit       0.000419
 1270 Fit      -0.004631
 1271 Fit      -0.006215
 1272 Fit      -0.006396
 1273 Fit      -0.008319
 1274 Fit      -0.018122
 1275 Fit      -0.014396
 1276 Fit      -0.004865
 1277 Fit      -0.001067
 1278 Fit       0.010328
 1279 Fit       0.004964
 1280 Fit      -0.001570
 1281 Fit       0.008815
 1282 Fit       0.008240
 1283 Fit       0.005271
 1284 Fit      -0.004641
 1285 Fit       0.000297
 1286 Fit      -0.002285
 1287 Fit      -0.001248
 1288 Fit       0.000885
 1289 Fit      -0.002163
 1290 Fit       0.005376
 1291 Fit       0.001245
 1292 Fit      -0.003864
 1293 Fit       0.004601
 1294 Fit       0.000757
 1295 Fit       0.000210
 1296 Fit      -0.001744
 1297 Fit      -0.000902
 1298 Fit       0.000928
 1299 Fit      -0.000565
 1300 Fit      -0.001335
 1301 Fit      -0.005974
 1302 Fit      -0.014984
 1303 Fit      -0.012000
 1304 Fit      -0.007444
 1305 Fit      -0.012902
 1306 Fit      -0.019272
 1307 Fit      -0.019341
 1308 Fit      -0.017241
 1309 Fit      -0.010788
 1310 Fit      -0.002777
 1311 Fit      -0.010981
 1312 Fit      -0.019357
 1313 Fit      -0.023193
 1314 Fit      -0.022447
 1315 Fit      -0.019985
 1316 Fit      -0.019046
 1317 Fit      -0.019138
 1318 Fit      -0.016926
 1319 Fit      -0.009787
 1320 Fit      -0.015133
 1321 Fit      -0.022051
 1322 Fit      -0.024879
 1323 Fit      -0.023628
 1324 Fit      -0.019489
 1325 Fit      -0.016210
 1326 Fit      -0.016460
 1327 Fit      -0.018896
 1328 Fit      -0.020106
 1329 Fit      -0.017235
 1330 Fit      -0.013323
 1331 Fit      -0.019560
 1332 Fit      -0.016770
 1333 Fit      -0.010294
 1334 Fit      -0.009170
 1335 Fit      -0.012884
 1336 Fit      -0.017567
 1337 Fit      -0.019512
 1338 Fit      -0.016114
 1339 Fit      -0.005310
 1340 Fit      -0.012595
 1341 Fit      -0.015908
 1342 Fit      -0.013440
 1343 Fit      -0.008651
 1344 Fit      -0.008550
 1345 Fit       0.002127
 1346 Fit      -0.004572
 1347 Fit       0.006849
 1348 Fit       0.004846
 1349 Fit       0.002377
 1350 Fit      -0.002922
 1351 Fit       0.007085
 1352 Fit       0.006474
 1353 Fit       0.005520
 1354 Fit       0.008271
 1355 Fit       0.008387
 1356 Fit       0.009294
 1357 Fit       0.008298
 1358 Fit       0.010604
 1359 Fit       0.001005
 1360 Fit       0.002816
 1361 Fit       0.004559
 1362 Fit       0.002581
 1363 Fit      -0.003101
 1364 Fit       0.003477
 1365 Fit       0.005466
 1366 Fit       0.006037
 1367 Fit       0.004952
 1368 Fit       0.002016
 1369 Fit      -0.004180
 1370 Fit      -0.000923
 1371 Fit       0.007147
 1372 Fit       0.006482
 1373 Fit       0.004947
 1374 Fit       0.002374
 1375 Fit       0.005115
 1376 Fit       0.001736
 1377 Fit       0.000305
 1378 Fit      -0.001817
 1379 Fit      -0.000386
 1380 Fit       0.001057
 1381 Fit       0.002022
 1382 Fit       0.006546
 1383 Fit       0.010169
 1384 Fit       0.001369
 1385 Fit       0.002200
 1386 Fit       0.001373
 1387 Fit       0.003074
 1388 Fit       0.003272
 1389 Fit       0.004114
 1390 Fit       0.003890
 1391 Fit       0.003674
 1392 Fit       0.003691
 1393 Fit       0.005012
 1394 Fit       0.003754
 1395 Fit       0.005592
 1396 Fit       0.006703
 1397 Fit       0.001569
 1398 Fit       0.003725
 1399 Fit       0.005517
 1400 Fit       0.006534
 1401 Fit       0.007059
 1402 Fit       0.001737
 1403 Fit       0.003863
 1404 Fit       0.005418
 1405 Fit       0.006112
 1406 Fit       0.006796
 1407 Fit       0.003861
 1408 Fit       0.004587
 1409 Fit      -0.000543
 1410 Fit       0.000345
 1411 Fit       0.002278
 1412 Fit      -0.004644
 1413 Fit       0.001218
 1414 Fit       0.001581
 1415 Fit      -0.006925
 1416 Fit      -0.000824
 1417 Fit       0.001082
 1418 Fit       0.001129
 1419 Fit      -0.011936
 1420 Fit      -0.003548
 1421 Fit      -0.000037
 1422 Fit       0.000236
 1423 Fit      -0.003564
 1424 Fit      -0.000756
 1425 Fit       0.004711
 1426 Fit      -0.006291
 1427 Fit       0.004247
 1428 Fit      -0.002242
 1429 Fit       0.003572
 1430 Fit      -0.000121
 1431 Fit       0.000561
 1432 Fit       0.001950
 1433 Fit       0.001339
 1434 Fit       0.002157
 1435 Fit       0.002579
 1436 Fit       0.007023
 1437 Fit       0.004982
 1438 Fit       0.007008
 1439 Fit       0.009454
 1440 Fit       0.005027
 1441 Fit       0.007206
 1442 Fit       0.009514
 1443 Fit       0.003873
 1444 Fit       0.006232
 1445 Fit       0.008162
 1446 Fit       0.007370
 1447 Fit       0.004125
 1448 Fit       0.005413
 1449 Fit       0.001153
 1450 Fit       0.003288
 1451 Fit       0.004064
 1452 Fit       0.000809
 1453 Fit       0.003272
 1454 Fit       0.004154
 1455 Fit       0.004380
 1456 Fit      -0.002777
 1457 Fit       0.001025
 1458 Fit       0.003123
 1459 Fit       0.003934
 1460 Fit       0.004065
 1461 Fit      -0.000971
 1462 Fit       0.001457
 1463 Fit       0.002880
 1464 Fit       0.003341
 1465 Fit      -0.005598
 1466 Fit       0.001031
 1467 Fit       0.002718
 1468 Fit       0.000888
 1469 Fit      -0.000971
 1470 Fit       0.003492
 1471 Fit       0.002765
 1472 Fit       0.000731
 1473 Fit       0.001074
 1474 Fit       0.003715
 1475 Fit       0.002599
 1476 Fit      -0.009644
 1477 Fit      -0.015936
 1478 Fit      -0.003474
 1479 Fit      -0.000575
 1480 Fit       0.001008
 1481 Fit      -0.011801
 1482 Fit      -0.003980
 1483 Fit      -0.001678
 1484 Fit      -0.004347
 1485 Fit      -0.004179
 1486 Fit      -0.009531
 1487 Fit       0.000101
 1488 Fit       0.000451
 1489 Fit      -0.000557
 1490 Fit      -0.004413
 1491 Fit       0.003101
 1492 Fit       0.003143
 1493 Fit       0.002883
 1494 Fit       0.001918
 1495 Fit       0.004851
 1496 Fit       0.004908
 1497 Fit       0.005451
 1498 Fit       0.007611
 1499 Fit      -0.000234
 1500 Fit       0.010538
 1501 Fit       0.003071
 1502 Fit       0.011061
 1503 Fit       0.012358
 1504 Fit       0.014217
 1505 Fit       0.012534
 1506 Fit       0.009102
 1507 Fit       0.005968
 1508 Fit       0.008383
 1509 Fit       0.010817
 1510 Fit       0.011661
 1511 Fit       0.011574
 1512 Fit       0.009555
 1513 Fit       0.010326
 1514 Fit      -0.010125
 1515 Fit       0.000539
 1516 Fit      -0.002432
 1517 Fit       0.004620
 1518 Fit       0.003238
 1519 Fit       0.001446
 1520 Fit       0.007078
 1521 Fit       0.006546
 1522 Fit       0.006430
 1523 Fit       0.009114
 1524 Fit       0.008944
 1525 Fit       0.014652
 1526 Fit       0.013394
 1527 Fit       0.013078
 1528 Fit       0.006811
 1529 Fit       0.009396
 1530 Fit       0.009740
 1531 Fit       0.011423
 1532 Fit       0.011666
 1533 Fit       0.011563
 1534 Fit       0.012330
 1535 Fit       0.013058
 1536 Fit       0.013570
 1537 Fit       0.013198
 1538 Fit       0.012563
 1539 Fit       0.012940
 1540 Fit       0.013729
 1541 Fit       0.013611
 1542 Fit       0.014073
 1543 Fit       0.011560
 1544 Fit       0.006772
 1545 Fit       0.013217
 1546 Fit       0.011665
 1547 Fit       0.008794
 1548 Fit       0.011582
 1549 Fit      -0.017047
 1550 Fit      -0.012293
 1551 Fit      -0.016111
 1552 Fit      -0.014261
 1553 Fit      -0.011591
 1554 Fit      -0.006967
 1555 Fit       0.001409
 1556 Fit       0.005614
 1557 Fit       0.007295
 1558 Fit      -0.000566
 1559 Fit       0.004093
 1560 Fit       0.007734
 1561 Fit       0.009405
 1562 Fit       0.005456
 1563 Fit       0.007474
 1564 Fit       0.008891
 1565 Fit       0.010221
 1566 Fit       0.011851
 1567 Fit       0.009762
 1568 Fit       0.010144
 1569 Fit       0.011054
 1570 Fit       0.012295
 1571 Fit       0.014108
 1572 Fit       0.012998
 1573 Fit       0.013902
 1574 Fit      -0.011813
 1575 Fit      -0.010559
 1576 Fit      -0.004595
 1577 Fit      -0.003388
 1578 Fit      -0.010328
 1579 Fit      -0.011097
 1580 Fit      -0.005093
 1581 Fit      -0.000916
 1582 Fit       0.001148
 1583 Fit       0.001327
 1584 Fit      -0.001120
 1585 Fit      -0.005384
 1586 Fit      -0.000281
 1587 Fit       0.002602
 1588 Fit       0.004260
 1589 Fit       0.005415
 1590 Fit      -0.000243
 1591 Fit       0.003637
 1592 Fit       0.000247
 1593 Fit       0.005481
 1594 Fit       0.009287
 1595 Fit       0.013242
 1596 Fit       0.015581
 1597 Fit       0.008908
 1598 Fit       0.010901
 1599 Fit       0.011341
 1600 Fit       0.011816
 1601 Fit       0.013290
 1602 Fit       0.014292
 1603 Fit       0.014164
 1604 Fit      -0.008089
 1605 Fit      -0.009822
 1606 Fit       0.001309
 1607 Fit       0.000931
 1608 Fit      -0.000401
 1609 Fit      -0.003417
 1610 Fit       0.006332
 1611 Fit       0.005339
 1612 Fit       0.004181
 1613 Fit       0.002545
 1614 Fit       0.000450
 1615 Fit       0.009825
 1616 Fit       0.008397
 1617 Fit       0.007261
 1618 Fit       0.006135
 1619 Fit       0.005317
 1620 Fit       0.011531
 1621 Fit       0.009892
 1622 Fit       0.009069
 1623 Fit      -0.015794
 1624 Fit      -0.017164
 1625 Fit      -0.018660
 1626 Fit      -0.017493
 1627 Fit      -0.016405
 1628 Fit      -0.016256
 1629 Fit      -0.016172
 1630 Fit      -0.016597
 1631 Fit      -0.016509
 1632 Fit      -0.014066
 1633 Fit      -0.008614
 1634 Fit      -0.011914
 1635 Fit      -0.011650
 1636 Fit      -0.005113
 1637 Fit      -0.005957
 1638 Fit      -0.002251
 1639 Fit      -0.000687
 1640 Fit       0.001391
 1641 Fit       0.001111
 1642 Fit       0.005231
 1643 Fit       0.005761
 1644 Fit       0.007125
 1645 Fit       0.009977
 1646 Fit       0.010131
 1647 Fit       0.012724
 1648 Fit      -0.007744
 1649 Fit      -0.010219
 1650 Fit      -0.008561
 1651 Fit      -0.010362
 1652 Fit      -0.007431
 1653 Fit      -0.006827
 1654 Fit      -0.009986
 1655 Fit      -0.005656
 1656 Fit      -0.005457
 1657 Fit      -0.009862
 1658 Fit      -0.005256
 1659 Fit      -0.003543
 1660 Fit      -0.005589
 1661 Fit      -0.006638
 1662 Fit      -0.007357
 1663 Fit      -0.005842
 1664 Fit      -0.007366
 1665 Fit      -0.007869
 1666 Fit      -0.006679
 1667 Fit      -0.006510
 1668 Fit      -0.009095
 1669 Fit      -0.011348
 1670 Fit      -0.008769
 1671 Fit      -0.009007
 1672 Fit      -0.011027
 1673 Fit      -0.015962
 1674 Fit      -0.014997
 1675 Fit      -0.018647
 1676 Fit      -0.016808
 1677 Fit      -0.012411
 1678 Fit      -0.010670
 1679 Fit      -0.013516
 1680 Fit      -0.017094
 1681 Fit      -0.020807
 1682 Fit      -0.018578
 1683 Fit      -0.014733
 1684 Fit      -0.010421
 1685 Fit      -0.015308
 1686 Fit      -0.017527
 1687 Fit      -0.018342
 1688 Fit      -0.016697
 1689 Fit      -0.015106
 1690 Fit      -0.011731
 1691 Fit      -0.013489
 1692 Fit      -0.015435
 1693 Fit      -0.014559
 1694 Fit      -0.013316
 1695 Fit      -0.015280
 1696 Fit      -0.013172
 1697 Fit      -0.011133
 1698 Fit      -0.009792
 1699 Fit      -0.005425
 1700 Fit      -0.015059
 1701 Fit      -0.015157
 1702 Fit      -0.015014
 1703 Fit      -0.004137
 1704 Fit      -0.003964
 1705 Fit       0.006952
 1706 Fit       0.004468
 1707 Fit       0.005963
 1708 Fit       0.004968
 1709 Fit       0.005711
 1710 Fit       0.009046
 1711 Fit       0.008201
 1712 Fit       0.008925
 1713 Fit       0.012882
 1714 Fit       0.011475
 1715 Fit       0.009996
 1716 Fit       0.010129
 1717 Fit       0.009796
 1718 Fit       0.010751
 1719 Fit       0.002832
 1720 Fit       0.006024
 1721 Fit       0.008168
 1722 Fit       0.006785
 1723 Fit       0.004804
 1724 Fit       0.009915
 1725 Fit       0.008012
 1726 Fit       0.006067
 1727 Fit       0.002841
 1728 Fit       0.010194
 1729 Fit       0.009246
 1730 Fit       0.007450
 1731 Fit       0.004528
 1732 Fit       0.002837
 1733 Fit       0.006881
 1734 Fit       0.008356
 1735 Fit       0.006768
 1736 Fit       0.005604
 1737 Fit      -0.001028
 1738 Fit      -0.002331
 1739 Fit       0.002577
 1740 Fit       0.002692
 1741 Fit       0.004272
 1742 Fit       0.005455
 1743 Fit       0.006366
 1744 Fit       0.005655
 1745 Fit       0.004421
 1746 Fit      -0.003521
 1747 Fit       0.004215
 1748 Fit       0.003986
 1749 Fit       0.001715
 1750 Fit      -0.001150
 1751 Fit       0.001094
 1752 Fit      -0.006745
 1753 Fit      -0.004947
 1754 Fit      -0.003398
 1755 Fit      -0.002240
 1756 Fit      -0.002088
 1757 Fit      -0.002318
 1758 Fit      -0.005323
 1759 Fit      -0.007622
 1760 Fit      -0.010240
 1761 Fit      -0.009147
 1762 Fit      -0.007413
 1763 Fit      -0.006113
 1764 Fit      -0.005158
 1765 Fit      -0.004462
 1766 Fit      -0.009119
 1767 Fit      -0.010043
 1768 Fit      -0.009798
 1769 Fit      -0.008472
 1770 Fit      -0.007328
 1771 Fit      -0.001269
 1772 Fit      -0.007386
 1773 Fit      -0.007668
 1774 Fit      -0.007638
 1775 Fit       0.000512
 1776 Fit      -0.003212
 1777 Fit      -0.004150
 1778 Fit      -0.005272
 1779 Fit      -0.014521
 1780 Fit      -0.012887
 1781 Fit      -0.003036
 1782 Fit       0.005102
 1783 Fit      -0.000344
 1784 Fit       0.008277
 1785 Fit       0.004787
 1786 Fit       0.000143
 1787 Fit       0.005182
 1788 Fit      -0.002748
 1789 Fit      -0.000454
 1790 Fit      -0.005756
 1791 Fit      -0.002958
 1792 Fit       0.003100
 1793 Fit       0.001161
 1794 Fit      -0.002596
 1795 Fit       0.004447
 1796 Fit       0.000918
 1797 Fit       0.003286
 1798 Fit      -0.000953
 1799 Fit      -0.000269
 1800 Fit       0.002554
 1801 Fit      -0.002222
 1802 Fit      -0.000201
 1803 Fit      -0.002741
 1804 Fit      -0.012829
 1805 Fit      -0.010503
 1806 Fit      -0.007398
 1807 Fit      -0.011176
 1808 Fit      -0.015881
 1809 Fit      -0.016201
 1810 Fit      -0.014435
 1811 Fit      -0.009178
 1812 Fit      -0.003658
 1813 Fit      -0.009519
 1814 Fit      -0.015650
 1815 Fit      -0.018846
 1816 Fit      -0.018836
 1817 Fit      -0.017274
 1818 Fit      -0.016276
 1819 Fit      -0.015717
 1820 Fit      -0.013658
 1821 Fit      -0.008160
 1822 Fit      -0.001781
 1823 Fit      -0.012617
 1824 Fit      -0.018142
 1825 Fit      -0.020875
 1826 Fit      -0.020592
 1827 Fit      -0.017941
 1828 Fit      -0.015426
 1829 Fit      -0.014989
 1830 Fit      -0.015901
 1831 Fit      -0.016006
 1832 Fit      -0.013497
 1833 Fit      -0.009847
 1834 Fit      -0.015995
 1835 Fit      -0.020178
 1836 Fit      -0.015861
 1837 Fit      -0.011691
 1838 Fit      -0.011174
 1839 Fit      -0.013181
 1840 Fit      -0.015370
 1841 Fit      -0.015615
 1842 Fit      -0.012478
 1843 Fit      -0.006764
 1844 Fit      -0.005859
 1845 Fit      -0.003968
 1846 Fit      -0.006588
 1847 Fit      -0.010528
 1848 Fit      -0.013408
 1849 Fit      -0.013723
 1850 Fit      -0.008348
 1851 Fit      -0.010281
 1852 Fit      -0.004162
 1853 Fit      -0.002598
 1854 Fit       0.005762
 1855 Fit       0.004631
 1856 Fit       0.000745
 1857 Fit       0.004797
 1858 Fit       0.003351
 1859 Fit       0.000598
 1860 Fit       0.006883
 1861 Fit       0.006330
 1862 Fit       0.005962
 1863 Fit       0.007424
 1864 Fit       0.008402
 1865 Fit      -0.000448
 1866 Fit       0.001273
 1867 Fit       0.002799
 1868 Fit       0.001068
 1869 Fit      -0.003710
 1870 Fit       0.002158
 1871 Fit       0.004001
 1872 Fit       0.004472
 1873 Fit       0.003501
 1874 Fit       0.000835
 1875 Fit      -0.004532
 1876 Fit       0.005484
 1877 Fit       0.005301
 1878 Fit       0.004145
 1879 Fit       0.001936
 1880 Fit       0.002248
 1881 Fit       0.004564
 1882 Fit       0.001619
 1883 Fit       0.001444
 1884 Fit       0.000458
 1885 Fit       0.001445
 1886 Fit       0.000509
 1887 Fit       0.001584
 1888 Fit       0.006642
 1889 Fit      -0.000726
 1890 Fit      -0.000080
 1891 Fit       0.001301
 1892 Fit       0.001955
 1893 Fit       0.003997
 1894 Fit       0.005345
 1895 Fit      -0.000909
 1896 Fit       0.001494
 1897 Fit       0.001919
 1898 Fit       0.001406
 1899 Fit       0.002391
 1900 Fit       0.002675
 1901 Fit       0.002939
 1902 Fit       0.001467
 1903 Fit       0.002426
 1904 Fit       0.002333
 1905 Fit       0.003145
 1906 Fit       0.004639
 1907 Fit       0.005806
 1908 Fit       0.002929
 1909 Fit       0.004358
 1910 Fit       0.005345
 1911 Fit       0.005983
 1912 Fit       0.003001
 1913 Fit       0.004370
 1914 Fit       0.005268
 1915 Fit       0.005818
 1916 Fit       0.006751
 1917 Fit       0.003124
 1918 Fit       0.004305
 1919 Fit       0.004969
 1920 Fit       0.005733
 1921 Fit       0.003245
 1922 Fit      -0.001143
 1923 Fit      -0.000482
 1924 Fit       0.001786
 1925 Fit      -0.004995
 1926 Fit       0.000387
 1927 Fit       0.001273
 1928 Fit      -0.007462
 1929 Fit      -0.001844
 1930 Fit       0.000697
 1931 Fit       0.001138
 1932 Fit      -0.003755
 1933 Fit      -0.000578
 1934 Fit       0.000444
 1935 Fit      -0.007633
 1936 Fit      -0.002849
 1937 Fit      -0.000507
 Job cpu time:       0 days  0 hours 15 minutes  2.3 seconds.
 Normal termination of Gaussian 16 at Sun Jul  9 09:51:55 2023.
