 Copyright (c) 1988-2019, Gaussian, Inc.  All Rights Reserved.
  
 This is part of the Gaussian(R) 16 program.  It is based on
 the Gaussian(R) 09 system (copyright 2009, Gaussian, Inc.),
 the Gaussian(R) 03 system (copyright 2003, Gaussian, Inc.),
 the Gaussian(R) 98 system (copyright 1998, Gaussian, Inc.),
 the Gaussian(R) 94 system (copyright 1995, Gaussian, Inc.),
 the Gaussian 92(TM) system (copyright 1992, Gaussian, Inc.),
 the Gaussian 90(TM) system (copyright 1990, Gaussian, Inc.),
 the Gaussian 88(TM) system (copyright 1988, Gaussian, Inc.),
 the Gaussian 86(TM) system (copyright 1986, Carnegie Mellon
 University), and the Gaussian 82(TM) system (copyright 1983,
 Carnegie Mellon University). Gaussian is a federally registered
 trademark of Gaussian, Inc.
 Cite this work as:
 Gaussian 16, Revision C.01,
 M. J. Frisch, G. W. Trucks, H. B. Schlegel, G. E. Scuseria, 
 M. A. Robb, J. R. Cheeseman, G. Scalmani, V. Barone, 
 G. A. Petersson, H. Nakatsuji, X. Li, M. Caricato, A. V. Marenich, 
 J. Bloino, B. G. Janesko, R. Gomperts, B. Mennucci, H. P. Hratchian, 
 J. V. Ortiz, A. F. Izmaylov, J. L. Sonnenberg, D. Williams-Young, 
 F. Ding, F. Lipparini, F. Egidi, J. Goings, B. Peng, A. Petrone, 
 T. Henderson, D. Ranasinghe, V. G. Zakrzewski, J. Gao, N. Rega, 
 G. Zheng, W. Liang, M. Hada, M. Ehara, K. Toyota, R. Fukuda, 
 J. Hasegawa, M. Ishida, T. Nakajima, Y. Honda, O. Kitao, H. Nakai, 
 T. Vreven, K. Throssell, J. A. Montgomery, Jr., J. E. Peralta, 
 F. Ogliaro, M. J. Bearpark, J. J. Heyd, E. N. Brothers, K. N. Kudin, 
 V. N. Staroverov, T. A. Keith, R. Kobayashi, J. Normand, 
 K. Raghavachari, A. P. Rendell, J. C. Burant, S. S. Iyengar, 
 J. Tomasi, M. Cossi, J. M. Millam, M. Klene, C. Adamo, R. Cammi, 
 J. W. Ochterski, R. L. Martin, K. Morokuma, O. Farkas, 
 J. B. Foresman, and D. J. Fox, Gaussian, Inc., Wallingford CT, 2019.
 
 ******************************************
 Gaussian 16:  EM64L-G16RevC.01  3-Jul-2019
                 9-Jul-2023 
 ******************************************
 ----------------------------------------------------------------------
 #P B3LYP/6-31G(d) Integral=Ultrafine SCF(Conver=8,XQC,MaxConventionalC
 ycles=64,MaxCycle=128) NoSymm Test Pop=mk IOp(6/33=2) GFInput GFPrint
 ----------------------------------------------------------------------
 1/38=1,172=1/1;
 2/12=2,15=1,17=6,18=5,40=1/2;
 3/5=1,6=6,7=1,11=2,24=110,25=1,30=1,74=-5,75=-5/1,2,3;
 4//1;
 5/5=2,6=8,7=128,8=3,13=1,38=5,85=64/2,8;
 6/7=2,8=2,9=2,10=2,15=8,20=1,28=1,33=2/1,2;
 99/5=1,9=1/99;
 -------------------------------------------------
 MEP step - Input generated by PyRED DVE-DMDS-OPLS
 -------------------------------------------------
 Symbolic Z-matrix:
 Charge =  0 Multiplicity = 1
 C                     4.73098   7.72527   2.71567 
 H                     5.81148   7.77113   2.54153 
 H                     4.23304   8.32092   1.94321 
 H                     4.5323    8.18755   3.68971 
 C                     4.20763   6.2897    2.69995 
 H                     4.71632   5.68679   3.47021 
 H                     3.1365    6.2808    2.92764 
 O                     4.32393   5.65346   1.43269 
 C                     5.63802   5.24721   1.09078 
 H                     6.08433   4.65427   1.90618 
 H                     6.29125   6.11778   0.91128 
 C                     5.59729   4.40444  -0.17748 
 H                     5.02402   4.93933  -0.95104 
 H                     6.62523   4.28083  -0.53899 
 O                     5.09328   3.09455   0.00783 
 C                     3.6771    2.97815   0.00812 
 H                     3.24667   3.45835  -0.88479 
 H                     3.23178   3.45311   0.88932 
 C                     3.36098   1.48957  -0.00675 
 H                     3.80931   1.00459   0.87556 
 H                     3.80059   1.02161  -0.9021 
 O                     1.95101   1.34932   0. 
 C                     1.52514   0.        0. 
 H                     1.91472  -0.52683   0.88732 
 H                     1.9026   -0.5328   -0.88739 
 C                     0.        0.        0. 
 H                    -0.3707    0.47421  -0.91362 
 H                    -0.37799   0.58583   0.84368 
 S                    -0.72149  -1.68733   0.02411 
 C                    -0.62576  -2.10499   1.81692 
 H                    -0.70269  -3.19577   1.8508 
 H                     0.35969  -1.83751   2.20944 
 C                    -1.7368   -1.45676   2.64399 
 H                    -2.72184  -1.76261   2.2772 
 H                    -1.68765  -0.36628   2.56151 
 S                    -1.63815  -1.774     4.45491 
 C                    -2.22949  -3.51737   4.59108 
 H                    -2.91806  -3.70859   3.76157 
 H                    -2.81498  -3.56553   5.51357 
 C                    -1.10382  -4.55356   4.64294 
 H                    -0.49134  -4.5285    3.73566 
 H                    -0.43815  -4.33856   5.48423 
 S                    -1.69473  -6.27215   4.92082 
 C                    -2.37005  -6.68745   3.25921 
 H                    -3.2096   -6.02439   3.02508 
 H                    -1.58516  -6.52078   2.51226 
 C                    -2.82867  -8.14542   3.23716 
 H                    -1.99748  -8.82524   3.45106 
 H                    -3.61493  -8.32507   3.978 
 H                    -3.23043  -8.39791   2.24939 
 
 ITRead=  0  0  0  0  0  0  0  0  0  0  0  0  0  0  0  0  0  0  0  0
 ITRead=  0  0  0  0  0  0  0  0  0  0  0  0  0  0  0  0  0  0  0  0
 ITRead=  0  0  0  0  0  0  0  0  0  0
 MicOpt= -1 -1 -1 -1 -1 -1 -1 -1 -1 -1 -1 -1 -1 -1 -1 -1 -1 -1 -1 -1
 MicOpt= -1 -1 -1 -1 -1 -1 -1 -1 -1 -1 -1 -1 -1 -1 -1 -1 -1 -1 -1 -1
 MicOpt= -1 -1 -1 -1 -1 -1 -1 -1 -1 -1
 NAtoms=     50 NQM=       50 NQMF=       0 NMMI=      0 NMMIF=      0
                NMic=       0 NMicF=      0.
                          Input orientation:                          
 ---------------------------------------------------------------------
 Center     Atomic      Atomic             Coordinates (Angstroms)
 Number     Number       Type             X           Y           Z
 ---------------------------------------------------------------------
      1          6           0        4.730977    7.725266    2.715669
      2          1           0        5.811475    7.771128    2.541527
      3          1           0        4.233044    8.320921    1.943212
      4          1           0        4.532296    8.187546    3.689708
      5          6           0        4.207630    6.289701    2.699945
      6          1           0        4.716323    5.686786    3.470214
      7          1           0        3.136502    6.280798    2.927636
      8          8           0        4.323930    5.653462    1.432694
      9          6           0        5.638018    5.247206    1.090783
     10          1           0        6.084328    4.654271    1.906180
     11          1           0        6.291252    6.117777    0.911278
     12          6           0        5.597295    4.404442   -0.177475
     13          1           0        5.024025    4.939326   -0.951037
     14          1           0        6.625232    4.280829   -0.538985
     15          8           0        5.093285    3.094552    0.007828
     16          6           0        3.677101    2.978154    0.008116
     17          1           0        3.246669    3.458346   -0.884787
     18          1           0        3.231783    3.453114    0.889322
     19          6           0        3.360975    1.489572   -0.006753
     20          1           0        3.809311    1.004591    0.875564
     21          1           0        3.800592    1.021608   -0.902095
     22          8           0        1.951013    1.349324    0.000000
     23          6           0        1.525136    0.000000    0.000000
     24          1           0        1.914720   -0.526832    0.887316
     25          1           0        1.902597   -0.532796   -0.887393
     26          6           0        0.000000    0.000000    0.000000
     27          1           0       -0.370701    0.474213   -0.913624
     28          1           0       -0.377992    0.585828    0.843675
     29         16           0       -0.721492   -1.687327    0.024111
     30          6           0       -0.625755   -2.104986    1.816923
     31          1           0       -0.702691   -3.195772    1.850797
     32          1           0        0.359691   -1.837512    2.209439
     33          6           0       -1.736802   -1.456762    2.643986
     34          1           0       -2.721837   -1.762607    2.277197
     35          1           0       -1.687650   -0.366275    2.561507
     36         16           0       -1.638154   -1.773997    4.454905
     37          6           0       -2.229486   -3.517366    4.591075
     38          1           0       -2.918056   -3.708591    3.761567
     39          1           0       -2.814975   -3.565533    5.513572
     40          6           0       -1.103816   -4.553560    4.642939
     41          1           0       -0.491338   -4.528501    3.735660
     42          1           0       -0.438146   -4.338563    5.484229
     43         16           0       -1.694729   -6.272149    4.920821
     44          6           0       -2.370050   -6.687454    3.259206
     45          1           0       -3.209598   -6.024386    3.025084
     46          1           0       -1.585163   -6.520779    2.512257
     47          6           0       -2.828674   -8.145416    3.237159
     48          1           0       -1.997480   -8.825240    3.451060
     49          1           0       -3.614931   -8.325073    3.978004
     50          1           0       -3.230429   -8.397906    2.249390
 ---------------------------------------------------------------------
 Stoichiometry    C14H30O3S3
 Framework group  C1[X(C14H30O3S3)]
 Standard basis: 6-31G(d) (6D, 7F)
   372 basis functions,   752 primitive gaussians,   372 cartesian basis functions
    93 alpha electrons       93 beta electrons
 Requested convergence on RMS density matrix=1.00D-08 within  64 cycles.
 Requested convergence on MAX density matrix=1.00D-06.
 Requested convergence on             energy=1.00D-06.
 SCF Done:  E(RB3LYP) =  -1971.75716793     A.U. after   13 cycles
            NFock= 13  Conv=0.42D-08     -V/T= 2.0058
 Mulliken charges:
     1  C   -0.461969
     2  H    0.150343
     3  H    0.158842
     4  H    0.146193
     5  C   -0.015251
     6  H    0.122837
     7  H    0.147257
     8  O   -0.468520
     9  C   -0.023884
    10  H    0.129194
    11  H    0.118306
    12  C   -0.034959
    13  H    0.134289
    14  H    0.142291
    15  O   -0.485040
    16  C   -0.029496
    17  H    0.128520
    18  H    0.156693
    19  C   -0.024704
    20  H    0.130247
    21  H    0.129853
    22  O   -0.486670
    23  C    0.005965
    24  H    0.125213
    25  H    0.136354
    26  C   -0.438777
    27  H    0.189189
    28  H    0.181076
    29  S    0.083066
    30  C   -0.414994
    31  H    0.177603
    32  H    0.188396
    33  C   -0.410552
    34  H    0.183647
    35  H    0.184705
    36  S    0.084283
    37  C   -0.415049
    38  H    0.172864
    39  H    0.194614
    40  C   -0.409955
    41  H    0.172940
    42  H    0.189835
    43  S    0.083712
    44  C   -0.395899
    45  H    0.167446
    46  H    0.165869
    47  C   -0.453467
    48  H    0.166916
    49  H    0.165708
    50  H    0.154920
 Sum of Mulliken charges =  -0.00000
 Dipole moment (field-independent basis, Debye):
    X=              0.9044    Y=              1.3801    Z=             -0.6343  Tot=              1.7678
 Quadrupole moment (field-independent basis, Debye-Ang):
   XX=           -137.0988   YY=           -134.7957   ZZ=           -159.7120
   XY=             15.7183   XZ=              5.4158   YZ=             12.7915
 Traceless Quadrupole moment (field-independent basis, Debye-Ang):
   XX=              6.7700   YY=              9.0731   ZZ=            -15.8432
   XY=             15.7183   XZ=              5.4158   YZ=             12.7915
 Octapole moment (field-independent basis, Debye-Ang**2):
  XXX=           -319.6437  YYY=            281.9002  ZZZ=          -1012.8239  XYY=            -73.8872
  XXY=            126.4436  XXZ=           -288.8001  XZZ=            -78.4389  YZZ=            170.1163
  YYZ=           -325.2701  XYZ=             26.1011
 Hexadecapole moment (field-independent basis, Debye-Ang**3):
 XXXX=          -8007.6537 YYYY=         -17179.3358 ZZZZ=          -7811.6029 XXXY=          -4492.2520
 XXXZ=            754.2523 YYYX=          -4312.6629 YYYZ=           3162.7123 ZZZX=            912.9344
 ZZZY=           2943.9032 XXYY=          -3708.6325 XXZZ=          -2607.7574 YYZZ=          -4590.9624
 XXYZ=            892.4668 YYXZ=            426.6206 ZZXY=          -1693.6741
 Merz-Kollman atomic radii used.
 Atom Element Radius
    1     6    1.50
    2     1    1.20
    3     1    1.20
    4     1    1.20
    5     6    1.50
    6     1    1.20
    7     1    1.20
    8     8    1.40
    9     6    1.50
   10     1    1.20
   11     1    1.20
   12     6    1.50
   13     1    1.20
   14     1    1.20
   15     8    1.40
   16     6    1.50
   17     1    1.20
   18     1    1.20
   19     6    1.50
   20     1    1.20
   21     1    1.20
   22     8    1.40
   23     6    1.50
   24     1    1.20
   25     1    1.20
   26     6    1.50
   27     1    1.20
   28     1    1.20
   29    16    1.75
   30     6    1.50
   31     1    1.20
   32     1    1.20
   33     6    1.50
   34     1    1.20
   35     1    1.20
   36    16    1.75
   37     6    1.50
   38     1    1.20
   39     1    1.20
   40     6    1.50
   41     1    1.20
   42     1    1.20
   43    16    1.75
   44     6    1.50
   45     1    1.20
   46     1    1.20
   47     6    1.50
   48     1    1.20
   49     1    1.20
   50     1    1.20
 Generate VDW surfaces: Layer= 4 Dens= 1 Start= 1.400 Inc= 0.200
            Electrostatic Properties Using The SCF Density.


       Atomic Center    1 is at   4.730977  7.725266  2.715669
       Atomic Center    2 is at   5.811475  7.771128  2.541527
       Atomic Center    3 is at   4.233044  8.320921  1.943212
       Atomic Center    4 is at   4.532296  8.187546  3.689708
       Atomic Center    5 is at   4.207630  6.289701  2.699945
       Atomic Center    6 is at   4.716323  5.686786  3.470214
       Atomic Center    7 is at   3.136502  6.280798  2.927636
       Atomic Center    8 is at   4.323930  5.653462  1.432694
       Atomic Center    9 is at   5.638018  5.247206  1.090783
       Atomic Center   10 is at   6.084328  4.654271  1.906180
       Atomic Center   11 is at   6.291252  6.117777  0.911278
       Atomic Center   12 is at   5.597295  4.404442 -0.177475
       Atomic Center   13 is at   5.024025  4.939326 -0.951037
       Atomic Center   14 is at   6.625232  4.280829 -0.538985
       Atomic Center   15 is at   5.093285  3.094552  0.007828
       Atomic Center   16 is at   3.677101  2.978154  0.008116
       Atomic Center   17 is at   3.246669  3.458346 -0.884787
       Atomic Center   18 is at   3.231783  3.453114  0.889322
       Atomic Center   19 is at   3.360975  1.489572 -0.006753
       Atomic Center   20 is at   3.809311  1.004591  0.875564
       Atomic Center   21 is at   3.800592  1.021608 -0.902095
       Atomic Center   22 is at   1.951013  1.349324  0.000000
       Atomic Center   23 is at   1.525136  0.000000  0.000000
       Atomic Center   24 is at   1.914720 -0.526832  0.887316
       Atomic Center   25 is at   1.902597 -0.532796 -0.887393
       Atomic Center   26 is at   0.000000  0.000000  0.000000
       Atomic Center   27 is at  -0.370701  0.474213 -0.913624
       Atomic Center   28 is at  -0.377992  0.585828  0.843675
       Atomic Center   29 is at  -0.721492 -1.687327  0.024111
       Atomic Center   30 is at  -0.625755 -2.104986  1.816923
       Atomic Center   31 is at  -0.702691 -3.195772  1.850797
       Atomic Center   32 is at   0.359691 -1.837512  2.209439
       Atomic Center   33 is at  -1.736802 -1.456762  2.643986
       Atomic Center   34 is at  -2.721837 -1.762607  2.277197
       Atomic Center   35 is at  -1.687650 -0.366275  2.561507
       Atomic Center   36 is at  -1.638154 -1.773997  4.454905
       Atomic Center   37 is at  -2.229486 -3.517366  4.591075
       Atomic Center   38 is at  -2.918056 -3.708591  3.761567
       Atomic Center   39 is at  -2.814975 -3.565533  5.513572
       Atomic Center   40 is at  -1.103816 -4.553560  4.642939
       Atomic Center   41 is at  -0.491338 -4.528501  3.735660
       Atomic Center   42 is at  -0.438146 -4.338563  5.484229
       Atomic Center   43 is at  -1.694729 -6.272149  4.920821
       Atomic Center   44 is at  -2.370050 -6.687454  3.259206
       Atomic Center   45 is at  -3.209598 -6.024386  3.025084
       Atomic Center   46 is at  -1.585163 -6.520779  2.512257
       Atomic Center   47 is at  -2.828674 -8.145416  3.237159
       Atomic Center   48 is at  -1.997480 -8.825240  3.451060
       Atomic Center   49 is at  -3.614931 -8.325073  3.978004
       Atomic Center   50 is at  -3.230429 -8.397906  2.249390
      ESP Fit Center   51 is at   5.923913  9.453532  2.715669
      ESP Fit Center   52 is at   4.984104  9.809955  2.715669
      ESP Fit Center   53 is at   2.691999  8.227829  2.715669
      ESP Fit Center   54 is at   6.798954  7.771128  3.900676
      ESP Fit Center   55 is at   7.409250  7.771128  3.060676
      ESP Fit Center   56 is at   7.035442  8.798158  3.060676
      ESP Fit Center   57 is at   6.088926  9.344629  3.060676
      ESP Fit Center   58 is at   7.035442  6.744098  3.060676
      ESP Fit Center   59 is at   7.409250  7.771128  2.022378
      ESP Fit Center   60 is at   7.035442  8.798158  2.022378
      ESP Fit Center   61 is at   6.088926  9.344629  2.022378
      ESP Fit Center   62 is at   6.798954  7.771128  1.182378
      ESP Fit Center   63 is at   6.116623  8.710277  1.182378
      ESP Fit Center   64 is at   5.811475  7.771128  0.861527
      ESP Fit Center   65 is at   4.510495  9.894422  2.462361
      ESP Fit Center   66 is at   3.434157  9.704635  2.462361
      ESP Fit Center   67 is at   2.731627  8.867392  2.462361
      ESP Fit Center   68 is at   5.457011  9.347951  1.424063
      ESP Fit Center   69 is at   4.510495  9.894422  1.424063
      ESP Fit Center   70 is at   3.434157  9.704635  1.424063
      ESP Fit Center   71 is at   2.731627  8.867392  1.424063
      ESP Fit Center   72 is at   2.731627  7.774450  1.424063
      ESP Fit Center   73 is at   5.220523  8.320921  0.584063
      ESP Fit Center   74 is at   4.538192  9.260070  0.584063
      ESP Fit Center   75 is at   3.434157  8.901347  0.584063
      ESP Fit Center   76 is at   3.434157  7.740495  0.584063
      ESP Fit Center   77 is at   4.233044  8.320921  0.263212
      ESP Fit Center   78 is at   4.532296  8.187546  5.369708
      ESP Fit Center   79 is at   5.519775  8.187546  5.048857
      ESP Fit Center   80 is at   4.837444  9.126695  5.048857
      ESP Fit Center   81 is at   3.733409  8.767972  5.048857
      ESP Fit Center   82 is at   3.733409  7.607120  5.048857
      ESP Fit Center   83 is at   4.837444  7.248397  5.048857
      ESP Fit Center   84 is at   5.756263  9.214576  4.208857
      ESP Fit Center   85 is at   4.809747  9.761047  4.208857
      ESP Fit Center   86 is at   3.733409  9.571260  4.208857
      ESP Fit Center   87 is at   3.030879  8.734017  4.208857
      ESP Fit Center   88 is at   3.030879  7.641075  4.208857
      ESP Fit Center   89 is at   3.733409  9.571260  3.170559
      ESP Fit Center   90 is at   3.462960  4.326167  2.699945
      ESP Fit Center   91 is at   4.716323  5.686786  5.150214
      ESP Fit Center   92 is at   5.703802  5.686786  4.829363
      ESP Fit Center   93 is at   5.021471  6.625935  4.829363
      ESP Fit Center   94 is at   3.917436  6.267212  4.829363
      ESP Fit Center   95 is at   3.917436  5.106360  4.829363
      ESP Fit Center   96 is at   5.021471  4.747637  4.829363
      ESP Fit Center   97 is at   6.314098  5.686786  3.989363
      ESP Fit Center   98 is at   3.917436  4.303072  3.989363
      ESP Fit Center   99 is at   4.993774  4.113285  3.989363
      ESP Fit Center  100 is at   5.940290  4.659756  3.989363
      ESP Fit Center  101 is at   3.136502  6.280798  4.607636
      ESP Fit Center  102 is at   2.337615  6.861224  4.286785
      ESP Fit Center  103 is at   2.337615  5.700372  4.286785
      ESP Fit Center  104 is at   2.337615  7.664512  3.446785
      ESP Fit Center  105 is at   1.635085  6.827269  3.446785
      ESP Fit Center  106 is at   1.635085  5.734327  3.446785
      ESP Fit Center  107 is at   2.337615  4.897084  3.446785
      ESP Fit Center  108 is at   2.337615  7.664512  2.408487
      ESP Fit Center  109 is at   1.635085  6.827269  2.408487
      ESP Fit Center  110 is at   1.635085  5.734327  2.408487
      ESP Fit Center  111 is at   2.337615  4.897084  2.408487
      ESP Fit Center  112 is at   2.337615  6.861224  1.568487
      ESP Fit Center  113 is at   2.337615  5.700372  1.568487
      ESP Fit Center  114 is at   3.799402  4.039129  2.412694
      ESP Fit Center  115 is at   2.363930  5.653462  1.432694
      ESP Fit Center  116 is at   4.848458  7.267795  0.452694
      ESP Fit Center  117 is at   3.799402  7.267795  0.452694
      ESP Fit Center  118 is at   2.950697  6.651174  0.452694
      ESP Fit Center  119 is at   2.626520  5.653462  0.452694
      ESP Fit Center  120 is at   3.833930  6.502167 -0.264716
      ESP Fit Center  121 is at   3.343930  5.653462 -0.264716
      ESP Fit Center  122 is at   7.738018  5.247206  1.090783
      ESP Fit Center  123 is at   6.084328  4.654271  3.586180
      ESP Fit Center  124 is at   7.071807  4.654271  3.265329
      ESP Fit Center  125 is at   6.389476  5.593420  3.265329
      ESP Fit Center  126 is at   5.285441  4.073845  3.265329
      ESP Fit Center  127 is at   6.389476  3.715122  3.265329
      ESP Fit Center  128 is at   7.682103  4.654271  2.425329
      ESP Fit Center  129 is at   7.308295  5.681301  2.425329
      ESP Fit Center  130 is at   5.285441  3.270557  2.425329
      ESP Fit Center  131 is at   6.361779  3.080770  2.425329
      ESP Fit Center  132 is at   7.308295  3.627241  2.425329
      ESP Fit Center  133 is at   7.682103  4.654271  1.387031
      ESP Fit Center  134 is at   7.308295  3.627241  1.387031
      ESP Fit Center  135 is at   7.278731  6.117777  2.270427
      ESP Fit Center  136 is at   7.889027  6.117777  1.430427
      ESP Fit Center  137 is at   7.515219  7.144807  1.430427
      ESP Fit Center  138 is at   7.889027  6.117777  0.392129
      ESP Fit Center  139 is at   7.515219  7.144807  0.392129
      ESP Fit Center  140 is at   6.568703  7.691278  0.392129
      ESP Fit Center  141 is at   5.492365  7.501491  0.392129
      ESP Fit Center  142 is at   7.278731  6.117777 -0.447871
      ESP Fit Center  143 is at   6.596400  7.056926 -0.447871
      ESP Fit Center  144 is at   5.492365  6.698203 -0.447871
      ESP Fit Center  145 is at   7.127244  3.421204  0.872525
      ESP Fit Center  146 is at   6.352791  6.058747 -1.227475
      ESP Fit Center  147 is at   5.072295  3.495115 -1.996128
      ESP Fit Center  148 is at   6.122295  3.495115 -1.996128
      ESP Fit Center  149 is at   4.225138  6.323040 -0.431888
      ESP Fit Center  150 is at   3.522608  5.485797 -0.431888
      ESP Fit Center  151 is at   6.247992  5.966356 -1.470186
      ESP Fit Center  152 is at   5.301476  6.512827 -1.470186
      ESP Fit Center  153 is at   4.225138  6.323040 -1.470186
      ESP Fit Center  154 is at   3.522608  5.485797 -1.470186
      ESP Fit Center  155 is at   6.011504  4.939326 -2.310186
      ESP Fit Center  156 is at   5.329173  5.878475 -2.310186
      ESP Fit Center  157 is at   4.225138  5.519752 -2.310186
      ESP Fit Center  158 is at   4.225138  4.358900 -2.310186
      ESP Fit Center  159 is at   5.329173  4.000177 -2.310186
      ESP Fit Center  160 is at   5.024025  4.939326 -2.631037
      ESP Fit Center  161 is at   7.612711  4.280829  0.820164
      ESP Fit Center  162 is at   8.223007  4.280829 -0.019836
      ESP Fit Center  163 is at   7.849199  5.307859 -0.019836
      ESP Fit Center  164 is at   7.849199  3.253799 -0.019836
      ESP Fit Center  165 is at   8.223007  4.280829 -1.058134
      ESP Fit Center  166 is at   7.849199  5.307859 -1.058134
      ESP Fit Center  167 is at   6.902683  5.854330 -1.058134
      ESP Fit Center  168 is at   6.902683  2.707328 -1.058134
      ESP Fit Center  169 is at   7.849199  3.253799 -1.058134
      ESP Fit Center  170 is at   7.612711  4.280829 -1.898134
      ESP Fit Center  171 is at   6.930380  5.219978 -1.898134
      ESP Fit Center  172 is at   6.930380  3.341680 -1.898134
      ESP Fit Center  173 is at   6.625232  4.280829 -2.218985
      ESP Fit Center  174 is at   5.093285  3.094552  1.967828
      ESP Fit Center  175 is at   5.583285  2.245847  1.705238
      ESP Fit Center  176 is at   6.790695  3.094552  0.987828
      ESP Fit Center  177 is at   5.617813  1.480219  0.987828
      ESP Fit Center  178 is at   6.466518  2.096840  0.987828
      ESP Fit Center  179 is at   6.073285  1.397142  0.007828
      ESP Fit Center  180 is at   6.790695  2.114552  0.007828
      ESP Fit Center  181 is at   5.617813  1.480219 -0.972172
      ESP Fit Center  182 is at   6.466518  2.096840 -0.972172
      ESP Fit Center  183 is at   5.583285  2.245847 -1.689582
      ESP Fit Center  184 is at   5.093285  3.094552 -1.952172
      ESP Fit Center  185 is at   2.932431  4.941688  0.008116
      ESP Fit Center  186 is at   2.105228  4.370712  0.008116
      ESP Fit Center  187 is at   1.638123  3.480717  0.008116
      ESP Fit Center  188 is at   2.447782  4.842060 -0.365638
      ESP Fit Center  189 is at   1.745252  4.004817 -0.365638
      ESP Fit Center  190 is at   2.447782  4.842060 -1.403936
      ESP Fit Center  191 is at   1.745252  4.004817 -1.403936
      ESP Fit Center  192 is at   1.745252  2.911875 -1.403936
      ESP Fit Center  193 is at   4.234148  3.458346 -2.243936
      ESP Fit Center  194 is at   3.551817  4.397495 -2.243936
      ESP Fit Center  195 is at   2.447782  4.038772 -2.243936
      ESP Fit Center  196 is at   2.447782  2.877920 -2.243936
      ESP Fit Center  197 is at   3.551817  2.519197 -2.243936
      ESP Fit Center  198 is at   3.246669  3.458346 -2.564787
      ESP Fit Center  199 is at   3.231783  3.453114  2.569322
      ESP Fit Center  200 is at   4.219262  3.453114  2.248471
      ESP Fit Center  201 is at   2.432896  4.033540  2.248471
      ESP Fit Center  202 is at   2.432896  2.872688  2.248471
      ESP Fit Center  203 is at   3.536931  2.513965  2.248471
      ESP Fit Center  204 is at   2.432896  4.836828  1.408471
      ESP Fit Center  205 is at   1.730366  3.999585  1.408471
      ESP Fit Center  206 is at   1.730366  2.906643  1.408471
      ESP Fit Center  207 is at   2.432896  4.836828  0.370173
      ESP Fit Center  208 is at   1.730366  3.999585  0.370173
      ESP Fit Center  209 is at   3.614102 -0.595117 -0.006753
      ESP Fit Center  210 is at   4.553911 -0.238694 -0.006753
      ESP Fit Center  211 is at   5.220433  0.513653 -0.006753
      ESP Fit Center  212 is at   3.809311  1.004591  2.555564
      ESP Fit Center  213 is at   4.796790  1.004591  2.234713
      ESP Fit Center  214 is at   4.114459  1.943740  2.234713
      ESP Fit Center  215 is at   3.010424  1.585017  2.234713
      ESP Fit Center  216 is at   3.010424  0.424165  2.234713
      ESP Fit Center  217 is at   4.114459  0.065442  2.234713
      ESP Fit Center  218 is at   5.407086  1.004591  1.394713
      ESP Fit Center  219 is at   4.086762 -0.568910  1.394713
      ESP Fit Center  220 is at   5.033278 -0.022439  1.394713
      ESP Fit Center  221 is at   5.407086  1.004591  0.356415
      ESP Fit Center  222 is at   4.086762 -0.568910  0.356415
      ESP Fit Center  223 is at   5.033278 -0.022439  0.356415
      ESP Fit Center  224 is at   5.398367  1.021608 -0.382946
      ESP Fit Center  225 is at   4.078043 -0.551893 -0.382946
      ESP Fit Center  226 is at   5.024559 -0.005422 -0.382946
      ESP Fit Center  227 is at   5.398367  1.021608 -1.421244
      ESP Fit Center  228 is at   4.078043 -0.551893 -1.421244
      ESP Fit Center  229 is at   5.024559 -0.005422 -1.421244
      ESP Fit Center  230 is at   4.788071  1.021608 -2.261244
      ESP Fit Center  231 is at   4.105740  1.960757 -2.261244
      ESP Fit Center  232 is at   3.001705  1.602034 -2.261244
      ESP Fit Center  233 is at   3.001705  0.441182 -2.261244
      ESP Fit Center  234 is at   4.105740  0.082459 -2.261244
      ESP Fit Center  235 is at   3.800592  1.021608 -2.582095
      ESP Fit Center  236 is at   1.951013  1.349324  1.960000
      ESP Fit Center  237 is at   1.461013  2.198029  1.697410
      ESP Fit Center  238 is at   0.971013  1.349324  1.697410
      ESP Fit Center  239 is at   1.426485  2.963657  0.980000
      ESP Fit Center  240 is at   0.577780  2.347036  0.980000
      ESP Fit Center  241 is at   0.971013  3.046734  0.000000
      ESP Fit Center  242 is at   0.253603  2.329324  0.000000
      ESP Fit Center  243 is at   1.426485  2.963657 -0.980000
      ESP Fit Center  244 is at   0.577780  2.347036 -0.980000
      ESP Fit Center  245 is at   1.461013  2.198029 -1.697410
      ESP Fit Center  246 is at   0.971013  1.349324 -1.697410
      ESP Fit Center  247 is at   1.951013  1.349324 -1.960000
      ESP Fit Center  248 is at   1.000136  0.909327  1.818653
      ESP Fit Center  249 is at   1.778263 -2.084689  0.000000
      ESP Fit Center  250 is at   2.718072 -1.728266  0.000000
      ESP Fit Center  251 is at   3.384594 -0.975919  0.000000
      ESP Fit Center  252 is at   1.000136  0.909327 -1.818653
      ESP Fit Center  253 is at   1.914720 -0.526832  2.567316
      ESP Fit Center  254 is at   2.902199 -0.526832  2.246465
      ESP Fit Center  255 is at   2.219868  0.412317  2.246465
      ESP Fit Center  256 is at   1.115833  0.053594  2.246465
      ESP Fit Center  257 is at   2.219868 -1.465981  2.246465
      ESP Fit Center  258 is at   2.192171 -2.100333  1.406465
      ESP Fit Center  259 is at   3.138687 -1.553862  1.406465
      ESP Fit Center  260 is at   2.192171 -2.100333  0.368167
      ESP Fit Center  261 is at   3.138687 -1.553862  0.368167
      ESP Fit Center  262 is at   2.180048 -2.106297 -0.368244
      ESP Fit Center  263 is at   3.126564 -1.559826 -0.368244
      ESP Fit Center  264 is at   2.180048 -2.106297 -1.406542
      ESP Fit Center  265 is at   3.126564 -1.559826 -1.406542
      ESP Fit Center  266 is at   2.890076 -0.532796 -2.246542
      ESP Fit Center  267 is at   2.207745  0.406353 -2.246542
      ESP Fit Center  268 is at   1.103710  0.047630 -2.246542
      ESP Fit Center  269 is at   1.103710 -1.113222 -2.246542
      ESP Fit Center  270 is at   2.207745 -1.471945 -2.246542
      ESP Fit Center  271 is at   1.902597 -0.532796 -2.567393
      ESP Fit Center  272 is at  -2.038978  0.502563  0.000000
      ESP Fit Center  273 is at  -1.169588  1.857927 -0.394475
      ESP Fit Center  274 is at  -1.872118  1.020684 -0.394475
      ESP Fit Center  275 is at  -0.093250  2.047714 -1.432773
      ESP Fit Center  276 is at  -1.169588  1.857927 -1.432773
      ESP Fit Center  277 is at  -1.872118  1.020684 -1.432773
      ESP Fit Center  278 is at  -1.872118 -0.072258 -1.432773
      ESP Fit Center  279 is at   0.616778  0.474213 -2.272773
      ESP Fit Center  280 is at  -0.065553  1.413362 -2.272773
      ESP Fit Center  281 is at  -1.169588  1.054639 -2.272773
      ESP Fit Center  282 is at  -1.169588 -0.106213 -2.272773
      ESP Fit Center  283 is at  -0.065553 -0.464936 -2.272773
      ESP Fit Center  284 is at  -0.370701  0.474213 -2.593624
      ESP Fit Center  285 is at   0.609487  0.585828  2.202824
      ESP Fit Center  286 is at  -0.072844  1.524977  2.202824
      ESP Fit Center  287 is at  -0.100541  2.159329  1.362824
      ESP Fit Center  288 is at  -1.176879  1.969542  1.362824
      ESP Fit Center  289 is at  -1.879409  1.132299  1.362824
      ESP Fit Center  290 is at  -0.100541  2.159329  0.324526
      ESP Fit Center  291 is at  -1.176879  1.969542  0.324526
      ESP Fit Center  292 is at  -1.879409  1.132299  0.324526
      ESP Fit Center  293 is at  -2.210743  0.180135  0.569287
      ESP Fit Center  294 is at  -2.873522 -0.650964  0.569287
      ESP Fit Center  295 is at  -3.110065 -1.687327  0.569287
      ESP Fit Center  296 is at  -2.873522 -2.723690  0.569287
      ESP Fit Center  297 is at  -2.210743 -3.554789  0.569287
      ESP Fit Center  298 is at   0.767759 -3.554789  0.569287
      ESP Fit Center  299 is at   1.430538 -2.723690  0.569287
      ESP Fit Center  300 is at  -2.210743  0.180135 -0.521065
      ESP Fit Center  301 is at  -2.873522 -0.650964 -0.521065
      ESP Fit Center  302 is at  -3.110065 -1.687327 -0.521065
      ESP Fit Center  303 is at  -2.873522 -2.723690 -0.521065
      ESP Fit Center  304 is at  -2.210743 -3.554789 -0.521065
      ESP Fit Center  305 is at  -1.253000 -4.016014 -0.521065
      ESP Fit Center  306 is at  -0.189984 -4.016014 -0.521065
      ESP Fit Center  307 is at   0.767759 -3.554789 -0.521065
      ESP Fit Center  308 is at   1.430538 -2.723690 -0.521065
      ESP Fit Center  309 is at  -1.975869 -0.239698 -1.503439
      ESP Fit Center  310 is at  -2.559388 -1.147672 -1.503439
      ESP Fit Center  311 is at  -2.559388 -2.226982 -1.503439
      ESP Fit Center  312 is at  -1.975869 -3.134956 -1.503439
      ESP Fit Center  313 is at  -0.994094 -3.583317 -1.503439
      ESP Fit Center  314 is at   0.074230 -3.429715 -1.503439
      ESP Fit Center  315 is at   0.889918 -2.722918 -1.503439
      ESP Fit Center  316 is at   0.341523 -1.687327 -2.183263
      ESP Fit Center  317 is at  -0.189984 -0.766729 -2.183263
      ESP Fit Center  318 is at  -1.253000 -0.766729 -2.183263
      ESP Fit Center  319 is at  -1.784507 -1.687327 -2.183263
      ESP Fit Center  320 is at  -1.253000 -2.607925 -2.183263
      ESP Fit Center  321 is at  -0.189984 -2.607925 -2.183263
      ESP Fit Center  322 is at  -0.721492 -1.687327 -2.425889
      ESP Fit Center  323 is at  -1.501578 -4.579486  2.369946
      ESP Fit Center  324 is at   0.521276 -4.222802  2.369946
      ESP Fit Center  325 is at  -2.204108 -3.742243  1.331648
      ESP Fit Center  326 is at  -1.501578 -4.579486  1.331648
      ESP Fit Center  327 is at  -0.425240 -4.769273  1.331648
      ESP Fit Center  328 is at   0.521276 -4.222802  1.331648
      ESP Fit Center  329 is at  -0.397543 -4.134921  0.491648
      ESP Fit Center  330 is at   1.347170 -1.837512  3.568588
      ESP Fit Center  331 is at   0.664839 -0.898363  3.568588
      ESP Fit Center  332 is at   0.664839 -2.776661  3.568588
      ESP Fit Center  333 is at   1.957466 -1.837512  2.728588
      ESP Fit Center  334 is at   1.583658 -0.810482  2.728588
      ESP Fit Center  335 is at   0.637142 -0.264011  2.728588
      ESP Fit Center  336 is at   1.583658 -2.864542  2.728588
      ESP Fit Center  337 is at   1.583658 -2.864542  1.690290
      ESP Fit Center  338 is at  -4.223254 -1.216136  2.796346
      ESP Fit Center  339 is at  -4.223254 -2.309078  2.796346
      ESP Fit Center  340 is at  -3.520724 -0.378893  1.758048
      ESP Fit Center  341 is at  -4.223254 -1.216136  1.758048
      ESP Fit Center  342 is at  -4.223254 -2.309078  1.758048
      ESP Fit Center  343 is at  -3.520724 -3.146321  1.758048
      ESP Fit Center  344 is at  -2.444386 -3.336108  1.758048
      ESP Fit Center  345 is at  -3.520724 -1.182181  0.918048
      ESP Fit Center  346 is at  -3.520724 -2.343033  0.918048
      ESP Fit Center  347 is at  -0.463683  0.660755  3.080656
      ESP Fit Center  348 is at  -1.410199  1.207226  3.080656
      ESP Fit Center  349 is at  -2.486537  1.017439  3.080656
      ESP Fit Center  350 is at  -3.189067  0.180196  3.080656
      ESP Fit Center  351 is at  -1.410199  1.207226  2.042358
      ESP Fit Center  352 is at  -2.486537  1.017439  2.042358
      ESP Fit Center  353 is at  -3.189067  0.180196  2.042358
      ESP Fit Center  354 is at  -2.486537  0.214151  1.202358
      ESP Fit Center  355 is at  -1.638154 -1.773997  6.904905
      ESP Fit Center  356 is at  -0.575139 -1.773997  6.662279
      ESP Fit Center  357 is at  -1.106646 -0.853399  6.662279
      ESP Fit Center  358 is at  -2.169662 -0.853399  6.662279
      ESP Fit Center  359 is at  -2.701169 -1.773997  6.662279
      ESP Fit Center  360 is at  -1.106646 -2.694595  6.662279
      ESP Fit Center  361 is at   0.277333 -1.773997  5.982455
      ESP Fit Center  362 is at  -0.026744 -0.738406  5.982455
      ESP Fit Center  363 is at  -0.842432 -0.031609  5.982455
      ESP Fit Center  364 is at  -1.910756  0.121993  5.982455
      ESP Fit Center  365 is at  -2.892531 -0.326368  5.982455
      ESP Fit Center  366 is at  -3.476050 -1.234342  5.982455
      ESP Fit Center  367 is at   0.750419 -1.773997  5.000081
      ESP Fit Center  368 is at   0.513876 -0.737634  5.000081
      ESP Fit Center  369 is at  -0.148903  0.093465  5.000081
      ESP Fit Center  370 is at  -1.106646  0.554690  5.000081
      ESP Fit Center  371 is at  -2.169662  0.554690  5.000081
      ESP Fit Center  372 is at  -3.127405  0.093465  5.000081
      ESP Fit Center  373 is at  -3.790184 -0.737634  5.000081
      ESP Fit Center  374 is at  -4.026727 -1.773997  5.000081
      ESP Fit Center  375 is at   0.513876 -2.810360  5.000081
      ESP Fit Center  376 is at   0.750419 -1.773997  3.909729
      ESP Fit Center  377 is at   0.513876 -0.737634  3.909729
      ESP Fit Center  378 is at  -0.148903  0.093465  3.909729
      ESP Fit Center  379 is at  -1.106646  0.554690  3.909729
      ESP Fit Center  380 is at  -2.169662  0.554690  3.909729
      ESP Fit Center  381 is at  -3.127405  0.093465  3.909729
      ESP Fit Center  382 is at  -3.790184 -0.737634  3.909729
      ESP Fit Center  383 is at  -4.026727 -1.773997  3.909729
      ESP Fit Center  384 is at   0.513876 -2.810360  3.909729
      ESP Fit Center  385 is at  -4.268464 -3.014803  4.591075
      ESP Fit Center  386 is at  -3.801359 -4.909924  4.591075
      ESP Fit Center  387 is at  -4.419473 -3.162120  4.280716
      ESP Fit Center  388 is at  -4.419473 -4.255062  4.280716
      ESP Fit Center  389 is at  -4.419473 -3.162120  3.242418
      ESP Fit Center  390 is at  -4.419473 -4.255062  3.242418
      ESP Fit Center  391 is at  -3.716943 -3.128165  2.402418
      ESP Fit Center  392 is at  -3.716943 -4.289017  2.402418
      ESP Fit Center  393 is at  -2.918056 -3.708591  2.081567
      ESP Fit Center  394 is at  -2.814975 -3.565533  7.193572
      ESP Fit Center  395 is at  -1.827496 -3.565533  6.872721
      ESP Fit Center  396 is at  -2.509827 -2.626384  6.872721
      ESP Fit Center  397 is at  -3.613862 -2.985107  6.872721
      ESP Fit Center  398 is at  -3.613862 -4.145959  6.872721
      ESP Fit Center  399 is at  -2.509827 -4.504682  6.872721
      ESP Fit Center  400 is at  -3.613862 -2.181819  6.032721
      ESP Fit Center  401 is at  -4.316392 -3.019062  6.032721
      ESP Fit Center  402 is at  -4.316392 -4.112004  6.032721
      ESP Fit Center  403 is at  -3.613862 -4.949247  6.032721
      ESP Fit Center  404 is at  -4.316392 -3.019062  4.994423
      ESP Fit Center  405 is at  -4.316392 -4.112004  4.994423
      ESP Fit Center  406 is at   0.755642 -5.529479  4.642939
      ESP Fit Center  407 is at   1.106437 -4.528501  4.254809
      ESP Fit Center  408 is at   0.732629 -3.501471  4.254809
      ESP Fit Center  409 is at   0.732629 -5.555531  4.254809
      ESP Fit Center  410 is at   1.106437 -4.528501  3.216511
      ESP Fit Center  411 is at   0.732629 -3.501471  3.216511
      ESP Fit Center  412 is at   0.732629 -5.555531  3.216511
      ESP Fit Center  413 is at   0.496141 -4.528501  2.376511
      ESP Fit Center  414 is at  -0.186190 -5.467650  2.376511
      ESP Fit Center  415 is at  -0.438146 -4.338563  7.164229
      ESP Fit Center  416 is at   0.549333 -4.338563  6.843378
      ESP Fit Center  417 is at  -0.132998 -3.399414  6.843378
      ESP Fit Center  418 is at  -1.237033 -3.758137  6.843378
      ESP Fit Center  419 is at  -0.132998 -5.277712  6.843378
      ESP Fit Center  420 is at   1.159629 -4.338563  6.003378
      ESP Fit Center  421 is at   0.785821 -3.311533  6.003378
      ESP Fit Center  422 is at   0.785821 -5.365593  6.003378
      ESP Fit Center  423 is at   1.159629 -4.338563  4.965080
      ESP Fit Center  424 is at   0.785821 -3.311533  4.965080
      ESP Fit Center  425 is at  -1.694729 -6.272149  7.370821
      ESP Fit Center  426 is at  -0.631714 -6.272149  7.128195
      ESP Fit Center  427 is at  -1.163221 -5.351551  7.128195
      ESP Fit Center  428 is at  -2.226237 -5.351551  7.128195
      ESP Fit Center  429 is at  -2.757744 -6.272149  7.128195
      ESP Fit Center  430 is at  -2.226237 -7.192747  7.128195
      ESP Fit Center  431 is at  -1.163221 -7.192747  7.128195
      ESP Fit Center  432 is at   0.220758 -6.272149  6.448371
      ESP Fit Center  433 is at  -3.532625 -5.732494  6.448371
      ESP Fit Center  434 is at  -3.532625 -6.811804  6.448371
      ESP Fit Center  435 is at  -2.949106 -7.719778  6.448371
      ESP Fit Center  436 is at  -1.967331 -8.168139  6.448371
      ESP Fit Center  437 is at  -0.899007 -8.014537  6.448371
      ESP Fit Center  438 is at  -0.083319 -7.307740  6.448371
      ESP Fit Center  439 is at   0.693844 -6.272149  5.465997
      ESP Fit Center  440 is at  -3.846759 -5.235786  5.465997
      ESP Fit Center  441 is at  -4.083302 -6.272149  5.465997
      ESP Fit Center  442 is at  -3.846759 -7.308512  5.465997
      ESP Fit Center  443 is at  -2.226237 -8.600836  5.465997
      ESP Fit Center  444 is at  -1.163221 -8.600836  5.465997
      ESP Fit Center  445 is at  -0.205478 -8.139611  5.465997
      ESP Fit Center  446 is at   0.457301 -7.308512  5.465997
      ESP Fit Center  447 is at   0.693844 -6.272149  4.375645
      ESP Fit Center  448 is at  -3.846759 -5.235786  4.375645
      ESP Fit Center  449 is at  -0.205478 -8.139611  4.375645
      ESP Fit Center  450 is at   0.457301 -7.308512  4.375645
      ESP Fit Center  451 is at   0.220758 -6.272149  3.393271
      ESP Fit Center  452 is at  -0.083319 -7.307740  3.393271
      ESP Fit Center  453 is at  -0.510592 -7.663373  3.259206
      ESP Fit Center  454 is at  -3.420050 -6.687454  1.440553
      ESP Fit Center  455 is at  -4.008485 -5.443960  4.384233
      ESP Fit Center  456 is at  -4.711015 -5.477915  3.544233
      ESP Fit Center  457 is at  -4.711015 -6.570857  3.544233
      ESP Fit Center  458 is at  -4.008485 -4.640672  2.505935
      ESP Fit Center  459 is at  -4.711015 -5.477915  2.505935
      ESP Fit Center  460 is at  -4.711015 -6.570857  2.505935
      ESP Fit Center  461 is at  -2.904450 -5.085237  1.665935
      ESP Fit Center  462 is at  -4.008485 -5.443960  1.665935
      ESP Fit Center  463 is at  -4.008485 -6.604812  1.665935
      ESP Fit Center  464 is at  -3.209598 -6.024386  1.345084
      ESP Fit Center  465 is at   0.012612 -6.520779  3.031406
      ESP Fit Center  466 is at  -0.361196 -7.547809  3.031406
      ESP Fit Center  467 is at   0.012612 -6.520779  1.993108
      ESP Fit Center  468 is at  -0.361196 -5.493749  1.993108
      ESP Fit Center  469 is at  -1.307712 -4.947278  1.993108
      ESP Fit Center  470 is at  -0.361196 -7.547809  1.993108
      ESP Fit Center  471 is at  -0.597684 -6.520779  1.153108
      ESP Fit Center  472 is at  -1.280015 -5.581630  1.153108
      ESP Fit Center  473 is at  -2.384050 -5.940353  1.153108
      ESP Fit Center  474 is at  -2.384050 -7.101205  1.153108
      ESP Fit Center  475 is at  -1.280015 -7.459928  1.153108
      ESP Fit Center  476 is at  -1.585163 -6.520779  0.832257
      ESP Fit Center  477 is at  -3.087495 -9.945558  4.287159
      ESP Fit Center  478 is at  -3.573344-10.108950  3.237159
      ESP Fit Center  479 is at  -1.010021 -8.145416  2.187159
      ESP Fit Center  480 is at  -1.778674 -8.145416  1.418506
      ESP Fit Center  481 is at  -1.997480 -8.825240  5.131060
      ESP Fit Center  482 is at  -1.010001 -8.825240  4.810209
      ESP Fit Center  483 is at  -1.692332 -9.764389  4.810209
      ESP Fit Center  484 is at  -0.399705 -8.825240  3.970209
      ESP Fit Center  485 is at  -2.796367-10.208954  3.970209
      ESP Fit Center  486 is at  -1.720029-10.398741  3.970209
      ESP Fit Center  487 is at  -0.773513 -9.852270  3.970209
      ESP Fit Center  488 is at  -0.399705 -8.825240  2.931911
      ESP Fit Center  489 is at  -1.720029-10.398741  2.931911
      ESP Fit Center  490 is at  -0.773513 -9.852270  2.931911
      ESP Fit Center  491 is at  -1.010001 -8.825240  2.091911
      ESP Fit Center  492 is at  -1.692332 -9.764389  2.091911
      ESP Fit Center  493 is at  -3.614931 -8.325073  5.658004
      ESP Fit Center  494 is at  -4.413818 -7.744647  5.337153
      ESP Fit Center  495 is at  -4.413818 -8.905499  5.337153
      ESP Fit Center  496 is at  -3.309783 -9.264222  5.337153
      ESP Fit Center  497 is at  -4.413818 -6.941359  4.497153
      ESP Fit Center  498 is at  -5.116348 -7.778602  4.497153
      ESP Fit Center  499 is at  -5.116348 -8.871544  4.497153
      ESP Fit Center  500 is at  -4.413818 -9.708787  4.497153
      ESP Fit Center  501 is at  -3.337480 -9.898574  4.497153
      ESP Fit Center  502 is at  -5.116348 -7.778602  3.458855
      ESP Fit Center  503 is at  -5.116348 -8.871544  3.458855
      ESP Fit Center  504 is at  -4.413818 -9.708787  3.458855
      ESP Fit Center  505 is at  -4.731846 -8.944377  2.768539
      ESP Fit Center  506 is at  -4.029316 -7.014192  1.730241
      ESP Fit Center  507 is at  -4.731846 -7.851435  1.730241
      ESP Fit Center  508 is at  -4.731846 -8.944377  1.730241
      ESP Fit Center  509 is at  -4.029316 -9.781620  1.730241
      ESP Fit Center  510 is at  -2.952978 -9.971407  1.730241
      ESP Fit Center  511 is at  -2.006462 -9.424936  1.730241
      ESP Fit Center  512 is at  -2.242950 -8.397906  0.890241
      ESP Fit Center  513 is at  -2.925281 -7.458757  0.890241
      ESP Fit Center  514 is at  -4.029316 -7.817480  0.890241
      ESP Fit Center  515 is at  -4.029316 -8.978332  0.890241
      ESP Fit Center  516 is at  -2.925281 -9.337055  0.890241
      ESP Fit Center  517 is at  -3.230429 -8.397906  0.569390
      ESP Fit Center  518 is at   6.309501  8.739722  4.212045
      ESP Fit Center  519 is at   6.309501  6.710810  4.212045
      ESP Fit Center  520 is at   6.189835  9.554616  3.249719
      ESP Fit Center  521 is at   5.251637 10.006429  3.249719
      ESP Fit Center  522 is at   2.622866  8.740479  3.249719
      ESP Fit Center  523 is at   5.251637 10.006429  2.181619
      ESP Fit Center  524 is at   6.771475  7.771128  4.204296
      ESP Fit Center  525 is at   7.474244  7.771128  3.501527
      ESP Fit Center  526 is at   7.156683  8.748479  3.501527
      ESP Fit Center  527 is at   6.325299  9.352515  3.501527
      ESP Fit Center  528 is at   7.156683  6.793777  3.501527
      ESP Fit Center  529 is at   7.731475  7.771128  2.541527
      ESP Fit Center  530 is at   7.474244  8.731128  2.541527
      ESP Fit Center  531 is at   6.771475  9.433897  2.541527
      ESP Fit Center  532 is at   7.474244  6.811128  2.541527
      ESP Fit Center  533 is at   7.474244  7.771128  1.581527
      ESP Fit Center  534 is at   7.156683  8.748479  1.581527
      ESP Fit Center  535 is at   6.325299  9.352515  1.581527
      ESP Fit Center  536 is at   6.291475  8.602512  0.878758
      ESP Fit Center  537 is at   3.719220  9.902308  2.903212
      ESP Fit Center  538 is at   2.887836  9.298272  2.903212
      ESP Fit Center  539 is at   5.193044  9.983690  1.943212
      ESP Fit Center  540 is at   4.233044 10.240921  1.943212
      ESP Fit Center  541 is at   3.273044  9.983690  1.943212
      ESP Fit Center  542 is at   2.570275  9.280921  1.943212
      ESP Fit Center  543 is at   2.313044  8.320921  1.943212
      ESP Fit Center  544 is at   5.578252  9.298272  0.983212
      ESP Fit Center  545 is at   4.746868  9.902308  0.983212
      ESP Fit Center  546 is at   3.719220  9.902308  0.983212
      ESP Fit Center  547 is at   2.887836  9.298272  0.983212
      ESP Fit Center  548 is at   2.570275  8.320921  0.983212
      ESP Fit Center  549 is at   2.887836  7.343570  0.983212
      ESP Fit Center  550 is at   5.193044  8.320921  0.280443
      ESP Fit Center  551 is at   4.713044  9.152305  0.280443
      ESP Fit Center  552 is at   3.753044  9.152305  0.280443
      ESP Fit Center  553 is at   3.273044  8.320921  0.280443
      ESP Fit Center  554 is at   3.753044  7.489537  0.280443
      ESP Fit Center  555 is at   4.233044  8.320921  0.023212
      ESP Fit Center  556 is at   4.532296  8.187546  5.609708
      ESP Fit Center  557 is at   5.492296  8.187546  5.352477
      ESP Fit Center  558 is at   5.012296  9.018930  5.352477
      ESP Fit Center  559 is at   4.052296  9.018930  5.352477
      ESP Fit Center  560 is at   3.572296  8.187546  5.352477
      ESP Fit Center  561 is at   4.052296  7.356162  5.352477
      ESP Fit Center  562 is at   5.012296  7.356162  5.352477
      ESP Fit Center  563 is at   6.195065  8.187546  4.649708
      ESP Fit Center  564 is at   5.877504  9.164897  4.649708
      ESP Fit Center  565 is at   5.046120  9.768933  4.649708
      ESP Fit Center  566 is at   4.018472  9.768933  4.649708
      ESP Fit Center  567 is at   3.187088  9.164897  4.649708
      ESP Fit Center  568 is at   2.869527  8.187546  4.649708
      ESP Fit Center  569 is at   5.492296  9.850315  3.689708
      ESP Fit Center  570 is at   4.532296 10.107546  3.689708
      ESP Fit Center  571 is at   3.572296  9.850315  3.689708
      ESP Fit Center  572 is at   2.869527  9.147546  3.689708
      ESP Fit Center  573 is at   3.166309  6.289701  4.862270
      ESP Fit Center  574 is at   3.686970  4.008538  3.233995
      ESP Fit Center  575 is at   2.407242  6.818343  1.203569
      ESP Fit Center  576 is at   4.716323  5.686786  5.390214
      ESP Fit Center  577 is at   5.676323  5.686786  5.132983
      ESP Fit Center  578 is at   5.196323  6.518170  5.132983
      ESP Fit Center  579 is at   4.236323  6.518170  5.132983
      ESP Fit Center  580 is at   3.756323  5.686786  5.132983
      ESP Fit Center  581 is at   4.236323  4.855402  5.132983
      ESP Fit Center  582 is at   5.196323  4.855402  5.132983
      ESP Fit Center  583 is at   6.379092  5.686786  4.430214
      ESP Fit Center  584 is at   6.061531  6.664137  4.430214
      ESP Fit Center  585 is at   3.371115  4.709435  4.430214
      ESP Fit Center  586 is at   4.202499  4.105399  4.430214
      ESP Fit Center  587 is at   5.230147  4.105399  4.430214
      ESP Fit Center  588 is at   6.061531  4.709435  4.430214
      ESP Fit Center  589 is at   6.636323  5.686786  3.470214
      ESP Fit Center  590 is at   3.756323  4.024017  3.470214
      ESP Fit Center  591 is at   4.716323  3.766786  3.470214
      ESP Fit Center  592 is at   2.656502  7.112182  4.590405
      ESP Fit Center  593 is at   2.176502  6.280798  4.590405
      ESP Fit Center  594 is at   2.656502  5.449414  4.590405
      ESP Fit Center  595 is at   2.622678  7.862185  3.887636
      ESP Fit Center  596 is at   1.791294  7.258149  3.887636
      ESP Fit Center  597 is at   1.473733  6.280798  3.887636
      ESP Fit Center  598 is at   1.791294  5.303447  3.887636
      ESP Fit Center  599 is at   2.622678  4.699411  3.887636
      ESP Fit Center  600 is at   2.176502  7.943567  2.927636
      ESP Fit Center  601 is at   1.473733  7.240798  2.927636
      ESP Fit Center  602 is at   1.216502  6.280798  2.927636
      ESP Fit Center  603 is at   1.473733  5.320798  2.927636
      ESP Fit Center  604 is at   2.176502  4.618029  2.927636
      ESP Fit Center  605 is at   1.791294  7.258149  1.967636
      ESP Fit Center  606 is at   1.473733  6.280798  1.967636
      ESP Fit Center  607 is at   1.791294  5.303447  1.967636
      ESP Fit Center  608 is at   2.176502  6.280798  1.264867
      ESP Fit Center  609 is at   2.689303  7.101615  0.934247
      ESP Fit Center  610 is at   2.203550  6.176089  0.934247
      ESP Fit Center  611 is at   2.203550  5.130835  0.934247
      ESP Fit Center  612 is at   4.865112  7.319050  0.036077
      ESP Fit Center  613 is at   3.782748  7.319050  0.036077
      ESP Fit Center  614 is at   2.907096  6.682852  0.036077
      ESP Fit Center  615 is at   2.572627  5.653462  0.036077
      ESP Fit Center  616 is at   3.837980  6.495152 -0.585476
      ESP Fit Center  617 is at   7.977845  5.247206  1.624833
      ESP Fit Center  618 is at   7.977845  5.247206  0.556733
      ESP Fit Center  619 is at   7.044328  4.654271  3.568949
      ESP Fit Center  620 is at   5.604328  3.822887  3.568949
      ESP Fit Center  621 is at   6.564328  3.822887  3.568949
      ESP Fit Center  622 is at   7.747097  4.654271  2.866180
      ESP Fit Center  623 is at   7.429536  5.631622  2.866180
      ESP Fit Center  624 is at   4.739120  3.676920  2.866180
      ESP Fit Center  625 is at   5.570504  3.072884  2.866180
      ESP Fit Center  626 is at   6.598152  3.072884  2.866180
      ESP Fit Center  627 is at   7.429536  3.676920  2.866180
      ESP Fit Center  628 is at   8.004328  4.654271  1.906180
      ESP Fit Center  629 is at   7.044328  2.991502  1.906180
      ESP Fit Center  630 is at   7.747097  3.694271  1.906180
      ESP Fit Center  631 is at   7.954021  6.117777  1.871278
      ESP Fit Center  632 is at   7.636460  7.095128  1.871278
      ESP Fit Center  633 is at   8.211252  6.117777  0.911278
      ESP Fit Center  634 is at   7.954021  7.077777  0.911278
      ESP Fit Center  635 is at   7.251252  7.780546  0.911278
      ESP Fit Center  636 is at   7.954021  6.117777 -0.048722
      ESP Fit Center  637 is at   7.636460  7.095128 -0.048722
      ESP Fit Center  638 is at   6.805076  7.699164 -0.048722
      ESP Fit Center  639 is at   5.777428  7.699164 -0.048722
      ESP Fit Center  640 is at   7.251252  6.117777 -0.751491
      ESP Fit Center  641 is at   6.771252  6.949161 -0.751491
      ESP Fit Center  642 is at   5.811252  6.949161 -0.751491
      ESP Fit Center  643 is at   6.376778  6.111271 -1.673851
      ESP Fit Center  644 is at   5.076635  3.502632 -2.339800
      ESP Fit Center  645 is at   6.117955  3.502632 -2.339800
      ESP Fit Center  646 is at   5.024025  6.859326 -0.951037
      ESP Fit Center  647 is at   4.064025  6.602095 -0.951037
      ESP Fit Center  648 is at   3.361256  5.899326 -0.951037
      ESP Fit Center  649 is at   6.369233  5.916677 -1.911037
      ESP Fit Center  650 is at   5.537849  6.520713 -1.911037
      ESP Fit Center  651 is at   4.510201  6.520713 -1.911037
      ESP Fit Center  652 is at   3.678817  5.916677 -1.911037
      ESP Fit Center  653 is at   5.984025  4.939326 -2.613806
      ESP Fit Center  654 is at   5.504025  5.770710 -2.613806
      ESP Fit Center  655 is at   4.544025  5.770710 -2.613806
      ESP Fit Center  656 is at   4.064025  4.939326 -2.613806
      ESP Fit Center  657 is at   4.544025  4.107942 -2.613806
      ESP Fit Center  658 is at   5.504025  4.107942 -2.613806
      ESP Fit Center  659 is at   5.024025  4.939326 -2.871037
      ESP Fit Center  660 is at   8.288001  4.280829  0.421015
      ESP Fit Center  661 is at   7.970440  5.258180  0.421015
      ESP Fit Center  662 is at   7.970440  3.303478  0.421015
      ESP Fit Center  663 is at   8.545232  4.280829 -0.538985
      ESP Fit Center  664 is at   8.288001  5.240829 -0.538985
      ESP Fit Center  665 is at   7.585232  5.943598 -0.538985
      ESP Fit Center  666 is at   7.585232  2.618060 -0.538985
      ESP Fit Center  667 is at   8.288001  3.320829 -0.538985
      ESP Fit Center  668 is at   8.288001  4.280829 -1.498985
      ESP Fit Center  669 is at   7.970440  5.258180 -1.498985
      ESP Fit Center  670 is at   7.139056  5.862216 -1.498985
      ESP Fit Center  671 is at   7.139056  2.699442 -1.498985
      ESP Fit Center  672 is at   7.970440  3.303478 -1.498985
      ESP Fit Center  673 is at   7.585232  4.280829 -2.201754
      ESP Fit Center  674 is at   7.105232  5.112213 -2.201754
      ESP Fit Center  675 is at   7.105232  3.449445 -2.201754
      ESP Fit Center  676 is at   6.625232  4.280829 -2.458985
      ESP Fit Center  677 is at   5.579235  2.252862  2.025998
      ESP Fit Center  678 is at   5.634467  1.428964  1.404445
      ESP Fit Center  679 is at   6.510119  2.065162  1.404445
      ESP Fit Center  680 is at   6.333847  1.297288  0.506275
      ESP Fit Center  681 is at   7.026978  2.079672  0.506275
      ESP Fit Center  682 is at   6.333847  1.297288 -0.490619
      ESP Fit Center  683 is at   7.026978  2.079672 -0.490619
      ESP Fit Center  684 is at   5.634467  1.428964 -1.388789
      ESP Fit Center  685 is at   6.510119  2.065162 -1.388789
      ESP Fit Center  686 is at   5.579235  2.252862 -2.010342
      ESP Fit Center  687 is at   5.093285  3.094552 -2.232172
      ESP Fit Center  688 is at   2.286669  5.121115 -0.884787
      ESP Fit Center  689 is at   1.583900  4.418346 -0.884787
      ESP Fit Center  690 is at   1.326669  3.458346 -0.884787
      ESP Fit Center  691 is at   2.732845  5.039733 -1.844787
      ESP Fit Center  692 is at   1.901461  4.435697 -1.844787
      ESP Fit Center  693 is at   1.583900  3.458346 -1.844787
      ESP Fit Center  694 is at   4.206669  3.458346 -2.547556
      ESP Fit Center  695 is at   3.726669  4.289730 -2.547556
      ESP Fit Center  696 is at   2.766669  4.289730 -2.547556
      ESP Fit Center  697 is at   2.286669  3.458346 -2.547556
      ESP Fit Center  698 is at   2.766669  2.626962 -2.547556
      ESP Fit Center  699 is at   3.726669  2.626962 -2.547556
      ESP Fit Center  700 is at   3.246669  3.458346 -2.804787
      ESP Fit Center  701 is at   3.231783  3.453114  2.809322
      ESP Fit Center  702 is at   4.191783  3.453114  2.552091
      ESP Fit Center  703 is at   2.751783  4.284498  2.552091
      ESP Fit Center  704 is at   2.271783  3.453114  2.552091
      ESP Fit Center  705 is at   2.751783  2.621730  2.552091
      ESP Fit Center  706 is at   3.711783  2.621730  2.552091
      ESP Fit Center  707 is at   1.886575  4.430465  1.849322
      ESP Fit Center  708 is at   1.569014  3.453114  1.849322
      ESP Fit Center  709 is at   1.569014  4.413114  0.889322
      ESP Fit Center  710 is at   1.311783  3.453114  0.889322
      ESP Fit Center  711 is at   3.809311  1.004591  2.795564
      ESP Fit Center  712 is at   4.769311  1.004591  2.538333
      ESP Fit Center  713 is at   4.289311  1.835975  2.538333
      ESP Fit Center  714 is at   3.329311  1.835975  2.538333
      ESP Fit Center  715 is at   2.849311  1.004591  2.538333
      ESP Fit Center  716 is at   3.329311  0.173207  2.538333
      ESP Fit Center  717 is at   4.289311  0.173207  2.538333
      ESP Fit Center  718 is at   5.472080  1.004591  1.835564
      ESP Fit Center  719 is at   4.323135 -0.576796  1.835564
      ESP Fit Center  720 is at   5.154519  0.027240  1.835564
      ESP Fit Center  721 is at   5.729311  1.004591  0.875564
      ESP Fit Center  722 is at   3.809311 -0.915409  0.875564
      ESP Fit Center  723 is at   4.769311 -0.658178  0.875564
      ESP Fit Center  724 is at   5.472080  0.044591  0.875564
      ESP Fit Center  725 is at   5.720592  1.021608 -0.902095
      ESP Fit Center  726 is at   3.800592 -0.898392 -0.902095
      ESP Fit Center  727 is at   4.760592 -0.641161 -0.902095
      ESP Fit Center  728 is at   5.463361  0.061608 -0.902095
      ESP Fit Center  729 is at   5.463361  1.021608 -1.862095
      ESP Fit Center  730 is at   4.314416 -0.559779 -1.862095
      ESP Fit Center  731 is at   5.145800  0.044257 -1.862095
      ESP Fit Center  732 is at   4.760592  1.021608 -2.564864
      ESP Fit Center  733 is at   4.280592  1.852992 -2.564864
      ESP Fit Center  734 is at   3.320592  1.852992 -2.564864
      ESP Fit Center  735 is at   2.840592  1.021608 -2.564864
      ESP Fit Center  736 is at   3.320592  0.190224 -2.564864
      ESP Fit Center  737 is at   4.280592  0.190224 -2.564864
      ESP Fit Center  738 is at   3.800592  1.021608 -2.822095
      ESP Fit Center  739 is at   1.951013  1.349324  2.240000
      ESP Fit Center  740 is at   1.465063  2.191014  2.018170
      ESP Fit Center  741 is at   0.979113  1.349324  2.018170
      ESP Fit Center  742 is at   1.409831  3.014912  1.396617
      ESP Fit Center  743 is at   0.534179  2.378714  1.396617
      ESP Fit Center  744 is at   1.176613  3.391248  0.498447
      ESP Fit Center  745 is at   0.316386  2.797477  0.498447
      ESP Fit Center  746 is at   1.176613  3.391248 -0.498447
      ESP Fit Center  747 is at   0.316386  2.797477 -0.498447
      ESP Fit Center  748 is at   1.409831  3.014912 -1.396617
      ESP Fit Center  749 is at   0.534179  2.378714 -1.396617
      ESP Fit Center  750 is at   1.465063  2.191014 -2.018170
      ESP Fit Center  751 is at   0.979113  1.349324 -2.018170
      ESP Fit Center  752 is at   1.951013  1.349324 -2.240000
      ESP Fit Center  753 is at   1.004476  0.901810  2.162325
      ESP Fit Center  754 is at   1.914720 -0.526832  2.807316
      ESP Fit Center  755 is at   2.874720 -0.526832  2.550085
      ESP Fit Center  756 is at   2.394720  0.304552  2.550085
      ESP Fit Center  757 is at   1.434720  0.304552  2.550085
      ESP Fit Center  758 is at   2.394720 -1.358216  2.550085
      ESP Fit Center  759 is at   2.428544 -2.108219  1.847316
      ESP Fit Center  760 is at   3.259928 -1.504183  1.847316
      ESP Fit Center  761 is at   1.914720 -2.446832  0.887316
      ESP Fit Center  762 is at   2.874720 -2.189601  0.887316
      ESP Fit Center  763 is at   3.577489 -1.486832  0.887316
      ESP Fit Center  764 is at   1.902597 -2.452796 -0.887393
      ESP Fit Center  765 is at   2.862597 -2.195565 -0.887393
      ESP Fit Center  766 is at   3.565366 -1.492796 -0.887393
      ESP Fit Center  767 is at   1.388773 -2.114183 -1.847393
      ESP Fit Center  768 is at   2.416421 -2.114183 -1.847393
      ESP Fit Center  769 is at   3.247805 -1.510147 -1.847393
      ESP Fit Center  770 is at   2.862597 -0.532796 -2.550162
      ESP Fit Center  771 is at   2.382597  0.298588 -2.550162
      ESP Fit Center  772 is at   1.422597  0.298588 -2.550162
      ESP Fit Center  773 is at   0.942597 -0.532796 -2.550162
      ESP Fit Center  774 is at   1.422597 -1.364180 -2.550162
      ESP Fit Center  775 is at   2.382597 -1.364180 -2.550162
      ESP Fit Center  776 is at   1.902597 -0.532796 -2.807393
      ESP Fit Center  777 is at  -0.370701  2.394213 -0.913624
      ESP Fit Center  778 is at  -1.330701  2.136982 -0.913624
      ESP Fit Center  779 is at  -2.033470  1.434213 -0.913624
      ESP Fit Center  780 is at  -2.290701  0.474213 -0.913624
      ESP Fit Center  781 is at   0.143123  2.055600 -1.873624
      ESP Fit Center  782 is at  -0.884525  2.055600 -1.873624
      ESP Fit Center  783 is at  -1.715909  1.451564 -1.873624
      ESP Fit Center  784 is at  -2.033470  0.474213 -1.873624
      ESP Fit Center  785 is at   0.589299  0.474213 -2.576393
      ESP Fit Center  786 is at   0.109299  1.305597 -2.576393
      ESP Fit Center  787 is at  -0.850701  1.305597 -2.576393
      ESP Fit Center  788 is at  -1.330701  0.474213 -2.576393
      ESP Fit Center  789 is at  -0.850701 -0.357171 -2.576393
      ESP Fit Center  790 is at   0.109299 -0.357171 -2.576393
      ESP Fit Center  791 is at  -0.370701  0.474213 -2.833624
      ESP Fit Center  792 is at   0.582008  0.585828  2.506444
      ESP Fit Center  793 is at   0.102008  1.417212  2.506444
      ESP Fit Center  794 is at  -0.857992  1.417212  2.506444
      ESP Fit Center  795 is at   0.135832  2.167215  1.803675
      ESP Fit Center  796 is at  -0.891816  2.167215  1.803675
      ESP Fit Center  797 is at  -1.723200  1.563179  1.803675
      ESP Fit Center  798 is at  -0.377992  2.505828  0.843675
      ESP Fit Center  799 is at  -1.337992  2.248597  0.843675
      ESP Fit Center  800 is at  -2.040761  1.545828  0.843675
      ESP Fit Center  801 is at  -2.297992  0.585828  0.843675
      ESP Fit Center  802 is at   1.641725 -2.739499  1.095625
      ESP Fit Center  803 is at  -2.408869  0.547121  0.024111
      ESP Fit Center  804 is at  -3.102100 -0.213317  0.024111
      ESP Fit Center  805 is at  -3.473817 -1.172828  0.024111
      ESP Fit Center  806 is at  -3.473817 -2.201826  0.024111
      ESP Fit Center  807 is at  -3.102100 -3.161337  0.024111
      ESP Fit Center  808 is at  -2.408869 -3.921775  0.024111
      ESP Fit Center  809 is at  -1.487748 -4.380439  0.024111
      ESP Fit Center  810 is at  -0.463141 -4.475383  0.024111
      ESP Fit Center  811 is at   0.526575 -4.193784  0.024111
      ESP Fit Center  812 is at   1.347733 -3.573675  0.024111
      ESP Fit Center  813 is at   1.889430 -2.698804  0.024111
      ESP Fit Center  814 is at  -2.814308 -0.166807 -1.047403
      ESP Fit Center  815 is at  -3.251826 -1.149488 -1.047403
      ESP Fit Center  816 is at  -3.251826 -2.225166 -1.047403
      ESP Fit Center  817 is at  -2.814308 -3.207847 -1.047403
      ESP Fit Center  818 is at  -2.014923 -3.927616 -1.047403
      ESP Fit Center  819 is at  -0.991893 -4.260019 -1.047403
      ESP Fit Center  820 is at   0.077893 -4.147580 -1.047403
      ESP Fit Center  821 is at   1.009457 -3.609741 -1.047403
      ESP Fit Center  822 is at   1.641725 -2.739499 -1.047403
      ESP Fit Center  823 is at  -2.436135 -0.697378 -1.955788
      ESP Fit Center  824 is at  -2.701391 -1.687327 -1.955788
      ESP Fit Center  825 is at  -2.436135 -2.677276 -1.955788
      ESP Fit Center  826 is at  -1.711441 -3.401970 -1.955788
      ESP Fit Center  827 is at  -0.721492 -3.667226 -1.955788
      ESP Fit Center  828 is at   0.268457 -3.401970 -1.955788
      ESP Fit Center  829 is at   0.993151 -2.677276 -1.955788
      ESP Fit Center  830 is at   0.350022 -1.687327 -2.562752
      ESP Fit Center  831 is at  -0.185735 -0.759369 -2.562752
      ESP Fit Center  832 is at  -1.257249 -0.759369 -2.562752
      ESP Fit Center  833 is at  -1.793006 -1.687327 -2.562752
      ESP Fit Center  834 is at  -1.257249 -2.615285 -2.562752
      ESP Fit Center  835 is at  -0.185735 -2.615285 -2.562752
      ESP Fit Center  836 is at  -0.721492 -1.687327 -2.775889
      ESP Fit Center  837 is at   1.482356 -3.120199  1.282873
      ESP Fit Center  838 is at  -2.365460 -4.155772  1.850797
      ESP Fit Center  839 is at   0.257309 -4.858541  1.850797
      ESP Fit Center  840 is at   0.960078 -4.155772  1.850797
      ESP Fit Center  841 is at  -2.047899 -4.173123  0.890797
      ESP Fit Center  842 is at  -1.216515 -4.777159  0.890797
      ESP Fit Center  843 is at  -0.188867 -4.777159  0.890797
      ESP Fit Center  844 is at   0.642517 -4.173123  0.890797
      ESP Fit Center  845 is at   1.319691 -1.837512  3.872208
      ESP Fit Center  846 is at   2.022460 -1.837512  3.169439
      ESP Fit Center  847 is at   1.704899 -0.860161  3.169439
      ESP Fit Center  848 is at   0.873515 -0.256125  3.169439
      ESP Fit Center  849 is at   1.704899 -2.814863  3.169439
      ESP Fit Center  850 is at   1.319691 -3.500281  2.209439
      ESP Fit Center  851 is at   2.022460 -2.797512  2.209439
      ESP Fit Center  852 is at   1.704899 -2.814863  1.249439
      ESP Fit Center  853 is at  -3.844913 -0.441549  3.178036
      ESP Fit Center  854 is at  -2.965580 -0.038677  1.147610
      ESP Fit Center  855 is at  -4.067045 -0.785256  3.237197
      ESP Fit Center  856 is at  -4.384606 -1.762607  3.237197
      ESP Fit Center  857 is at  -4.384606 -0.802607  2.277197
      ESP Fit Center  858 is at  -4.641837 -1.762607  2.277197
      ESP Fit Center  859 is at  -4.384606 -2.722607  2.277197
      ESP Fit Center  860 is at  -4.067045 -0.785256  1.317197
      ESP Fit Center  861 is at  -4.384606 -1.762607  1.317197
      ESP Fit Center  862 is at  -4.067045 -2.739958  1.317197
      ESP Fit Center  863 is at  -3.235661 -3.343994  1.317197
      ESP Fit Center  864 is at  -3.681837 -1.762607  0.614428
      ESP Fit Center  865 is at  -0.342442  0.611076  3.521507
      ESP Fit Center  866 is at  -1.173826  1.215112  3.521507
      ESP Fit Center  867 is at  -2.201474  1.215112  3.521507
      ESP Fit Center  868 is at  -3.032858  0.611076  3.521507
      ESP Fit Center  869 is at  -1.687650  1.553725  2.561507
      ESP Fit Center  870 is at  -2.647650  1.296494  2.561507
      ESP Fit Center  871 is at  -3.350419  0.593725  2.561507
      ESP Fit Center  872 is at  -2.201474  1.215112  1.601507
      ESP Fit Center  873 is at  -3.032858  0.611076  1.601507
      ESP Fit Center  874 is at  -1.638154 -1.773997  7.254905
      ESP Fit Center  875 is at  -0.566640 -1.773997  7.041768
      ESP Fit Center  876 is at  -1.102397 -0.846039  7.041768
      ESP Fit Center  877 is at  -2.173911 -0.846039  7.041768
      ESP Fit Center  878 is at  -2.709668 -1.773997  7.041768
      ESP Fit Center  879 is at  -1.102397 -2.701955  7.041768
      ESP Fit Center  880 is at   0.341745 -1.773997  6.434804
      ESP Fit Center  881 is at   0.076489 -0.784048  6.434804
      ESP Fit Center  882 is at  -0.648205 -0.059354  6.434804
      ESP Fit Center  883 is at  -1.638154  0.205902  6.434804
      ESP Fit Center  884 is at  -2.628103 -0.059354  6.434804
      ESP Fit Center  885 is at  -3.352797 -0.784048  6.434804
      ESP Fit Center  886 is at  -3.618053 -1.773997  6.434804
      ESP Fit Center  887 is at   0.948709 -1.773997  5.526419
      ESP Fit Center  888 is at   0.725063 -0.721825  5.526419
      ESP Fit Center  889 is at   0.092795  0.148417  5.526419
      ESP Fit Center  890 is at  -0.838769  0.686256  5.526419
      ESP Fit Center  891 is at  -1.908555  0.798695  5.526419
      ESP Fit Center  892 is at  -2.931585  0.466292  5.526419
      ESP Fit Center  893 is at  -3.730970 -0.253477  5.526419
      ESP Fit Center  894 is at  -4.168488 -1.236158  5.526419
      ESP Fit Center  895 is at   1.161846 -1.773997  4.454905
      ESP Fit Center  896 is at   0.972768 -0.762520  4.454905
      ESP Fit Center  897 is at   0.431071  0.112351  4.454905
      ESP Fit Center  898 is at  -0.390087  0.732460  4.454905
      ESP Fit Center  899 is at  -1.379803  1.014059  4.454905
      ESP Fit Center  900 is at  -2.404410  0.919115  4.454905
      ESP Fit Center  901 is at  -3.325531  0.460451  4.454905
      ESP Fit Center  902 is at  -4.018762 -0.299987  4.454905
      ESP Fit Center  903 is at  -4.390479 -1.259498  4.454905
      ESP Fit Center  904 is at  -4.390479 -2.288496  4.454905
      ESP Fit Center  905 is at   0.972768 -2.785474  4.454905
      ESP Fit Center  906 is at   0.092795  0.148417  3.383391
      ESP Fit Center  907 is at  -3.730970 -0.253477  3.383391
      ESP Fit Center  908 is at  -4.580825 -2.748591  3.761567
      ESP Fit Center  909 is at  -4.838056 -3.708591  3.761567
      ESP Fit Center  910 is at  -4.580825 -4.668591  3.761567
      ESP Fit Center  911 is at  -4.580825 -3.708591  2.801567
      ESP Fit Center  912 is at  -3.878056 -3.708591  2.098798
      ESP Fit Center  913 is at  -2.918056 -3.708591  1.841567
      ESP Fit Center  914 is at  -2.814975 -3.565533  7.433572
      ESP Fit Center  915 is at  -1.854975 -3.565533  7.176341
      ESP Fit Center  916 is at  -2.334975 -2.734149  7.176341
      ESP Fit Center  917 is at  -3.294975 -2.734149  7.176341
      ESP Fit Center  918 is at  -3.774975 -3.565533  7.176341
      ESP Fit Center  919 is at  -3.294975 -4.396917  7.176341
      ESP Fit Center  920 is at  -2.334975 -4.396917  7.176341
      ESP Fit Center  921 is at  -4.160183 -2.588182  6.473572
      ESP Fit Center  922 is at  -4.477744 -3.565533  6.473572
      ESP Fit Center  923 is at  -4.160183 -4.542884  6.473572
      ESP Fit Center  924 is at  -4.477744 -2.605533  5.513572
      ESP Fit Center  925 is at  -4.734975 -3.565533  5.513572
      ESP Fit Center  926 is at  -4.477744 -4.525533  5.513572
      ESP Fit Center  927 is at   1.004295 -5.568773  5.176989
      ESP Fit Center  928 is at   1.428662 -4.528501  3.735660
      ESP Fit Center  929 is at   1.171431 -3.568501  3.735660
      ESP Fit Center  930 is at   1.171431 -5.488501  3.735660
      ESP Fit Center  931 is at   1.171431 -4.528501  2.775660
      ESP Fit Center  932 is at   0.853870 -5.505852  2.775660
      ESP Fit Center  933 is at  -0.011338 -5.359885  2.072891
      ESP Fit Center  934 is at  -0.438146 -4.338563  7.404229
      ESP Fit Center  935 is at   0.521854 -4.338563  7.146998
      ESP Fit Center  936 is at   0.041854 -3.507179  7.146998
      ESP Fit Center  937 is at  -0.918146 -3.507179  7.146998
      ESP Fit Center  938 is at  -1.398146 -4.338563  7.146998
      ESP Fit Center  939 is at   0.041854 -5.169947  7.146998
      ESP Fit Center  940 is at   1.224623 -4.338563  6.444229
      ESP Fit Center  941 is at   0.907062 -3.361212  6.444229
      ESP Fit Center  942 is at   0.075678 -2.757176  6.444229
      ESP Fit Center  943 is at   0.907062 -5.315914  6.444229
      ESP Fit Center  944 is at   1.481854 -4.338563  5.484229
      ESP Fit Center  945 is at   1.224623 -3.378563  5.484229
      ESP Fit Center  946 is at   1.224623 -5.298563  5.484229
      ESP Fit Center  947 is at  -1.694729 -6.272149  7.720821
      ESP Fit Center  948 is at  -0.623215 -6.272149  7.507684
      ESP Fit Center  949 is at  -1.158972 -5.344191  7.507684
      ESP Fit Center  950 is at  -2.230486 -5.344191  7.507684
      ESP Fit Center  951 is at  -2.766243 -6.272149  7.507684
      ESP Fit Center  952 is at  -2.230486 -7.200107  7.507684
      ESP Fit Center  953 is at  -1.158972 -7.200107  7.507684
      ESP Fit Center  954 is at   0.285170 -6.272149  6.900720
      ESP Fit Center  955 is at  -3.409372 -5.282200  6.900720
      ESP Fit Center  956 is at  -3.674628 -6.272149  6.900720
      ESP Fit Center  957 is at  -3.409372 -7.262098  6.900720
      ESP Fit Center  958 is at  -2.684678 -7.986792  6.900720
      ESP Fit Center  959 is at  -1.694729 -8.252048  6.900720
      ESP Fit Center  960 is at  -0.704780 -7.986792  6.900720
      ESP Fit Center  961 is at   0.019914 -7.262098  6.900720
      ESP Fit Center  962 is at   0.892134 -6.272149  5.992335
      ESP Fit Center  963 is at  -4.225063 -5.734310  5.992335
      ESP Fit Center  964 is at  -4.225063 -6.809988  5.992335
      ESP Fit Center  965 is at  -3.787545 -7.792669  5.992335
      ESP Fit Center  966 is at  -2.988160 -8.512438  5.992335
      ESP Fit Center  967 is at  -1.965130 -8.844841  5.992335
      ESP Fit Center  968 is at  -0.895344 -8.732402  5.992335
      ESP Fit Center  969 is at   0.036220 -8.194563  5.992335
      ESP Fit Center  970 is at   0.668488 -7.324321  5.992335
      ESP Fit Center  971 is at   1.105271 -6.272149  4.920821
      ESP Fit Center  972 is at  -4.447054 -5.757650  4.920821
      ESP Fit Center  973 is at  -4.447054 -6.786648  4.920821
      ESP Fit Center  974 is at  -0.446662 -8.778606  4.920821
      ESP Fit Center  975 is at   0.374496 -8.158497  4.920821
      ESP Fit Center  976 is at   0.916193 -7.283626  4.920821
      ESP Fit Center  977 is at   0.892134 -6.272149  3.849307
      ESP Fit Center  978 is at   0.036220 -8.194563  3.849307
      ESP Fit Center  979 is at   0.668488 -7.324321  3.849307
      ESP Fit Center  980 is at   0.285170 -6.272149  2.940922
      ESP Fit Center  981 is at  -2.890710 -5.785644  1.096881
      ESP Fit Center  982 is at  -3.411371 -6.687454  1.096881
      ESP Fit Center  983 is at  -4.554806 -5.047035  3.985084
      ESP Fit Center  984 is at  -4.872367 -6.024386  3.985084
      ESP Fit Center  985 is at  -4.872367 -5.064386  3.025084
      ESP Fit Center  986 is at  -5.129598 -6.024386  3.025084
      ESP Fit Center  987 is at  -3.723422 -4.442999  2.065084
      ESP Fit Center  988 is at  -4.554806 -5.047035  2.065084
      ESP Fit Center  989 is at  -4.872367 -6.024386  2.065084
      ESP Fit Center  990 is at  -2.729598 -5.193002  1.362315
      ESP Fit Center  991 is at  -3.689598 -5.193002  1.362315
      ESP Fit Center  992 is at  -4.169598 -6.024386  1.362315
      ESP Fit Center  993 is at  -3.209598 -6.024386  1.105084
      ESP Fit Center  994 is at   0.334837 -6.520779  2.512257
      ESP Fit Center  995 is at   0.077606 -7.480779  2.512257
      ESP Fit Center  996 is at   0.077606 -6.520779  1.552257
      ESP Fit Center  997 is at  -0.239955 -5.543428  1.552257
      ESP Fit Center  998 is at  -2.098987 -4.939392  1.552257
      ESP Fit Center  999 is at  -1.071339 -8.102166  1.552257
      ESP Fit Center 1000 is at  -0.239955 -7.498130  1.552257
      ESP Fit Center 1001 is at  -0.625163 -6.520779  0.849488
      ESP Fit Center 1002 is at  -1.105163 -5.689395  0.849488
      ESP Fit Center 1003 is at  -2.065163 -5.689395  0.849488
      ESP Fit Center 1004 is at  -2.545163 -6.520779  0.849488
      ESP Fit Center 1005 is at  -2.065163 -7.352163  0.849488
      ESP Fit Center 1006 is at  -1.105163 -7.352163  0.849488
      ESP Fit Center 1007 is at  -1.585163 -6.520779  0.592257
      ESP Fit Center 1008 is at  -2.308014 -9.047226  5.399484
      ESP Fit Center 1009 is at  -3.349334-10.426579  3.771209
      ESP Fit Center 1010 is at  -4.936785 -7.130203  2.703109
      ESP Fit Center 1011 is at  -5.168501 -8.145416  2.703109
      ESP Fit Center 1012 is at  -4.936785 -9.160629  2.703109
      ESP Fit Center 1013 is at  -4.287532 -9.974766  2.703109
      ESP Fit Center 1014 is at  -3.349334-10.426579  2.703109
      ESP Fit Center 1015 is at  -2.049191 -9.852245  1.740783
      ESP Fit Center 1016 is at  -2.477480 -9.656624  5.113829
      ESP Fit Center 1017 is at  -1.517480 -9.656624  5.113829
      ESP Fit Center 1018 is at  -0.334711 -8.825240  4.411060
      ESP Fit Center 1019 is at  -2.511304-10.406627  4.411060
      ESP Fit Center 1020 is at  -1.483656-10.406627  4.411060
      ESP Fit Center 1021 is at  -0.652272 -9.802591  4.411060
      ESP Fit Center 1022 is at  -0.077480 -8.825240  3.451060
      ESP Fit Center 1023 is at  -1.997480-10.745240  3.451060
      ESP Fit Center 1024 is at  -1.037480-10.488009  3.451060
      ESP Fit Center 1025 is at  -0.334711 -9.785240  3.451060
      ESP Fit Center 1026 is at  -0.334711 -8.825240  2.491060
      ESP Fit Center 1027 is at  -2.511304-10.406627  2.491060
      ESP Fit Center 1028 is at  -1.483656-10.406627  2.491060
      ESP Fit Center 1029 is at  -0.652272 -9.802591  2.491060
      ESP Fit Center 1030 is at  -1.037480 -8.825240  1.788291
      ESP Fit Center 1031 is at  -1.517480 -9.656624  1.788291
      ESP Fit Center 1032 is at  -3.614931 -8.325073  5.898004
      ESP Fit Center 1033 is at  -4.574931 -8.325073  5.640773
      ESP Fit Center 1034 is at  -4.094931 -9.156457  5.640773
      ESP Fit Center 1035 is at  -3.134931 -9.156457  5.640773
      ESP Fit Center 1036 is at  -4.960139 -7.347722  4.938004
      ESP Fit Center 1037 is at  -5.277700 -8.325073  4.938004
      ESP Fit Center 1038 is at  -4.960139 -9.302424  4.938004
      ESP Fit Center 1039 is at  -4.128755 -9.906460  4.938004
      ESP Fit Center 1040 is at  -3.101107 -9.906460  4.938004
      ESP Fit Center 1041 is at  -5.277700 -7.365073  3.978004
      ESP Fit Center 1042 is at  -5.534931 -8.325073  3.978004
      ESP Fit Center 1043 is at  -5.277700 -9.285073  3.978004
      ESP Fit Center 1044 is at  -4.574931 -9.987842  3.978004
      ESP Fit Center 1045 is at  -5.277700 -8.325073  3.018004
      ESP Fit Center 1046 is at  -4.960139 -9.302424  3.018004
      ESP Fit Center 1047 is at  -5.150429 -8.397906  2.249390
[...]
 1403 Fit      -0.005345
 1404 Fit      -0.006974
 1405 Fit      -0.010468
 1406 Fit      -0.010486
 1407 Fit      -0.005039
 1408 Fit       0.001794
 1409 Fit       0.000054
 1410 Fit      -0.009627
 1411 Fit      -0.012263
 1412 Fit      -0.012673
 1413 Fit      -0.013455
 1414 Fit      -0.014325
 1415 Fit      -0.012529
 1416 Fit      -0.005832
 1417 Fit      -0.011754
 1418 Fit      -0.013057
 1419 Fit      -0.011968
 1420 Fit      -0.011128
 1421 Fit      -0.012097
 1422 Fit      -0.014408
 1423 Fit      -0.015771
 1424 Fit      -0.013704
 1425 Fit      -0.007088
 1426 Fit      -0.010483
 1427 Fit      -0.010470
 1428 Fit      -0.008450
 1429 Fit      -0.006308
 1430 Fit      -0.005937
 1431 Fit      -0.008191
 1432 Fit      -0.011735
 1433 Fit      -0.013778
 1434 Fit      -0.012087
 1435 Fit      -0.006239
 1436 Fit      -0.006406
 1437 Fit      -0.001705
 1438 Fit      -0.000617
 1439 Fit       0.001889
 1440 Fit       0.003403
 1441 Fit       0.000982
 1442 Fit      -0.004182
 1443 Fit      -0.007565
 1444 Fit      -0.006474
 1445 Fit      -0.000938
 1446 Fit      -0.000940
 1447 Fit       0.000509
 1448 Fit       0.005223
 1449 Fit       0.007891
 1450 Fit       0.009615
 1451 Fit       0.013186
 1452 Fit       0.015003
 1453 Fit       0.016966
 1454 Fit       0.002066
 1455 Fit       0.004445
 1456 Fit       0.000973
 1457 Fit       0.001647
 1458 Fit      -0.002588
 1459 Fit      -0.002624
 1460 Fit       0.001527
 1461 Fit       0.000464
 1462 Fit      -0.008029
 1463 Fit       0.001835
 1464 Fit       0.001927
 1465 Fit       0.002229
 1466 Fit       0.000056
 1467 Fit      -0.002807
 1468 Fit       0.004667
 1469 Fit       0.004001
 1470 Fit       0.001724
 1471 Fit       0.009196
 1472 Fit       0.007927
 1473 Fit       0.003072
 1474 Fit       0.003093
 1475 Fit       0.002475
 1476 Fit       0.004046
 1477 Fit       0.000533
 1478 Fit       0.002478
 1479 Fit       0.000756
 1480 Fit      -0.000281
 1481 Fit       0.001758
 1482 Fit      -0.000922
 1483 Fit      -0.001282
 1484 Fit      -0.010864
 1485 Fit      -0.008311
 1486 Fit      -0.004096
 1487 Fit      -0.008016
 1488 Fit      -0.013920
 1489 Fit      -0.014542
 1490 Fit      -0.013043
 1491 Fit      -0.007437
 1492 Fit       0.003233
 1493 Fit      -0.010803
 1494 Fit      -0.015545
 1495 Fit      -0.015437
 1496 Fit      -0.014191
 1497 Fit      -0.014271
 1498 Fit      -0.014863
 1499 Fit      -0.013158
 1500 Fit      -0.008255
 1501 Fit      -0.010215
 1502 Fit      -0.013879
 1503 Fit      -0.012518
 1504 Fit      -0.010132
 1505 Fit      -0.009980
 1506 Fit      -0.011775
 1507 Fit      -0.014660
 1508 Fit      -0.016444
 1509 Fit      -0.014591
 1510 Fit      -0.009186
 1511 Fit      -0.005844
 1512 Fit      -0.007950
 1513 Fit      -0.008547
 1514 Fit      -0.013622
 1515 Fit      -0.016676
 1516 Fit      -0.015267
 1517 Fit      -0.007322
 1518 Fit      -0.013220
 1519 Fit      -0.012861
 1520 Fit      -0.000911
 1521 Fit      -0.004902
 1522 Fit      -0.006110
 1523 Fit       0.011242
 1524 Fit       0.011024
 1525 Fit       0.005506
 1526 Fit       0.004319
 1527 Fit       0.014073
 1528 Fit       0.009939
 1529 Fit       0.008271
 1530 Fit       0.014889
 1531 Fit       0.011469
 1532 Fit       0.010075
 1533 Fit       0.012658
 1534 Fit       0.011066
 1535 Fit       0.005642
 1536 Fit       0.002428
 1537 Fit       0.009232
 1538 Fit       0.014226
 1539 Fit       0.007239
 1540 Fit       0.007266
 1541 Fit       0.009680
 1542 Fit       0.011887
 1543 Fit       0.011565
 1544 Fit       0.010437
 1545 Fit       0.008898
 1546 Fit       0.009753
 1547 Fit       0.001090
 1548 Fit       0.006628
 1549 Fit       0.003205
 1550 Fit       0.002231
 1551 Fit       0.002220
 1552 Fit       0.008759
 1553 Fit       0.003525
 1554 Fit       0.003367
 1555 Fit       0.004953
 1556 Fit      -0.004386
 1557 Fit       0.000669
 1558 Fit       0.000503
 1559 Fit      -0.002144
 1560 Fit      -0.002391
 1561 Fit       0.002090
 1562 Fit       0.002737
 1563 Fit       0.002750
 1564 Fit       0.001256
 1565 Fit       0.003214
 1566 Fit       0.003233
 1567 Fit       0.003687
 1568 Fit       0.003568
 1569 Fit      -0.001364
 1570 Fit      -0.000594
 1571 Fit      -0.004269
 1572 Fit      -0.002754
 1573 Fit       0.001842
 1574 Fit       0.003092
 1575 Fit       0.002635
 1576 Fit       0.001016
 1577 Fit       0.004835
 1578 Fit       0.004451
 1579 Fit       0.004288
 1580 Fit       0.003658
 1581 Fit       0.002515
 1582 Fit       0.006487
 1583 Fit       0.005273
 1584 Fit       0.004576
 1585 Fit       0.003877
 1586 Fit       0.010308
 1587 Fit       0.008176
 1588 Fit       0.007149
 1589 Fit       0.006440
 1590 Fit       0.005656
 1591 Fit       0.005000
 1592 Fit       0.007934
 1593 Fit       0.009842
 1594 Fit       0.009648
 1595 Fit       0.008628
 1596 Fit       0.007742
 1597 Fit       0.007049
 1598 Fit       0.008606
 1599 Fit       0.006484
 1600 Fit       0.007809
 1601 Fit       0.004792
 1602 Fit       0.006497
 1603 Fit       0.003596
 1604 Fit       0.003273
 1605 Fit       0.003404
 1606 Fit       0.003601
 1607 Fit       0.003880
 1608 Fit       0.004980
 1609 Fit       0.003353
 1610 Fit       0.002969
 1611 Fit       0.002839
 1612 Fit       0.005177
 1613 Fit       0.007300
 1614 Fit       0.006105
 1615 Fit       0.008334
 1616 Fit       0.008407
 1617 Fit       0.007082
 1618 Fit       0.005488
 1619 Fit       0.009452
 1620 Fit       0.009508
 1621 Fit       0.007658
 1622 Fit       0.005720
 1623 Fit       0.007342
 1624 Fit       0.004829
 1625 Fit       0.003239
 1626 Fit       0.003351
 1627 Fit       0.003283
 1628 Fit       0.003303
 1629 Fit       0.003496
 1630 Fit       0.003318
 1631 Fit       0.002499
 1632 Fit       0.000746
 1633 Fit       0.003321
 1634 Fit       0.003330
 1635 Fit       0.002681
 1636 Fit       0.000511
 1637 Fit      -0.005261
 1638 Fit       0.001684
 1639 Fit       0.002319
 1640 Fit       0.001545
 1641 Fit      -0.002585
 1642 Fit      -0.001311
 1643 Fit       0.007349
 1644 Fit       0.006886
 1645 Fit       0.006745
 1646 Fit       0.006976
 1647 Fit       0.007390
 1648 Fit       0.007929
 1649 Fit       0.007688
 1650 Fit       0.006289
 1651 Fit       0.005819
 1652 Fit       0.005809
 1653 Fit       0.005986
 1654 Fit       0.006200
 1655 Fit       0.006641
 1656 Fit       0.007714
 1657 Fit       0.004603
 1658 Fit       0.004544
 1659 Fit       0.004673
 1660 Fit       0.004849
 1661 Fit       0.005265
 1662 Fit       0.006812
 1663 Fit       0.003684
 1664 Fit       0.000502
 1665 Fit      -0.003138
 1666 Fit       0.006613
 1667 Fit       0.007034
 1668 Fit       0.007975
 1669 Fit       0.006197
 1670 Fit       0.004971
 1671 Fit       0.005794
 1672 Fit       0.007587
 1673 Fit       0.002943
 1674 Fit       0.003240
 1675 Fit       0.004723
 1676 Fit       0.006469
 1677 Fit       0.008854
 1678 Fit       0.000222
 1679 Fit       0.002023
 1680 Fit       0.007774
 1681 Fit       0.005742
 1682 Fit       0.004727
 1683 Fit       0.006586
 1684 Fit       0.005266
 1685 Fit       0.003865
 1686 Fit       0.002440
 1687 Fit       0.005210
 1688 Fit       0.004273
 1689 Fit       0.002988
 1690 Fit       0.001225
 1691 Fit      -0.000749
 1692 Fit       0.003165
 1693 Fit       0.001858
 1694 Fit       0.000093
 1695 Fit      -0.002552
 1696 Fit      -0.003496
 1697 Fit      -0.007386
 1698 Fit      -0.010551
 1699 Fit      -0.009970
 1700 Fit      -0.012878
 1701 Fit      -0.005066
 1702 Fit      -0.009560
 1703 Fit      -0.012539
 1704 Fit       0.009724
 1705 Fit       0.008426
 1706 Fit       0.009722
 1707 Fit       0.007025
 1708 Fit       0.004708
 1709 Fit       0.006622
 1710 Fit       0.008650
 1711 Fit      -0.001397
 1712 Fit      -0.001194
 1713 Fit       0.001184
 1714 Fit       0.004234
 1715 Fit       0.006814
 1716 Fit      -0.006856
 1717 Fit      -0.000593
 1718 Fit       0.003965
 1719 Fit       0.004068
 1720 Fit       0.009082
 1721 Fit       0.009498
 1722 Fit       0.009491
 1723 Fit       0.009014
 1724 Fit       0.008563
 1725 Fit       0.007116
 1726 Fit       0.008689
 1727 Fit       0.007254
 1728 Fit       0.004662
 1729 Fit       0.007921
 1730 Fit       0.008111
 1731 Fit       0.006800
 1732 Fit      -0.007275
 1733 Fit       0.002248
 1734 Fit      -0.002049
 1735 Fit      -0.001805
 1736 Fit       0.004236
 1737 Fit      -0.000112
 1738 Fit      -0.003836
 1739 Fit      -0.005102
 1740 Fit       0.004849
 1741 Fit       0.002811
 1742 Fit       0.000866
 1743 Fit       0.000296
 1744 Fit       0.002990
 1745 Fit       0.003766
 1746 Fit       0.002707
 1747 Fit       0.001788
 1748 Fit       0.000463
 1749 Fit       0.002252
 1750 Fit       0.007304
 1751 Fit       0.001689
 1752 Fit       0.006563
 1753 Fit       0.009222
 1754 Fit      -0.004055
 1755 Fit       0.002698
 1756 Fit       0.005975
 1757 Fit       0.007942
 1758 Fit       0.009267
 1759 Fit      -0.002865
 1760 Fit       0.002734
 1761 Fit       0.005005
 1762 Fit       0.006672
 1763 Fit       0.007277
 1764 Fit      -0.004111
 1765 Fit       0.001685
 1766 Fit       0.003561
 1767 Fit       0.004955
 1768 Fit      -0.000352
 1769 Fit      -0.008963
 1770 Fit      -0.011486
 1771 Fit      -0.010382
 1772 Fit      -0.013779
 1773 Fit      -0.010413
 1774 Fit      -0.013049
 1775 Fit      -0.013973
 1776 Fit      -0.009285
 1777 Fit      -0.013594
 1778 Fit      -0.009575
 1779 Fit      -0.011422
 1780 Fit      -0.010092
 1781 Fit      -0.008779
 1782 Fit      -0.003851
 1783 Fit      -0.011466
 1784 Fit      -0.005584
 1785 Fit      -0.005718
 1786 Fit      -0.007031
 1787 Fit      -0.000307
 1788 Fit      -0.002332
 1789 Fit      -0.004417
 1790 Fit      -0.007991
 1791 Fit      -0.000948
 1792 Fit       0.001132
 1793 Fit      -0.000351
 1794 Fit      -0.002170
 1795 Fit      -0.002223
 1796 Fit      -0.001495
 1797 Fit      -0.000520
 1798 Fit      -0.003317
 1799 Fit      -0.004005
 1800 Fit      -0.003538
 1801 Fit      -0.003248
 1802 Fit      -0.006106
 1803 Fit      -0.008555
 1804 Fit      -0.009222
 1805 Fit      -0.003167
 1806 Fit      -0.010460
 1807 Fit      -0.010530
 1808 Fit      -0.003480
 1809 Fit      -0.000002
 1810 Fit      -0.001606
 1811 Fit      -0.002835
 1812 Fit      -0.002014
 1813 Fit      -0.000094
 1814 Fit       0.002786
 1815 Fit       0.001267
 1816 Fit      -0.005782
 1817 Fit       0.002200
 1818 Fit      -0.001068
 1819 Fit       0.003456
 1820 Fit       0.000175
 1821 Fit      -0.004271
 1822 Fit      -0.000657
 1823 Fit      -0.000881
 1824 Fit       0.001951
 1825 Fit      -0.000543
 1826 Fit      -0.004633
 1827 Fit      -0.005857
 1828 Fit       0.000941
 1829 Fit      -0.001640
 1830 Fit      -0.001820
 1831 Fit      -0.002210
 1832 Fit      -0.001371
 1833 Fit      -0.000765
 1834 Fit       0.001327
 1835 Fit       0.000447
 1836 Fit      -0.000261
 1837 Fit      -0.003110
 1838 Fit      -0.007571
 1839 Fit      -0.010897
 1840 Fit      -0.013578
 1841 Fit      -0.014042
 1842 Fit      -0.013220
 1843 Fit      -0.010106
 1844 Fit      -0.010787
 1845 Fit      -0.007897
 1846 Fit      -0.004034
 1847 Fit       0.002862
 1848 Fit      -0.001746
 1849 Fit       0.004517
 1850 Fit       0.002393
 1851 Fit       0.004060
 1852 Fit       0.005339
 1853 Fit       0.005047
 1854 Fit       0.004509
 1855 Fit       0.004220
 1856 Fit       0.002488
 1857 Fit       0.001269
 1858 Fit      -0.004126
 1859 Fit       0.000477
 1860 Fit       0.002178
 1861 Fit      -0.000597
 1862 Fit       0.001713
 1863 Fit       0.001803
 1864 Fit       0.000599
 1865 Fit       0.000741
 1866 Fit       0.001506
 1867 Fit      -0.000929
 1868 Fit       0.000703
 1869 Fit       0.001133
 1870 Fit      -0.005186
 1871 Fit       0.000422
 1872 Fit      -0.002665
 1873 Fit       0.000695
 1874 Fit       0.000592
 1875 Fit      -0.005080
 1876 Fit      -0.000557
 1877 Fit       0.001714
 1878 Fit       0.001167
 1879 Fit       0.001780
 1880 Fit       0.000654
 1881 Fit       0.002153
 1882 Fit       0.001861
 1883 Fit       0.002355
 1884 Fit       0.006291
 1885 Fit       0.003928
 1886 Fit      -0.004001
 1887 Fit       0.002044
 1888 Fit      -0.001181
 1889 Fit       0.003396
 1890 Fit       0.005784
 1891 Fit      -0.004185
 1892 Fit       0.000992
 1893 Fit       0.013900
 1894 Fit       0.001833
 1895 Fit      -0.003092
 1896 Fit      -0.005719
 1897 Fit      -0.005654
 1898 Fit      -0.003414
 1899 Fit      -0.000159
 1900 Fit       0.003231
 1901 Fit       0.005729
 1902 Fit       0.006439
 1903 Fit       0.004333
 1904 Fit       0.000212
 1905 Fit      -0.003201
 1906 Fit      -0.003933
 1907 Fit      -0.003188
 1908 Fit      -0.007328
 1909 Fit      -0.008909
 1910 Fit      -0.007988
 1911 Fit      -0.005526
 1912 Fit      -0.002919
 1913 Fit      -0.001555
 1914 Fit      -0.002286
 1915 Fit      -0.004789
 1916 Fit      -0.007300
 1917 Fit      -0.007685
 1918 Fit      -0.003054
 1919 Fit      -0.007618
 1920 Fit      -0.009281
 1921 Fit      -0.008642
 1922 Fit      -0.007168
 1923 Fit      -0.006487
 1924 Fit      -0.007365
 1925 Fit      -0.008994
 1926 Fit      -0.009344
 1927 Fit      -0.006276
 1928 Fit      -0.004991
 1929 Fit      -0.007939
 1930 Fit      -0.008544
 1931 Fit      -0.008433
 1932 Fit      -0.008889
 1933 Fit      -0.009211
 1934 Fit      -0.007277
 1935 Fit      -0.003773
 1936 Fit      -0.000264
 1937 Fit      -0.001945
 1938 Fit      -0.006073
 1939 Fit      -0.007633
 1940 Fit      -0.007313
 1941 Fit      -0.004657
 1942 Fit       0.007959
 1943 Fit       0.003973
 1944 Fit       0.016656
 1945 Fit       0.008850
 1946 Fit       0.002572
 1947 Fit       0.002148
 1948 Fit       0.002532
 1949 Fit       0.007314
 1950 Fit       0.006784
 1951 Fit       0.005900
 1952 Fit       0.005726
 1953 Fit       0.001905
 1954 Fit       0.000166
 1955 Fit       0.001587
 1956 Fit       0.005053
 1957 Fit       0.001861
 1958 Fit       0.002850
 1959 Fit       0.005428
 1960 Fit       0.009153
 1961 Fit      -0.001973
 1962 Fit       0.000544
 1963 Fit       0.003422
 1964 Fit       0.006329
 1965 Fit       0.005892
 1966 Fit       0.005516
 1967 Fit       0.004234
 1968 Fit       0.002053
 1969 Fit       0.006460
 1970 Fit       0.004148
 1971 Fit       0.002477
 1972 Fit       0.003207
 1973 Fit      -0.004708
 1974 Fit      -0.005606
 1975 Fit      -0.008272
 1976 Fit      -0.008215
 1977 Fit      -0.004408
 1978 Fit       0.000001
 1979 Fit      -0.000897
 1980 Fit      -0.007025
 1981 Fit      -0.009366
 1982 Fit      -0.010063
 1983 Fit      -0.010645
 1984 Fit      -0.010936
 1985 Fit      -0.009325
 1986 Fit      -0.004623
 1987 Fit      -0.001375
 1988 Fit      -0.008326
 1989 Fit      -0.009969
 1990 Fit      -0.009832
 1991 Fit      -0.009625
 1992 Fit      -0.010318
 1993 Fit      -0.011598
 1994 Fit      -0.012048
 1995 Fit      -0.010141
 1996 Fit      -0.005185
 1997 Fit      -0.008084
 1998 Fit      -0.008857
 1999 Fit      -0.008113
 2000 Fit      -0.007051
 2001 Fit      -0.006776
 2002 Fit      -0.007875
 2003 Fit      -0.009849
 2004 Fit      -0.011294
 2005 Fit      -0.010759
 2006 Fit      -0.007545
 2007 Fit      -0.001985
 2008 Fit      -0.004283
 2009 Fit      -0.004201
 2010 Fit      -0.004441
 2011 Fit      -0.003976
 2012 Fit      -0.002879
 2013 Fit      -0.001762
 2014 Fit      -0.001864
 2015 Fit      -0.003712
 2016 Fit      -0.006359
 2017 Fit      -0.008112
 2018 Fit      -0.007695
 2019 Fit      -0.004759
 2020 Fit       0.000178
 2021 Fit      -0.002529
 2022 Fit       0.003667
 2023 Fit       0.004567
 2024 Fit      -0.002143
 2025 Fit      -0.002678
 2026 Fit       0.000315
 2027 Fit       0.005895
 2028 Fit       0.001628
 2029 Fit       0.002600
 2030 Fit       0.005486
 2031 Fit       0.005590
 2032 Fit       0.007808
 2033 Fit       0.009285
 2034 Fit       0.012405
 2035 Fit       0.013827
 2036 Fit       0.014653
 2037 Fit       0.000596
 2038 Fit       0.002319
 2039 Fit      -0.000089
 2040 Fit       0.000253
 2041 Fit      -0.002856
 2042 Fit      -0.002447
 2043 Fit       0.000374
 2044 Fit      -0.000672
 2045 Fit      -0.000793
 2046 Fit       0.001047
 2047 Fit      -0.001617
 2048 Fit       0.001639
 2049 Fit      -0.000892
 2050 Fit       0.005275
 2051 Fit       0.003345
 2052 Fit       0.008682
 2053 Fit       0.008096
 2054 Fit       0.001408
 2055 Fit       0.001526
 2056 Fit       0.001253
 2057 Fit       0.002249
 2058 Fit       0.001272
 2059 Fit       0.000163
 2060 Fit      -0.000965
 2061 Fit       0.000860
 2062 Fit      -0.000785
 2063 Fit      -0.001479
 2064 Fit       0.001213
 2065 Fit      -0.001180
 2066 Fit      -0.008963
 2067 Fit      -0.007261
 2068 Fit      -0.004347
 2069 Fit      -0.006749
 2070 Fit      -0.010804
 2071 Fit      -0.011612
 2072 Fit      -0.010601
 2073 Fit      -0.006368
 2074 Fit      -0.001074
 2075 Fit       0.000736
 2076 Fit      -0.002614
 2077 Fit      -0.008299
 2078 Fit      -0.011782
 2079 Fit      -0.012229
 2080 Fit      -0.011737
 2081 Fit      -0.011780
 2082 Fit      -0.011876
 2083 Fit      -0.010382
 2084 Fit      -0.006443
 2085 Fit      -0.007834
 2086 Fit      -0.010892
 2087 Fit      -0.010572
 2088 Fit      -0.009389
 2089 Fit      -0.009309
 2090 Fit      -0.010396
 2091 Fit      -0.011995
 2092 Fit      -0.012717
 2093 Fit      -0.011036
 2094 Fit      -0.006921
 2095 Fit      -0.006991
 2096 Fit      -0.007115
 2097 Fit      -0.006729
 2098 Fit      -0.009167
 2099 Fit      -0.011910
 2100 Fit      -0.013075
 2101 Fit      -0.011448
 2102 Fit      -0.006367
 2103 Fit      -0.001280
 2104 Fit      -0.010109
 2105 Fit      -0.011761
 2106 Fit      -0.010414
 2107 Fit      -0.003305
 2108 Fit      -0.007685
 2109 Fit      -0.007294
 2110 Fit       0.002464
 2111 Fit      -0.000675
 2112 Fit      -0.001402
 2113 Fit       0.013392
 2114 Fit       0.009491
 2115 Fit       0.009538
 2116 Fit       0.008291
 2117 Fit       0.006308
 2118 Fit       0.010335
 2119 Fit       0.008467
 2120 Fit       0.012354
 2121 Fit       0.009987
 2122 Fit       0.009264
 2123 Fit       0.010696
 2124 Fit       0.009783
 2125 Fit       0.006360
 2126 Fit       0.004059
 2127 Fit       0.007796
 2128 Fit       0.011065
 2129 Fit       0.006705
 2130 Fit       0.006557
 2131 Fit       0.007905
 2132 Fit       0.009233
 2133 Fit       0.009516
 2134 Fit       0.009083
 2135 Fit       0.007706
 2136 Fit       0.008218
 2137 Fit       0.000187
 2138 Fit       0.002376
 2139 Fit       0.001510
 2140 Fit       0.005522
 2141 Fit       0.004440
 2142 Fit       0.003743
 2143 Fit       0.003018
 2144 Fit       0.002439
 2145 Fit       0.002465
 2146 Fit       0.003396
 2147 Fit       0.004887
 2148 Fit      -0.005856
 2149 Fit      -0.000577
 2150 Fit      -0.001313
 2151 Fit      -0.004402
 2152 Fit       0.001294
 2153 Fit       0.001399
 2154 Fit       0.000749
 2155 Fit      -0.001468
 2156 Fit      -0.000182
 2157 Fit       0.002580
 2158 Fit       0.002417
 2159 Fit       0.001470
 2160 Fit       0.003646
 2161 Fit       0.003278
 2162 Fit       0.003248
 2163 Fit      -0.003134
 2164 Fit      -0.002118
 2165 Fit      -0.000212
 2166 Fit       0.001364
 2167 Fit       0.001208
 2168 Fit      -0.000074
 2169 Fit       0.002539
 2170 Fit       0.003068
 2171 Fit       0.003037
 2172 Fit       0.002448
 2173 Fit       0.001455
 2174 Fit       0.005066
 2175 Fit       0.004157
 2176 Fit       0.003640
 2177 Fit       0.002988
 2178 Fit       0.007425
 2179 Fit       0.005851
 2180 Fit       0.005099
 2181 Fit       0.004527
 2182 Fit       0.003975
 2183 Fit       0.009029
 2184 Fit       0.007430
 2185 Fit       0.006531
 2186 Fit       0.005906
 2187 Fit       0.005309
 2188 Fit       0.004885
 2189 Fit       0.005097
 2190 Fit       0.007052
 2191 Fit       0.008446
 2192 Fit       0.008285
 2193 Fit       0.007432
 2194 Fit       0.006701
 2195 Fit       0.006275
 2196 Fit       0.007378
 Job cpu time:       0 days  0 hours 11 minutes 27.2 seconds.
 Normal termination of Gaussian 16 at Sun Jul  9 09:41:28 2023.
