 Copyright (c) 1988-2019, Gaussian, Inc.  All Rights Reserved.
  
 This is part of the Gaussian(R) 16 program.  It is based on
 the Gaussian(R) 09 system (copyright 2009, Gaussian, Inc.),
 the Gaussian(R) 03 system (copyright 2003, Gaussian, Inc.),
 the Gaussian(R) 98 system (copyright 1998, Gaussian, Inc.),
 the Gaussian(R) 94 system (copyright 1995, Gaussian, Inc.),
 the Gaussian 92(TM) system (copyright 1992, Gaussian, Inc.),
 the Gaussian 90(TM) system (copyright 1990, Gaussian, Inc.),
 the Gaussian 88(TM) system (copyright 1988, Gaussian, Inc.),
 the Gaussian 86(TM) system (copyright 1986, Carnegie Mellon
 University), and the Gaussian 82(TM) system (copyright 1983,
 Carnegie Mellon University). Gaussian is a federally registered
 trademark of Gaussian, Inc.
 Cite this work as:
 Gaussian 16, Revision C.01,
 M. J. Frisch, G. W. Trucks, H. B. Schlegel, G. E. Scuseria, 
 M. A. Robb, J. R. Cheeseman, G. Scalmani, V. Barone, 
 G. A. Petersson, H. Nakatsuji, X. Li, M. Caricato, A. V. Marenich, 
 J. Bloino, B. G. Janesko, R. Gomperts, B. Mennucci, H. P. Hratchian, 
 J. V. Ortiz, A. F. Izmaylov, J. L. Sonnenberg, D. Williams-Young, 
 F. Ding, F. Lipparini, F. Egidi, J. Goings, B. Peng, A. Petrone, 
 T. Henderson, D. Ranasinghe, V. G. Zakrzewski, J. Gao, N. Rega, 
 G. Zheng, W. Liang, M. Hada, M. Ehara, K. Toyota, R. Fukuda, 
 J. Hasegawa, M. Ishida, T. Nakajima, Y. Honda, O. Kitao, H. Nakai, 
 T. Vreven, K. Throssell, J. A. Montgomery, Jr., J. E. Peralta, 
 F. Ogliaro, M. J. Bearpark, J. J. Heyd, E. N. Brothers, K. N. Kudin, 
 V. N. Staroverov, T. A. Keith, R. Kobayashi, J. Normand, 
 K. Raghavachari, A. P. Rendell, J. C. Burant, S. S. Iyengar, 
 J. Tomasi, M. Cossi, J. M. Millam, M. Klene, C. Adamo, R. Cammi, 
 J. W. Ochterski, R. L. Martin, K. Morokuma, O. Farkas, 
 J. B. Foresman, and D. J. Fox, Gaussian, Inc., Wallingford CT, 2019.
 
 ******************************************
 Gaussian 16:  EM64L-G16RevC.01  3-Jul-2019
                 9-Jul-2023 
 ******************************************
 ----------------------------------------------------------------------
 #P B3LYP/6-31G(d) Integral=Ultrafine SCF(Conver=8,XQC,MaxConventionalC
 ycles=64,MaxCycle=128) NoSymm Test Pop=mk IOp(6/33=2) GFInput GFPrint
 ----------------------------------------------------------------------
 1/38=1,172=1/1;
 2/12=2,15=1,17=6,18=5,40=1/2;
 3/5=1,6=6,7=1,11=2,24=110,25=1,30=1,74=-5,75=-5/1,2,3;
 4//1;
 5/5=2,6=8,7=128,8=3,13=1,38=5,85=64/2,8;
 6/7=2,8=2,9=2,10=2,15=8,20=1,28=1,33=2/1,2;
 99/5=1,9=1/99;
 -------------------------------------------------
 MEP step - Input generated by PyRED DVE-DMDS-OPLS
 -------------------------------------------------
 Symbolic Z-matrix:
 Charge =  0 Multiplicity = 1
 C                    -3.66449  -0.07004   4.52008 
 H                    -3.57234   0.72256   5.27126 
 H                    -4.72949  -0.30803   4.41688 
 H                    -3.15126  -0.9627    4.8931 
 C                    -3.09276   0.34633   3.1669 
 H                    -3.23717  -0.45633   2.43859 
 H                    -3.60417   1.24709   2.79112 
 O                    -1.68394   0.57667   3.18812 
 C                    -1.28711   1.75952   3.85632 
 H                    -1.34611   1.64111   4.95026 
 H                    -1.93747   2.60101   3.57002 
 C                     0.14395   2.09298   3.48063 
 H                     0.5113    2.89252   4.14671 
 H                     0.77745   1.20667   3.64109 
 O                     0.17568   2.52634   2.13282 
 C                     1.44229   2.9866    1.68797 
 H                     1.92246   3.59641   2.47272 
 H                     1.2435    3.63443   0.82796 
 C                     2.41403   1.88976   1.24989 
 H                     2.50374   1.11549   2.02669 
 H                     3.40529   2.35227   1.13456 
 O                     2.07625   1.31395   0. 
 C                     1.531     0.        0. 
 H                     1.91911  -0.57062   0.85689 
 H                     1.89513  -0.48639  -0.91154 
 C                     0.        0.        0. 
 H                    -0.36148   0.54231  -0.87971 
 H                    -0.40611   0.49472   0.88554 
 S                    -0.70737  -1.6893   -0.14118 
 C                    -0.43228  -2.32483   1.56616 
 H                     0.64332  -2.46755   1.7283 
 H                    -0.79333  -1.57908   2.28074 
 C                    -1.12447  -3.67312   1.78961 
 H                    -0.75343  -4.09937   2.728 
 H                    -0.866    -4.38537   0.99877 
 S                    -2.95503  -3.62765   1.99184 
 C                    -3.58318  -3.92664   0.28448 
 H                    -3.08396  -3.25058  -0.4132 
 H                    -4.6351   -3.62716   0.33481 
 C                    -3.45816  -5.38406  -0.1608 
 H                    -2.40635  -5.6791   -0.22965 
 H                    -3.9324   -6.05511   0.56154 
 S                    -4.13278  -5.69705  -1.84476 
 C                    -5.94771  -5.68278  -1.53605 
 H                    -6.2204   -4.75244  -1.02595 
 H                    -6.3851   -5.63013  -2.53878 
 C                    -6.47968  -6.90203  -0.78387 
 H                    -6.05168  -6.9771    0.22157 
 H                    -7.56954  -6.83409  -0.67416 
 H                    -6.24372  -7.82632  -1.32027 
 
 ITRead=  0  0  0  0  0  0  0  0  0  0  0  0  0  0  0  0  0  0  0  0
 ITRead=  0  0  0  0  0  0  0  0  0  0  0  0  0  0  0  0  0  0  0  0
 ITRead=  0  0  0  0  0  0  0  0  0  0
 MicOpt= -1 -1 -1 -1 -1 -1 -1 -1 -1 -1 -1 -1 -1 -1 -1 -1 -1 -1 -1 -1
 MicOpt= -1 -1 -1 -1 -1 -1 -1 -1 -1 -1 -1 -1 -1 -1 -1 -1 -1 -1 -1 -1
 MicOpt= -1 -1 -1 -1 -1 -1 -1 -1 -1 -1
 NAtoms=     50 NQM=       50 NQMF=       0 NMMI=      0 NMMIF=      0
                NMic=       0 NMicF=      0.
                          Input orientation:                          
 ---------------------------------------------------------------------
 Center     Atomic      Atomic             Coordinates (Angstroms)
 Number     Number       Type             X           Y           Z
 ---------------------------------------------------------------------
      1          6           0       -3.664489   -0.070035    4.520076
      2          1           0       -3.572338    0.722562    5.271258
      3          1           0       -4.729486   -0.308030    4.416878
      4          1           0       -3.151257   -0.962696    4.893103
      5          6           0       -3.092763    0.346326    3.166898
      6          1           0       -3.237174   -0.456331    2.438589
      7          1           0       -3.604167    1.247091    2.791120
      8          8           0       -1.683943    0.576666    3.188122
      9          6           0       -1.287106    1.759519    3.856324
     10          1           0       -1.346111    1.641111    4.950263
     11          1           0       -1.937467    2.601005    3.570022
     12          6           0        0.143949    2.092981    3.480627
     13          1           0        0.511302    2.892518    4.146714
     14          1           0        0.777454    1.206665    3.641093
     15          8           0        0.175682    2.526337    2.132824
     16          6           0        1.442287    2.986600    1.687965
     17          1           0        1.922459    3.596414    2.472722
     18          1           0        1.243501    3.634432    0.827956
     19          6           0        2.414027    1.889762    1.249895
     20          1           0        2.503744    1.115488    2.026693
     21          1           0        3.405291    2.352272    1.134556
     22          8           0        2.076245    1.313950    0.000000
     23          6           0        1.531001    0.000000    0.000000
     24          1           0        1.919112   -0.570620    0.856890
     25          1           0        1.895125   -0.486392   -0.911539
     26          6           0        0.000000    0.000000    0.000000
     27          1           0       -0.361481    0.542313   -0.879707
     28          1           0       -0.406105    0.494724    0.885535
     29         16           0       -0.707369   -1.689296   -0.141175
     30          6           0       -0.432280   -2.324826    1.566158
     31          1           0        0.643324   -2.467553    1.728301
     32          1           0       -0.793334   -1.579084    2.280741
     33          6           0       -1.124473   -3.673119    1.789609
     34          1           0       -0.753429   -4.099372    2.727996
     35          1           0       -0.865999   -4.385366    0.998774
     36         16           0       -2.955031   -3.627650    1.991840
     37          6           0       -3.583183   -3.926638    0.284480
     38          1           0       -3.083958   -3.250581   -0.413200
     39          1           0       -4.635104   -3.627161    0.334807
     40          6           0       -3.458162   -5.384057   -0.160795
     41          1           0       -2.406351   -5.679095   -0.229652
     42          1           0       -3.932399   -6.055112    0.561537
     43         16           0       -4.132776   -5.697050   -1.844757
     44          6           0       -5.947712   -5.682783   -1.536048
     45          1           0       -6.220398   -4.752435   -1.025955
     46          1           0       -6.385097   -5.630130   -2.538775
     47          6           0       -6.479677   -6.902033   -0.783868
     48          1           0       -6.051678   -6.977099    0.221571
     49          1           0       -7.569539   -6.834088   -0.674158
     50          1           0       -6.243721   -7.826317   -1.320268
 ---------------------------------------------------------------------
 Stoichiometry    C14H30O3S3
 Framework group  C1[X(C14H30O3S3)]
 Standard basis: 6-31G(d) (6D, 7F)
   372 basis functions,   752 primitive gaussians,   372 cartesian basis functions
    93 alpha electrons       93 beta electrons
 Requested convergence on RMS density matrix=1.00D-08 within  64 cycles.
 Requested convergence on MAX density matrix=1.00D-06.
 Requested convergence on             energy=1.00D-06.
 SCF Done:  E(RB3LYP) =  -1971.75489811     A.U. after   13 cycles
            NFock= 13  Conv=0.44D-08     -V/T= 2.0058
 Mulliken charges:
     1  C   -0.461596
     2  H    0.143861
     3  H    0.148601
     4  H    0.159868
     5  C   -0.034002
     6  H    0.181567
     7  H    0.124694
     8  O   -0.467056
     9  C   -0.021281
    10  H    0.124269
    11  H    0.134761
    12  C   -0.033844
    13  H    0.122805
    14  H    0.132521
    15  O   -0.461697
    16  C   -0.027941
    17  H    0.112454
    18  H    0.160034
    19  C   -0.038490
    20  H    0.126031
    21  H    0.136298
    22  O   -0.469619
    23  C   -0.020509
    24  H    0.122518
    25  H    0.153937
    26  C   -0.453700
    27  H    0.176560
    28  H    0.221235
    29  S    0.061872
    30  C   -0.408059
    31  H    0.162475
    32  H    0.211903
    33  C   -0.433970
    34  H    0.181927
    35  H    0.183228
    36  S    0.076725
    37  C   -0.424240
    38  H    0.222815
    39  H    0.174872
    40  C   -0.412860
    41  H    0.179202
    42  H    0.182583
    43  S    0.083210
    44  C   -0.410585
    45  H    0.168929
    46  H    0.177082
    47  C   -0.435446
    48  H    0.153910
    49  H    0.148039
    50  H    0.164108
 Sum of Mulliken charges =  -0.00000
 Dipole moment (field-independent basis, Debye):
    X=              0.1565    Y=              1.3616    Z=              3.8442  Tot=              4.0812
 Quadrupole moment (field-independent basis, Debye-Ang):
   XX=           -131.8170   YY=           -146.8281   ZZ=           -141.5493
   XY=              2.9332   XZ=              3.1226   YZ=              0.8218
 Traceless Quadrupole moment (field-independent basis, Debye-Ang):
   XX=              8.2478   YY=             -6.7633   ZZ=             -1.4845
   XY=              2.9332   XZ=              3.1226   YZ=              0.8218
 Octapole moment (field-independent basis, Debye-Ang**2):
  XXX=            655.1046  YYY=            779.4114  ZZZ=           -429.8244  XYY=            251.6341
  XXY=            192.9492  XXZ=           -156.1786  XZZ=            271.4809  YZZ=            298.7508
  YYZ=           -113.7848  XYZ=             -3.3000
 Hexadecapole moment (field-independent basis, Debye-Ang**3):
 XXXX=          -7417.9559 YYYY=         -11170.1238 ZZZZ=          -4047.5925 XXXY=          -3325.9173
 XXXZ=            439.4753 YYYX=          -3825.9458 YYYZ=           -934.8406 ZZZX=            301.9496
 ZZZY=           -676.9444 XXYY=          -2827.8916 XXZZ=          -2066.8445 YYZZ=          -2613.0180
 XXYZ=           -116.1346 YYXZ=            130.5117 ZZXY=          -1409.6206
 Merz-Kollman atomic radii used.
 Atom Element Radius
    1     6    1.50
    2     1    1.20
    3     1    1.20
    4     1    1.20
    5     6    1.50
    6     1    1.20
    7     1    1.20
    8     8    1.40
    9     6    1.50
   10     1    1.20
   11     1    1.20
   12     6    1.50
   13     1    1.20
   14     1    1.20
   15     8    1.40
   16     6    1.50
   17     1    1.20
   18     1    1.20
   19     6    1.50
   20     1    1.20
   21     1    1.20
   22     8    1.40
   23     6    1.50
   24     1    1.20
   25     1    1.20
   26     6    1.50
   27     1    1.20
   28     1    1.20
   29    16    1.75
   30     6    1.50
   31     1    1.20
   32     1    1.20
   33     6    1.50
   34     1    1.20
   35     1    1.20
   36    16    1.75
   37     6    1.50
   38     1    1.20
   39     1    1.20
   40     6    1.50
   41     1    1.20
   42     1    1.20
   43    16    1.75
   44     6    1.50
   45     1    1.20
   46     1    1.20
   47     6    1.50
   48     1    1.20
   49     1    1.20
   50     1    1.20
 Generate VDW surfaces: Layer= 4 Dens= 1 Start= 1.400 Inc= 0.200
            Electrostatic Properties Using The SCF Density.


       Atomic Center    1 is at  -3.664489 -0.070035  4.520076
       Atomic Center    2 is at  -3.572338  0.722562  5.271258
       Atomic Center    3 is at  -4.729486 -0.308030  4.416878
       Atomic Center    4 is at  -3.151257 -0.962696  4.893103
       Atomic Center    5 is at  -3.092763  0.346326  3.166898
       Atomic Center    6 is at  -3.237174 -0.456331  2.438589
       Atomic Center    7 is at  -3.604167  1.247091  2.791120
       Atomic Center    8 is at  -1.683943  0.576666  3.188122
       Atomic Center    9 is at  -1.287106  1.759519  3.856324
       Atomic Center   10 is at  -1.346111  1.641111  4.950263
       Atomic Center   11 is at  -1.937467  2.601005  3.570022
       Atomic Center   12 is at   0.143949  2.092981  3.480627
       Atomic Center   13 is at   0.511302  2.892518  4.146714
       Atomic Center   14 is at   0.777454  1.206665  3.641093
       Atomic Center   15 is at   0.175682  2.526337  2.132824
       Atomic Center   16 is at   1.442287  2.986600  1.687965
       Atomic Center   17 is at   1.922459  3.596414  2.472722
       Atomic Center   18 is at   1.243501  3.634432  0.827956
       Atomic Center   19 is at   2.414027  1.889762  1.249895
       Atomic Center   20 is at   2.503744  1.115488  2.026693
       Atomic Center   21 is at   3.405291  2.352272  1.134556
       Atomic Center   22 is at   2.076245  1.313950  0.000000
       Atomic Center   23 is at   1.531001  0.000000  0.000000
       Atomic Center   24 is at   1.919112 -0.570620  0.856890
       Atomic Center   25 is at   1.895125 -0.486392 -0.911539
       Atomic Center   26 is at   0.000000  0.000000  0.000000
       Atomic Center   27 is at  -0.361481  0.542313 -0.879707
       Atomic Center   28 is at  -0.406105  0.494724  0.885535
       Atomic Center   29 is at  -0.707369 -1.689296 -0.141175
       Atomic Center   30 is at  -0.432280 -2.324826  1.566158
       Atomic Center   31 is at   0.643324 -2.467553  1.728301
       Atomic Center   32 is at  -0.793334 -1.579084  2.280741
       Atomic Center   33 is at  -1.124473 -3.673119  1.789609
       Atomic Center   34 is at  -0.753429 -4.099372  2.727996
       Atomic Center   35 is at  -0.865999 -4.385366  0.998774
       Atomic Center   36 is at  -2.955031 -3.627650  1.991840
       Atomic Center   37 is at  -3.583183 -3.926638  0.284480
       Atomic Center   38 is at  -3.083958 -3.250581 -0.413200
       Atomic Center   39 is at  -4.635104 -3.627161  0.334807
       Atomic Center   40 is at  -3.458162 -5.384057 -0.160795
       Atomic Center   41 is at  -2.406351 -5.679095 -0.229652
       Atomic Center   42 is at  -3.932399 -6.055112  0.561537
       Atomic Center   43 is at  -4.132776 -5.697050 -1.844757
       Atomic Center   44 is at  -5.947712 -5.682783 -1.536048
       Atomic Center   45 is at  -6.220398 -4.752435 -1.025955
       Atomic Center   46 is at  -6.385097 -5.630130 -2.538775
       Atomic Center   47 is at  -6.479677 -6.902033 -0.783868
       Atomic Center   48 is at  -6.051678 -6.977099  0.221571
       Atomic Center   49 is at  -7.569539 -6.834088 -0.674158
       Atomic Center   50 is at  -6.243721 -7.826317 -1.320268
      ESP Fit Center   51 is at  -4.714489 -0.070035  6.338729
      ESP Fit Center   52 is at  -4.189489 -0.979362  6.338729
      ESP Fit Center   53 is at  -1.845836 -0.070035  5.570076
      ESP Fit Center   54 is at  -5.236362  1.322523  4.520076
      ESP Fit Center   55 is at  -4.409159 -2.033569  4.520076
      ESP Fit Center   56 is at  -3.923310 -1.870177  3.470076
      ESP Fit Center   57 is at  -3.572338  0.722562  6.951258
      ESP Fit Center   58 is at  -2.584859  0.722562  6.630407
      ESP Fit Center   59 is at  -3.267190  1.661711  6.630407
      ESP Fit Center   60 is at  -4.371225  1.302988  6.630407
      ESP Fit Center   61 is at  -4.371225  0.142136  6.630407
      ESP Fit Center   62 is at  -3.267190 -0.216587  6.630407
      ESP Fit Center   63 is at  -3.294887  2.296063  5.790407
      ESP Fit Center   64 is at  -4.371225  2.106276  5.790407
      ESP Fit Center   65 is at  -5.073755  1.269033  5.790407
      ESP Fit Center   66 is at  -3.294887  2.296063  4.752109
      ESP Fit Center   67 is at  -4.371225  2.106276  4.752109
      ESP Fit Center   68 is at  -5.528373  0.272396  5.776027
      ESP Fit Center   69 is at  -5.528373 -0.888456  5.776027
      ESP Fit Center   70 is at  -5.528373  1.075684  4.936027
      ESP Fit Center   71 is at  -6.230903  0.238441  4.936027
      ESP Fit Center   72 is at  -6.230903 -0.854501  4.936027
      ESP Fit Center   73 is at  -5.528373 -1.691744  4.936027
      ESP Fit Center   74 is at  -5.528373  1.075684  3.897729
      ESP Fit Center   75 is at  -6.230903  0.238441  3.897729
      ESP Fit Center   76 is at  -6.230903 -0.854501  3.897729
      ESP Fit Center   77 is at  -5.528373 -1.691744  3.897729
      ESP Fit Center   78 is at  -5.528373  0.272396  3.057729
      ESP Fit Center   79 is at  -5.528373 -0.888456  3.057729
      ESP Fit Center   80 is at  -3.151257 -0.962696  6.573103
      ESP Fit Center   81 is at  -2.163778 -0.962696  6.252252
      ESP Fit Center   82 is at  -3.950144 -1.543122  6.252252
      ESP Fit Center   83 is at  -2.846109 -1.901845  6.252252
      ESP Fit Center   84 is at  -1.553482 -0.962696  5.412252
      ESP Fit Center   85 is at  -3.950144 -2.346410  5.412252
      ESP Fit Center   86 is at  -2.873806 -2.536197  5.412252
      ESP Fit Center   87 is at  -1.927290 -1.989726  5.412252
      ESP Fit Center   88 is at  -3.950144 -2.346410  4.373954
      ESP Fit Center   89 is at  -2.873806 -2.536197  4.373954
      ESP Fit Center   90 is at  -1.927290 -1.989726  4.373954
      ESP Fit Center   91 is at  -2.567763  1.255653  1.348245
      ESP Fit Center   92 is at  -4.738591 -1.002802  1.919440
      ESP Fit Center   93 is at  -4.036061  0.124095  1.079440
      ESP Fit Center   94 is at  -4.036061 -1.036757  1.079440
      ESP Fit Center   95 is at  -3.237174 -0.456331  0.758589
      ESP Fit Center   96 is at  -4.403054  2.630805  3.310269
      ESP Fit Center   97 is at  -5.105584  1.793562  3.310269
      ESP Fit Center   98 is at  -3.326716  2.820592  2.271971
      ESP Fit Center   99 is at  -4.403054  2.630805  2.271971
      ESP Fit Center  100 is at  -5.105584  1.793562  2.271971
      ESP Fit Center  101 is at  -5.105584  0.700620  2.271971
      ESP Fit Center  102 is at  -3.299019  2.186240  1.431971
      ESP Fit Center  103 is at  -4.403054  1.827517  1.431971
      ESP Fit Center  104 is at  -4.403054  0.666665  1.431971
      ESP Fit Center  105 is at  -3.604167  1.247091  1.111120
      ESP Fit Center  106 is at  -1.193943 -0.272039  4.885532
      ESP Fit Center  107 is at  -1.159415 -1.037667  4.168122
      ESP Fit Center  108 is at  -0.310710 -0.421046  4.168122
      ESP Fit Center  109 is at   0.013467 -0.403334  3.188122
      ESP Fit Center  110 is at  -2.173943  1.425371  1.490712
      ESP Fit Center  111 is at  -1.545927  3.559661  4.906324
      ESP Fit Center  112 is at  -3.032091  2.271893  4.906324
      ESP Fit Center  113 is at  -0.531610  0.105214  4.906324
      ESP Fit Center  114 is at  -1.346111  1.641111  6.630263
      ESP Fit Center  115 is at  -0.358632  1.641111  6.309412
      ESP Fit Center  116 is at  -1.040963  2.580260  6.309412
      ESP Fit Center  117 is at  -2.144998  2.221537  6.309412
      ESP Fit Center  118 is at  -2.144998  1.060685  6.309412
      ESP Fit Center  119 is at  -1.040963  0.701962  6.309412
      ESP Fit Center  120 is at  -1.068660  3.214612  5.469412
      ESP Fit Center  121 is at  -2.144998  3.024825  5.469412
      ESP Fit Center  122 is at  -1.068660  0.067610  5.469412
      ESP Fit Center  123 is at  -0.122144  0.614081  5.469412
      ESP Fit Center  124 is at  -1.632319  3.540154  4.929171
      ESP Fit Center  125 is at  -2.736354  3.181431  4.929171
      ESP Fit Center  126 is at  -1.660016  4.174506  4.089171
      ESP Fit Center  127 is at  -2.736354  3.984719  4.089171
      ESP Fit Center  128 is at  -3.438884  3.147476  4.089171
      ESP Fit Center  129 is at  -1.660016  4.174506  3.050873
      ESP Fit Center  130 is at  -2.736354  3.984719  3.050873
      ESP Fit Center  131 is at  -3.438884  3.147476  3.050873
      ESP Fit Center  132 is at  -1.632319  3.540154  2.210873
      ESP Fit Center  133 is at  -2.736354  3.181431  2.210873
      ESP Fit Center  134 is at  -1.937467  2.601005  1.890022
      ESP Fit Center  135 is at   1.962602  2.092981  4.530627
      ESP Fit Center  136 is at   2.243949  2.092981  3.480627
      ESP Fit Center  137 is at  -0.600721  4.056515  3.480627
      ESP Fit Center  138 is at   0.511302  2.892518  5.826714
      ESP Fit Center  139 is at   1.498781  2.892518  5.505863
      ESP Fit Center  140 is at   0.816450  3.831667  5.505863
      ESP Fit Center  141 is at  -0.287585  3.472944  5.505863
      ESP Fit Center  142 is at   0.816450  1.953369  5.505863
      ESP Fit Center  143 is at   2.109077  2.892518  4.665863
      ESP Fit Center  144 is at   1.735269  3.919548  4.665863
      ESP Fit Center  145 is at   0.788753  4.466019  4.665863
      ESP Fit Center  146 is at  -0.287585  4.276232  4.665863
      ESP Fit Center  147 is at   0.788753  4.466019  3.627565
      ESP Fit Center  148 is at  -0.287585  4.276232  3.627565
      ESP Fit Center  149 is at   0.777454  1.206665  5.321093
      ESP Fit Center  150 is at   1.764933  1.206665  5.000242
      ESP Fit Center  151 is at   1.082602  0.267516  5.000242
      ESP Fit Center  152 is at   2.375229  1.206665  4.160242
      ESP Fit Center  153 is at  -0.021433 -0.177049  4.160242
      ESP Fit Center  154 is at   1.054905 -0.366836  4.160242
      ESP Fit Center  155 is at   2.001421  0.179635  4.160242
      ESP Fit Center  156 is at   1.054905 -0.366836  3.121944
      ESP Fit Center  157 is at  -0.348846  4.140670  3.112824
      ESP Fit Center  158 is at  -0.804318  4.223747  2.132824
      ESP Fit Center  159 is at  -1.521728  3.506337  2.132824
      ESP Fit Center  160 is at  -0.348846  4.140670  1.152824
      ESP Fit Center  161 is at  -1.197551  3.524049  1.152824
      ESP Fit Center  162 is at  -1.521728  2.526337  1.152824
      ESP Fit Center  163 is at  -0.804318  2.526337  0.435414
      ESP Fit Center  164 is at   1.695414  5.071289  1.687965
      ESP Fit Center  165 is at   2.972236  3.969838  0.637965
      ESP Fit Center  166 is at   2.909938  3.596414  3.831871
      ESP Fit Center  167 is at   2.227607  4.535563  3.831871
      ESP Fit Center  168 is at   2.227607  2.657265  3.831871
      ESP Fit Center  169 is at   3.520234  3.596414  2.991871
      ESP Fit Center  170 is at   3.146426  4.623444  2.991871
      ESP Fit Center  171 is at   2.199910  5.169915  2.991871
      ESP Fit Center  172 is at   1.123572  4.980128  2.991871
      ESP Fit Center  173 is at   3.146426  4.623444  1.953573
      ESP Fit Center  174 is at   2.199910  5.169915  1.953573
      ESP Fit Center  175 is at   1.520952  5.207933  1.347105
      ESP Fit Center  176 is at   0.444614  5.018146  1.347105
      ESP Fit Center  177 is at   2.467468  4.661462  0.308807
      ESP Fit Center  178 is at   1.520952  5.207933  0.308807
      ESP Fit Center  179 is at   0.444614  5.018146  0.308807
      ESP Fit Center  180 is at  -0.257916  4.180903  0.308807
      ESP Fit Center  181 is at   2.230980  3.634432 -0.531193
      ESP Fit Center  182 is at   1.548649  4.573581 -0.531193
      ESP Fit Center  183 is at   0.444614  4.214858 -0.531193
      ESP Fit Center  184 is at   0.444614  3.054006 -0.531193
      ESP Fit Center  185 is at   1.243501  3.634432 -0.852044
      ESP Fit Center  186 is at   4.273485  0.913843  1.249895
      ESP Fit Center  187 is at   2.503744  1.115488  3.706693
      ESP Fit Center  188 is at   3.491223  1.115488  3.385842
      ESP Fit Center  189 is at   2.808892  2.054637  3.385842
      ESP Fit Center  190 is at   2.808892  0.176339  3.385842
      ESP Fit Center  191 is at   4.101519  1.115488  2.545842
      ESP Fit Center  192 is at   1.704857 -0.268226  2.545842
      ESP Fit Center  193 is at   2.781195 -0.458013  2.545842
      ESP Fit Center  194 is at   3.727711  0.088458  2.545842
      ESP Fit Center  195 is at   3.727711  0.088458  1.507544
      ESP Fit Center  196 is at   4.392770  2.352272  2.493705
      ESP Fit Center  197 is at   3.710439  3.291421  2.493705
      ESP Fit Center  198 is at   5.003066  2.352272  1.653705
      ESP Fit Center  199 is at   4.629258  3.379302  1.653705
      ESP Fit Center  200 is at   3.682742  3.925773  1.653705
      ESP Fit Center  201 is at   4.629258  1.325242  1.653705
      ESP Fit Center  202 is at   5.003066  2.352272  0.615407
      ESP Fit Center  203 is at   4.629258  3.379302  0.615407
      ESP Fit Center  204 is at   3.682742  3.925773  0.615407
      ESP Fit Center  205 is at   4.629258  1.325242  0.615407
      ESP Fit Center  206 is at   4.392770  2.352272 -0.224593
      ESP Fit Center  207 is at   3.710439  3.291421 -0.224593
      ESP Fit Center  208 is at   0.378835  2.293950  0.000000
      ESP Fit Center  209 is at   3.773655  0.333950  0.000000
      ESP Fit Center  210 is at   3.773655  1.313950 -0.980000
      ESP Fit Center  211 is at   3.449478  2.311662 -0.980000
      ESP Fit Center  212 is at   2.600773  2.928283 -0.980000
      ESP Fit Center  213 is at   1.551717  2.928283 -0.980000
      ESP Fit Center  214 is at   0.703012  2.311662 -0.980000
      ESP Fit Center  215 is at   3.449478  0.316238 -0.980000
      ESP Fit Center  216 is at   3.056245  1.313950 -1.697410
      ESP Fit Center  217 is at   2.566245  2.162655 -1.697410
      ESP Fit Center  218 is at   1.586245  2.162655 -1.697410
      ESP Fit Center  219 is at   1.096245  1.313950 -1.697410
      ESP Fit Center  220 is at   2.076245  1.313950 -1.960000
      ESP Fit Center  221 is at   3.631001  0.000000  0.000000
      ESP Fit Center  222 is at   1.784128 -2.084689  0.000000
      ESP Fit Center  223 is at   3.390459 -0.975919  0.000000
      ESP Fit Center  224 is at   1.006001  0.909327 -1.818653
      ESP Fit Center  225 is at   1.919112 -0.570620  2.536890
      ESP Fit Center  226 is at   2.906591 -0.570620  2.216039
      ESP Fit Center  227 is at   1.120225  0.009806  2.216039
      ESP Fit Center  228 is at   2.224260 -1.509769  2.216039
      ESP Fit Center  229 is at   3.516887 -0.570620  1.376039
      ESP Fit Center  230 is at   3.143079 -1.597650  1.376039
      ESP Fit Center  231 is at   2.196563 -2.144121  0.337741
      ESP Fit Center  232 is at   3.143079 -1.597650  0.337741
      ESP Fit Center  233 is at   2.172576 -2.059893 -0.392390
      ESP Fit Center  234 is at   3.119092 -1.513422 -0.392390
      ESP Fit Center  235 is at   3.492900 -0.486392 -1.430688
      ESP Fit Center  236 is at   2.172576 -2.059893 -1.430688
      ESP Fit Center  237 is at   3.119092 -1.513422 -1.430688
      ESP Fit Center  238 is at   2.882604 -0.486392 -2.270688
      ESP Fit Center  239 is at   2.200273  0.452757 -2.270688
      ESP Fit Center  240 is at   1.096238  0.094034 -2.270688
      ESP Fit Center  241 is at   1.096238 -1.066818 -2.270688
      ESP Fit Center  242 is at   2.200273 -1.425541 -2.270688
      ESP Fit Center  243 is at   1.895125 -0.486392 -2.591539
      ESP Fit Center  244 is at   0.253127  2.084689  0.000000
      ESP Fit Center  245 is at  -0.744670  1.963534  0.000000
      ESP Fit Center  246 is at  -1.571873  1.392558  0.000000
      ESP Fit Center  247 is at  -2.038978  0.502563  0.000000
      ESP Fit Center  248 is at  -0.084030  2.115814 -0.360558
      ESP Fit Center  249 is at  -1.160368  1.926027 -0.360558
      ESP Fit Center  250 is at  -1.862898  1.088784 -0.360558
      ESP Fit Center  251 is at  -0.084030  2.115814 -1.398856
      ESP Fit Center  252 is at  -1.160368  1.926027 -1.398856
      ESP Fit Center  253 is at  -1.862898  1.088784 -1.398856
      ESP Fit Center  254 is at   0.625998  0.542313 -2.238856
      ESP Fit Center  255 is at  -0.056333  1.481462 -2.238856
      ESP Fit Center  256 is at  -1.160368  1.122739 -2.238856
      ESP Fit Center  257 is at  -1.160368 -0.038113 -2.238856
      ESP Fit Center  258 is at  -0.056333 -0.396836 -2.238856
      ESP Fit Center  259 is at  -0.361481  0.542313 -2.559707
      ESP Fit Center  260 is at  -1.204992  1.878438  0.366386
      ESP Fit Center  261 is at  -1.907522  1.041195  0.366386
      ESP Fit Center  262 is at  -2.196620  0.178166  0.404001
      ESP Fit Center  263 is at  -2.859399 -0.652933  0.404001
      ESP Fit Center  264 is at  -3.095942 -1.689296  0.404001
      ESP Fit Center  265 is at  -2.196620  0.178166 -0.686351
      ESP Fit Center  266 is at  -2.859399 -0.652933 -0.686351
      ESP Fit Center  267 is at  -1.238877 -4.017983 -0.686351
      ESP Fit Center  268 is at  -0.175861 -4.017983 -0.686351
      ESP Fit Center  269 is at   0.781882 -3.556758 -0.686351
      ESP Fit Center  270 is at   1.444661 -2.725659 -0.686351
      ESP Fit Center  271 is at  -1.961746 -0.241667 -1.668725
      ESP Fit Center  272 is at  -2.545265 -1.149641 -1.668725
      ESP Fit Center  273 is at  -2.545265 -2.228951 -1.668725
      ESP Fit Center  274 is at  -1.961746 -3.136925 -1.668725
      ESP Fit Center  275 is at  -0.979971 -3.585286 -1.668725
      ESP Fit Center  276 is at   0.088353 -3.431684 -1.668725
      ESP Fit Center  277 is at   0.904041 -2.724887 -1.668725
      ESP Fit Center  278 is at   0.355646 -1.689296 -2.348549
      ESP Fit Center  279 is at  -0.175861 -0.768698 -2.348549
      ESP Fit Center  280 is at  -1.238877 -0.768698 -2.348549
      ESP Fit Center  281 is at  -1.770384 -1.689296 -2.348549
      ESP Fit Center  282 is at  -1.238877 -2.609894 -2.348549
      ESP Fit Center  283 is at  -0.175861 -2.609894 -2.348549
      ESP Fit Center  284 is at  -0.707369 -1.689296 -2.591175
      ESP Fit Center  285 is at   0.643324 -2.467553  3.408301
      ESP Fit Center  286 is at   1.630803 -2.467553  3.087450
      ESP Fit Center  287 is at   0.948472 -1.528404  3.087450
      ESP Fit Center  288 is at   0.948472 -3.406702  3.087450
      ESP Fit Center  289 is at   2.241099 -2.467553  2.247450
      ESP Fit Center  290 is at   0.920775 -4.041054  2.247450
      ESP Fit Center  291 is at   1.867291 -3.494583  2.247450
      ESP Fit Center  292 is at   2.241099 -2.467553  1.209152
      ESP Fit Center  293 is at   0.920775 -4.041054  1.209152
      ESP Fit Center  294 is at   1.867291 -3.494583  1.209152
      ESP Fit Center  295 is at   1.630803 -2.467553  0.369152
      ESP Fit Center  296 is at  -0.793334 -1.579084  3.960741
      ESP Fit Center  297 is at   0.194145 -1.579084  3.639890
      ESP Fit Center  298 is at  -1.592221 -2.159510  3.639890
      ESP Fit Center  299 is at   0.430633 -0.552054  2.799890
      ESP Fit Center  300 is at   0.734985 -4.649038  1.789609
      ESP Fit Center  301 is at  -0.753429 -4.099372  4.407996
      ESP Fit Center  302 is at   0.234050 -4.099372  4.087145
      ESP Fit Center  303 is at  -0.448281 -3.160223  4.087145
      ESP Fit Center  304 is at  -1.552316 -3.518946  4.087145
      ESP Fit Center  305 is at  -1.552316 -4.679798  4.087145
      ESP Fit Center  306 is at  -0.448281 -5.038521  4.087145
      ESP Fit Center  307 is at   0.844346 -4.099372  3.247145
      ESP Fit Center  308 is at  -1.552316 -5.483086  3.247145
      ESP Fit Center  309 is at  -0.475978 -5.672873  3.247145
      ESP Fit Center  310 is at   0.470538 -5.126402  3.247145
      ESP Fit Center  311 is at  -0.475978 -5.672873  2.208847
      ESP Fit Center  312 is at   0.470538 -5.126402  2.208847
      ESP Fit Center  313 is at  -1.664886 -5.769080  1.517923
      ESP Fit Center  314 is at  -0.588548 -5.958867  1.517923
      ESP Fit Center  315 is at   0.357968 -5.412396  1.517923
      ESP Fit Center  316 is at   0.731776 -4.385366  0.479625
      ESP Fit Center  317 is at  -0.588548 -5.958867  0.479625
      ESP Fit Center  318 is at   0.357968 -5.412396  0.479625
      ESP Fit Center  319 is at   0.121480 -4.385366 -0.360375
      ESP Fit Center  320 is at  -0.560851 -5.324515 -0.360375
      ESP Fit Center  321 is at  -0.865999 -4.385366 -0.681226
      ESP Fit Center  322 is at  -2.955031 -3.627650  4.441840
      ESP Fit Center  323 is at  -1.892016 -3.627650  4.199214
      ESP Fit Center  324 is at  -2.423523 -2.707052  4.199214
      ESP Fit Center  325 is at  -3.486539 -2.707052  4.199214
      ESP Fit Center  326 is at  -4.018046 -3.627650  4.199214
      ESP Fit Center  327 is at  -3.486539 -4.548248  4.199214
      ESP Fit Center  328 is at  -2.423523 -4.548248  4.199214
      ESP Fit Center  329 is at  -2.159309 -1.885262  3.519390
      ESP Fit Center  330 is at  -4.209408 -2.180021  3.519390
      ESP Fit Center  331 is at  -4.792927 -3.087995  3.519390
      ESP Fit Center  332 is at  -4.792927 -4.167305  3.519390
      ESP Fit Center  333 is at  -4.209408 -5.075279  3.519390
      ESP Fit Center  334 is at  -3.227633 -5.523640  3.519390
      ESP Fit Center  335 is at  -2.159309 -5.370038  3.519390
      ESP Fit Center  336 is at  -4.444282 -1.760188  2.537016
      ESP Fit Center  337 is at  -5.107061 -2.591287  2.537016
      ESP Fit Center  338 is at  -5.343604 -3.627650  2.537016
      ESP Fit Center  339 is at  -5.107061 -4.664013  2.537016
      ESP Fit Center  340 is at  -4.444282 -5.495112  2.537016
      ESP Fit Center  341 is at  -3.486539 -5.956337  2.537016
      ESP Fit Center  342 is at  -2.423523 -5.956337  2.537016
      ESP Fit Center  343 is at  -4.444282 -1.760188  1.446664
      ESP Fit Center  344 is at  -3.227633 -1.731660  0.464290
      ESP Fit Center  345 is at  -4.327853 -1.963104  0.284480
      ESP Fit Center  346 is at  -3.882845 -1.866867 -0.932349
      ESP Fit Center  347 is at  -2.096479 -3.250581 -1.772349
      ESP Fit Center  348 is at  -2.778810 -2.311432 -1.772349
      ESP Fit Center  349 is at  -3.882845 -2.670155 -1.772349
      ESP Fit Center  350 is at  -3.083958 -3.250581 -2.093200
      ESP Fit Center  351 is at  -5.433991 -3.046735  1.693956
      ESP Fit Center  352 is at  -5.433991 -4.207587  1.693956
      ESP Fit Center  353 is at  -5.433991 -2.243447  0.853956
      ESP Fit Center  354 is at  -6.136521 -3.080690  0.853956
      ESP Fit Center  355 is at  -6.136521 -4.173632  0.853956
      ESP Fit Center  356 is at  -5.433991 -5.010875  0.853956
      ESP Fit Center  357 is at  -5.433991 -2.243447 -0.184342
      ESP Fit Center  358 is at  -6.136521 -3.080690 -0.184342
      ESP Fit Center  359 is at  -5.433991 -3.046735 -1.024342
      ESP Fit Center  360 is at  -3.205035 -7.468746 -0.160795
      ESP Fit Center  361 is at  -1.928213 -4.400819 -1.210795
      ESP Fit Center  362 is at  -2.101203 -6.618244  1.129497
      ESP Fit Center  363 is at  -2.128900 -7.252596  0.289497
      ESP Fit Center  364 is at  -1.182384 -6.706125  0.289497
      ESP Fit Center  365 is at  -0.808576 -5.679095 -0.748801
      ESP Fit Center  366 is at  -1.182384 -4.652065 -0.748801
      ESP Fit Center  367 is at  -2.128900 -7.252596 -0.748801
      ESP Fit Center  368 is at  -1.182384 -6.706125 -0.748801
      ESP Fit Center  369 is at  -1.418872 -5.679095 -1.588801
      ESP Fit Center  370 is at  -3.932399 -6.055112  2.241537
      ESP Fit Center  371 is at  -4.731286 -5.474686  1.920686
      ESP Fit Center  372 is at  -4.731286 -6.635538  1.920686
      ESP Fit Center  373 is at  -3.627251 -6.994261  1.920686
      ESP Fit Center  374 is at  -5.433816 -5.508641  1.080686
      ESP Fit Center  375 is at  -3.654948 -7.628613  1.080686
      ESP Fit Center  376 is at  -2.708432 -7.082142  1.080686
      ESP Fit Center  377 is at  -3.654948 -7.628613  0.042388
      ESP Fit Center  378 is at  -4.405378 -7.593040 -0.317207
      ESP Fit Center  379 is at  -3.601268 -8.025737 -1.299581
      ESP Fit Center  380 is at  -2.643525 -7.564512 -1.299581
      ESP Fit Center  381 is at  -1.744203 -5.697050 -2.389933
      ESP Fit Center  382 is at  -1.980746 -4.660687 -2.389933
      ESP Fit Center  383 is at  -2.643525 -3.829588 -2.389933
      ESP Fit Center  384 is at  -3.601268 -3.368363 -2.389933
      ESP Fit Center  385 is at  -4.664284 -3.368363 -2.389933
      ESP Fit Center  386 is at  -4.664284 -8.025737 -2.389933
      ESP Fit Center  387 is at  -3.601268 -8.025737 -2.389933
      ESP Fit Center  388 is at  -2.643525 -7.564512 -2.389933
      ESP Fit Center  389 is at  -1.980746 -6.733413 -2.389933
      ESP Fit Center  390 is at  -2.217289 -5.697050 -3.372307
      ESP Fit Center  391 is at  -2.521366 -4.661459 -3.372307
      ESP Fit Center  392 is at  -3.337054 -3.954662 -3.372307
      ESP Fit Center  393 is at  -4.405378 -3.801060 -3.372307
      ESP Fit Center  394 is at  -5.387153 -4.249421 -3.372307
      ESP Fit Center  395 is at  -5.387153 -7.144679 -3.372307
      ESP Fit Center  396 is at  -4.405378 -7.593040 -3.372307
      ESP Fit Center  397 is at  -3.337054 -7.439438 -3.372307
      ESP Fit Center  398 is at  -2.521366 -6.732641 -3.372307
      ESP Fit Center  399 is at  -3.069761 -5.697050 -4.052131
      ESP Fit Center  400 is at  -3.601268 -4.776452 -4.052131
      ESP Fit Center  401 is at  -4.664284 -4.776452 -4.052131
      ESP Fit Center  402 is at  -5.195791 -5.697050 -4.052131
      ESP Fit Center  403 is at  -4.664284 -6.617648 -4.052131
      ESP Fit Center  404 is at  -3.601268 -6.617648 -4.052131
      ESP Fit Center  405 is at  -4.132776 -5.697050 -4.294757
      ESP Fit Center  406 is at  -7.986690 -5.180220 -1.536048
      ESP Fit Center  407 is at  -6.206533 -3.882641 -2.586048
      ESP Fit Center  408 is at  -6.220398 -4.752435  0.654045
      ESP Fit Center  409 is at  -7.019285 -4.172009  0.333194
      ESP Fit Center  410 is at  -7.019285 -3.368721 -0.506806
      ESP Fit Center  411 is at  -7.721815 -4.205964 -0.506806
      ESP Fit Center  412 is at  -5.942947 -3.178934 -1.545104
      ESP Fit Center  413 is at  -7.019285 -3.368721 -1.545104
      ESP Fit Center  414 is at  -7.721815 -4.205964 -1.545104
      ESP Fit Center  415 is at  -6.107646 -4.056629 -3.057924
      ESP Fit Center  416 is at  -7.183984 -4.246416 -3.057924
      ESP Fit Center  417 is at  -7.886514 -5.083659 -3.057924
      ESP Fit Center  418 is at  -7.886514 -6.176601 -3.057924
      ESP Fit Center  419 is at  -7.183984 -7.013844 -3.057924
      ESP Fit Center  420 is at  -6.107646 -7.203631 -3.057924
      ESP Fit Center  421 is at  -6.079949 -4.690981 -3.897924
      ESP Fit Center  422 is at  -7.183984 -5.049704 -3.897924
      ESP Fit Center  423 is at  -7.183984 -6.210556 -3.897924
      ESP Fit Center  424 is at  -6.079949 -6.569279 -3.897924
      ESP Fit Center  425 is at  -6.385097 -5.630130 -4.218775
      ESP Fit Center  426 is at  -7.529677 -6.902033  1.034785
      ESP Fit Center  427 is at  -7.670642 -8.276479  0.266132
      ESP Fit Center  428 is at  -6.738498 -8.702175  0.266132
      ESP Fit Center  429 is at  -4.620219 -7.877952 -0.783868
      ESP Fit Center  430 is at  -7.529677 -6.902033 -2.602521
      ESP Fit Center  431 is at  -6.051678 -6.977099  1.901571
      ESP Fit Center  432 is at  -5.064199 -6.977099  1.580720
      ESP Fit Center  433 is at  -5.746530 -6.037950  1.580720
      ESP Fit Center  434 is at  -6.850565 -6.396673  1.580720
      ESP Fit Center  435 is at  -6.850565 -7.557525  1.580720
      ESP Fit Center  436 is at  -5.746530 -7.916248  1.580720
      ESP Fit Center  437 is at  -5.774227 -5.403598  0.740720
      ESP Fit Center  438 is at  -6.850565 -8.360813  0.740720
      ESP Fit Center  439 is at  -5.774227 -8.550600  0.740720
      ESP Fit Center  440 is at  -4.827711 -8.004129  0.740720
      ESP Fit Center  441 is at  -8.368426 -6.253662  0.684991
      ESP Fit Center  442 is at  -8.368426 -7.414514  0.684991
      ESP Fit Center  443 is at  -8.368426 -5.450374 -0.155009
      ESP Fit Center  444 is at  -9.070956 -6.287617 -0.155009
      ESP Fit Center  445 is at  -9.070956 -7.380559 -0.155009
      ESP Fit Center  446 is at  -8.368426 -8.217802 -0.155009
      ESP Fit Center  447 is at  -8.368426 -5.450374 -1.193307
      ESP Fit Center  448 is at  -9.070956 -6.287617 -1.193307
      ESP Fit Center  449 is at  -9.070956 -7.380559 -1.193307
      ESP Fit Center  450 is at  -8.368426 -8.217802 -1.193307
      ESP Fit Center  451 is at  -8.368426 -6.253662 -2.033307
      ESP Fit Center  452 is at  -8.368426 -7.414514 -2.033307
      ESP Fit Center  453 is at  -5.938573 -8.765466  0.038881
      ESP Fit Center  454 is at  -7.042608 -9.210031 -0.801119
      ESP Fit Center  455 is at  -5.966270 -9.399818 -0.801119
      ESP Fit Center  456 is at  -5.019754 -8.853347 -0.801119
      ESP Fit Center  457 is at  -7.745138 -8.372788 -1.839417
      ESP Fit Center  458 is at  -7.042608 -9.210031 -1.839417
      ESP Fit Center  459 is at  -5.966270 -9.399818 -1.839417
      ESP Fit Center  460 is at  -5.019754 -8.853347 -1.839417
      ESP Fit Center  461 is at  -5.256242 -7.826317 -2.679417
      ESP Fit Center  462 is at  -7.042608 -8.406743 -2.679417
      ESP Fit Center  463 is at  -5.938573 -8.765466 -2.679417
      ESP Fit Center  464 is at  -6.243721 -7.826317 -3.000268
      ESP Fit Center  465 is at  -4.705810 -0.070035  6.682401
      ESP Fit Center  466 is at  -4.185149 -0.971845  6.682401
      ESP Fit Center  467 is at  -1.788093 -0.070035  6.016452
      ESP Fit Center  468 is at  -5.464877  0.458607  6.016452
      ESP Fit Center  469 is at  -4.893267 -1.488120  6.016452
      ESP Fit Center  470 is at  -5.123347  1.759315  3.986026
      ESP Fit Center  471 is at  -3.572338  0.722562  7.191258
      ESP Fit Center  472 is at  -2.612338  0.722562  6.934027
      ESP Fit Center  473 is at  -3.092338  1.553946  6.934027
      ESP Fit Center  474 is at  -4.052338  1.553946  6.934027
      ESP Fit Center  475 is at  -4.532338  0.722562  6.934027
      ESP Fit Center  476 is at  -4.052338 -0.108822  6.934027
      ESP Fit Center  477 is at  -3.092338 -0.108822  6.934027
      ESP Fit Center  478 is at  -3.058514  2.303949  6.231258
      ESP Fit Center  479 is at  -4.086162  2.303949  6.231258
      ESP Fit Center  480 is at  -4.917546  1.699913  6.231258
      ESP Fit Center  481 is at  -5.235107  0.722562  6.231258
      ESP Fit Center  482 is at  -3.572338  2.642562  5.271258
      ESP Fit Center  483 is at  -4.532338  2.385331  5.271258
      ESP Fit Center  484 is at  -5.235107  1.682562  5.271258
      ESP Fit Center  485 is at  -5.689486 -0.308030  6.079647
      ESP Fit Center  486 is at  -5.209486 -1.139414  6.079647
      ESP Fit Center  487 is at  -6.074694  0.669321  5.376878
      ESP Fit Center  488 is at  -6.392255 -0.308030  5.376878
      ESP Fit Center  489 is at  -6.074694 -1.285381  5.376878
      ESP Fit Center  490 is at  -5.243310 -1.889417  5.376878
      ESP Fit Center  491 is at  -5.689486  1.354739  4.416878
      ESP Fit Center  492 is at  -6.392255  0.651970  4.416878
      ESP Fit Center  493 is at  -6.649486 -0.308030  4.416878
      ESP Fit Center  494 is at  -6.392255 -1.268030  4.416878
      ESP Fit Center  495 is at  -5.689486 -1.970799  4.416878
      ESP Fit Center  496 is at  -4.729486 -2.228030  4.416878
      ESP Fit Center  497 is at  -6.074694  0.669321  3.456878
      ESP Fit Center  498 is at  -6.392255 -0.308030  3.456878
      ESP Fit Center  499 is at  -6.074694 -1.285381  3.456878
      ESP Fit Center  500 is at  -5.243310 -1.889417  3.456878
      ESP Fit Center  501 is at  -5.689486 -0.308030  2.754109
      ESP Fit Center  502 is at  -5.209486 -1.139414  2.754109
      ESP Fit Center  503 is at  -3.151257 -0.962696  6.813103
      ESP Fit Center  504 is at  -2.191257 -0.962696  6.555872
      ESP Fit Center  505 is at  -3.631257 -1.794080  6.555872
      ESP Fit Center  506 is at  -2.671257 -1.794080  6.555872
      ESP Fit Center  507 is at  -1.488488 -0.962696  5.853103
      ESP Fit Center  508 is at  -4.496465 -1.940047  5.853103
      ESP Fit Center  509 is at  -3.665081 -2.544083  5.853103
      ESP Fit Center  510 is at  -2.637433 -2.544083  5.853103
      ESP Fit Center  511 is at  -1.806049 -1.940047  5.853103
      ESP Fit Center  512 is at  -1.231257 -0.962696  4.893103
      ESP Fit Center  513 is at  -4.111257 -2.625465  4.893103
      ESP Fit Center  514 is at  -3.151257 -2.882696  4.893103
      ESP Fit Center  515 is at  -2.191257 -2.625465  4.893103
      ESP Fit Center  516 is at  -1.488488 -1.922696  4.893103
      ESP Fit Center  517 is at  -1.806049 -1.940047  3.933103
      ESP Fit Center  518 is at  -5.432590  0.346326  2.632848
      ESP Fit Center  519 is at  -2.572103  1.248136  1.004573
      ESP Fit Center  520 is at  -4.899943 -1.416331  2.438589
      ESP Fit Center  521 is at  -4.899943 -0.456331  1.478589
      ESP Fit Center  522 is at  -2.757174  0.375053  0.775820
      ESP Fit Center  523 is at  -3.717174  0.375053  0.775820
      ESP Fit Center  524 is at  -4.197174 -0.456331  0.775820
      ESP Fit Center  525 is at  -3.237174 -0.456331  0.518589
      ESP Fit Center  526 is at  -4.117991  2.828478  3.751120
      ESP Fit Center  527 is at  -4.949375  2.224442  3.751120
      ESP Fit Center  528 is at  -3.604167  3.167091  2.791120
      ESP Fit Center  529 is at  -4.564167  2.909860  2.791120
      ESP Fit Center  530 is at  -5.266936  2.207091  2.791120
      ESP Fit Center  531 is at  -5.524167  1.247091  2.791120
      ESP Fit Center  532 is at  -3.090343  2.828478  1.831120
      ESP Fit Center  533 is at  -4.117991  2.828478  1.831120
      ESP Fit Center  534 is at  -4.949375  2.224442  1.831120
      ESP Fit Center  535 is at  -5.266936  1.247091  1.831120
      ESP Fit Center  536 is at  -3.124167  2.078475  1.128351
      ESP Fit Center  537 is at  -4.084167  2.078475  1.128351
      ESP Fit Center  538 is at  -4.564167  1.247091  1.128351
      ESP Fit Center  539 is at  -3.604167  1.247091  0.871120
      ESP Fit Center  540 is at  -1.197993 -0.265024  5.206292
      ESP Fit Center  541 is at  -1.142761 -1.088922  4.584739
      ESP Fit Center  542 is at  -0.267109 -0.452724  4.584739
      ESP Fit Center  543 is at  -2.169893  1.418356  1.169952
      ESP Fit Center  544 is at  -1.554145  3.616816  5.352700
      ESP Fit Center  545 is at  -2.515884  3.177604  5.352700
      ESP Fit Center  546 is at  -1.346111  1.641111  6.870263
      ESP Fit Center  547 is at  -0.386111  1.641111  6.613032
      ESP Fit Center  548 is at  -0.866111  2.472495  6.613032
      ESP Fit Center  549 is at  -1.826111  2.472495  6.613032
      ESP Fit Center  550 is at  -2.306111  1.641111  6.613032
      ESP Fit Center  551 is at  -1.826111  0.809727  6.613032
      ESP Fit Center  552 is at  -0.866111  0.809727  6.613032
      ESP Fit Center  553 is at   0.316658  1.641111  5.910263
      ESP Fit Center  554 is at  -0.832287  3.222498  5.910263
      ESP Fit Center  555 is at  -1.859935  3.222498  5.910263
      ESP Fit Center  556 is at  -2.691319  2.618462  5.910263
      ESP Fit Center  557 is at  -0.832287  0.059724  5.910263
      ESP Fit Center  558 is at  -0.000903  0.663760  5.910263
      ESP Fit Center  559 is at  -2.417467  3.432389  5.232791
      ESP Fit Center  560 is at  -1.423643  4.182392  4.530022
      ESP Fit Center  561 is at  -2.451291  4.182392  4.530022
      ESP Fit Center  562 is at  -3.282675  3.578356  4.530022
      ESP Fit Center  563 is at  -3.600236  2.601005  4.530022
      ESP Fit Center  564 is at  -0.977467  4.263774  3.570022
      ESP Fit Center  565 is at  -1.937467  4.521005  3.570022
      ESP Fit Center  566 is at  -2.897467  4.263774  3.570022
      ESP Fit Center  567 is at  -3.600236  3.561005  3.570022
      ESP Fit Center  568 is at  -1.423643  4.182392  2.610022
      ESP Fit Center  569 is at  -2.451291  4.182392  2.610022
      ESP Fit Center  570 is at  -3.282675  3.578356  2.610022
      ESP Fit Center  571 is at  -2.417467  3.432389  1.907253
      ESP Fit Center  572 is at   0.664609  1.191171  5.642952
      ESP Fit Center  573 is at   2.483776  2.092981  4.014677
      ESP Fit Center  574 is at   0.511302  2.892518  6.066714
      ESP Fit Center  575 is at   1.471302  2.892518  5.809483
      ESP Fit Center  576 is at   0.991302  3.723902  5.809483
      ESP Fit Center  577 is at   0.031302  3.723902  5.809483
      ESP Fit Center  578 is at   0.991302  2.061134  5.809483
      ESP Fit Center  579 is at   2.174071  2.892518  5.106714
      ESP Fit Center  580 is at   1.856510  3.869869  5.106714
      ESP Fit Center  581 is at   1.025126  4.473905  5.106714
      ESP Fit Center  582 is at  -0.002522  4.473905  5.106714
      ESP Fit Center  583 is at  -0.833906  3.869869  5.106714
      ESP Fit Center  584 is at   1.471302  4.555287  4.146714
      ESP Fit Center  585 is at   0.511302  4.812518  4.146714
      ESP Fit Center  586 is at  -0.448698  4.555287  4.146714
      ESP Fit Center  587 is at   1.737454  1.206665  5.303862
      ESP Fit Center  588 is at   0.297454  0.375281  5.303862
      ESP Fit Center  589 is at   1.257454  0.375281  5.303862
      ESP Fit Center  590 is at   2.440223  1.206665  4.601093
      ESP Fit Center  591 is at   0.263630 -0.374722  4.601093
      ESP Fit Center  592 is at   1.291278 -0.374722  4.601093
      ESP Fit Center  593 is at   2.122662  0.229314  4.601093
      ESP Fit Center  594 is at   0.777454 -0.713335  3.641093
      ESP Fit Center  595 is at   1.737454 -0.456104  3.641093
      ESP Fit Center  596 is at   1.291278 -0.374722  2.681093
      ESP Fit Center  597 is at  -0.598718  4.568261  2.631271
      ESP Fit Center  598 is at  -0.598718  4.568261  1.634377
      ESP Fit Center  599 is at  -1.458945  3.974490  1.634377
      ESP Fit Center  600 is at  -1.944698  3.048964  1.634377
      ESP Fit Center  601 is at  -1.241152  3.555727  0.736207
      ESP Fit Center  602 is at  -1.575621  2.526337  0.736207
      ESP Fit Center  603 is at  -0.796218  2.526337  0.114654
      ESP Fit Center  604 is at   0.921627  5.267763  2.222015
      ESP Fit Center  605 is at  -0.016571  4.815950  2.222015
      ESP Fit Center  606 is at   2.901145  4.815950  1.153915
      ESP Fit Center  607 is at   3.020811  4.001056  0.191589
      ESP Fit Center  608 is at   2.882459  3.596414  4.135491
      ESP Fit Center  609 is at   2.402459  4.427798  4.135491
      ESP Fit Center  610 is at   3.585228  3.596414  3.432722
      ESP Fit Center  611 is at   3.267667  4.573765  3.432722
      ESP Fit Center  612 is at   2.436283  5.177801  3.432722
      ESP Fit Center  613 is at   1.408635  5.177801  3.432722
      ESP Fit Center  614 is at   3.267667  2.619063  3.432722
      ESP Fit Center  615 is at   3.585228  4.556414  2.472722
      ESP Fit Center  616 is at   2.882459  5.259183  2.472722
      ESP Fit Center  617 is at   1.922459  5.516414  2.472722
      ESP Fit Center  618 is at   0.962459  5.259183  2.472722
      ESP Fit Center  619 is at   3.267667  4.573765  1.512722
      ESP Fit Center  620 is at   2.436283  5.177801  1.512722
      ESP Fit Center  621 is at   2.203501  5.297201  0.827956
      ESP Fit Center  622 is at   1.243501  5.554432  0.827956
      ESP Fit Center  623 is at   0.283501  5.297201  0.827956
      ESP Fit Center  624 is at  -0.419268  4.594432  0.827956
      ESP Fit Center  625 is at   2.588709  4.611783 -0.132044
      ESP Fit Center  626 is at   1.757325  5.215819 -0.132044
      ESP Fit Center  627 is at   0.729677  5.215819 -0.132044
      ESP Fit Center  628 is at  -0.101707  4.611783 -0.132044
      ESP Fit Center  629 is at  -0.419268  3.634432 -0.132044
      ESP Fit Center  630 is at  -0.101707  2.657081 -0.132044
      ESP Fit Center  631 is at   2.203501  3.634432 -0.834813
      ESP Fit Center  632 is at   1.723501  4.465816 -0.834813
      ESP Fit Center  633 is at   0.763501  4.465816 -0.834813
      ESP Fit Center  634 is at   0.283501  3.634432 -0.834813
      ESP Fit Center  635 is at   1.243501  3.634432 -1.092044
      ESP Fit Center  636 is at   4.522138  0.874549  1.783945
      ESP Fit Center  637 is at   3.872885  0.060412  0.715845
      ESP Fit Center  638 is at   3.463744  1.115488  3.689462
      ESP Fit Center  639 is at   2.983744  1.946872  3.689462
      ESP Fit Center  640 is at   2.983744  0.284104  3.689462
      ESP Fit Center  641 is at   4.166513  1.115488  2.986693
      ESP Fit Center  642 is at   1.989920 -0.465899  2.986693
      ESP Fit Center  643 is at   3.017568 -0.465899  2.986693
      ESP Fit Center  644 is at   3.848952  0.138137  2.986693
      ESP Fit Center  645 is at   3.463744 -0.547281  2.026693
      ESP Fit Center  646 is at   4.166513  0.155488  2.026693
      ESP Fit Center  647 is at   4.365291  2.352272  2.797325
      ESP Fit Center  648 is at   3.885291  3.183656  2.797325
      ESP Fit Center  649 is at   5.068060  2.352272  2.094556
      ESP Fit Center  650 is at   4.750499  3.329623  2.094556
      ESP Fit Center  651 is at   3.919115  3.933659  2.094556
      ESP Fit Center  652 is at   4.750499  1.374921  2.094556
      ESP Fit Center  653 is at   5.325291  2.352272  1.134556
      ESP Fit Center  654 is at   5.068060  3.312272  1.134556
      ESP Fit Center  655 is at   4.365291  4.015041  1.134556
      ESP Fit Center  656 is at   3.405291  4.272272  1.134556
      ESP Fit Center  657 is at   5.068060  1.392272  1.134556
      ESP Fit Center  658 is at   5.068060  2.352272  0.174556
      ESP Fit Center  659 is at   4.750499  3.329623  0.174556
      ESP Fit Center  660 is at   3.919115  3.933659  0.174556
      ESP Fit Center  661 is at   4.750499  1.374921  0.174556
      ESP Fit Center  662 is at   4.365291  2.352272 -0.528213
      ESP Fit Center  663 is at   3.885291  3.183656 -0.528213
      ESP Fit Center  664 is at   4.260084  1.313950 -0.498447
      ESP Fit Center  665 is at   4.009938  0.299070 -0.498447
      ESP Fit Center  666 is at   3.827548  1.313950 -1.396617
      ESP Fit Center  667 is at   3.493079  2.343340 -1.396617
      ESP Fit Center  668 is at   2.617427  2.979538 -1.396617
      ESP Fit Center  669 is at   1.535063  2.979538 -1.396617
      ESP Fit Center  670 is at   0.659411  2.343340 -1.396617
      ESP Fit Center  671 is at   3.048145  1.313950 -2.018170
      ESP Fit Center  672 is at   2.562195  2.155640 -2.018170
      ESP Fit Center  673 is at   1.590295  2.155640 -2.018170
      ESP Fit Center  674 is at   1.104345  1.313950 -2.018170
      ESP Fit Center  675 is at   2.076245  1.313950 -2.240000
      ESP Fit Center  676 is at   3.870828  0.000000  0.534050
      ESP Fit Center  677 is at   3.870828  0.000000 -0.534050
      ESP Fit Center  678 is at   1.919112 -0.570620  2.776890
      ESP Fit Center  679 is at   0.959112 -0.570620  2.519659
      ESP Fit Center  680 is at   2.399112 -1.402004  2.519659
      ESP Fit Center  681 is at   3.581881 -0.570620  1.816890
      ESP Fit Center  682 is at   3.264320 -1.547971  1.816890
      ESP Fit Center  683 is at   3.839112 -0.570620  0.856890
      ESP Fit Center  684 is at   2.879112 -2.233389  0.856890
      ESP Fit Center  685 is at   3.581881 -1.530620  0.856890
      ESP Fit Center  686 is at   3.815125 -0.486392 -0.911539
      ESP Fit Center  687 is at   1.895125 -2.406392 -0.911539
      ESP Fit Center  688 is at   2.855125 -2.149161 -0.911539
      ESP Fit Center  689 is at   3.557894 -1.446392 -0.911539
      ESP Fit Center  690 is at   3.557894 -0.486392 -1.871539
      ESP Fit Center  691 is at   3.240333  0.490959 -1.871539
      ESP Fit Center  692 is at   2.408949 -2.067779 -1.871539
      ESP Fit Center  693 is at   3.240333 -1.463743 -1.871539
      ESP Fit Center  694 is at   2.855125 -0.486392 -2.574308
      ESP Fit Center  695 is at   2.375125  0.344992 -2.574308
      ESP Fit Center  696 is at   1.415125  0.344992 -2.574308
      ESP Fit Center  697 is at   0.935125 -0.486392 -2.574308
      ESP Fit Center  698 is at   1.415125 -1.317776 -2.574308
      ESP Fit Center  699 is at   2.375125 -1.317776 -2.574308
      ESP Fit Center  700 is at   1.895125 -0.486392 -2.831539
      ESP Fit Center  701 is at  -0.361481  2.462313 -0.879707
      ESP Fit Center  702 is at  -1.321481  2.205082 -0.879707
      ESP Fit Center  703 is at  -2.024250  1.502313 -0.879707
      ESP Fit Center  704 is at  -2.281481  0.542313 -0.879707
      ESP Fit Center  705 is at   0.152343  2.123700 -1.839707
      ESP Fit Center  706 is at  -0.875305  2.123700 -1.839707
      ESP Fit Center  707 is at  -1.706689  1.519664 -1.839707
      ESP Fit Center  708 is at  -2.024250  0.542313 -1.839707
      ESP Fit Center  709 is at   0.598519  0.542313 -2.542476
      ESP Fit Center  710 is at   0.118519  1.373697 -2.542476
      ESP Fit Center  711 is at  -0.841481  1.373697 -2.542476
      ESP Fit Center  712 is at  -1.321481  0.542313 -2.542476
      ESP Fit Center  713 is at   0.118519 -0.289071 -2.542476
      ESP Fit Center  714 is at  -0.361481  0.542313 -2.799707
      ESP Fit Center  715 is at  -2.068874  1.454724  0.885535
      ESP Fit Center  716 is at  -2.326105  0.494724  0.885535
      ESP Fit Center  717 is at  -2.394746  0.545152 -0.141175
      ESP Fit Center  718 is at  -3.087977 -0.215286 -0.141175
      ESP Fit Center  719 is at  -3.459694 -1.174797 -0.141175
      ESP Fit Center  720 is at   1.361856 -3.575644 -0.141175
      ESP Fit Center  721 is at   1.903553 -2.700773 -0.141175
      ESP Fit Center  722 is at  -2.800185 -0.168776 -1.212689
      ESP Fit Center  723 is at  -3.237703 -1.151457 -1.212689
      ESP Fit Center  724 is at  -0.977770 -4.261988 -1.212689
      ESP Fit Center  725 is at   0.092016 -4.149549 -1.212689
      ESP Fit Center  726 is at   1.023580 -3.611710 -1.212689
      ESP Fit Center  727 is at   1.655848 -2.741468 -1.212689
      ESP Fit Center  728 is at  -2.422012 -0.699347 -2.121074
      ESP Fit Center  729 is at  -2.687268 -1.689296 -2.121074
      ESP Fit Center  730 is at  -1.697318 -3.403939 -2.121074
      ESP Fit Center  731 is at  -0.707369 -3.669195 -2.121074
      ESP Fit Center  732 is at   0.282580 -3.403939 -2.121074
      ESP Fit Center  733 is at   1.007274 -2.679245 -2.121074
      ESP Fit Center  734 is at   0.364145 -1.689296 -2.728038
      ESP Fit Center  735 is at  -0.171612 -0.761338 -2.728038
      ESP Fit Center  736 is at  -1.243126 -0.761338 -2.728038
      ESP Fit Center  737 is at  -1.778883 -1.689296 -2.728038
      ESP Fit Center  738 is at  -1.243126 -2.617254 -2.728038
      ESP Fit Center  739 is at  -0.171612 -2.617254 -2.728038
      ESP Fit Center  740 is at  -0.707369 -1.689296 -2.941175
      ESP Fit Center  741 is at   0.609041 -2.324826  3.728483
      ESP Fit Center  742 is at   1.603324 -2.467553  3.391070
      ESP Fit Center  743 is at   1.123324 -1.636169  3.391070
      ESP Fit Center  744 is at   1.123324 -3.298937  3.391070
      ESP Fit Center  745 is at   2.306093 -2.467553  2.688301
      ESP Fit Center  746 is at   1.988532 -1.490202  2.688301
      ESP Fit Center  747 is at   1.157148 -0.886166  2.688301
      ESP Fit Center  748 is at   1.988532 -3.444904  2.688301
      ESP Fit Center  749 is at   2.563324 -2.467553  1.728301
      ESP Fit Center  750 is at   1.603324 -4.130322  1.728301
      ESP Fit Center  751 is at   2.306093 -3.427553  1.728301
      ESP Fit Center  752 is at   2.306093 -2.467553  0.768301
      ESP Fit Center  753 is at   1.157148 -4.048940  0.768301
      ESP Fit Center  754 is at   1.988532 -3.444904  0.768301
      ESP Fit Center  755 is at  -0.793334 -1.579084  4.200741
      ESP Fit Center  756 is at   0.166666 -1.579084  3.943510
      ESP Fit Center  757 is at  -1.273334 -2.410468  3.943510
      ESP Fit Center  758 is at  -0.753429 -4.099372  4.647996
      ESP Fit Center  759 is at   0.206571 -4.099372  4.390765
      ESP Fit Center  760 is at  -0.273429 -3.267988  4.390765
      ESP Fit Center  761 is at  -1.233429 -3.267988  4.390765
      ESP Fit Center  762 is at  -1.233429 -4.930756  4.390765
      ESP Fit Center  763 is at  -0.273429 -4.930756  4.390765
      ESP Fit Center  764 is at   0.909340 -4.099372  3.687996
      ESP Fit Center  765 is at   0.591779 -3.122021  3.687996
      ESP Fit Center  766 is at  -1.267253 -5.680759  3.687996
      ESP Fit Center  767 is at  -0.239605 -5.680759  3.687996
      ESP Fit Center  768 is at   0.591779 -5.076723  3.687996
      ESP Fit Center  769 is at   1.166571 -4.099372  2.727996
      ESP Fit Center  770 is at  -0.753429 -6.019372  2.727996
      ESP Fit Center  771 is at   0.206571 -5.762141  2.727996
      ESP Fit Center  772 is at   0.909340 -5.059372  2.727996
      ESP Fit Center  773 is at  -0.352175 -5.966753  1.958774
      ESP Fit Center  774 is at   1.054001 -4.385366  0.998774
      ESP Fit Center  775 is at  -0.865999 -6.305366  0.998774
      ESP Fit Center  776 is at   0.094001 -6.048135  0.998774
      ESP Fit Center  777 is at   0.796770 -5.345366  0.998774
      ESP Fit Center  778 is at   0.796770 -4.385366  0.038774
      ESP Fit Center  779 is at  -0.352175 -5.966753  0.038774
      ESP Fit Center  780 is at   0.479209 -5.362717  0.038774
      ESP Fit Center  781 is at   0.094001 -4.385366 -0.663995
      ESP Fit Center  782 is at  -0.385999 -5.216750 -0.663995
      ESP Fit Center  783 is at  -0.865999 -4.385366 -0.921226
      ESP Fit Center  784 is at  -2.955031 -3.627650  4.791840
      ESP Fit Center  785 is at  -1.883517 -3.627650  4.578703
      ESP Fit Center  786 is at  -4.026545 -3.627650  4.578703
      ESP Fit Center  787 is at  -3.490788 -4.555608  4.578703
      ESP Fit Center  788 is at  -2.419274 -4.555608  4.578703
      ESP Fit Center  789 is at  -1.240388 -2.637701  3.971739
      ESP Fit Center  790 is at  -4.669674 -2.637701  3.971739
      ESP Fit Center  791 is at  -4.934930 -3.627650  3.971739
      ESP Fit Center  792 is at  -4.669674 -4.617599  3.971739
      ESP Fit Center  793 is at  -3.944980 -5.342293  3.971739
      ESP Fit Center  794 is at  -2.955031 -5.607549  3.971739
      ESP Fit Center  795 is at  -1.965082 -5.342293  3.971739
      ESP Fit Center  796 is at  -5.047847 -2.107130  3.063354
      ESP Fit Center  797 is at  -5.485365 -3.089811  3.063354
      ESP Fit Center  798 is at  -5.485365 -4.165489  3.063354
      ESP Fit Center  799 is at  -5.047847 -5.148170  3.063354
      ESP Fit Center  800 is at  -4.248462 -5.867939  3.063354
      ESP Fit Center  801 is at  -3.225432 -6.200342  3.063354
      ESP Fit Center  802 is at  -2.155646 -6.087903  3.063354
      ESP Fit Center  803 is at  -5.335639 -2.153640  1.991840
      ESP Fit Center  804 is at  -5.707356 -3.113151  1.991840
      ESP Fit Center  805 is at  -5.707356 -4.142149  1.991840
      ESP Fit Center  806 is at  -5.335639 -5.101660  1.991840
      ESP Fit Center  807 is at  -2.696680 -6.415706  1.991840
      ESP Fit Center  808 is at  -1.706964 -6.134107  1.991840
      ESP Fit Center  809 is at  -4.248462 -1.387361  0.920326
      ESP Fit Center  810 is at  -4.043958 -1.587812 -0.413200
      ESP Fit Center  811 is at  -3.597782 -1.669194 -1.373200
      ESP Fit Center  812 is at  -4.429166 -2.273230 -1.373200
      ESP Fit Center  813 is at  -1.738750 -4.227932 -1.373200
      ESP Fit Center  814 is at  -2.123958 -3.250581 -2.075969
      ESP Fit Center  815 is at  -2.603958 -2.419197 -2.075969
      ESP Fit Center  816 is at  -3.563958 -2.419197 -2.075969
      ESP Fit Center  817 is at  -5.980312 -2.649810  1.294807
      ESP Fit Center  818 is at  -6.297873 -3.627161  1.294807
      ESP Fit Center  819 is at  -5.980312 -4.604512  1.294807
      ESP Fit Center  820 is at  -4.635104 -1.707161  0.334807
      ESP Fit Center  821 is at  -5.595104 -1.964392  0.334807
      ESP Fit Center  822 is at  -6.297873 -2.667161  0.334807
      ESP Fit Center  823 is at  -5.148928 -2.045774 -0.625193
      ESP Fit Center  824 is at  -5.980312 -2.649810 -0.625193
      ESP Fit Center  825 is at  -5.115104 -2.795777 -1.327962
      ESP Fit Center  826 is at  -1.926351 -6.510479  1.433117
      ESP Fit Center  827 is at  -1.892527 -7.260482  0.730348
      ESP Fit Center  828 is at  -1.061143 -6.656446  0.730348
      ESP Fit Center  829 is at  -2.406351 -7.599095 -0.229652
      ESP Fit Center  830 is at  -1.446351 -7.341864 -0.229652
      ESP Fit Center  831 is at  -0.743582 -6.639095 -0.229652
      ESP Fit Center  832 is at  -0.743582 -5.679095 -1.189652
      ESP Fit Center  833 is at  -1.061143 -4.701744 -1.189652
      ESP Fit Center  834 is at  -1.892527 -7.260482 -1.189652
      ESP Fit Center  835 is at  -1.061143 -6.656446 -1.189652
      ESP Fit Center  836 is at  -4.892399 -6.055112  2.224306
      ESP Fit Center  837 is at  -4.412399 -6.886496  2.224306
      ESP Fit Center  838 is at  -3.452399 -6.886496  2.224306
      ESP Fit Center  839 is at  -4.446223 -7.636499  1.521537
      ESP Fit Center  840 is at  -3.418575 -7.636499  1.521537
      ESP Fit Center  841 is at  -2.587191 -7.032463  1.521537
      ESP Fit Center  842 is at  -3.932399 -7.975112  0.561537
      ESP Fit Center  843 is at  -2.972399 -7.717881  0.561537
      ESP Fit Center  844 is at  -4.403177 -8.269742 -0.773243
      ESP Fit Center  845 is at  -3.333391 -8.157303 -0.773243
      ESP Fit Center  846 is at  -2.401827 -7.619464 -0.773243
      ESP Fit Center  847 is at  -1.332776 -5.697050 -1.844757
      ESP Fit Center  848 is at  -1.521854 -4.685573 -1.844757
      ESP Fit Center  849 is at  -4.899032 -3.003938 -1.844757
      ESP Fit Center  850 is at  -3.874425 -8.485106 -1.844757
      ESP Fit Center  851 is at  -2.884709 -8.203507 -1.844757
      ESP Fit Center  852 is at  -2.063551 -7.583398 -1.844757
      ESP Fit Center  853 is at  -1.521854 -6.708527 -1.844757
      ESP Fit Center  854 is at  -1.545913 -5.697050 -2.916271
      ESP Fit Center  855 is at  -1.769559 -4.644878 -2.916271
      ESP Fit Center  856 is at  -2.401827 -3.774636 -2.916271
      ESP Fit Center  857 is at  -3.333391 -3.236797 -2.916271
      ESP Fit Center  858 is at  -4.403177 -3.124358 -2.916271
      ESP Fit Center  859 is at  -5.426207 -3.456761 -2.916271
      ESP Fit Center  860 is at  -4.403177 -8.269742 -2.916271
      ESP Fit Center  861 is at  -3.333391 -8.157303 -2.916271
      ESP Fit Center  862 is at  -2.401827 -7.619464 -2.916271
      ESP Fit Center  863 is at  -1.769559 -6.749222 -2.916271
      ESP Fit Center  864 is at  -2.152877 -5.697050 -3.824656
      ESP Fit Center  865 is at  -2.418133 -4.707101 -3.824656
      ESP Fit Center  866 is at  -3.142827 -3.982407 -3.824656
      ESP Fit Center  867 is at  -4.132776 -3.717151 -3.824656
      ESP Fit Center  868 is at  -5.122725 -3.982407 -3.824656
      ESP Fit Center  869 is at  -5.122725 -7.411693 -3.824656
      ESP Fit Center  870 is at  -4.132776 -7.676949 -3.824656
      ESP Fit Center  871 is at  -3.142827 -7.411693 -3.824656
      ESP Fit Center  872 is at  -2.418133 -6.686999 -3.824656
      ESP Fit Center  873 is at  -3.061262 -5.697050 -4.431620
      ESP Fit Center  874 is at  -3.597019 -4.769092 -4.431620
      ESP Fit Center  875 is at  -4.668533 -4.769092 -4.431620
      ESP Fit Center  876 is at  -5.204290 -5.697050 -4.431620
      ESP Fit Center  877 is at  -4.668533 -6.625008 -4.431620
      ESP Fit Center  878 is at  -3.597019 -6.625008 -4.431620
      ESP Fit Center  879 is at  -4.132776 -5.697050 -4.644757
      ESP Fit Center  880 is at  -8.055823 -4.667570 -2.070098
      ESP Fit Center  881 is at  -8.287539 -5.682783 -2.070098
      ESP Fit Center  882 is at  -6.220398 -4.752435  0.894045
      ESP Fit Center  883 is at  -6.700398 -3.921051  0.636814
      ESP Fit Center  884 is at  -7.180398 -4.752435  0.636814
      ESP Fit Center  885 is at  -6.734222 -3.171048 -0.065955
      ESP Fit Center  886 is at  -7.565606 -3.775084 -0.065955
      ESP Fit Center  887 is at  -7.883167 -4.752435 -0.065955
      ESP Fit Center  888 is at  -6.220398 -2.832435 -1.025955
      ESP Fit Center  889 is at  -7.180398 -3.089666 -1.025955
      ESP Fit Center  890 is at  -7.883167 -3.792435 -1.025955
      ESP Fit Center  891 is at  -8.140398 -4.752435 -1.025955
      ESP Fit Center  892 is at  -5.706574 -3.171048 -1.985955
      ESP Fit Center  893 is at  -6.734222 -3.171048 -1.985955
      ESP Fit Center  894 is at  -7.565606 -3.775084 -1.985955
      ESP Fit Center  895 is at  -7.345097 -3.967361 -2.538775
      ESP Fit Center  896 is at  -8.047866 -4.670130 -2.538775
      ESP Fit Center  897 is at  -8.305097 -5.630130 -2.538775
      ESP Fit Center  898 is at  -5.871273 -4.048743 -3.498775
      ESP Fit Center  899 is at  -6.898921 -4.048743 -3.498775
      ESP Fit Center  900 is at  -7.730305 -4.652779 -3.498775
      ESP Fit Center  901 is at  -8.047866 -5.630130 -3.498775
      ESP Fit Center  902 is at  -7.730305 -6.607481 -3.498775
      ESP Fit Center  903 is at  -6.898921 -7.211517 -3.498775
      ESP Fit Center  904 is at  -5.871273 -7.211517 -3.498775
      ESP Fit Center  905 is at  -5.905097 -4.798746 -4.201544
      ESP Fit Center  906 is at  -6.865097 -4.798746 -4.201544
      ESP Fit Center  907 is at  -7.345097 -5.630130 -4.201544
      ESP Fit Center  908 is at  -6.865097 -6.461514 -4.201544
      ESP Fit Center  909 is at  -5.905097 -6.461514 -4.201544
      ESP Fit Center  910 is at  -6.385097 -5.630130 -4.458775
      ESP Fit Center  911 is at  -7.708455 -5.483948  0.712508
      ESP Fit Center  912 is at  -7.708455 -8.320118  0.712508
      ESP Fit Center  913 is at  -6.746716 -8.759330  0.712508
      ESP Fit Center  914 is at  -7.938535 -8.731383 -0.249818
      ESP Fit Center  915 is at  -7.938535 -8.731383 -1.317918
      ESP Fit Center  916 is at  -6.051678 -6.977099  2.141571
      ESP Fit Center  917 is at  -5.091678 -6.977099  1.884340
      ESP Fit Center  918 is at  -5.571678 -6.145715  1.884340
      ESP Fit Center  919 is at  -6.531678 -6.145715  1.884340
      ESP Fit Center  920 is at  -7.011678 -6.977099  1.884340
      ESP Fit Center  921 is at  -6.531678 -7.808483  1.884340
      ESP Fit Center  922 is at  -5.571678 -7.808483  1.884340
      ESP Fit Center  923 is at  -6.565502 -5.395712  1.181571
      ESP Fit Center  924 is at  -7.396886 -7.954450  1.181571
      ESP Fit Center  925 is at  -6.565502 -8.558486  1.181571
      ESP Fit Center  926 is at  -5.537854 -8.558486  1.181571
      ESP Fit Center  927 is at  -4.706470 -7.954450  1.181571
      ESP Fit Center  928 is at  -5.091678 -8.639868  0.221571
      ESP Fit Center  929 is at  -4.388909 -7.937099  0.221571
      ESP Fit Center  930 is at  -8.049539 -6.002704  0.988611
      ESP Fit Center  931 is at  -8.529539 -6.834088  0.988611
      ESP Fit Center  932 is at  -8.049539 -7.665472  0.988611
      ESP Fit Center  933 is at  -8.083363 -5.252701  0.285842
      ESP Fit Center  934 is at  -8.914747 -5.856737  0.285842
      ESP Fit Center  935 is at  -9.232308 -6.834088  0.285842
      ESP Fit Center  936 is at  -8.914747 -7.811439  0.285842
      ESP Fit Center  937 is at  -8.083363 -8.415475  0.285842
      ESP Fit Center  938 is at  -8.529539 -5.171319 -0.674158
      ESP Fit Center  939 is at  -9.232308 -5.874088 -0.674158
      ESP Fit Center  940 is at  -9.489539 -6.834088 -0.674158
      ESP Fit Center  941 is at  -9.232308 -7.794088 -0.674158
      ESP Fit Center  942 is at  -8.529539 -8.496857 -0.674158
      ESP Fit Center  943 is at  -8.914747 -5.856737 -1.634158
      ESP Fit Center  944 is at  -9.232308 -6.834088 -1.634158
      ESP Fit Center  945 is at  -8.914747 -7.811439 -1.634158
      ESP Fit Center  946 is at  -8.529539 -6.834088 -2.336927
      ESP Fit Center  947 is at  -6.757545 -9.407704 -0.360268
      ESP Fit Center  948 is at  -5.729897 -9.407704 -0.360268
      ESP Fit Center  949 is at  -4.898513 -8.803668 -0.360268
      ESP Fit Center  950 is at  -7.906490 -8.786317 -1.320268
      ESP Fit Center  951 is at  -7.203721 -9.489086 -1.320268
      ESP Fit Center  952 is at  -6.243721 -9.746317 -1.320268
      ESP Fit Center  953 is at  -5.283721 -9.489086 -1.320268
      ESP Fit Center  954 is at  -4.580952 -8.786317 -1.320268
      ESP Fit Center  955 is at  -7.588929 -8.803668 -2.280268
      ESP Fit Center  956 is at  -6.757545 -9.407704 -2.280268
      ESP Fit Center  957 is at  -5.729897 -9.407704 -2.280268
      ESP Fit Center  958 is at  -4.898513 -8.803668 -2.280268
      ESP Fit Center  959 is at  -7.203721 -7.826317 -2.983037
      ESP Fit Center  960 is at  -6.723721 -8.657701 -2.983037
      ESP Fit Center  961 is at  -5.763721 -8.657701 -2.983037
      ESP Fit Center  962 is at  -6.243721 -7.826317 -3.240268
      ESP Fit Center  963 is at  -4.697734 -0.070035  7.014551
      ESP Fit Center  964 is at  -4.181112 -0.964852  7.014551
      ESP Fit Center  965 is at  -1.755301 -0.070035  6.429264
      ESP Fit Center  966 is at  -5.496342  0.467846  6.429264
      ESP Fit Center  967 is at  -5.496342 -0.607916  6.429264
      ESP Fit Center  968 is at  -4.914741 -1.512903  6.429264
      ESP Fit Center  969 is at  -4.697734  2.424440  4.520076
      ESP Fit Center  970 is at  -5.573677  1.839153  4.520076
      ESP Fit Center  971 is at  -4.697734 -2.564510  4.520076
      ESP Fit Center  972 is at  -3.572338  0.722562  7.431258
      ESP Fit Center  973 is at  -2.492338  0.722562  7.141873
      ESP Fit Center  974 is at  -3.032338  1.657869  7.141873
      ESP Fit Center  975 is at  -4.112338  1.657869  7.141873
      ESP Fit Center  976 is at  -4.652338  0.722562  7.141873
      ESP Fit Center  977 is at  -3.032338 -0.212745  7.141873
      ESP Fit Center  978 is at  -2.795256  2.424133  6.351258
      ESP Fit Center  979 is at  -3.838554  2.574137  6.351258
      ESP Fit Center  980 is at  -4.797330  2.136278  6.351258
      ESP Fit Center  981 is at  -5.367180  1.249575  6.351258
      ESP Fit Center  982 is at  -3.311979  2.866813  5.271258
      ESP Fit Center  983 is at  -4.338285  2.742197  5.271258
      ESP Fit Center  984 is at  -5.189121  2.154907  5.271258
      ESP Fit Center  985 is at  -5.809486 -0.308030  6.287493
      ESP Fit Center  986 is at  -5.954478  1.105686  5.496878
      ESP Fit Center  987 is at  -6.524328  0.218983  5.496878
      ESP Fit Center  988 is at  -6.524328 -0.835043  5.496878
      ESP Fit Center  989 is at  -5.954478 -1.721746  5.496878
      ESP Fit Center  990 is at  -6.346269  1.124315  4.416878
      ESP Fit Center  991 is at  -6.826720  0.208892  4.416878
      ESP Fit Center  992 is at  -6.826720 -0.824952  4.416878
      ESP Fit Center  993 is at  -6.346269 -1.740375  4.416878
      ESP Fit Center  994 is at  -5.495433 -2.327665  4.416878
      ESP Fit Center  995 is at  -5.954478  1.105686  3.336878
      ESP Fit Center  996 is at  -6.524328  0.218983  3.336878
      ESP Fit Center  997 is at  -6.524328 -0.835043  3.336878
      ESP Fit Center  998 is at  -5.954478 -1.721746  3.336878
      ESP Fit Center  999 is at  -5.809486 -0.308030  2.546263
      ESP Fit Center 1000 is at  -5.269486 -1.243337  2.546263
      ESP Fit Center 1001 is at  -3.151257 -0.962696  7.053103
      ESP Fit Center 1002 is at  -2.071257 -0.962696  6.763718
      ESP Fit Center 1003 is at  -3.691257 -1.898003  6.763718
      ESP Fit Center 1004 is at  -2.611257 -1.898003  6.763718
      ESP Fit Center 1005 is at  -1.280642 -0.962696  5.973103
      ESP Fit Center 1006 is at  -4.376249 -2.376412  5.973103
      ESP Fit Center 1007 is at  -3.417473 -2.814271  5.973103
      ESP Fit Center 1008 is at  -2.374175 -2.664267  5.973103
      ESP Fit Center 1009 is at  -1.577596 -1.974027  5.973103
      ESP Fit Center 1010 is at  -1.924237 -2.740341  4.893103
      ESP Fit Center 1011 is at  -1.238672 -1.966498  4.893103
      ESP Fit Center 1012 is at  -5.587238  0.346326  2.133653
      ESP Fit Center 1013 is at  -2.299658  2.082985  1.257710
      ESP Fit Center 1014 is at  -2.576140  1.241143  0.672423
      ESP Fit Center 1015 is at  -5.334408 -0.973253  2.438589
      ESP Fit Center 1016 is at  -5.032016 -0.983344  1.358589
      ESP Fit Center 1017 is at  -4.317174 -0.456331  0.567974
      ESP Fit Center 1018 is at  -4.829159  2.660807  3.871120
      ESP Fit Center 1019 is at  -4.370114  3.266726  2.791120
      ESP Fit Center 1020 is at  -5.220950  2.679436  2.791120
      ESP Fit Center 1021 is at  -5.701401  1.764013  2.791120
      ESP Fit Center 1022 is at  -3.870383  3.098666  1.711120
      ESP Fit Center 1023 is at  -4.829159  2.660807  1.711120
      ESP Fit Center 1024 is at  -5.399009  1.774104  1.711120
      ESP Fit Center 1025 is at  -5.399009  0.720078  1.711120
      ESP Fit Center 1026 is at  -3.064167  2.182398  0.920505
      ESP Fit Center 1027 is at  -4.144167  2.182398  0.920505
      ESP Fit Center 1028 is at  -4.684167  1.247091  0.920505
      ESP Fit Center 1029 is at  -3.604167  1.247091  0.631120
      ESP Fit Center 1030 is at  -0.865486 -1.215505  4.759316
      ESP Fit Center 1031 is at  -0.026492 -0.488513  4.759316
      ESP Fit Center 1032 is at  -1.558812  3.649275  5.765512
      ESP Fit Center 1033 is at  -1.346111  1.641111  7.110263
      ESP Fit Center 1034 is at  -0.266111  1.641111  6.820878
      ESP Fit Center 1035 is at  -0.806111  2.576418  6.820878
      ESP Fit Center 1036 is at  -1.886111  2.576418  6.820878
      ESP Fit Center 1037 is at  -1.886111  0.705804  6.820878
      ESP Fit Center 1038 is at  -0.806111  0.705804  6.820878
      ESP Fit Center 1039 is at  -0.569029  3.342682  6.030263
      ESP Fit Center 1040 is at  -1.612327  3.492686  6.030263
      ESP Fit Center 1041 is at  -2.571103  3.054827  6.030263
      ESP Fit Center 1042 is at  -0.569029 -0.060460  6.030263
      ESP Fit Center 1043 is at   0.227550  0.629780  6.030263
      ESP Fit Center 1044 is at  -2.203683  4.452580  4.650022
      ESP Fit Center 1045 is at  -3.162459  4.014721  4.650022
      ESP Fit Center 1046 is at  -3.732309  3.128018  4.650022
      ESP Fit Center 1047 is at  -1.677108  4.745256  3.570022
[...]
 1148 Fit      -0.021797
 1149 Fit      -0.019036
 1150 Fit      -0.006833
 1151 Fit      -0.002048
 1152 Fit       0.000268
 1153 Fit      -0.001291
 1154 Fit      -0.011736
 1155 Fit       0.013544
 1156 Fit       0.009359
 1157 Fit       0.002511
 1158 Fit       0.004809
 1159 Fit       0.003988
 1160 Fit      -0.007003
 1161 Fit      -0.003614
 1162 Fit      -0.002760
 1163 Fit      -0.007057
 1164 Fit      -0.016188
 1165 Fit      -0.006767
 1166 Fit      -0.004192
 1167 Fit      -0.006686
 1168 Fit      -0.011134
 1169 Fit      -0.008948
 1170 Fit      -0.008038
 1171 Fit      -0.010975
 1172 Fit      -0.006449
 1173 Fit      -0.007225
 1174 Fit      -0.017428
 1175 Fit      -0.017083
 1176 Fit      -0.016110
 1177 Fit      -0.012256
 1178 Fit      -0.010769
 1179 Fit      -0.012728
 1180 Fit      -0.014606
 1181 Fit      -0.008002
 1182 Fit      -0.006276
 1183 Fit      -0.007729
 1184 Fit      -0.007184
 1185 Fit      -0.007523
 1186 Fit      -0.005041
 1187 Fit      -0.006280
 1188 Fit      -0.005684
 1189 Fit      -0.023879
 1190 Fit      -0.018879
 1191 Fit      -0.018045
 1192 Fit      -0.019764
 1193 Fit      -0.007988
 1194 Fit      -0.011735
 1195 Fit      -0.010095
 1196 Fit      -0.014006
 1197 Fit      -0.018321
 1198 Fit      -0.011699
 1199 Fit      -0.015819
 1200 Fit      -0.018382
 1201 Fit      -0.016280
 1202 Fit      -0.008985
 1203 Fit      -0.015532
 1204 Fit      -0.019448
 1205 Fit      -0.022268
 1206 Fit      -0.022109
 1207 Fit      -0.020503
 1208 Fit      -0.021126
 1209 Fit      -0.019722
 1210 Fit      -0.016084
 1211 Fit      -0.010984
 1212 Fit      -0.012409
 1213 Fit      -0.018113
 1214 Fit      -0.021053
 1215 Fit      -0.020467
 1216 Fit      -0.016790
 1217 Fit       0.008137
 1218 Fit       0.008905
 1219 Fit       0.010780
 1220 Fit       0.008887
 1221 Fit       0.012281
 1222 Fit       0.011503
 1223 Fit       0.013811
 1224 Fit       0.012046
 1225 Fit       0.010607
 1226 Fit       0.010037
 1227 Fit       0.008359
 1228 Fit       0.008212
 1229 Fit       0.003121
 1230 Fit       0.002220
 1231 Fit      -0.003161
 1232 Fit       0.003520
 1233 Fit       0.007808
 1234 Fit       0.008823
 1235 Fit       0.006986
 1236 Fit       0.010043
 1237 Fit       0.008659
 1238 Fit       0.002827
 1239 Fit       0.007922
 1240 Fit       0.011494
 1241 Fit       0.002340
 1242 Fit       0.007229
 1243 Fit       0.009766
 1244 Fit       0.004464
 1245 Fit       0.007546
 1246 Fit       0.009533
 1247 Fit       0.007359
 1248 Fit       0.006911
 1249 Fit       0.006459
 1250 Fit      -0.002138
 1251 Fit       0.007397
 1252 Fit       0.003671
 1253 Fit       0.003373
 1254 Fit      -0.006214
 1255 Fit       0.000316
 1256 Fit      -0.010485
 1257 Fit      -0.011193
 1258 Fit      -0.005668
 1259 Fit       0.003840
 1260 Fit      -0.009978
 1261 Fit      -0.010780
 1262 Fit      -0.012697
 1263 Fit      -0.014162
 1264 Fit      -0.012073
 1265 Fit      -0.004528
 1266 Fit      -0.006948
 1267 Fit      -0.007038
 1268 Fit      -0.008672
 1269 Fit      -0.011458
 1270 Fit      -0.013587
 1271 Fit      -0.012674
 1272 Fit      -0.006654
 1273 Fit      -0.004445
 1274 Fit      -0.002215
 1275 Fit      -0.000328
 1276 Fit      -0.001063
 1277 Fit      -0.003044
 1278 Fit      -0.007927
 1279 Fit      -0.001633
 1280 Fit      -0.003045
 1281 Fit      -0.016190
 1282 Fit      -0.008301
 1283 Fit      -0.009330
 1284 Fit      -0.017810
 1285 Fit      -0.011441
 1286 Fit      -0.018010
 1287 Fit       0.002357
 1288 Fit       0.006884
 1289 Fit       0.008744
 1290 Fit       0.008822
 1291 Fit      -0.001075
 1292 Fit       0.005318
 1293 Fit       0.010681
 1294 Fit      -0.005437
 1295 Fit       0.002184
 1296 Fit      -0.005980
 1297 Fit      -0.004631
 1298 Fit      -0.000462
 1299 Fit       0.002182
 1300 Fit       0.006952
 1301 Fit      -0.003513
 1302 Fit       0.001535
 1303 Fit       0.005620
 1304 Fit       0.000684
 1305 Fit      -0.004010
 1306 Fit      -0.000248
 1307 Fit      -0.002148
 1308 Fit      -0.000236
 1309 Fit      -0.004961
 1310 Fit       0.002616
 1311 Fit      -0.000026
 1312 Fit      -0.001836
 1313 Fit      -0.008553
 1314 Fit      -0.008647
 1315 Fit      -0.015765
 1316 Fit      -0.014399
 1317 Fit      -0.008354
 1318 Fit      -0.009146
 1319 Fit      -0.013984
 1320 Fit      -0.020875
 1321 Fit      -0.016135
 1322 Fit      -0.007769
 1323 Fit      -0.018982
 1324 Fit      -0.018775
 1325 Fit      -0.014739
 1326 Fit      -0.010173
 1327 Fit      -0.016212
 1328 Fit      -0.019497
 1329 Fit      -0.023633
 1330 Fit      -0.024878
 1331 Fit      -0.022043
 1332 Fit      -0.015119
 1333 Fit      -0.009802
 1334 Fit      -0.017244
 1335 Fit      -0.020106
 1336 Fit      -0.018892
 1337 Fit      -0.016457
 1338 Fit      -0.019547
 1339 Fit      -0.021839
 1340 Fit      -0.023369
 1341 Fit      -0.020790
 1342 Fit      -0.013385
 1343 Fit      -0.008850
 1344 Fit      -0.015738
 1345 Fit      -0.018929
 1346 Fit      -0.019087
 1347 Fit      -0.019138
 1348 Fit      -0.019578
 1349 Fit      -0.013955
 1350 Fit      -0.007547
 1351 Fit      -0.011162
 1352 Fit      -0.016817
 1353 Fit      -0.014985
 1354 Fit       0.006851
 1355 Fit      -0.001305
 1356 Fit       0.003486
 1357 Fit       0.011163
 1358 Fit       0.008503
 1359 Fit       0.008776
 1360 Fit       0.008220
 1361 Fit       0.005608
 1362 Fit       0.006512
 1363 Fit       0.007144
 1364 Fit      -0.000022
 1365 Fit       0.003628
 1366 Fit       0.005064
 1367 Fit       0.006558
 1368 Fit       0.007134
 1369 Fit      -0.000888
 1370 Fit       0.003579
 1371 Fit       0.005630
 1372 Fit       0.005990
 1373 Fit       0.004743
 1374 Fit       0.002064
 1375 Fit      -0.003899
 1376 Fit       0.002056
 1377 Fit       0.004523
 1378 Fit       0.003226
 1379 Fit      -0.001371
 1380 Fit       0.001005
 1381 Fit       0.008529
 1382 Fit       0.005462
 1383 Fit       0.001412
 1384 Fit       0.001033
 1385 Fit       0.000057
 1386 Fit      -0.000809
 1387 Fit      -0.002480
 1388 Fit       0.003715
 1389 Fit       0.003691
 1390 Fit       0.003819
 1391 Fit       0.004198
 1392 Fit       0.003354
 1393 Fit       0.003055
 1394 Fit       0.003549
 1395 Fit       0.008640
 1396 Fit       0.001334
 1397 Fit       0.001535
 1398 Fit       0.004635
 1399 Fit       0.004018
 1400 Fit       0.002337
 1401 Fit       0.006381
 1402 Fit       0.005890
 1403 Fit       0.004847
 1404 Fit       0.002949
 1405 Fit       0.007023
 1406 Fit       0.006490
 1407 Fit       0.005425
 1408 Fit       0.003590
 1409 Fit       0.007239
 1410 Fit       0.006281
 1411 Fit       0.004881
 1412 Fit       0.002776
 1413 Fit       0.005349
 1414 Fit      -0.000022
 1415 Fit      -0.001735
 1416 Fit      -0.005396
 1417 Fit       0.001128
 1418 Fit       0.001056
 1419 Fit      -0.000174
 1420 Fit      -0.003895
 1421 Fit      -0.012769
 1422 Fit       0.001502
 1423 Fit       0.000644
 1424 Fit      -0.002796
 1425 Fit      -0.012132
 1426 Fit       0.002631
 1427 Fit       0.000632
 1428 Fit      -0.003690
 1429 Fit      -0.000543
 1430 Fit       0.004567
 1431 Fit       0.002395
 1432 Fit       0.001318
 1433 Fit       0.002364
 1434 Fit       0.005712
 1435 Fit       0.002775
 1436 Fit       0.001351
 1437 Fit       0.000056
 1438 Fit       0.003961
 1439 Fit      -0.001903
 1440 Fit       0.005169
 1441 Fit       0.005451
 1442 Fit       0.005413
 1443 Fit       0.006997
 1444 Fit       0.008274
 1445 Fit       0.006528
 1446 Fit       0.004141
 1447 Fit       0.010900
 1448 Fit       0.008485
 1449 Fit       0.006231
 1450 Fit       0.004140
 1451 Fit       0.008475
 1452 Fit       0.006197
 1453 Fit       0.008722
 1454 Fit       0.003209
 1455 Fit       0.002405
 1456 Fit       0.000463
 1457 Fit       0.004158
 1458 Fit       0.004050
 1459 Fit       0.003743
 1460 Fit       0.002514
 1461 Fit      -0.000204
 1462 Fit      -0.004532
 1463 Fit       0.004609
 1464 Fit       0.004317
 1465 Fit       0.003944
 1466 Fit       0.002593
 1467 Fit      -0.000816
 1468 Fit       0.003774
 1469 Fit       0.002635
 1470 Fit      -0.000862
 1471 Fit       0.003593
 1472 Fit       0.000939
 1473 Fit       0.002411
 1474 Fit       0.003773
 1475 Fit      -0.001194
 1476 Fit      -0.000411
 1477 Fit       0.001736
 1478 Fit       0.003220
 1479 Fit       0.000278
 1480 Fit      -0.004787
 1481 Fit      -0.005437
 1482 Fit       0.002096
 1483 Fit       0.002348
 1484 Fit       0.004011
 1485 Fit       0.000115
 1486 Fit      -0.019480
 1487 Fit      -0.010074
 1488 Fit      -0.009825
 1489 Fit      -0.004926
 1490 Fit      -0.011349
 1491 Fit       0.005199
 1492 Fit       0.004803
 1493 Fit       0.002396
 1494 Fit       0.003041
 1495 Fit       0.003142
 1496 Fit       0.003079
 1497 Fit      -0.009340
 1498 Fit      -0.002181
 1499 Fit       0.000107
 1500 Fit       0.000431
 1501 Fit      -0.010607
 1502 Fit      -0.004506
 1503 Fit      -0.004073
 1504 Fit      -0.000893
 1505 Fit       0.010958
 1506 Fit       0.010078
 1507 Fit       0.010326
 1508 Fit       0.011402
 1509 Fit       0.011755
 1510 Fit       0.010892
 1511 Fit       0.008475
 1512 Fit       0.009284
 1513 Fit       0.013617
 1514 Fit       0.013441
 1515 Fit       0.011650
 1516 Fit       0.010920
 1517 Fit       0.007153
 1518 Fit       0.010713
 1519 Fit       0.009417
 1520 Fit       0.008875
 1521 Fit       0.009618
 1522 Fit       0.006866
 1523 Fit       0.006401
 1524 Fit       0.006706
 1525 Fit       0.007389
 1526 Fit      -0.000198
 1527 Fit       0.002213
 1528 Fit       0.003762
 1529 Fit       0.005261
 1530 Fit      -0.005258
 1531 Fit      -0.000963
 1532 Fit      -0.011104
 1533 Fit       0.013018
 1534 Fit       0.014553
 1535 Fit       0.013611
 1536 Fit       0.013007
 1537 Fit       0.012587
 1538 Fit       0.013006
 1539 Fit       0.013349
 1540 Fit       0.012777
 1541 Fit       0.011956
 1542 Fit       0.011431
 1543 Fit       0.012296
 1544 Fit       0.015163
 1545 Fit       0.012713
 1546 Fit       0.010699
 1547 Fit       0.009388
 1548 Fit       0.009915
 1549 Fit       0.005567
 1550 Fit       0.011344
 1551 Fit       0.013727
 1552 Fit       0.006160
 1553 Fit       0.010291
 1554 Fit       0.012448
 1555 Fit       0.009037
 1556 Fit       0.012642
 1557 Fit       0.002606
 1558 Fit      -0.004638
 1559 Fit      -0.007467
 1560 Fit      -0.010155
 1561 Fit      -0.013679
 1562 Fit      -0.015377
 1563 Fit      -0.016138
 1564 Fit      -0.019158
 1565 Fit       0.003666
 1566 Fit       0.002897
 1567 Fit      -0.002705
 1568 Fit       0.008456
 1569 Fit       0.006789
 1570 Fit       0.005270
 1571 Fit       0.014130
 1572 Fit       0.013004
 1573 Fit       0.013216
 1574 Fit       0.011701
 1575 Fit       0.010617
 1576 Fit       0.009871
 1577 Fit       0.015574
 1578 Fit       0.013199
 1579 Fit       0.011175
 1580 Fit       0.009708
 1581 Fit       0.008388
 1582 Fit       0.006830
 1583 Fit       0.010803
 1584 Fit       0.008737
 1585 Fit       0.007128
 1586 Fit       0.002422
 1587 Fit       0.004999
 1588 Fit       0.003730
 1589 Fit       0.001707
 1590 Fit      -0.001875
 1591 Fit      -0.008149
 1592 Fit       0.000435
 1593 Fit       0.001484
 1594 Fit       0.000483
 1595 Fit      -0.002474
 1596 Fit      -0.007584
 1597 Fit      -0.013762
 1598 Fit      -0.003673
 1599 Fit      -0.004155
 1600 Fit      -0.009582
 1601 Fit      -0.011813
 1602 Fit       0.012552
 1603 Fit       0.014113
 1604 Fit       0.009285
 1605 Fit       0.006006
 1606 Fit       0.005647
 1607 Fit       0.000191
 1608 Fit       0.014113
 1609 Fit       0.014336
 1610 Fit       0.011690
 1611 Fit       0.013847
 1612 Fit       0.012611
 1613 Fit       0.011420
 1614 Fit       0.009943
 1615 Fit       0.008611
 1616 Fit       0.009324
 1617 Fit       0.010492
 1618 Fit       0.006553
 1619 Fit       0.007684
 1620 Fit       0.008867
 1621 Fit       0.005540
 1622 Fit       0.003222
 1623 Fit       0.004664
 1624 Fit       0.005702
 1625 Fit       0.006808
 1626 Fit       0.001277
 1627 Fit      -0.001833
 1628 Fit       0.000346
 1629 Fit       0.001168
 1630 Fit      -0.006273
 1631 Fit      -0.007860
 1632 Fit      -0.005565
 1633 Fit      -0.012147
 1634 Fit      -0.010781
 1635 Fit      -0.009021
 1636 Fit      -0.007850
 1637 Fit      -0.010905
 1638 Fit      -0.016193
 1639 Fit      -0.016687
 1640 Fit      -0.016252
 1641 Fit      -0.016169
 1642 Fit      -0.016517
 1643 Fit      -0.017090
 1644 Fit      -0.018660
 1645 Fit      -0.017561
 1646 Fit      -0.015794
 1647 Fit       0.001055
 1648 Fit      -0.003035
 1649 Fit      -0.009694
 1650 Fit       0.012732
 1651 Fit       0.009724
 1652 Fit       0.005163
 1653 Fit       0.006425
 1654 Fit       0.005507
 1655 Fit       0.001417
 1656 Fit      -0.006983
 1657 Fit      -0.009655
 1658 Fit      -0.004315
 1659 Fit      -0.003758
 1660 Fit      -0.007035
 1661 Fit      -0.013155
 1662 Fit      -0.007277
 1663 Fit      -0.005037
 1664 Fit      -0.007095
 1665 Fit      -0.010171
 1666 Fit      -0.008935
 1667 Fit      -0.008631
 1668 Fit      -0.010509
 1669 Fit      -0.007119
 1670 Fit      -0.007743
 1671 Fit      -0.012789
 1672 Fit      -0.014813
 1673 Fit      -0.014671
 1674 Fit      -0.009989
 1675 Fit      -0.008699
 1676 Fit      -0.009302
 1677 Fit      -0.012154
 1678 Fit      -0.007552
 1679 Fit      -0.006278
 1680 Fit      -0.007572
 1681 Fit      -0.007697
 1682 Fit      -0.007634
 1683 Fit      -0.005879
 1684 Fit      -0.007035
 1685 Fit      -0.006638
 1686 Fit      -0.015027
 1687 Fit      -0.015253
 1688 Fit      -0.002854
 1689 Fit      -0.004419
 1690 Fit      -0.012984
 1691 Fit      -0.015216
 1692 Fit      -0.014737
 1693 Fit      -0.005080
 1694 Fit      -0.009608
 1695 Fit      -0.011146
 1696 Fit      -0.011738
 1697 Fit      -0.015110
 1698 Fit      -0.016699
 1699 Fit      -0.013317
 1700 Fit      -0.014562
 1701 Fit      -0.015435
 1702 Fit      -0.013483
 1703 Fit      -0.012075
 1704 Fit      -0.009254
 1705 Fit      -0.013745
 1706 Fit      -0.017575
 1707 Fit      -0.021716
 1708 Fit      -0.018705
 1709 Fit      -0.017751
 1710 Fit      -0.016106
 1711 Fit      -0.014028
 1712 Fit      -0.010830
 1713 Fit      -0.011933
 1714 Fit      -0.016299
 1715 Fit      -0.018679
 1716 Fit      -0.017387
 1717 Fit      -0.014997
 1718 Fit       0.004468
 1719 Fit       0.007367
 1720 Fit       0.008489
 1721 Fit       0.009832
 1722 Fit       0.010485
 1723 Fit       0.012356
 1724 Fit       0.009822
 1725 Fit       0.009814
 1726 Fit       0.008441
 1727 Fit       0.008343
 1728 Fit       0.005180
 1729 Fit       0.005152
 1730 Fit       0.003437
 1731 Fit       0.002255
 1732 Fit       0.005583
 1733 Fit       0.007213
 1734 Fit       0.008739
 1735 Fit       0.006100
 1736 Fit       0.005604
 1737 Fit       0.008305
 1738 Fit       0.007232
 1739 Fit       0.002261
 1740 Fit       0.006398
 1741 Fit       0.009814
 1742 Fit       0.009975
 1743 Fit       0.001886
 1744 Fit       0.006020
 1745 Fit       0.008326
 1746 Fit       0.010797
 1747 Fit       0.004319
 1748 Fit       0.006870
 1749 Fit       0.008681
 1750 Fit       0.005012
 1751 Fit       0.005936
 1752 Fit       0.001839
 1753 Fit       0.005011
 1754 Fit       0.003759
 1755 Fit       0.000793
 1756 Fit      -0.004150
 1757 Fit       0.000368
 1758 Fit      -0.007409
 1759 Fit      -0.007895
 1760 Fit      -0.003930
 1761 Fit       0.003207
 1762 Fit      -0.008145
 1763 Fit      -0.009500
 1764 Fit      -0.010188
 1765 Fit      -0.008388
 1766 Fit      -0.003044
 1767 Fit      -0.005160
 1768 Fit      -0.006114
 1769 Fit      -0.007416
 1770 Fit      -0.009149
 1771 Fit      -0.010241
 1772 Fit      -0.009115
 1773 Fit      -0.004451
 1774 Fit      -0.002289
 1775 Fit      -0.002110
 1776 Fit      -0.002198
 1777 Fit      -0.003312
 1778 Fit      -0.004845
 1779 Fit      -0.006640
 1780 Fit      -0.007642
 1781 Fit      -0.005570
 1782 Fit      -0.001876
 1783 Fit       0.000386
 1784 Fit       0.003220
 1785 Fit       0.004337
 1786 Fit       0.003952
 1787 Fit      -0.000945
 1788 Fit      -0.003874
 1789 Fit      -0.011493
 1790 Fit      -0.007401
 1791 Fit      -0.012587
 1792 Fit       0.004168
 1793 Fit       0.005485
 1794 Fit       0.002099
 1795 Fit       0.006192
 1796 Fit      -0.004474
 1797 Fit       0.001788
 1798 Fit      -0.000102
 1799 Fit      -0.001777
 1800 Fit       0.001241
 1801 Fit      -0.001132
 1802 Fit       0.002213
 1803 Fit       0.005941
 1804 Fit      -0.000952
 1805 Fit       0.002106
 1806 Fit      -0.003463
 1807 Fit      -0.002515
 1808 Fit       0.001202
 1809 Fit      -0.001122
 1810 Fit      -0.000772
 1811 Fit      -0.004165
 1812 Fit      -0.010280
 1813 Fit      -0.008566
 1814 Fit      -0.012756
 1815 Fit      -0.013931
 1816 Fit      -0.012015
 1817 Fit      -0.008306
 1818 Fit      -0.004747
 1819 Fit      -0.011555
 1820 Fit      -0.015529
 1821 Fit      -0.020366
 1822 Fit      -0.016309
 1823 Fit      -0.010260
 1824 Fit      -0.012159
 1825 Fit      -0.015532
 1826 Fit      -0.015458
 1827 Fit      -0.013333
 1828 Fit      -0.011246
 1829 Fit      -0.015429
 1830 Fit      -0.017947
 1831 Fit      -0.020595
 1832 Fit      -0.020874
 1833 Fit      -0.018135
 1834 Fit      -0.012606
 1835 Fit      -0.001792
 1836 Fit      -0.008170
 1837 Fit      -0.013504
 1838 Fit      -0.016007
 1839 Fit      -0.015899
 1840 Fit      -0.014988
 1841 Fit      -0.016928
 1842 Fit      -0.018495
 1843 Fit      -0.019110
 1844 Fit      -0.016763
 1845 Fit      -0.011235
 1846 Fit      -0.002390
 1847 Fit      -0.007815
 1848 Fit      -0.012750
 1849 Fit      -0.015419
 1850 Fit      -0.016161
 1851 Fit      -0.016051
 1852 Fit      -0.016147
 1853 Fit      -0.011919
 1854 Fit      -0.007476
 1855 Fit      -0.009915
 1856 Fit      -0.014086
 1857 Fit      -0.012829
 1858 Fit       0.004983
 1859 Fit       0.006132
 1860 Fit      -0.004869
 1861 Fit       0.000988
 1862 Fit       0.007814
 1863 Fit       0.007267
 1864 Fit       0.005674
 1865 Fit       0.006116
 1866 Fit       0.006473
 1867 Fit      -0.002401
 1868 Fit       0.001864
 1869 Fit       0.003988
 1870 Fit       0.005228
 1871 Fit      -0.001966
 1872 Fit       0.002936
 1873 Fit       0.004681
 1874 Fit       0.005505
 1875 Fit       0.005209
 1876 Fit      -0.001741
 1877 Fit       0.002254
 1878 Fit       0.004110
 1879 Fit       0.004438
 1880 Fit       0.003367
 1881 Fit       0.000770
 1882 Fit       0.000617
 1883 Fit       0.002765
 1884 Fit       0.001635
 1885 Fit      -0.000448
 1886 Fit       0.006546
 1887 Fit       0.004608
 1888 Fit       0.001557
 1889 Fit       0.000753
 1890 Fit       0.000097
 1891 Fit      -0.000522
 1892 Fit       0.001006
 1893 Fit       0.000311
 1894 Fit      -0.006449
 1895 Fit       0.001141
 1896 Fit       0.001999
 1897 Fit       0.003400
 1898 Fit       0.001688
 1899 Fit       0.002333
 1900 Fit       0.001228
 1901 Fit       0.002892
 1902 Fit       0.002729
 1903 Fit       0.002406
 1904 Fit       0.002414
 1905 Fit       0.005904
 1906 Fit       0.001677
 1907 Fit       0.001421
 1908 Fit       0.001500
 1909 Fit      -0.001013
 1910 Fit       0.003368
 1911 Fit       0.005305
 1912 Fit       0.004723
 1913 Fit       0.003855
 1914 Fit       0.002471
 1915 Fit       0.006262
 1916 Fit       0.005624
 1917 Fit       0.004987
 1918 Fit       0.003903
 1919 Fit       0.002407
 1920 Fit       0.006431
 1921 Fit       0.005759
 1922 Fit       0.005028
 1923 Fit       0.003864
 1924 Fit       0.002334
 1925 Fit       0.005314
 1926 Fit       0.004029
 1927 Fit       0.002431
 1928 Fit       0.000688
 1929 Fit       0.000201
 1930 Fit      -0.001182
 1931 Fit      -0.004279
 1932 Fit       0.001005
 1933 Fit       0.000367
 1934 Fit      -0.001479
 1935 Fit      -0.005793
 1936 Fit       0.000944
 1937 Fit      -0.000327
 1938 Fit      -0.003719
 1939 Fit      -0.000162
 1940 Fit      -0.004202
 1941 Fit      -0.001143
 Job cpu time:       0 days  0 hours 15 minutes  4.8 seconds.
 Normal termination of Gaussian 16 at Sun Jul  9 09:50:01 2023.
