 Copyright (c) 1988-2019, Gaussian, Inc.  All Rights Reserved.
  
 This is part of the Gaussian(R) 16 program.  It is based on
 the Gaussian(R) 09 system (copyright 2009, Gaussian, Inc.),
 the Gaussian(R) 03 system (copyright 2003, Gaussian, Inc.),
 the Gaussian(R) 98 system (copyright 1998, Gaussian, Inc.),
 the Gaussian(R) 94 system (copyright 1995, Gaussian, Inc.),
 the Gaussian 92(TM) system (copyright 1992, Gaussian, Inc.),
 the Gaussian 90(TM) system (copyright 1990, Gaussian, Inc.),
 the Gaussian 88(TM) system (copyright 1988, Gaussian, Inc.),
 the Gaussian 86(TM) system (copyright 1986, Carnegie Mellon
 University), and the Gaussian 82(TM) system (copyright 1983,
 Carnegie Mellon University). Gaussian is a federally registered
 trademark of Gaussian, Inc.
 Cite this work as:
 Gaussian 16, Revision C.01,
 M. J. Frisch, G. W. Trucks, H. B. Schlegel, G. E. Scuseria, 
 M. A. Robb, J. R. Cheeseman, G. Scalmani, V. Barone, 
 G. A. Petersson, H. Nakatsuji, X. Li, M. Caricato, A. V. Marenich, 
 J. Bloino, B. G. Janesko, R. Gomperts, B. Mennucci, H. P. Hratchian, 
 J. V. Ortiz, A. F. Izmaylov, J. L. Sonnenberg, D. Williams-Young, 
 F. Ding, F. Lipparini, F. Egidi, J. Goings, B. Peng, A. Petrone, 
 T. Henderson, D. Ranasinghe, V. G. Zakrzewski, J. Gao, N. Rega, 
 G. Zheng, W. Liang, M. Hada, M. Ehara, K. Toyota, R. Fukuda, 
 J. Hasegawa, M. Ishida, T. Nakajima, Y. Honda, O. Kitao, H. Nakai, 
 T. Vreven, K. Throssell, J. A. Montgomery, Jr., J. E. Peralta, 
 F. Ogliaro, M. J. Bearpark, J. J. Heyd, E. N. Brothers, K. N. Kudin, 
 V. N. Staroverov, T. A. Keith, R. Kobayashi, J. Normand, 
 K. Raghavachari, A. P. Rendell, J. C. Burant, S. S. Iyengar, 
 J. Tomasi, M. Cossi, J. M. Millam, M. Klene, C. Adamo, R. Cammi, 
 J. W. Ochterski, R. L. Martin, K. Morokuma, O. Farkas, 
 J. B. Foresman, and D. J. Fox, Gaussian, Inc., Wallingford CT, 2019.
 
 ******************************************
 Gaussian 16:  EM64L-G16RevC.01  3-Jul-2019
                 9-Jul-2023 
 ******************************************
 ----------------------------------------------------------------------
 #P B3LYP/6-31G(d) Integral=Ultrafine SCF(Conver=8,XQC,MaxConventionalC
 ycles=64,MaxCycle=128) NoSymm Test Pop=mk IOp(6/33=2) GFInput GFPrint
 ----------------------------------------------------------------------
 1/38=1,172=1/1;
 2/12=2,15=1,17=6,18=5,40=1/2;
 3/5=1,6=6,7=1,11=2,24=110,25=1,30=1,74=-5,75=-5/1,2,3;
 4//1;
 5/5=2,6=8,7=128,8=3,13=1,38=5,85=64/2,8;
 6/7=2,8=2,9=2,10=2,15=8,20=1,28=1,33=2/1,2;
 99/5=1,9=1/99;
 -------------------------------------------------
 MEP step - Input generated by PyRED DVE-DMDS-OPLS
 -------------------------------------------------
 Symbolic Z-matrix:
 Charge =  0 Multiplicity = 1
 C                    -5.87575  -0.86444  -4.16799 
 H                    -5.02078  -0.81737  -4.85251 
 H                    -6.34873  -1.84647  -4.29139 
 H                    -6.59344  -0.09332  -4.46741 
 C                    -5.44429  -0.65669  -2.7178 
 H                    -6.31703  -0.71467  -2.05713 
 H                    -4.73499  -1.42924  -2.39995 
 O                    -4.89232   0.64343  -2.50207 
 C                    -3.50971   0.77508  -2.78483 
 H                    -3.35377   1.80963  -3.11642 
 H                    -3.19837   0.11245  -3.60584 
 C                    -2.62382   0.52964  -1.57203 
 H                    -1.60465   0.88608  -1.77712 
 H                    -3.01593   1.10058  -0.71631 
 O                    -2.62009  -0.86331  -1.27127 
 C                    -2.07906  -1.21634  -0.01219 
 H                    -2.48118  -2.20955   0.22032 
 H                    -2.41645  -0.51832   0.76988 
 C                    -0.55872  -1.30397   0.0134 
 H                    -0.21168  -1.88403  -0.85698 
 H                    -0.24348  -1.84299   0.92464 
 O                     0.        0.        0. 
 C                     1.41745   0.        0. 
 H                     1.81045  -0.52167  -0.8867 
 H                     1.79751  -0.52998   0.88909 
 C                     1.87792   1.45388   0. 
 H                     1.45314   1.98793   0.85644 
 H                     1.5214    1.95237  -0.90675 
 S                     3.69994   1.65027  -0.00751 
 C                     4.09202   1.30153   1.75926 
 H                     3.47039   1.94142   2.39401 
 H                     3.86709   0.25647   1.99363 
 C                     5.57225   1.58976   2.00504 
 H                     5.78815   2.64642   1.81361 
 H                     6.18977   0.98229   1.33573 
 S                     5.97558   1.20394   3.76023 
 C                     7.68808   1.86826   3.87308 
 H                     7.9028    1.90947   4.94514 
 H                     7.69709   2.89824   3.50345 
 C                     8.73478   1.00617   3.16298 
 H                     8.70212  -0.01289   3.55882 
 H                     8.54246   0.94173   2.08694 
 S                     10.46316   1.60318   3.40361 
 C                     10.76811   2.56951   1.86723 
 H                     11.84879   2.74809   1.88599 
 H                     10.56817   1.92127   1.00635 
 C                     10.01459   3.8931    1.74629 
 H                     10.33086   4.42558   0.84026 
 H                     8.93286   3.73751   1.67431 
 H                     10.20852   4.53718   2.6097 
 
 ITRead=  0  0  0  0  0  0  0  0  0  0  0  0  0  0  0  0  0  0  0  0
 ITRead=  0  0  0  0  0  0  0  0  0  0  0  0  0  0  0  0  0  0  0  0
 ITRead=  0  0  0  0  0  0  0  0  0  0
 MicOpt= -1 -1 -1 -1 -1 -1 -1 -1 -1 -1 -1 -1 -1 -1 -1 -1 -1 -1 -1 -1
 MicOpt= -1 -1 -1 -1 -1 -1 -1 -1 -1 -1 -1 -1 -1 -1 -1 -1 -1 -1 -1 -1
 MicOpt= -1 -1 -1 -1 -1 -1 -1 -1 -1 -1
 NAtoms=     50 NQM=       50 NQMF=       0 NMMI=      0 NMMIF=      0
                NMic=       0 NMicF=      0.
                          Input orientation:                          
 ---------------------------------------------------------------------
 Center     Atomic      Atomic             Coordinates (Angstroms)
 Number     Number       Type             X           Y           Z
 ---------------------------------------------------------------------
      1          6           0       -5.875753   -0.864444   -4.167986
      2          1           0       -5.020776   -0.817366   -4.852512
      3          1           0       -6.348733   -1.846473   -4.291392
      4          1           0       -6.593440   -0.093320   -4.467412
      5          6           0       -5.444287   -0.656694   -2.717802
      6          1           0       -6.317025   -0.714668   -2.057129
      7          1           0       -4.734986   -1.429236   -2.399945
      8          8           0       -4.892318    0.643430   -2.502067
      9          6           0       -3.509715    0.775077   -2.784826
     10          1           0       -3.353769    1.809631   -3.116419
     11          1           0       -3.198371    0.112454   -3.605838
     12          6           0       -2.623817    0.529644   -1.572027
     13          1           0       -1.604647    0.886082   -1.777119
     14          1           0       -3.015933    1.100579   -0.716309
     15          8           0       -2.620091   -0.863308   -1.271274
     16          6           0       -2.079056   -1.216337   -0.012194
     17          1           0       -2.481182   -2.209550    0.220324
     18          1           0       -2.416454   -0.518316    0.769878
     19          6           0       -0.558723   -1.303973    0.013403
     20          1           0       -0.211682   -1.884033   -0.856983
     21          1           0       -0.243475   -1.842987    0.924639
     22          8           0        0.000000    0.000000    0.000000
     23          6           0        1.417445    0.000000    0.000000
     24          1           0        1.810445   -0.521665   -0.886704
     25          1           0        1.797512   -0.529976    0.889086
     26          6           0        1.877921    1.453884    0.000000
     27          1           0        1.453137    1.987930    0.856444
     28          1           0        1.521404    1.952370   -0.906751
     29         16           0        3.699944    1.650273   -0.007511
     30          6           0        4.092020    1.301527    1.759261
     31          1           0        3.470388    1.941419    2.394010
     32          1           0        3.867089    0.256471    1.993630
     33          6           0        5.572251    1.589758    2.005043
     34          1           0        5.788149    2.646418    1.813609
     35          1           0        6.189772    0.982293    1.335729
     36         16           0        5.975577    1.203940    3.760230
     37          6           0        7.688078    1.868259    3.873082
     38          1           0        7.902800    1.909469    4.945141
     39          1           0        7.697090    2.898235    3.503445
     40          6           0        8.734781    1.006172    3.162978
     41          1           0        8.702122   -0.012888    3.558817
     42          1           0        8.542455    0.941731    2.086943
     43         16           0       10.463158    1.603177    3.403613
     44          6           0       10.768110    2.569512    1.867233
     45          1           0       11.848787    2.748086    1.885989
     46          1           0       10.568171    1.921267    1.006349
     47          6           0       10.014594    3.893095    1.746292
     48          1           0       10.330864    4.425582    0.840255
     49          1           0        8.932860    3.737514    1.674305
     50          1           0       10.208521    4.537175    2.609695
 ---------------------------------------------------------------------
 Stoichiometry    C14H30O3S3
 Framework group  C1[X(C14H30O3S3)]
 Standard basis: 6-31G(d) (6D, 7F)
   372 basis functions,   752 primitive gaussians,   372 cartesian basis functions
    93 alpha electrons       93 beta electrons
 Requested convergence on RMS density matrix=1.00D-08 within  64 cycles.
 Requested convergence on MAX density matrix=1.00D-06.
 Requested convergence on             energy=1.00D-06.
 SCF Done:  E(RB3LYP) =  -1971.75525953     A.U. after   13 cycles
            NFock= 13  Conv=0.37D-08     -V/T= 2.0058
 Mulliken charges:
     1  C   -0.451644
     2  H    0.145037
     3  H    0.137212
     4  H    0.153410
     5  C   -0.031524
     6  H    0.136561
     7  H    0.151235
     8  O   -0.472727
     9  C   -0.046115
    10  H    0.138750
    11  H    0.131228
    12  C   -0.018566
    13  H    0.132167
    14  H    0.130856
    15  O   -0.474742
    16  C   -0.037202
    17  H    0.144591
    18  H    0.136877
    19  C   -0.022006
    20  H    0.134167
    21  H    0.118493
    22  O   -0.477859
    23  C    0.000095
    24  H    0.139469
    25  H    0.126070
    26  C   -0.437187
    27  H    0.181213
    28  H    0.187709
    29  S    0.087140
    30  C   -0.416484
    31  H    0.186484
    32  H    0.187106
    33  C   -0.418138
    34  H    0.182569
    35  H    0.184254
    36  S    0.085182
    37  C   -0.409729
    38  H    0.191621
    39  H    0.180296
    40  C   -0.414869
    41  H    0.192593
    42  H    0.172439
    43  S    0.083195
    44  C   -0.408829
    45  H    0.179230
    46  H    0.170103
    47  C   -0.435510
    48  H    0.151983
    49  H    0.148558
    50  H    0.165235
 Sum of Mulliken charges =  -0.00000
 Dipole moment (field-independent basis, Debye):
    X=              1.0638    Y=             -0.3715    Z=             -0.7489  Tot=              1.3530
 Quadrupole moment (field-independent basis, Debye-Ang):
   XX=           -158.3241   YY=           -142.8920   ZZ=           -156.7006
   XY=             13.5126   XZ=            -16.5748   YZ=             -0.1176
 Traceless Quadrupole moment (field-independent basis, Debye-Ang):
   XX=             -5.6852   YY=              9.7469   ZZ=             -4.0617
   XY=             13.5126   XZ=            -16.5748   YZ=             -0.1176
 Octapole moment (field-independent basis, Debye-Ang**2):
  XXX=          -1282.8805  YYY=           -384.0870  ZZZ=           -327.9965  XYY=           -387.1796
  XXY=            -54.3068  XXZ=           -234.3456  XZZ=           -512.7045  YZZ=           -143.7736
  YYZ=            -86.2651  XYZ=            -10.7032
 Hexadecapole moment (field-independent basis, Debye-Ang**3):
 XXXX=         -34506.4780 YYYY=          -2379.2453 ZZZZ=          -5631.1900 XXXY=          -2167.9717
 XXXZ=          -7755.4505 YYYX=          -3391.2039 YYYZ=           -972.3299 ZZZX=          -6206.5285
 ZZZY=          -1068.7482 XXYY=          -5569.1211 XXZZ=          -7415.6526 YYZZ=          -1335.7073
 XXYZ=           -322.3701 YYXZ=          -1917.6652 ZZXY=          -1276.9697
 Merz-Kollman atomic radii used.
 Atom Element Radius
    1     6    1.50
    2     1    1.20
    3     1    1.20
    4     1    1.20
    5     6    1.50
    6     1    1.20
    7     1    1.20
    8     8    1.40
    9     6    1.50
   10     1    1.20
   11     1    1.20
   12     6    1.50
   13     1    1.20
   14     1    1.20
   15     8    1.40
   16     6    1.50
   17     1    1.20
   18     1    1.20
   19     6    1.50
   20     1    1.20
   21     1    1.20
   22     8    1.40
   23     6    1.50
   24     1    1.20
   25     1    1.20
   26     6    1.50
   27     1    1.20
   28     1    1.20
   29    16    1.75
   30     6    1.50
   31     1    1.20
   32     1    1.20
   33     6    1.50
   34     1    1.20
   35     1    1.20
   36    16    1.75
   37     6    1.50
   38     1    1.20
   39     1    1.20
   40     6    1.50
   41     1    1.20
   42     1    1.20
   43    16    1.75
   44     6    1.50
   45     1    1.20
   46     1    1.20
   47     6    1.50
   48     1    1.20
   49     1    1.20
   50     1    1.20
 Generate VDW surfaces: Layer= 4 Dens= 1 Start= 1.400 Inc= 0.200
            Electrostatic Properties Using The SCF Density.


       Atomic Center    1 is at  -5.875753 -0.864444 -4.167986
       Atomic Center    2 is at  -5.020776 -0.817366 -4.852512
       Atomic Center    3 is at  -6.348733 -1.846473 -4.291392
       Atomic Center    4 is at  -6.593440 -0.093320 -4.467412
       Atomic Center    5 is at  -5.444287 -0.656694 -2.717802
       Atomic Center    6 is at  -6.317025 -0.714668 -2.057129
       Atomic Center    7 is at  -4.734986 -1.429236 -2.399945
       Atomic Center    8 is at  -4.892318  0.643430 -2.502067
       Atomic Center    9 is at  -3.509715  0.775077 -2.784826
       Atomic Center   10 is at  -3.353769  1.809631 -3.116419
       Atomic Center   11 is at  -3.198371  0.112454 -3.605838
       Atomic Center   12 is at  -2.623817  0.529644 -1.572027
       Atomic Center   13 is at  -1.604647  0.886082 -1.777119
       Atomic Center   14 is at  -3.015933  1.100579 -0.716309
       Atomic Center   15 is at  -2.620091 -0.863308 -1.271274
       Atomic Center   16 is at  -2.079056 -1.216337 -0.012194
       Atomic Center   17 is at  -2.481182 -2.209550  0.220324
       Atomic Center   18 is at  -2.416454 -0.518316  0.769878
       Atomic Center   19 is at  -0.558723 -1.303973  0.013403
       Atomic Center   20 is at  -0.211682 -1.884033 -0.856983
       Atomic Center   21 is at  -0.243475 -1.842987  0.924639
       Atomic Center   22 is at   0.000000  0.000000  0.000000
       Atomic Center   23 is at   1.417445  0.000000  0.000000
       Atomic Center   24 is at   1.810445 -0.521665 -0.886704
       Atomic Center   25 is at   1.797512 -0.529976  0.889086
       Atomic Center   26 is at   1.877921  1.453884  0.000000
       Atomic Center   27 is at   1.453137  1.987930  0.856444
       Atomic Center   28 is at   1.521404  1.952370 -0.906751
       Atomic Center   29 is at   3.699944  1.650273 -0.007511
       Atomic Center   30 is at   4.092020  1.301527  1.759261
       Atomic Center   31 is at   3.470388  1.941419  2.394010
       Atomic Center   32 is at   3.867089  0.256471  1.993630
       Atomic Center   33 is at   5.572251  1.589758  2.005043
       Atomic Center   34 is at   5.788149  2.646418  1.813609
       Atomic Center   35 is at   6.189772  0.982293  1.335729
       Atomic Center   36 is at   5.975577  1.203940  3.760230
       Atomic Center   37 is at   7.688078  1.868259  3.873082
       Atomic Center   38 is at   7.902800  1.909469  4.945141
       Atomic Center   39 is at   7.697090  2.898235  3.503445
       Atomic Center   40 is at   8.734781  1.006172  3.162978
       Atomic Center   41 is at   8.702122 -0.012888  3.558817
       Atomic Center   42 is at   8.542455  0.941731  2.086943
       Atomic Center   43 is at  10.463158  1.603177  3.403613
       Atomic Center   44 is at  10.768110  2.569512  1.867233
       Atomic Center   45 is at  11.848787  2.748086  1.885989
       Atomic Center   46 is at  10.568171  1.921267  1.006349
       Atomic Center   47 is at  10.014594  3.893095  1.746292
       Atomic Center   48 is at  10.330864  4.425582  0.840255
       Atomic Center   49 is at   8.932860  3.737514  1.674305
       Atomic Center   50 is at  10.208521  4.537175  2.609695
      ESP Fit Center   51 is at  -7.620738 -0.352070 -3.117986
      ESP Fit Center   52 is at  -7.620738 -1.376818 -3.117986
      ESP Fit Center   53 is at  -4.682817 -2.592710 -4.167986
      ESP Fit Center   54 is at  -6.925753 -0.864444 -5.986639
      ESP Fit Center   55 is at  -6.400753 -1.773771 -5.986639
      ESP Fit Center   56 is at  -3.796809 -1.844396 -4.333363
      ESP Fit Center   57 is at  -3.423001 -0.817366 -5.371661
      ESP Fit Center   58 is at  -3.796809  0.209664 -5.371661
      ESP Fit Center   59 is at  -4.743325  0.756135 -5.371661
      ESP Fit Center   60 is at  -4.743325 -2.390867 -5.371661
      ESP Fit Center   61 is at  -3.796809 -1.844396 -5.371661
      ESP Fit Center   62 is at  -4.033297 -0.817366 -6.211661
      ESP Fit Center   63 is at  -4.715628  0.121783 -6.211661
      ESP Fit Center   64 is at  -5.819663 -0.236940 -6.211661
      ESP Fit Center   65 is at  -5.819663 -1.397792 -6.211661
      ESP Fit Center   66 is at  -4.715628 -1.756515 -6.211661
      ESP Fit Center   67 is at  -5.020776 -0.817366 -6.532512
      ESP Fit Center   68 is at  -7.147620 -2.426899 -2.932243
      ESP Fit Center   69 is at  -6.043585 -2.785622 -2.932243
      ESP Fit Center   70 is at  -7.850150 -2.392944 -3.772243
      ESP Fit Center   71 is at  -7.147620 -3.230187 -3.772243
      ESP Fit Center   72 is at  -6.071282 -3.419974 -3.772243
      ESP Fit Center   73 is at  -5.124766 -2.873503 -3.772243
      ESP Fit Center   74 is at  -7.850150 -1.300002 -4.810541
      ESP Fit Center   75 is at  -7.850150 -2.392944 -4.810541
      ESP Fit Center   76 is at  -7.147620 -3.230187 -4.810541
      ESP Fit Center   77 is at  -6.071282 -3.419974 -4.810541
      ESP Fit Center   78 is at  -5.124766 -2.873503 -4.810541
      ESP Fit Center   79 is at  -7.147620 -2.426899 -5.650541
      ESP Fit Center   80 is at  -6.043585 -2.785622 -5.650541
      ESP Fit Center   81 is at  -6.348733 -1.846473 -5.971392
      ESP Fit Center   82 is at  -7.392327  0.487106 -3.108263
      ESP Fit Center   83 is at  -6.315989  1.480181 -3.948263
      ESP Fit Center   84 is at  -7.392327  1.290394 -3.948263
      ESP Fit Center   85 is at  -8.094857  0.453151 -3.948263
      ESP Fit Center   86 is at  -8.094857 -0.639791 -3.948263
      ESP Fit Center   87 is at  -6.315989  1.480181 -4.986561
      ESP Fit Center   88 is at  -7.392327  1.290394 -4.986561
      ESP Fit Center   89 is at  -8.094857  0.453151 -4.986561
      ESP Fit Center   90 is at  -8.094857 -0.639791 -4.986561
      ESP Fit Center   91 is at  -6.288292  0.845829 -5.826561
      ESP Fit Center   92 is at  -7.392327  0.487106 -5.826561
      ESP Fit Center   93 is at  -7.392327 -0.673746 -5.826561
      ESP Fit Center   94 is at  -6.593440 -0.093320 -6.147412
      ESP Fit Center   95 is at  -5.444287 -0.656694 -0.617802
      ESP Fit Center   96 is at  -7.016160  0.735864 -2.717802
      ESP Fit Center   97 is at  -6.188957 -2.620228 -2.717802
      ESP Fit Center   98 is at  -6.317025 -0.714668 -0.377129
      ESP Fit Center   99 is at  -6.011877  0.224481 -0.697980
      ESP Fit Center  100 is at  -7.115912 -0.134242 -0.697980
      ESP Fit Center  101 is at  -7.115912 -1.295094 -0.697980
      ESP Fit Center  102 is at  -6.011877 -1.653817 -0.697980
      ESP Fit Center  103 is at  -7.115912  0.669046 -1.537980
      ESP Fit Center  104 is at  -7.818442 -0.168197 -1.537980
      ESP Fit Center  105 is at  -7.818442 -1.261139 -1.537980
      ESP Fit Center  106 is at  -7.115912 -2.098382 -1.537980
      ESP Fit Center  107 is at  -7.115912  0.669046 -2.576278
      ESP Fit Center  108 is at  -7.818442 -0.168197 -2.576278
      ESP Fit Center  109 is at  -7.818442 -1.261139 -2.576278
      ESP Fit Center  110 is at  -7.115912 -2.098382 -2.576278
      ESP Fit Center  111 is at  -4.734986 -1.429236 -0.719945
      ESP Fit Center  112 is at  -5.533873 -2.009662 -1.040796
      ESP Fit Center  113 is at  -4.429838 -2.368385 -1.040796
      ESP Fit Center  114 is at  -5.533873 -2.812950 -1.880796
      ESP Fit Center  115 is at  -4.457535 -3.002737 -1.880796
      ESP Fit Center  116 is at  -5.533873 -2.812950 -2.919094
      ESP Fit Center  117 is at  -4.457535 -3.002737 -2.919094
      ESP Fit Center  118 is at  -3.511019 -2.456266 -2.919094
      ESP Fit Center  119 is at  -4.429838 -2.368385 -3.759094
      ESP Fit Center  120 is at  -4.892318  0.643430 -0.542067
      ESP Fit Center  121 is at  -5.382318  1.492135 -0.804657
      ESP Fit Center  122 is at  -5.872318  0.643430 -0.804657
      ESP Fit Center  123 is at  -4.367790  2.257763 -1.522067
      ESP Fit Center  124 is at  -5.416846  2.257763 -1.522067
      ESP Fit Center  125 is at  -6.265551  1.641142 -1.522067
      ESP Fit Center  126 is at  -4.892318  2.603430 -2.502067
      ESP Fit Center  127 is at  -5.872318  2.340840 -2.502067
      ESP Fit Center  128 is at  -6.589728  1.623430 -2.502067
      ESP Fit Center  129 is at  -5.416846  2.257763 -3.482067
      ESP Fit Center  130 is at  -6.265551  1.641142 -3.482067
      ESP Fit Center  131 is at  -5.382318  1.492135 -4.199477
      ESP Fit Center  132 is at  -3.048621  2.748780 -1.757270
      ESP Fit Center  133 is at  -2.129802  2.836661 -2.597270
      ESP Fit Center  134 is at  -3.076318  3.383132 -2.597270
      ESP Fit Center  135 is at  -4.152656  3.193345 -2.597270
      ESP Fit Center  136 is at  -1.755994  1.809631 -3.635568
      ESP Fit Center  137 is at  -2.129802  2.836661 -3.635568
      ESP Fit Center  138 is at  -3.076318  3.383132 -3.635568
      ESP Fit Center  139 is at  -4.152656  3.193345 -3.635568
      ESP Fit Center  140 is at  -4.855186  2.356102 -3.635568
      ESP Fit Center  141 is at  -2.366290  1.809631 -4.475568
      ESP Fit Center  142 is at  -3.048621  2.748780 -4.475568
      ESP Fit Center  143 is at  -4.152656  2.390057 -4.475568
      ESP Fit Center  144 is at  -3.353769  1.809631 -4.796419
      ESP Fit Center  145 is at  -1.600596  0.112454 -4.124987
      ESP Fit Center  146 is at  -2.920920 -1.461047 -4.124987
      ESP Fit Center  147 is at  -1.974404 -0.914576 -4.124987
      ESP Fit Center  148 is at  -2.210892  0.112454 -4.964987
      ESP Fit Center  149 is at  -2.893223  1.051603 -4.964987
      ESP Fit Center  150 is at  -3.997258  0.692880 -4.964987
      ESP Fit Center  151 is at  -2.893223 -0.826695 -4.964987
      ESP Fit Center  152 is at  -3.198371  0.112454 -5.285838
      ESP Fit Center  153 is at  -4.368802  0.017270 -0.522027
      ESP Fit Center  154 is at  -2.370690  2.614333 -1.572027
      ESP Fit Center  155 is at  -1.299499  1.825231 -0.417970
      ESP Fit Center  156 is at  -0.380680  1.913112 -1.257970
      ESP Fit Center  157 is at  -1.327196  2.459583 -1.257970
      ESP Fit Center  158 is at  -0.006872  0.886082 -2.296268
      ESP Fit Center  159 is at  -0.380680  1.913112 -2.296268
      ESP Fit Center  160 is at  -1.327196  2.459583 -2.296268
      ESP Fit Center  161 is at  -0.380680 -0.140948 -2.296268
      ESP Fit Center  162 is at  -0.617168  0.886082 -3.136268
      ESP Fit Center  163 is at  -1.299499  1.825231 -3.136268
      ESP Fit Center  164 is at  -1.299499 -0.053067 -3.136268
      ESP Fit Center  165 is at  -3.015933  1.100579  0.963691
      ESP Fit Center  166 is at  -2.710785  2.039728  0.642840
      ESP Fit Center  167 is at  -3.814820  1.681005  0.642840
      ESP Fit Center  168 is at  -3.814820  0.520153  0.642840
      ESP Fit Center  169 is at  -1.791966  2.127609 -0.197160
      ESP Fit Center  170 is at  -2.738482  2.674080 -0.197160
      ESP Fit Center  171 is at  -3.814820  2.484293 -0.197160
      ESP Fit Center  172 is at  -4.517350  1.647050 -0.197160
      ESP Fit Center  173 is at  -4.517350  0.554108 -0.197160
      ESP Fit Center  174 is at  -2.738482  2.674080 -1.235458
      ESP Fit Center  175 is at  -3.814820  2.484293 -1.235458
      ESP Fit Center  176 is at  -4.317501 -0.863308 -0.291274
      ESP Fit Center  177 is at  -3.600091 -2.560718 -1.271274
      ESP Fit Center  178 is at  -0.922681 -0.863308 -2.251274
      ESP Fit Center  179 is at  -3.144619 -2.477641 -2.251274
      ESP Fit Center  180 is at  -2.095563 -2.477641 -2.251274
      ESP Fit Center  181 is at  -1.246858 -1.861020 -2.251274
      ESP Fit Center  182 is at  -1.640091 -0.863308 -2.968684
      ESP Fit Center  183 is at  -3.110091 -1.712013 -2.968684
      ESP Fit Center  184 is at  -2.130091 -1.712013 -2.968684
      ESP Fit Center  185 is at  -4.118034 -0.713774 -0.012194
      ESP Fit Center  186 is at  -4.118034 -1.718900 -0.012194
      ESP Fit Center  187 is at  -2.481182 -2.209550  1.900324
      ESP Fit Center  188 is at  -3.280069 -2.789976  1.579473
      ESP Fit Center  189 is at  -2.176034 -3.148699  1.579473
      ESP Fit Center  190 is at  -3.982599 -2.756021  0.739473
      ESP Fit Center  191 is at  -3.280069 -3.593264  0.739473
      ESP Fit Center  192 is at  -2.203731 -3.783051  0.739473
      ESP Fit Center  193 is at  -1.257215 -3.236580  0.739473
      ESP Fit Center  194 is at  -3.982599 -2.756021 -0.298825
      ESP Fit Center  195 is at  -3.280069 -3.593264 -0.298825
      ESP Fit Center  196 is at  -2.203731 -3.783051 -0.298825
      ESP Fit Center  197 is at  -3.280069 -2.789976 -1.138825
      ESP Fit Center  198 is at  -2.176034 -3.148699 -1.138825
      ESP Fit Center  199 is at  -2.416454 -0.518316  2.449878
      ESP Fit Center  200 is at  -1.428975 -0.518316  2.129027
      ESP Fit Center  201 is at  -2.111306  0.420833  2.129027
      ESP Fit Center  202 is at  -3.215341  0.062110  2.129027
      ESP Fit Center  203 is at  -3.215341 -1.098742  2.129027
      ESP Fit Center  204 is at  -2.111306 -1.457465  2.129027
      ESP Fit Center  205 is at  -2.139003  1.055185  1.289027
      ESP Fit Center  206 is at  -3.215341  0.865398  1.289027
      ESP Fit Center  207 is at  -3.917871  0.028155  1.289027
      ESP Fit Center  208 is at  -3.917871 -1.064787  1.289027
      ESP Fit Center  209 is at  -3.917871  0.028155  0.250729
      ESP Fit Center  210 is at  -1.083723 -0.394646  1.832056
      ESP Fit Center  211 is at  -0.305596 -3.388662  0.013403
      ESP Fit Center  212 is at   1.300735 -2.279892  0.013403
      ESP Fit Center  213 is at   0.065769 -3.457534 -0.337834
      ESP Fit Center  214 is at   1.012285 -2.911063 -0.337834
      ESP Fit Center  215 is at  -1.010569 -3.267747 -1.376132
      ESP Fit Center  216 is at   0.065769 -3.457534 -1.376132
      ESP Fit Center  217 is at   1.012285 -2.911063 -1.376132
      ESP Fit Center  218 is at   0.775797 -1.884033 -2.216132
      ESP Fit Center  219 is at   0.093466 -0.944884 -2.216132
      ESP Fit Center  220 is at  -1.010569 -2.464459 -2.216132
      ESP Fit Center  221 is at   0.093466 -2.823182 -2.216132
      ESP Fit Center  222 is at  -0.211682 -1.884033 -2.536983
      ESP Fit Center  223 is at  -0.243475 -1.842987  2.604639
      ESP Fit Center  224 is at   0.744004 -1.842987  2.283788
      ESP Fit Center  225 is at   0.061673 -0.903838  2.283788
      ESP Fit Center  226 is at  -1.042362 -1.262561  2.283788
      ESP Fit Center  227 is at  -1.042362 -2.423413  2.283788
      ESP Fit Center  228 is at   0.061673 -2.782136  2.283788
      ESP Fit Center  229 is at  -1.042362 -3.226701  1.443788
      ESP Fit Center  230 is at   0.033976 -3.416488  1.443788
      ESP Fit Center  231 is at   0.980492 -2.870017  1.443788
      ESP Fit Center  232 is at   0.033976 -3.416488  0.405490
      ESP Fit Center  233 is at   0.980492 -2.870017  0.405490
      ESP Fit Center  234 is at   0.000000  0.000000  1.960000
      ESP Fit Center  235 is at   0.490000  0.848705  1.697410
      ESP Fit Center  236 is at  -0.490000  0.848705  1.697410
      ESP Fit Center  237 is at  -0.980000  0.000000  1.697410
      ESP Fit Center  238 is at  -0.524528  1.614333  0.980000
      ESP Fit Center  239 is at  -1.373233  0.997712  0.980000
      ESP Fit Center  240 is at  -0.980000  1.697410  0.000000
      ESP Fit Center  241 is at   0.490000  0.848705 -1.697410
      ESP Fit Center  242 is at   0.000000  0.000000 -1.960000
      ESP Fit Center  243 is at   1.670572 -2.084689  0.000000
      ESP Fit Center  244 is at   2.610381 -1.728266  0.000000
      ESP Fit Center  245 is at   3.276903 -0.975919  0.000000
      ESP Fit Center  246 is at   2.087896 -2.095166 -0.367555
      ESP Fit Center  247 is at   3.034412 -1.548695 -0.367555
      ESP Fit Center  248 is at   3.408220 -0.521665 -1.405853
      ESP Fit Center  249 is at   2.087896 -2.095166 -1.405853
      ESP Fit Center  250 is at   3.034412 -1.548695 -1.405853
      ESP Fit Center  251 is at   2.797924 -0.521665 -2.245853
      ESP Fit Center  252 is at   2.115593  0.417484 -2.245853
      ESP Fit Center  253 is at   1.011558  0.058761 -2.245853
      ESP Fit Center  254 is at   1.011558 -1.102091 -2.245853
      ESP Fit Center  255 is at   2.115593 -1.460814 -2.245853
      ESP Fit Center  256 is at   1.810445 -0.521665 -2.566704
      ESP Fit Center  257 is at   1.797512 -0.529976  2.569086
      ESP Fit Center  258 is at   2.102660  0.409173  2.248235
      ESP Fit Center  259 is at   0.998625  0.050450  2.248235
      ESP Fit Center  260 is at   0.998625 -1.110402  2.248235
      ESP Fit Center  261 is at   2.102660 -1.469125  2.248235
      ESP Fit Center  262 is at   2.074963 -2.103477  1.408235
      ESP Fit Center  263 is at   3.021479 -1.557006  1.408235
      ESP Fit Center  264 is at   2.074963 -2.103477  0.369937
      ESP Fit Center  265 is at   3.021479 -1.557006  0.369937
      ESP Fit Center  266 is at   2.131048  3.538573  0.000000
      ESP Fit Center  267 is at   1.133251  3.417418  0.000000
      ESP Fit Center  268 is at  -0.161057  1.956447  0.000000
      ESP Fit Center  269 is at   1.453137  1.987930  2.536444
      ESP Fit Center  270 is at   1.758285  2.927079  2.215593
      ESP Fit Center  271 is at   0.654250  2.568356  2.215593
      ESP Fit Center  272 is at   0.654250  1.407504  2.215593
      ESP Fit Center  273 is at   1.758285  1.048781  2.215593
      ESP Fit Center  274 is at   1.730588  3.561431  1.375593
      ESP Fit Center  275 is at   0.654250  3.371644  1.375593
      ESP Fit Center  276 is at  -0.048280  2.534401  1.375593
      ESP Fit Center  277 is at  -0.048280  1.441459  1.375593
      ESP Fit Center  278 is at   1.730588  3.561431  0.337295
      ESP Fit Center  279 is at   0.654250  3.371644  0.337295
      ESP Fit Center  280 is at  -0.048280  2.534401  0.337295
      ESP Fit Center  281 is at   1.798855  3.525871 -0.387602
      ESP Fit Center  282 is at   0.722517  3.336084 -0.387602
      ESP Fit Center  283 is at   0.019987  2.498841 -0.387602
      ESP Fit Center  284 is at   1.798855  3.525871 -1.425900
      ESP Fit Center  285 is at   0.722517  3.336084 -1.425900
      ESP Fit Center  286 is at   0.019987  2.498841 -1.425900
      ESP Fit Center  287 is at   0.019987  1.405899 -1.425900
      ESP Fit Center  288 is at   2.508883  1.952370 -2.265900
      ESP Fit Center  289 is at   1.826552  2.891519 -2.265900
      ESP Fit Center  290 is at   0.722517  2.532796 -2.265900
      ESP Fit Center  291 is at   0.722517  1.371944 -2.265900
      ESP Fit Center  292 is at   1.826552  1.013221 -2.265900
      ESP Fit Center  293 is at   1.521404  1.952370 -2.586751
      ESP Fit Center  294 is at   3.427342  3.546263  1.520039
      ESP Fit Center  295 is at   4.231452  3.978960  0.537665
      ESP Fit Center  296 is at   3.168436  3.978960  0.537665
      ESP Fit Center  297 is at   2.210693  3.517735  0.537665
      ESP Fit Center  298 is at   4.231452 -0.678414  0.537665
      ESP Fit Center  299 is at   5.189195 -0.217189  0.537665
      ESP Fit Center  300 is at   6.088517  1.650273 -0.552687
      ESP Fit Center  301 is at   5.851974  2.686636 -0.552687
      ESP Fit Center  302 is at   5.189195  3.517735 -0.552687
      ESP Fit Center  303 is at   4.231452  3.978960 -0.552687
      ESP Fit Center  304 is at   3.168436  3.978960 -0.552687
      ESP Fit Center  305 is at   2.210693  3.517735 -0.552687
      ESP Fit Center  306 is at   4.231452 -0.678414 -0.552687
      ESP Fit Center  307 is at   5.189195 -0.217189 -0.552687
      ESP Fit Center  308 is at   5.851974  0.613910 -0.552687
      ESP Fit Center  309 is at   5.615431  1.650273 -1.535061
      ESP Fit Center  310 is at   5.311354  2.685864 -1.535061
      ESP Fit Center  311 is at   4.495666  3.392661 -1.535061
      ESP Fit Center  312 is at   3.427342  3.546263 -1.535061
      ESP Fit Center  313 is at   3.427342 -0.245717 -1.535061
      ESP Fit Center  314 is at   4.495666 -0.092115 -1.535061
      ESP Fit Center  315 is at   5.311354  0.614682 -1.535061
      ESP Fit Center  316 is at   4.762959  1.650273 -2.214885
      ESP Fit Center  317 is at   4.231452  2.570871 -2.214885
      ESP Fit Center  318 is at   3.168436  2.570871 -2.214885
      ESP Fit Center  319 is at   2.636929  1.650273 -2.214885
      ESP Fit Center  320 is at   3.168436  0.729675 -2.214885
      ESP Fit Center  321 is at   4.231452  0.729675 -2.214885
      ESP Fit Center  322 is at   3.699944  1.650273 -2.457511
      ESP Fit Center  323 is at   3.470388  1.941419  4.074010
      ESP Fit Center  324 is at   3.775536  2.880568  3.753159
      ESP Fit Center  325 is at   2.671501  2.521845  3.753159
      ESP Fit Center  326 is at   2.671501  1.360993  3.753159
      ESP Fit Center  327 is at   3.747839  3.514920  2.913159
      ESP Fit Center  328 is at   2.671501  3.325133  2.913159
      ESP Fit Center  329 is at   1.968971  2.487890  2.913159
      ESP Fit Center  330 is at   1.968971  1.394948  2.913159
      ESP Fit Center  331 is at   3.747839  3.514920  1.874861
      ESP Fit Center  332 is at   2.671501  3.325133  1.874861
      ESP Fit Center  333 is at   3.068202 -0.323955  3.352779
      ESP Fit Center  334 is at   4.172237 -0.682678  3.352779
      ESP Fit Center  335 is at   2.365672 -0.290000  2.512779
      ESP Fit Center  336 is at   3.068202 -1.127243  2.512779
      ESP Fit Center  337 is at   4.144540 -1.317030  2.512779
      ESP Fit Center  338 is at   5.091056 -0.770559  2.512779
      ESP Fit Center  339 is at   4.144540 -1.317030  1.474481
      ESP Fit Center  340 is at   5.091056 -0.770559  1.474481
      ESP Fit Center  341 is at   4.172237 -0.682678  0.634481
      ESP Fit Center  342 is at   6.093297  3.585567  3.172758
      ESP Fit Center  343 is at   6.065600  4.219919  2.332758
      ESP Fit Center  344 is at   4.989262  4.030132  2.332758
      ESP Fit Center  345 is at   7.385924  2.646418  1.294460
      ESP Fit Center  346 is at   7.012116  3.673448  1.294460
      ESP Fit Center  347 is at   6.065600  4.219919  1.294460
      ESP Fit Center  348 is at   4.989262  4.030132  1.294460
      ESP Fit Center  349 is at   6.775628  2.646418  0.454460
      ESP Fit Center  350 is at   6.093297  3.585567  0.454460
      ESP Fit Center  351 is at   6.467223 -0.591208  1.854878
      ESP Fit Center  352 is at   7.413739  2.009323  0.816580
      ESP Fit Center  353 is at   5.390885 -0.401421  0.816580
      ESP Fit Center  354 is at   6.467223 -0.591208  0.816580
      ESP Fit Center  355 is at   7.413739 -0.044737  0.816580
      ESP Fit Center  356 is at   7.177251  0.982293 -0.023420
      ESP Fit Center  357 is at   6.494920  1.921442 -0.023420
      ESP Fit Center  358 is at   6.494920  0.043144 -0.023420
      ESP Fit Center  359 is at   6.189772  0.982293 -0.344271
      ESP Fit Center  360 is at   5.975577  1.203940  6.210230
      ESP Fit Center  361 is at   6.507085  2.124538  5.967604
      ESP Fit Center  362 is at   5.444069  2.124538  5.967604
      ESP Fit Center  363 is at   4.912562  1.203940  5.967604
      ESP Fit Center  364 is at   5.444069  0.283342  5.967604
      ESP Fit Center  365 is at   6.507085  0.283342  5.967604
      ESP Fit Center  366 is at   5.702975  3.099930  5.287780
      ESP Fit Center  367 is at   4.721200  2.651569  5.287780
      ESP Fit Center  368 is at   4.137681  1.743595  5.287780
      ESP Fit Center  369 is at   4.137681  0.664285  5.287780
      ESP Fit Center  370 is at   4.721200 -0.243689  5.287780
      ESP Fit Center  371 is at   5.702975 -0.692050  5.287780
      ESP Fit Center  372 is at   6.771299 -0.538448  5.287780
      ESP Fit Center  373 is at   7.586987  0.168349  5.287780
      ESP Fit Center  374 is at   5.444069  3.532627  4.305406
      ESP Fit Center  375 is at   4.486326  3.071402  4.305406
      ESP Fit Center  376 is at   3.823547  2.240303  4.305406
      ESP Fit Center  377 is at   3.587004  1.203940  4.305406
      ESP Fit Center  378 is at   3.823547  0.167577  4.305406
      ESP Fit Center  379 is at   4.486326 -0.663522  4.305406
      ESP Fit Center  380 is at   5.444069 -1.124747  4.305406
      ESP Fit Center  381 is at   6.507085 -1.124747  4.305406
      ESP Fit Center  382 is at   5.444069  3.532627  3.215054
      ESP Fit Center  383 is at   4.486326  3.071402  3.215054
      ESP Fit Center  384 is at   5.444069 -1.124747  3.215054
      ESP Fit Center  385 is at   6.507085 -1.124747  3.215054
      ESP Fit Center  386 is at   5.702975 -0.692050  2.232680
      ESP Fit Center  387 is at   6.771299 -0.538448  2.232680
      ESP Fit Center  388 is at   8.443574  3.522564  4.923082
      ESP Fit Center  389 is at   7.902800  1.909469  6.625141
      ESP Fit Center  390 is at   8.890279  1.909469  6.304290
      ESP Fit Center  391 is at   8.207948  2.848618  6.304290
      ESP Fit Center  392 is at   7.103913  2.489895  6.304290
      ESP Fit Center  393 is at   7.103913  1.329043  6.304290
      ESP Fit Center  394 is at   8.207948  0.970320  6.304290
      ESP Fit Center  395 is at   9.126767  2.936499  5.464290
      ESP Fit Center  396 is at   8.180251  3.482970  5.464290
      ESP Fit Center  397 is at   7.103913  3.293183  5.464290
      ESP Fit Center  398 is at   8.180251  0.335968  5.464290
      ESP Fit Center  399 is at   9.126767  0.882439  5.464290
      ESP Fit Center  400 is at   8.002238  3.837384  4.862594
      ESP Fit Center  401 is at   8.921057  3.925265  4.022594
      ESP Fit Center  402 is at   7.974541  4.471736  4.022594
      ESP Fit Center  403 is at   6.898203  4.281949  4.022594
      ESP Fit Center  404 is at   7.974541  4.471736  2.984296
      ESP Fit Center  405 is at   6.898203  4.281949  2.984296
      ESP Fit Center  406 is at   9.490277 -0.648133  2.112978
      ESP Fit Center  407 is at   8.702122 -0.012888  5.238817
      ESP Fit Center  408 is at   7.903235 -0.593314  4.917966
      ESP Fit Center  409 is at   9.007270 -0.952037  4.917966
      ESP Fit Center  410 is at   7.903235 -1.396602  4.077966
      ESP Fit Center  411 is at   8.979573 -1.586389  4.077966
      ESP Fit Center  412 is at   9.926089 -1.039918  4.077966
      ESP Fit Center  413 is at   7.903235 -1.396602  3.039668
      ESP Fit Center  414 is at   8.979573 -1.586389  3.039668
      ESP Fit Center  415 is at   9.926089 -1.039918  3.039668
      ESP Fit Center  416 is at   9.007270 -0.952037  2.199668
      ESP Fit Center  417 is at   7.743568  2.325445  1.567794
      ESP Fit Center  418 is at   7.743568 -0.441983  1.567794
      ESP Fit Center  419 is at   8.819906 -0.631770  1.567794
      ESP Fit Center  420 is at   9.766422 -0.085299  1.567794
      ESP Fit Center  421 is at   8.847603  1.880880  0.727794
      ESP Fit Center  422 is at   7.743568  1.522157  0.727794
      ESP Fit Center  423 is at   7.743568  0.361305  0.727794
      ESP Fit Center  424 is at   8.847603  0.002582  0.727794
      ESP Fit Center  425 is at   8.542455  0.941731  0.406943
      ESP Fit Center  426 is at  10.463158  1.603177  5.853613
      ESP Fit Center  427 is at  11.526173  1.603177  5.610987
      ESP Fit Center  428 is at  10.994666  2.523775  5.610987
      ESP Fit Center  429 is at   9.931650  2.523775  5.610987
      ESP Fit Center  430 is at   9.931650  0.682579  5.610987
      ESP Fit Center  431 is at  10.994666  0.682579  5.610987
      ESP Fit Center  432 is at  12.378645  1.603177  4.931163
      ESP Fit Center  433 is at  12.074568  2.638768  4.931163
      ESP Fit Center  434 is at  11.258880  3.345565  4.931163
      ESP Fit Center  435 is at  10.190556  3.499167  4.931163
      ESP Fit Center  436 is at   9.208781  3.050806  4.931163
      ESP Fit Center  437 is at  10.190556 -0.292813  4.931163
      ESP Fit Center  438 is at  11.258880 -0.139211  4.931163
      ESP Fit Center  439 is at  12.074568  0.567586  4.931163
      ESP Fit Center  440 is at  12.851731  1.603177  3.948789
      ESP Fit Center  441 is at  12.615188  2.639540  3.948789
      ESP Fit Center  442 is at  11.952409  3.470639  3.948789
      ESP Fit Center  443 is at  10.994666 -0.725510  3.948789
      ESP Fit Center  444 is at  11.952409 -0.264285  3.948789
      ESP Fit Center  445 is at  12.615188  0.566814  3.948789
      ESP Fit Center  446 is at  12.851731  1.603177  2.858437
      ESP Fit Center  447 is at  10.994666 -0.725510  2.858437
      ESP Fit Center  448 is at  11.952409 -0.264285  2.858437
      ESP Fit Center  449 is at  12.615188  0.566814  2.858437
      ESP Fit Center  450 is at  10.190556 -0.292813  1.876063
      ESP Fit Center  451 is at  11.258880 -0.139211  1.876063
      ESP Fit Center  452 is at  12.074568  0.567586  1.876063
      ESP Fit Center  453 is at  11.818110  2.569512  0.048580
      ESP Fit Center  454 is at  12.836266  2.748086  3.245138
      ESP Fit Center  455 is at  12.153935  3.687235  3.245138
      ESP Fit Center  456 is at  13.446562  2.748086  2.405138
      ESP Fit Center  457 is at  13.072754  3.775116  2.405138
      ESP Fit Center  458 is at  12.126238  4.321587  2.405138
      ESP Fit Center  459 is at  13.072754  1.721056  2.405138
      ESP Fit Center  460 is at  13.446562  2.748086  1.366840
      ESP Fit Center  461 is at  13.072754  3.775116  1.366840
      ESP Fit Center  462 is at  12.126238  4.321587  1.366840
      ESP Fit Center  463 is at  13.072754  1.721056  1.366840
      ESP Fit Center  464 is at  12.836266  2.748086  0.526840
      ESP Fit Center  465 is at  12.153935  3.687235  0.526840
      ESP Fit Center  466 is at   9.066754  2.467738  0.487200
      ESP Fit Center  467 is at   9.066754  1.374796  0.487200
      ESP Fit Center  468 is at   9.769284  0.537553  0.487200
      ESP Fit Center  469 is at  10.845622  0.347766  0.487200
      ESP Fit Center  470 is at  11.792138  0.894237  0.487200
      ESP Fit Center  471 is at  11.555650  1.921267 -0.352800
      ESP Fit Center  472 is at  10.873319  2.860416 -0.352800
      ESP Fit Center  473 is at   9.769284  2.501693 -0.352800
      ESP Fit Center  474 is at   9.769284  1.340841 -0.352800
      ESP Fit Center  475 is at  10.873319  0.982118 -0.352800
      ESP Fit Center  476 is at  10.568171  1.921267 -0.673651
      ESP Fit Center  477 is at  11.874052  4.869014  1.746292
      ESP Fit Center  478 is at  11.207530  5.621361  1.746292
      ESP Fit Center  479 is at  10.267721  5.977784  1.746292
      ESP Fit Center  480 is at   9.269924  5.856629  1.746292
      ESP Fit Center  481 is at   8.823629  5.267541  0.696292
      ESP Fit Center  482 is at   8.964594  3.893095 -0.072361
      ESP Fit Center  483 is at   9.489594  2.983768 -0.072361
      ESP Fit Center  484 is at  11.554831  5.452612  1.359404
      ESP Fit Center  485 is at  10.608315  5.999083  1.359404
      ESP Fit Center  486 is at  11.928639  4.425582  0.321106
      ESP Fit Center  487 is at  11.554831  5.452612  0.321106
      ESP Fit Center  488 is at  10.608315  5.999083  0.321106
      ESP Fit Center  489 is at   9.531977  5.809296  0.321106
      ESP Fit Center  490 is at   8.829447  4.972053  0.321106
      ESP Fit Center  491 is at  11.318343  4.425582 -0.518894
      ESP Fit Center  492 is at  10.636012  5.364731 -0.518894
      ESP Fit Center  493 is at   9.531977  5.006008 -0.518894
      ESP Fit Center  494 is at   9.531977  3.845156 -0.518894
      ESP Fit Center  495 is at  10.636012  3.486433 -0.518894
      ESP Fit Center  496 is at  10.330864  4.425582 -0.839745
      ESP Fit Center  497 is at   8.133973  5.121228  2.193454
      ESP Fit Center  498 is at   7.431443  4.283985  2.193454
      ESP Fit Center  499 is at   8.133973  5.121228  1.155156
      ESP Fit Center  500 is at   7.431443  4.283985  1.155156
      ESP Fit Center  501 is at   7.431443  3.191043  1.155156
      ESP Fit Center  502 is at   8.133973  2.353800  1.155156
      ESP Fit Center  503 is at   8.133973  4.317940  0.315156
      ESP Fit Center  504 is at   8.133973  3.157088  0.315156
      ESP Fit Center  505 is at  10.208521  4.537175  4.289695
      ESP Fit Center  506 is at  11.196000  4.537175  3.968844
      ESP Fit Center  507 is at  10.513669  5.476324  3.968844
      ESP Fit Center  508 is at   9.409634  5.117601  3.968844
      ESP Fit Center  509 is at   9.409634  3.956749  3.968844
      ESP Fit Center  510 is at  11.806296  4.537175  3.128844
      ESP Fit Center  511 is at  11.432488  5.564205  3.128844
      ESP Fit Center  512 is at  10.485972  6.110676  3.128844
      ESP Fit Center  513 is at   9.409634  5.920889  3.128844
      ESP Fit Center  514 is at   8.707104  5.083646  3.128844
      ESP Fit Center  515 is at  11.432488  5.564205  2.090546
      ESP Fit Center  516 is at  10.485972  6.110676  2.090546
      ESP Fit Center  517 is at   9.409634  5.920889  2.090546
      ESP Fit Center  518 is at  -8.215580 -0.864444 -3.633936
      ESP Fit Center  519 is at  -5.355093  1.416719 -4.702036
      ESP Fit Center  520 is at  -4.416895 -2.693794 -4.702036
      ESP Fit Center  521 is at  -7.676141 -1.393086 -5.664362
      ESP Fit Center  522 is at  -5.096270 -2.571273 -5.664362
      ESP Fit Center  523 is at  -6.917074 -0.864444 -6.330311
      ESP Fit Center  524 is at  -6.396413 -1.766254 -6.330311
      ESP Fit Center  525 is at  -4.060776 -2.480135 -4.852512
      ESP Fit Center  526 is at  -3.358007 -1.777366 -4.852512
      ESP Fit Center  527 is at  -3.358007 -0.817366 -5.812512
      ESP Fit Center  528 is at  -3.675568  0.159985 -5.812512
      ESP Fit Center  529 is at  -4.506952  0.764021 -5.812512
      ESP Fit Center  530 is at  -4.506952 -2.398753 -5.812512
      ESP Fit Center  531 is at  -3.675568 -1.794717 -5.812512
      ESP Fit Center  532 is at  -4.060776 -0.817366 -6.515281
      ESP Fit Center  533 is at  -4.540776  0.014018 -6.515281
      ESP Fit Center  534 is at  -5.500776  0.014018 -6.515281
      ESP Fit Center  535 is at  -5.500776 -1.648750 -6.515281
      ESP Fit Center  536 is at  -4.540776 -1.648750 -6.515281
      ESP Fit Center  537 is at  -5.020776 -0.817366 -6.772512
      ESP Fit Center  538 is at  -6.828733 -2.677857 -2.628623
      ESP Fit Center  539 is at  -8.011502 -1.846473 -3.331392
      ESP Fit Center  540 is at  -7.693941 -2.823824 -3.331392
      ESP Fit Center  541 is at  -6.862557 -3.427860 -3.331392
      ESP Fit Center  542 is at  -5.834909 -3.427860 -3.331392
      ESP Fit Center  543 is at  -8.268733 -1.846473 -4.291392
      ESP Fit Center  544 is at  -8.011502 -2.806473 -4.291392
      ESP Fit Center  545 is at  -7.308733 -3.509242 -4.291392
      ESP Fit Center  546 is at  -6.348733 -3.766473 -4.291392
      ESP Fit Center  547 is at  -5.388733 -3.509242 -4.291392
      ESP Fit Center  548 is at  -8.011502 -1.846473 -5.251392
      ESP Fit Center  549 is at  -7.693941 -2.823824 -5.251392
      ESP Fit Center  550 is at  -6.862557 -3.427860 -5.251392
      ESP Fit Center  551 is at  -5.834909 -3.427860 -5.251392
      ESP Fit Center  552 is at  -5.003525 -2.823824 -5.251392
      ESP Fit Center  553 is at  -7.308733 -1.846473 -5.954161
      ESP Fit Center  554 is at  -6.828733 -2.677857 -5.954161
      ESP Fit Center  555 is at  -5.868733 -2.677857 -5.954161
      ESP Fit Center  556 is at  -7.107264  1.488067 -3.507412
      ESP Fit Center  557 is at  -7.938648  0.884031 -3.507412
      ESP Fit Center  558 is at  -8.256209 -0.093320 -3.507412
      ESP Fit Center  559 is at  -5.633440  1.569449 -4.467412
      ESP Fit Center  560 is at  -6.593440  1.826680 -4.467412
      ESP Fit Center  561 is at  -7.553440  1.569449 -4.467412
      ESP Fit Center  562 is at  -8.256209  0.866680 -4.467412
      ESP Fit Center  563 is at  -8.513440 -0.093320 -4.467412
      ESP Fit Center  564 is at  -8.256209 -1.053320 -4.467412
      ESP Fit Center  565 is at  -6.079616  1.488067 -5.427412
      ESP Fit Center  566 is at  -7.107264  1.488067 -5.427412
      ESP Fit Center  567 is at  -7.938648  0.884031 -5.427412
      ESP Fit Center  568 is at  -8.256209 -0.093320 -5.427412
      ESP Fit Center  569 is at  -7.938648 -1.070671 -5.427412
      ESP Fit Center  570 is at  -6.113440  0.738064 -6.130181
      ESP Fit Center  571 is at  -7.073440  0.738064 -6.130181
      ESP Fit Center  572 is at  -7.553440 -0.093320 -6.130181
      ESP Fit Center  573 is at  -6.593440 -0.093320 -6.387412
      ESP Fit Center  574 is at  -5.444287 -0.656694 -0.317802
      ESP Fit Center  575 is at  -5.964947 -2.937857 -2.183752
      ESP Fit Center  576 is at  -6.317025 -0.714668 -0.137129
      ESP Fit Center  577 is at  -5.837025  0.116716 -0.394360
      ESP Fit Center  578 is at  -6.797025  0.116716 -0.394360
      ESP Fit Center  579 is at  -7.277025 -0.714668 -0.394360
      ESP Fit Center  580 is at  -6.797025 -1.546052 -0.394360
      ESP Fit Center  581 is at  -5.837025 -1.546052 -0.394360
      ESP Fit Center  582 is at  -6.830849  0.866719 -1.097129
      ESP Fit Center  583 is at  -7.662233  0.262683 -1.097129
      ESP Fit Center  584 is at  -7.979794 -0.714668 -1.097129
      ESP Fit Center  585 is at  -7.662233 -1.692019 -1.097129
      ESP Fit Center  586 is at  -6.830849 -2.296055 -1.097129
      ESP Fit Center  587 is at  -7.277025  0.948101 -2.057129
      ESP Fit Center  588 is at  -7.979794  0.245332 -2.057129
      ESP Fit Center  589 is at  -8.237025 -0.714668 -2.057129
      ESP Fit Center  590 is at  -7.979794 -1.674668 -2.057129
      ESP Fit Center  591 is at  -7.277025 -2.377437 -2.057129
      ESP Fit Center  592 is at  -7.979794 -0.714668 -3.017129
      ESP Fit Center  593 is at  -4.734986 -1.429236 -0.479945
      ESP Fit Center  594 is at  -5.214986 -2.260620 -0.737176
      ESP Fit Center  595 is at  -5.248810 -3.010623 -1.439945
      ESP Fit Center  596 is at  -4.221162 -3.010623 -1.439945
      ESP Fit Center  597 is at  -5.694986 -3.092005 -2.399945
      ESP Fit Center  598 is at  -4.734986 -3.349236 -2.399945
      ESP Fit Center  599 is at  -3.774986 -3.092005 -2.399945
      ESP Fit Center  600 is at  -4.221162 -3.010623 -3.359945
      ESP Fit Center  601 is at  -3.389778 -2.406587 -3.359945
      ESP Fit Center  602 is at  -4.892318  0.643430 -0.262067
      ESP Fit Center  603 is at  -5.378268  1.485120 -0.483897
      ESP Fit Center  604 is at  -5.864218  0.643430 -0.483897
      ESP Fit Center  605 is at  -5.433500  2.309018 -1.105450
      ESP Fit Center  606 is at  -6.309152  1.672820 -1.105450
      ESP Fit Center  607 is at  -4.629085  2.811346 -2.003620
      ESP Fit Center  608 is at  -5.666718  2.685354 -2.003620
      ESP Fit Center  609 is at  -6.526945  2.091583 -2.003620
      ESP Fit Center  610 is at  -7.012698  1.166057 -2.003620
      ESP Fit Center  611 is at  -5.666718  2.685354 -3.000514
      ESP Fit Center  612 is at  -6.526945  2.091583 -3.000514
      ESP Fit Center  613 is at  -7.012698  1.166057 -3.000514
      ESP Fit Center  614 is at  -5.433500  2.309018 -3.898684
      ESP Fit Center  615 is at  -5.378268  1.485120 -4.520237
      ESP Fit Center  616 is at  -4.030375  1.676887 -4.947151
      ESP Fit Center  617 is at  -2.008561  2.786982 -2.156419
      ESP Fit Center  618 is at  -2.839945  3.391018 -2.156419
      ESP Fit Center  619 is at  -3.867593  3.391018 -2.156419
      ESP Fit Center  620 is at  -1.691000  2.769631 -3.116419
      ESP Fit Center  621 is at  -2.393769  3.472400 -3.116419
      ESP Fit Center  622 is at  -3.353769  3.729631 -3.116419
      ESP Fit Center  623 is at  -4.313769  3.472400 -3.116419
      ESP Fit Center  624 is at  -1.691000  1.809631 -4.076419
      ESP Fit Center  625 is at  -2.008561  2.786982 -4.076419
      ESP Fit Center  626 is at  -2.839945  3.391018 -4.076419
      ESP Fit Center  627 is at  -3.867593  3.391018 -4.076419
      ESP Fit Center  628 is at  -4.698977  2.786982 -4.076419
      ESP Fit Center  629 is at  -2.393769  1.809631 -4.779188
      ESP Fit Center  630 is at  -2.873769  2.641015 -4.779188
      ESP Fit Center  631 is at  -3.833769  2.641015 -4.779188
      ESP Fit Center  632 is at  -3.353769  1.809631 -5.036419
      ESP Fit Center  633 is at  -1.278371  0.112454 -3.605838
      ESP Fit Center  634 is at  -3.198371 -1.807546 -3.605838
      ESP Fit Center  635 is at  -2.238371 -1.550315 -3.605838
      ESP Fit Center  636 is at  -1.535602 -0.847546 -3.605838
      ESP Fit Center  637 is at  -1.535602  0.112454 -4.565838
      ESP Fit Center  638 is at  -1.853163  1.089805 -4.565838
      ESP Fit Center  639 is at  -2.684547 -1.468933 -4.565838
      ESP Fit Center  640 is at  -1.853163 -0.864897 -4.565838
      ESP Fit Center  641 is at  -2.238371  0.112454 -5.268607
      ESP Fit Center  642 is at  -2.718371  0.943838 -5.268607
      ESP Fit Center  643 is at  -3.678371  0.943838 -5.268607
      ESP Fit Center  644 is at  -2.718371 -0.718930 -5.268607
      ESP Fit Center  645 is at  -3.198371  0.112454 -5.525838
      ESP Fit Center  646 is at  -2.103157  2.810807 -1.037977
      ESP Fit Center  647 is at  -1.045293 -0.484812 -3.068403
      ESP Fit Center  648 is at  -1.090823  2.467469 -0.817119
      ESP Fit Center  649 is at  -0.644647  2.548851 -1.777119
      ESP Fit Center  650 is at  -1.604647  2.806082 -1.777119
      ESP Fit Center  651 is at   0.058122  0.886082 -2.737119
      ESP Fit Center  652 is at  -0.259439  1.863433 -2.737119
      ESP Fit Center  653 is at  -1.090823  2.467469 -2.737119
      ESP Fit Center  654 is at  -0.259439 -0.091269 -2.737119
      ESP Fit Center  655 is at  -0.644647  0.886082 -3.439888
      ESP Fit Center  656 is at  -1.124647  1.717466 -3.439888
      ESP Fit Center  657 is at  -1.124647  0.054698 -3.439888
      ESP Fit Center  658 is at  -2.535933  1.931963  0.946460
      ESP Fit Center  659 is at  -3.495933  1.931963  0.946460
      ESP Fit Center  660 is at  -3.975933  1.100579  0.946460
      ESP Fit Center  661 is at  -1.670725  2.077930  0.243691
      ESP Fit Center  662 is at  -2.502109  2.681966  0.243691
      ESP Fit Center  663 is at  -3.529757  2.681966  0.243691
      ESP Fit Center  664 is at  -4.361141  2.077930  0.243691
      ESP Fit Center  665 is at  -4.678702  1.100579  0.243691
      ESP Fit Center  666 is at  -4.361141  0.123228  0.243691
      ESP Fit Center  667 is at  -2.055933  2.763348 -0.716309
      ESP Fit Center  668 is at  -3.015933  3.020579 -0.716309
      ESP Fit Center  669 is at  -3.975933  2.763348 -0.716309
      ESP Fit Center  670 is at  -4.678702  2.060579 -0.716309
      ESP Fit Center  671 is at  -3.394491 -2.905232 -1.769721
      ESP Fit Center  672 is at  -2.356858 -3.031224 -1.769721
      ESP Fit Center  673 is at  -0.868788 -0.863308 -2.667891
      ESP Fit Center  674 is at  -3.161273 -2.528896 -2.667891
      ESP Fit Center  675 is at  -2.078909 -2.528896 -2.667891
      ESP Fit Center  676 is at  -1.203257 -1.892698 -2.667891
      ESP Fit Center  677 is at  -2.134141 -1.704998 -3.289444
      ESP Fit Center  678 is at  -2.599716 -2.118147  2.150131
      ESP Fit Center  679 is at  -3.879444 -1.744979  1.484182
      ESP Fit Center  680 is at  -4.418883 -1.216337  0.521856
      ESP Fit Center  681 is at  -2.481182 -2.209550  2.140324
      ESP Fit Center  682 is at  -3.441182 -2.209550  1.883093
      ESP Fit Center  683 is at  -2.961182 -3.040934  1.883093
      ESP Fit Center  684 is at  -2.001182 -3.040934  1.883093
      ESP Fit Center  685 is at  -4.143951 -2.209550  1.180324
      ESP Fit Center  686 is at  -3.826390 -3.186901  1.180324
      ESP Fit Center  687 is at  -2.995006 -3.790937  1.180324
      ESP Fit Center  688 is at  -1.967358 -3.790937  1.180324
      ESP Fit Center  689 is at  -4.401182 -2.209550  0.220324
      ESP Fit Center  690 is at  -4.143951 -3.169550  0.220324
      ESP Fit Center  691 is at  -3.441182 -3.872319  0.220324
      ESP Fit Center  692 is at  -2.481182 -4.129550  0.220324
      ESP Fit Center  693 is at  -1.521182 -3.872319  0.220324
      ESP Fit Center  694 is at  -3.826390 -3.186901 -0.739676
      ESP Fit Center  695 is at  -2.995006 -3.790937 -0.739676
      ESP Fit Center  696 is at  -1.967358 -3.790937 -0.739676
      ESP Fit Center  697 is at  -2.416454 -0.518316  2.689878
      ESP Fit Center  698 is at  -1.456454 -0.518316  2.432647
      ESP Fit Center  699 is at  -1.936454  0.313068  2.432647
      ESP Fit Center  700 is at  -2.896454  0.313068  2.432647
      ESP Fit Center  701 is at  -3.376454 -0.518316  2.432647
      ESP Fit Center  702 is at  -2.896454 -1.349700  2.432647
      ESP Fit Center  703 is at  -1.936454 -1.349700  2.432647
      ESP Fit Center  704 is at  -1.902630  1.063071  1.729878
      ESP Fit Center  705 is at  -2.930278  1.063071  1.729878
      ESP Fit Center  706 is at  -3.761662  0.459035  1.729878
      ESP Fit Center  707 is at  -4.079223 -0.518316  1.729878
      ESP Fit Center  708 is at  -3.761662 -1.495667  1.729878
      ESP Fit Center  709 is at  -4.079223  0.441684  0.769878
      ESP Fit Center  710 is at  -4.336454 -0.518316  0.769878
      ESP Fit Center  711 is at  -1.079383 -0.402163  2.175728
      ESP Fit Center  712 is at  -1.079383 -3.585136  0.547453
      ESP Fit Center  713 is at  -1.079383 -3.585136 -0.520647
      ESP Fit Center  714 is at  -1.171682 -3.546802 -0.856983
      ESP Fit Center  715 is at  -0.211682 -3.804033 -0.856983
      ESP Fit Center  716 is at   0.748318 -3.546802 -0.856983
      ESP Fit Center  717 is at   1.451087 -2.844033 -0.856983
      ESP Fit Center  718 is at  -1.556890 -2.861384 -1.816983
      ESP Fit Center  719 is at  -0.725506 -3.465420 -1.816983
      ESP Fit Center  720 is at   0.302142 -3.465420 -1.816983
      ESP Fit Center  721 is at   1.133526 -2.861384 -1.816983
      ESP Fit Center  722 is at   0.748318 -1.884033 -2.519752
      ESP Fit Center  723 is at   0.268318 -1.052649 -2.519752
      ESP Fit Center  724 is at  -0.691682 -1.052649 -2.519752
      ESP Fit Center  725 is at  -0.691682 -2.715417 -2.519752
      ESP Fit Center  726 is at   0.268318 -2.715417 -2.519752
      ESP Fit Center  727 is at  -0.211682 -1.884033 -2.776983
      ESP Fit Center  728 is at  -0.243475 -1.842987  2.844639
      ESP Fit Center  729 is at   0.716525 -1.842987  2.587408
      ESP Fit Center  730 is at   0.236525 -1.011603  2.587408
      ESP Fit Center  731 is at  -0.723475 -1.011603  2.587408
      ESP Fit Center  732 is at  -1.203475 -1.842987  2.587408
      ESP Fit Center  733 is at  -0.723475 -2.674371  2.587408
      ESP Fit Center  734 is at   0.236525 -2.674371  2.587408
      ESP Fit Center  735 is at  -1.588683 -2.820338  1.884639
      ESP Fit Center  736 is at  -0.757299 -3.424374  1.884639
      ESP Fit Center  737 is at   0.270349 -3.424374  1.884639
      ESP Fit Center  738 is at   1.101733 -2.820338  1.884639
      ESP Fit Center  739 is at  -1.203475 -3.505756  0.924639
      ESP Fit Center  740 is at  -0.243475 -3.762987  0.924639
      ESP Fit Center  741 is at   0.716525 -3.505756  0.924639
      ESP Fit Center  742 is at   1.419294 -2.802987  0.924639
      ESP Fit Center  743 is at   0.000000  0.000000  2.240000
      ESP Fit Center  744 is at  -0.485950  0.841690  2.018170
      ESP Fit Center  745 is at  -0.971900  0.000000  2.018170
      ESP Fit Center  746 is at  -0.541182  1.665588  1.396617
      ESP Fit Center  747 is at  -1.416834  1.029390  1.396617
      ESP Fit Center  748 is at  -0.774400  2.041924  0.498447
      ESP Fit Center  749 is at   1.810445 -2.441665 -0.886704
      ESP Fit Center  750 is at   2.770445 -2.184434 -0.886704
      ESP Fit Center  751 is at   3.473214 -1.481665 -0.886704
      ESP Fit Center  752 is at   3.473214 -0.521665 -1.846704
      ESP Fit Center  753 is at   2.324269 -2.103052 -1.846704
      ESP Fit Center  754 is at   3.155653 -1.499016 -1.846704
      ESP Fit Center  755 is at   2.770445 -0.521665 -2.549473
      ESP Fit Center  756 is at   2.290445  0.309719 -2.549473
      ESP Fit Center  757 is at   1.330445  0.309719 -2.549473
      ESP Fit Center  758 is at   0.850445 -0.521665 -2.549473
      ESP Fit Center  759 is at   1.330445 -1.353049 -2.549473
      ESP Fit Center  760 is at   2.290445 -1.353049 -2.549473
      ESP Fit Center  761 is at   1.810445 -0.521665 -2.806704
      ESP Fit Center  762 is at   1.797512 -0.529976  2.809086
      ESP Fit Center  763 is at   1.317512  0.301408  2.551855
      ESP Fit Center  764 is at   0.837512 -0.529976  2.551855
      ESP Fit Center  765 is at   1.317512 -1.361360  2.551855
      ESP Fit Center  766 is at   2.277512 -1.361360  2.551855
      ESP Fit Center  767 is at   2.311336 -2.111363  1.849086
      ESP Fit Center  768 is at   1.797512 -2.449976  0.889086
      ESP Fit Center  769 is at   2.757512 -2.192745  0.889086
      ESP Fit Center  770 is at   3.460281 -1.489976  0.889086
      ESP Fit Center  771 is at   1.453137  1.987930  2.776444
      ESP Fit Center  772 is at   0.973137  2.819314  2.519213
      ESP Fit Center  773 is at   0.493137  1.987930  2.519213
      ESP Fit Center  774 is at   0.973137  1.156546  2.519213
      ESP Fit Center  775 is at   1.966961  3.569317  1.816444
      ESP Fit Center  776 is at   0.939313  3.569317  1.816444
      ESP Fit Center  777 is at   0.107929  2.965281  1.816444
      ESP Fit Center  778 is at  -0.209632  1.987930  1.816444
      ESP Fit Center  779 is at   1.453137  3.907930  0.856444
      ESP Fit Center  780 is at   0.493137  3.650699  0.856444
      ESP Fit Center  781 is at  -0.209632  2.947930  0.856444
      ESP Fit Center  782 is at   1.521404  3.872370 -0.906751
      ESP Fit Center  783 is at   0.561404  3.615139 -0.906751
      ESP Fit Center  784 is at  -0.141365  2.912370 -0.906751
      ESP Fit Center  785 is at   2.035228  3.533757 -1.866751
      ESP Fit Center  786 is at   1.007580  3.533757 -1.866751
      ESP Fit Center  787 is at   0.176196  2.929721 -1.866751
      ESP Fit Center  788 is at   2.481404  1.952370 -2.569520
      ESP Fit Center  789 is at   2.001404  2.783754 -2.569520
      ESP Fit Center  790 is at   1.041404  2.783754 -2.569520
      ESP Fit Center  791 is at   0.561404  1.952370 -2.569520
      ESP Fit Center  792 is at   1.041404  1.120986 -2.569520
      ESP Fit Center  793 is at   2.001404  1.120986 -2.569520
      ESP Fit Center  794 is at   1.521404  1.952370 -2.826751
      ESP Fit Center  795 is at   4.499329  4.110526  1.064003
      ESP Fit Center  796 is at   3.429543  4.222965  1.064003
      ESP Fit Center  797 is at   2.406513  3.890562  1.064003
      ESP Fit Center  798 is at   5.769169  3.536621 -0.007511
      ESP Fit Center  799 is at   4.948011  4.156730 -0.007511
      ESP Fit Center  800 is at   3.958295  4.438329 -0.007511
      ESP Fit Center  801 is at   2.933688  4.343385 -0.007511
      ESP Fit Center  802 is at   2.012567  3.884721 -0.007511
      ESP Fit Center  803 is at   3.958295 -1.137783 -0.007511
      ESP Fit Center  804 is at   4.948011 -0.856184 -0.007511
      ESP Fit Center  805 is at   6.286807  1.650273 -1.079025
      ESP Fit Center  806 is at   6.063161  2.702445 -1.079025
      ESP Fit Center  807 is at   5.430893  3.572687 -1.079025
      ESP Fit Center  808 is at   4.499329  4.110526 -1.079025
      ESP Fit Center  809 is at   3.429543  4.222965 -1.079025
      ESP Fit Center  810 is at   2.406513  3.890562 -1.079025
      ESP Fit Center  811 is at   4.499329 -0.809980 -1.079025
      ESP Fit Center  812 is at   5.430893 -0.272141 -1.079025
      ESP Fit Center  813 is at   6.063161  0.598101 -1.079025
      ESP Fit Center  814 is at   5.679843  1.650273 -1.987410
      ESP Fit Center  815 is at   5.414587  2.640222 -1.987410
      ESP Fit Center  816 is at   4.689893  3.364916 -1.987410
      ESP Fit Center  817 is at   3.699944  3.630172 -1.987410
      ESP Fit Center  818 is at   2.709995  3.364916 -1.987410
      ESP Fit Center  819 is at   3.699944 -0.329626 -1.987410
      ESP Fit Center  820 is at   4.689893 -0.064370 -1.987410
      ESP Fit Center  821 is at   5.414587  0.660324 -1.987410
      ESP Fit Center  822 is at   4.771458  1.650273 -2.594374
      ESP Fit Center  823 is at   4.235701  2.578231 -2.594374
      ESP Fit Center  824 is at   3.164187  2.578231 -2.594374
      ESP Fit Center  825 is at   2.628430  1.650273 -2.594374
      ESP Fit Center  826 is at   3.164187  0.722315 -2.594374
      ESP Fit Center  827 is at   4.235701  0.722315 -2.594374
      ESP Fit Center  828 is at   3.699944  1.650273 -2.807511
      ESP Fit Center  829 is at   2.990388  2.772803  4.056779
      ESP Fit Center  830 is at   2.510388  1.941419  4.056779
      ESP Fit Center  831 is at   2.990388  1.110035  4.056779
      ESP Fit Center  832 is at   3.984212  3.522806  3.354010
      ESP Fit Center  833 is at   2.956564  3.522806  3.354010
      ESP Fit Center  834 is at   2.125180  2.918770  3.354010
      ESP Fit Center  835 is at   1.807619  1.941419  3.354010
      ESP Fit Center  836 is at   2.125180  0.964068  3.354010
      ESP Fit Center  837 is at   3.470388  3.861419  2.394010
      ESP Fit Center  838 is at   2.510388  3.604188  2.394010
      ESP Fit Center  839 is at   2.907089  0.256471  3.656399
      ESP Fit Center  840 is at   3.387089 -0.574913  3.656399
      ESP Fit Center  841 is at   2.204320  0.256471  2.953630
      ESP Fit Center  842 is at   2.521881 -0.720880  2.953630
      ESP Fit Center  843 is at   3.353265 -1.324916  2.953630
      ESP Fit Center  844 is at   4.380913 -1.324916  2.953630
      ESP Fit Center  845 is at   3.867089 -1.663529  1.993630
      ESP Fit Center  846 is at   4.827089 -1.406298  1.993630
      ESP Fit Center  847 is at   4.380913 -1.324916  1.033630
      ESP Fit Center  848 is at   5.212297 -0.720880  1.033630
      ESP Fit Center  849 is at   6.301973  4.227805  2.773609
      ESP Fit Center  850 is at   5.274325  4.227805  2.773609
      ESP Fit Center  851 is at   4.442941  3.623769  2.773609
      ESP Fit Center  852 is at   6.748149  4.309187  1.813609
      ESP Fit Center  853 is at   5.788149  4.566418  1.813609
      ESP Fit Center  854 is at   4.828149  4.309187  1.813609
      ESP Fit Center  855 is at   7.450918  2.646418  0.853609
      ESP Fit Center  856 is at   7.133357  3.623769  0.853609
      ESP Fit Center  857 is at   6.301973  4.227805  0.853609
      ESP Fit Center  858 is at   5.274325  4.227805  0.853609
      ESP Fit Center  859 is at   6.748149  2.646418  0.150840
      ESP Fit Center  860 is at   6.268149  3.477802  0.150840
      ESP Fit Center  861 is at   6.189772 -0.937707  1.335729
      ESP Fit Center  862 is at   7.149772 -0.680476  1.335729
      ESP Fit Center  863 is at   7.534980  1.959644  0.375729
      ESP Fit Center  864 is at   5.675948 -0.599094  0.375729
      ESP Fit Center  865 is at   6.703596 -0.599094  0.375729
      ESP Fit Center  866 is at   7.534980  0.004942  0.375729
      ESP Fit Center  867 is at   7.149772  0.982293 -0.327040
      ESP Fit Center  868 is at   6.669772  1.813677 -0.327040
      ESP Fit Center  869 is at   6.669772  0.150909 -0.327040
      ESP Fit Center  870 is at   5.975577  1.203940  6.560230
      ESP Fit Center  871 is at   6.511334  2.131898  6.347093
      ESP Fit Center  872 is at   5.439820  2.131898  6.347093
      ESP Fit Center  873 is at   4.904063  1.203940  6.347093
      ESP Fit Center  874 is at   5.439820  0.275982  6.347093
      ESP Fit Center  875 is at   6.511334  0.275982  6.347093
      ESP Fit Center  876 is at   5.975577  3.183839  5.740129
      ESP Fit Center  877 is at   4.985628  2.918583  5.740129
      ESP Fit Center  878 is at   4.260934  2.193889  5.740129
      ESP Fit Center  879 is at   3.995678  1.203940  5.740129
      ESP Fit Center  880 is at   4.260934  0.213991  5.740129
      ESP Fit Center  881 is at   4.985628 -0.510703  5.740129
      ESP Fit Center  882 is at   5.975577 -0.775959  5.740129
      ESP Fit Center  883 is at   6.965526 -0.510703  5.740129
      ESP Fit Center  884 is at   5.705176  3.776632  4.831744
      ESP Fit Center  885 is at   4.682146  3.444229  4.831744
      ESP Fit Center  886 is at   3.882761  2.724460  4.831744
      ESP Fit Center  887 is at   3.445243  1.741779  4.831744
      ESP Fit Center  888 is at   3.445243  0.666101  4.831744
      ESP Fit Center  889 is at   3.882761 -0.316580  4.831744
      ESP Fit Center  890 is at   4.682146 -1.036349  4.831744
      ESP Fit Center  891 is at   5.705176 -1.368752  4.831744
      ESP Fit Center  892 is at   6.774962 -1.256313  4.831744
      ESP Fit Center  893 is at   5.209321  3.897052  3.760230
      ESP Fit Center  894 is at   4.288200  3.438388  3.760230
      ESP Fit Center  895 is at   4.288200 -1.030508  3.760230
      ESP Fit Center  896 is at   5.209321 -1.489172  3.760230
      ESP Fit Center  897 is at   6.233928 -1.584116  3.760230
      ESP Fit Center  898 is at   7.223644 -1.302517  3.760230
      ESP Fit Center  899 is at   5.705176 -1.368752  2.688716
      ESP Fit Center  900 is at   6.774962 -1.256313  2.688716
      ESP Fit Center  901 is at   7.421039  3.725556  5.369458
      ESP Fit Center  902 is at   7.902800  1.909469  6.865141
      ESP Fit Center  903 is at   8.862800  1.909469  6.607910
      ESP Fit Center  904 is at   8.382800  2.740853  6.607910
      ESP Fit Center  905 is at   7.422800  2.740853  6.607910
      ESP Fit Center  906 is at   6.942800  1.909469  6.607910
      ESP Fit Center  907 is at   7.422800  1.078085  6.607910
      ESP Fit Center  908 is at   8.382800  1.078085  6.607910
      ESP Fit Center  909 is at   9.248008  2.886820  5.905141
      ESP Fit Center  910 is at   8.416624  3.490856  5.905141
      ESP Fit Center  911 is at   7.388976  3.490856  5.905141
      ESP Fit Center  912 is at   8.416624  0.328082  5.905141
      ESP Fit Center  913 is at   9.248008  0.932118  5.905141
      ESP Fit Center  914 is at   9.042298  3.875586  4.463445
      ESP Fit Center  915 is at   8.210914  4.479622  4.463445
      ESP Fit Center  916 is at   7.183266  4.479622  4.463445
      ESP Fit Center  917 is at   7.697090  4.818235  3.503445
      ESP Fit Center  918 is at   6.737090  4.561004  3.503445
      ESP Fit Center  919 is at   7.183266  4.479622  2.543445
      ESP Fit Center  920 is at   9.514264 -0.700657  1.666602
      ESP Fit Center  921 is at   8.702122 -0.012888  5.478817
      ESP Fit Center  922 is at   8.222122 -0.844272  5.221586
      ESP Fit Center  923 is at   9.182122 -0.844272  5.221586
      ESP Fit Center  924 is at   8.188298 -1.594275  4.518817
      ESP Fit Center  925 is at   9.215946 -1.594275  4.518817
      ESP Fit Center  926 is at  10.047330 -0.990239  4.518817
      ESP Fit Center  927 is at   7.742122 -1.675657  3.558817
      ESP Fit Center  928 is at   8.702122 -1.932888  3.558817
      ESP Fit Center  929 is at   9.662122 -1.675657  3.558817
      ESP Fit Center  930 is at   7.356914 -0.990239  2.598817
      ESP Fit Center  931 is at   8.188298 -1.594275  2.598817
      ESP Fit Center  932 is at   9.215946 -1.594275  2.598817
      ESP Fit Center  933 is at   8.028631 -0.639656  1.126943
      ESP Fit Center  934 is at   9.056279 -0.639656  1.126943
      ESP Fit Center  935 is at   9.887663 -0.035620  1.126943
      ESP Fit Center  936 is at   8.062455  1.773115  0.424174
      ESP Fit Center  937 is at   8.062455  0.110347  0.424174
      ESP Fit Center  938 is at   9.022455  0.110347  0.424174
      ESP Fit Center  939 is at   8.542455  0.941731  0.166943
      ESP Fit Center  940 is at  10.463158  1.603177  6.203613
      ESP Fit Center  941 is at  11.534672  1.603177  5.990476
      ESP Fit Center  942 is at  10.998915  2.531135  5.990476
      ESP Fit Center  943 is at   9.927401  2.531135  5.990476
      ESP Fit Center  944 is at   9.927401  0.675219  5.990476
      ESP Fit Center  945 is at  10.998915  0.675219  5.990476
      ESP Fit Center  946 is at  12.443057  1.603177  5.383512
      ESP Fit Center  947 is at  12.177801  2.593126  5.383512
      ESP Fit Center  948 is at  11.453107  3.317820  5.383512
      ESP Fit Center  949 is at  10.463158  3.583076  5.383512
      ESP Fit Center  950 is at   9.473209  3.317820  5.383512
      ESP Fit Center  951 is at   9.473209 -0.111466  5.383512
      ESP Fit Center  952 is at  10.463158 -0.376722  5.383512
      ESP Fit Center  953 is at  11.453107 -0.111466  5.383512
      ESP Fit Center  954 is at  12.177801  0.613228  5.383512
      ESP Fit Center  955 is at  13.050021  1.603177  4.475127
      ESP Fit Center  956 is at  12.826375  2.655349  4.475127
      ESP Fit Center  957 is at  12.194107  3.525591  4.475127
      ESP Fit Center  958 is at  11.262543  4.063430  4.475127
      ESP Fit Center  959 is at   9.169727  3.843466  4.475127
      ESP Fit Center  960 is at  10.192757 -0.969515  4.475127
      ESP Fit Center  961 is at  11.262543 -0.857076  4.475127
      ESP Fit Center  962 is at  12.194107 -0.319237  4.475127
      ESP Fit Center  963 is at  12.826375  0.551005  4.475127
      ESP Fit Center  964 is at  13.263158  1.603177  3.403613
      ESP Fit Center  965 is at  13.074080  2.614654  3.403613
      ESP Fit Center  966 is at  10.721509 -1.184879  3.403613
      ESP Fit Center  967 is at  11.711225 -0.903280  3.403613
      ESP Fit Center  968 is at  12.532383 -0.283171  3.403613
      ESP Fit Center  969 is at  13.074080  0.591700  3.403613
      ESP Fit Center  970 is at  10.192757 -0.969515  2.332099
      ESP Fit Center  971 is at  11.262543 -0.857076  2.332099
      ESP Fit Center  972 is at  12.194107 -0.319237  2.332099
      ESP Fit Center  973 is at  12.826375  0.551005  2.332099
      ESP Fit Center  974 is at  10.463158 -0.376722  1.423714
      ESP Fit Center  975 is at  11.453107 -0.111466  1.423714
      ESP Fit Center  976 is at  12.177801  0.613228  1.423714
      ESP Fit Center  977 is at  12.226968  0.740162  1.333183
      ESP Fit Center  978 is at  12.346634  1.555056  0.370857
      ESP Fit Center  979 is at  13.511556  2.748086  2.845989
      ESP Fit Center  980 is at  13.193995  3.725437  2.845989
      ESP Fit Center  981 is at  12.362611  4.329473  2.845989
      ESP Fit Center  982 is at  13.768787  2.748086  1.885989
      ESP Fit Center  983 is at  13.511556  3.708086  1.885989
      ESP Fit Center  984 is at  12.808787  4.410855  1.885989
      ESP Fit Center  985 is at  12.808787  1.085317  1.885989
      ESP Fit Center  986 is at  13.511556  1.788086  1.885989
      ESP Fit Center  987 is at  13.511556  2.748086  0.925989
      ESP Fit Center  988 is at  13.193995  3.725437  0.925989
      ESP Fit Center  989 is at  12.362611  4.329473  0.925989
      ESP Fit Center  990 is at  13.193995  1.770735  0.925989
      ESP Fit Center  991 is at  12.808787  2.748086  0.223220
      ESP Fit Center  992 is at  12.328787  3.579470  0.223220
      ESP Fit Center  993 is at  10.568171  0.001267  1.006349
      ESP Fit Center  994 is at  11.528171  0.258498  1.006349
      ESP Fit Center  995 is at  12.230940  1.921267  0.046349
      ESP Fit Center  996 is at   8.905402  1.921267  0.046349
      ESP Fit Center  997 is at   9.222963  0.943916  0.046349
      ESP Fit Center  998 is at  10.054347  0.339880  0.046349
      ESP Fit Center  999 is at  11.081995  0.339880  0.046349
      ESP Fit Center 1000 is at  11.913379  0.943916  0.046349
      ESP Fit Center 1001 is at  11.528171  1.921267 -0.656420
      ESP Fit Center 1002 is at  11.048171  2.752651 -0.656420
      ESP Fit Center 1003 is at  10.088171  2.752651 -0.656420
      ESP Fit Center 1004 is at   9.608171  1.921267 -0.656420
      ESP Fit Center 1005 is at  10.088171  1.089883 -0.656420
      ESP Fit Center 1006 is at  11.048171  1.089883 -0.656420
      ESP Fit Center 1007 is at  10.568171  1.921267 -0.913651
      ESP Fit Center 1008 is at  12.122705  4.908308  2.280342
      ESP Fit Center 1009 is at   8.555736  5.722445  2.280342
      ESP Fit Center 1010 is at   9.493934  6.174258  1.212242
      ESP Fit Center 1011 is at   8.555736  5.722445  1.212242
      ESP Fit Center 1012 is at   8.973273  3.893095 -0.416033
      ESP Fit Center 1013 is at   9.493934  2.991285 -0.416033
      ESP Fit Center 1014 is at  12.250864  4.425582  0.840255
      ESP Fit Center 1015 is at  11.993633  5.385582  0.840255
      ESP Fit Center 1016 is at  11.290864  6.088351  0.840255
      ESP Fit Center 1017 is at  10.330864  6.345582  0.840255
      ESP Fit Center 1018 is at   9.370864  6.088351  0.840255
      ESP Fit Center 1019 is at  11.993633  4.425582 -0.119745
      ESP Fit Center 1020 is at  11.676072  5.402933 -0.119745
      ESP Fit Center 1021 is at  10.844688  6.006969 -0.119745
      ESP Fit Center 1022 is at   9.817040  6.006969 -0.119745
      ESP Fit Center 1023 is at   8.985656  5.402933 -0.119745
      ESP Fit Center 1024 is at  11.290864  4.425582 -0.822514
      ESP Fit Center 1025 is at  10.810864  5.256966 -0.822514
      ESP Fit Center 1026 is at   9.850864  5.256966 -0.822514
      ESP Fit Center 1027 is at   9.370864  4.425582 -0.822514
      ESP Fit Center 1028 is at   9.850864  3.594198 -0.822514
      ESP Fit Center 1029 is at  10.810864  3.594198 -0.822514
      ESP Fit Center 1030 is at  10.330864  4.425582 -1.079745
      ESP Fit Center 1031 is at   7.587652  4.714865  2.634305
      ESP Fit Center 1032 is at   7.972860  5.400283  1.674305
      ESP Fit Center 1033 is at   7.270091  4.697514  1.674305
      ESP Fit Center 1034 is at   7.587652  4.714865  0.714305
      ESP Fit Center 1035 is at   7.270091  3.737514  0.714305
      ESP Fit Center 1036 is at   7.587652  2.760163  0.714305
      ESP Fit Center 1037 is at   8.452860  4.568898  0.011536
      ESP Fit Center 1038 is at   7.972860  3.737514  0.011536
      ESP Fit Center 1039 is at   8.452860  2.906130  0.011536
      ESP Fit Center 1040 is at  10.208521  4.537175  4.529695
      ESP Fit Center 1041 is at  11.168521  4.537175  4.272464
      ESP Fit Center 1042 is at  10.688521  5.368559  4.272464
      ESP Fit Center 1043 is at   9.728521  5.368559  4.272464
      ESP Fit Center 1044 is at   9.248521  4.537175  4.272464
      ESP Fit Center 1045 is at  11.871290  4.537175  3.569695
      ESP Fit Center 1046 is at  11.553729  5.514526  3.569695
      ESP Fit Center 1047 is at  10.722345  6.118562  3.569695
[...]
 1373 Fit       0.011924
 1374 Fit       0.007470
 1375 Fit       0.008680
 1376 Fit       0.004171
 1377 Fit       0.005947
 1378 Fit       0.013207
 1379 Fit       0.007507
 1380 Fit       0.004813
 1381 Fit       0.010601
 1382 Fit       0.005893
 1383 Fit       0.010682
 1384 Fit       0.003539
 1385 Fit       0.004903
 1386 Fit       0.005611
 1387 Fit       0.009854
 1388 Fit       0.018454
 1389 Fit       0.004398
 1390 Fit       0.009222
 1391 Fit       0.015219
 1392 Fit       0.010460
 1393 Fit       0.006042
 1394 Fit      -0.004233
 1395 Fit      -0.000335
 1396 Fit      -0.008150
 1397 Fit      -0.009512
 1398 Fit      -0.007478
 1399 Fit      -0.002421
 1400 Fit      -0.006277
 1401 Fit      -0.011571
 1402 Fit      -0.012453
 1403 Fit      -0.010946
 1404 Fit      -0.009842
 1405 Fit      -0.009661
 1406 Fit      -0.008162
 1407 Fit      -0.003118
 1408 Fit      -0.005605
 1409 Fit      -0.010788
 1410 Fit      -0.011828
 1411 Fit      -0.009744
 1412 Fit      -0.007414
 1413 Fit      -0.006727
 1414 Fit      -0.008205
 1415 Fit      -0.010535
 1416 Fit      -0.010846
 1417 Fit      -0.006706
 1418 Fit      -0.003758
 1419 Fit      -0.006688
 1420 Fit      -0.004309
 1421 Fit       0.001101
 1422 Fit      -0.001670
 1423 Fit      -0.006834
 1424 Fit      -0.010924
 1425 Fit      -0.010657
 1426 Fit       0.004991
 1427 Fit       0.002353
 1428 Fit       0.000288
 1429 Fit      -0.007053
 1430 Fit      -0.008389
 1431 Fit      -0.001764
 1432 Fit      -0.000373
 1433 Fit       0.004444
 1434 Fit       0.001864
 1435 Fit       0.002619
 1436 Fit       0.003113
 1437 Fit       0.002215
 1438 Fit       0.004173
 1439 Fit       0.004582
 1440 Fit      -0.000219
 1441 Fit       0.002359
 1442 Fit      -0.000831
 1443 Fit       0.005767
 1444 Fit       0.003240
 1445 Fit       0.005188
 1446 Fit       0.001618
 1447 Fit       0.008845
 1448 Fit       0.009186
 1449 Fit       0.006657
 1450 Fit       0.002610
 1451 Fit       0.003161
 1452 Fit      -0.003801
 1453 Fit       0.002534
 1454 Fit       0.002228
 1455 Fit       0.001113
 1456 Fit       0.003085
 1457 Fit      -0.000358
 1458 Fit       0.000436
 1459 Fit       0.003708
 1460 Fit       0.001957
 1461 Fit       0.009643
 1462 Fit       0.007819
 1463 Fit       0.018991
 1464 Fit       0.015103
 1465 Fit       0.013703
 1466 Fit       0.017234
 1467 Fit      -0.009393
 1468 Fit      -0.013072
 1469 Fit      -0.013711
 1470 Fit      -0.009125
 1471 Fit      -0.003268
 1472 Fit      -0.009639
 1473 Fit      -0.013320
 1474 Fit      -0.013189
 1475 Fit      -0.013852
 1476 Fit      -0.013276
 1477 Fit      -0.008124
 1478 Fit       0.002152
 1479 Fit      -0.004994
 1480 Fit      -0.010932
 1481 Fit      -0.013408
 1482 Fit      -0.010941
 1483 Fit      -0.008753
 1484 Fit      -0.008542
 1485 Fit      -0.009269
 1486 Fit      -0.009049
 1487 Fit      -0.006770
 1488 Fit      -0.004729
 1489 Fit      -0.011805
 1490 Fit      -0.014714
 1491 Fit      -0.013771
 1492 Fit      -0.006630
 1493 Fit      -0.001993
 1494 Fit      -0.000239
 1495 Fit      -0.000329
 1496 Fit      -0.009952
 1497 Fit      -0.015243
 1498 Fit      -0.015644
 1499 Fit      -0.012070
 1500 Fit      -0.000787
 1501 Fit      -0.010389
 1502 Fit      -0.014872
 1503 Fit      -0.014129
 1504 Fit      -0.008875
 1505 Fit      -0.004396
 1506 Fit      -0.009881
 1507 Fit      -0.010036
 1508 Fit      -0.004770
 1509 Fit       0.002425
 1510 Fit      -0.001707
 1511 Fit       0.001603
 1512 Fit       0.011618
 1513 Fit       0.004866
 1514 Fit       0.006637
 1515 Fit       0.006974
 1516 Fit       0.007655
 1517 Fit       0.009111
 1518 Fit       0.009504
 1519 Fit       0.004406
 1520 Fit       0.008931
 1521 Fit       0.010288
 1522 Fit       0.011243
 1523 Fit       0.006483
 1524 Fit       0.009655
 1525 Fit       0.011751
 1526 Fit       0.018146
 1527 Fit       0.015154
 1528 Fit       0.010007
 1529 Fit       0.006879
 1530 Fit       0.006647
 1531 Fit       0.009978
 1532 Fit       0.011750
 1533 Fit       0.012424
 1534 Fit       0.013188
 1535 Fit       0.012222
 1536 Fit       0.010025
 1537 Fit       0.011503
 1538 Fit       0.006392
 1539 Fit       0.009038
 1540 Fit       0.006574
 1541 Fit       0.005762
 1542 Fit       0.005333
 1543 Fit       0.005346
 1544 Fit       0.006986
 1545 Fit       0.006355
 1546 Fit       0.015353
 1547 Fit       0.011896
 1548 Fit       0.008608
 1549 Fit       0.007277
 1550 Fit       0.006526
 1551 Fit       0.006030
 1552 Fit       0.010848
 1553 Fit       0.009545
 1554 Fit       0.008645
 1555 Fit       0.007825
 1556 Fit       0.007202
 1557 Fit       0.010590
 1558 Fit       0.009697
 1559 Fit       0.008733
 1560 Fit       0.008701
 1561 Fit       0.010635
 1562 Fit       0.011363
 1563 Fit       0.009915
 1564 Fit       0.010303
 1565 Fit       0.010583
 1566 Fit       0.008391
 1567 Fit       0.012025
 1568 Fit       0.010223
 1569 Fit       0.013514
 1570 Fit      -0.005519
 1571 Fit      -0.003848
 1572 Fit       0.002135
 1573 Fit       0.002800
 1574 Fit      -0.000128
 1575 Fit       0.002621
 1576 Fit       0.004351
 1577 Fit       0.005235
 1578 Fit       0.005440
 1579 Fit       0.005432
 1580 Fit       0.006934
 1581 Fit       0.006261
 1582 Fit       0.005773
 1583 Fit       0.005656
 1584 Fit       0.005556
 1585 Fit      -0.001542
 1586 Fit      -0.000811
 1587 Fit      -0.001926
 1588 Fit      -0.000593
 1589 Fit      -0.001153
 1590 Fit      -0.006568
 1591 Fit      -0.002204
 1592 Fit      -0.002517
 1593 Fit      -0.000768
 1594 Fit      -0.003184
 1595 Fit      -0.002902
 1596 Fit      -0.002184
 1597 Fit      -0.002248
 1598 Fit       0.000127
 1599 Fit       0.001716
 1600 Fit       0.002683
 1601 Fit       0.001893
 1602 Fit      -0.001113
 1603 Fit       0.000231
 1604 Fit       0.001656
 1605 Fit       0.001161
 1606 Fit      -0.000321
 1607 Fit      -0.002457
 1608 Fit       0.000284
 1609 Fit      -0.000719
 1610 Fit       0.000849
 1611 Fit       0.001737
 1612 Fit       0.001816
 1613 Fit      -0.000874
 1614 Fit       0.000829
 1615 Fit       0.001886
 1616 Fit       0.002094
 1617 Fit       0.001415
 1618 Fit      -0.000069
 1619 Fit      -0.001310
 1620 Fit       0.000455
 1621 Fit       0.001575
 1622 Fit       0.001814
 1623 Fit       0.001168
 1624 Fit      -0.000125
 1625 Fit      -0.000782
 1626 Fit       0.000560
 1627 Fit       0.000814
 1628 Fit       0.000058
 1629 Fit      -0.000792
 1630 Fit      -0.011327
 1631 Fit      -0.005213
 1632 Fit      -0.013685
 1633 Fit      -0.007450
 1634 Fit      -0.004208
 1635 Fit      -0.002799
 1636 Fit      -0.010820
 1637 Fit      -0.007379
 1638 Fit      -0.004401
 1639 Fit      -0.002716
 1640 Fit      -0.002210
 1641 Fit      -0.005914
 1642 Fit      -0.004595
 1643 Fit      -0.002916
 1644 Fit      -0.002147
 1645 Fit      -0.002362
 1646 Fit      -0.003015
 1647 Fit      -0.002666
 1648 Fit      -0.009507
 1649 Fit      -0.002549
 1650 Fit       0.001509
 1651 Fit       0.001040
 1652 Fit      -0.006204
 1653 Fit      -0.008817
 1654 Fit      -0.003596
 1655 Fit      -0.002302
 1656 Fit      -0.004936
 1657 Fit      -0.009357
 1658 Fit      -0.003771
 1659 Fit      -0.001082
 1660 Fit      -0.000233
 1661 Fit      -0.000867
 1662 Fit      -0.011633
 1663 Fit      -0.004985
 1664 Fit      -0.001622
 1665 Fit       0.000090
 1666 Fit       0.000801
 1667 Fit      -0.004933
 1668 Fit      -0.001819
 1669 Fit       0.000012
 1670 Fit      -0.001607
 1671 Fit      -0.000295
 1672 Fit      -0.002260
 1673 Fit       0.000443
 1674 Fit      -0.001812
 1675 Fit      -0.006695
 1676 Fit      -0.004790
 1677 Fit      -0.017030
 1678 Fit      -0.015799
 1679 Fit      -0.014981
 1680 Fit      -0.019918
 1681 Fit      -0.019203
 1682 Fit      -0.016554
 1683 Fit      -0.021125
 1684 Fit      -0.020530
 1685 Fit      -0.018385
 1686 Fit      -0.021196
 1687 Fit      -0.019257
 1688 Fit      -0.018979
 1689 Fit      -0.017820
 1690 Fit      -0.015739
 1691 Fit      -0.004024
 1692 Fit       0.004480
 1693 Fit       0.005315
 1694 Fit       0.003642
 1695 Fit      -0.007921
 1696 Fit       0.001105
 1697 Fit      -0.002554
 1698 Fit      -0.002511
 1699 Fit       0.004314
 1700 Fit       0.001629
 1701 Fit      -0.002691
 1702 Fit      -0.010642
 1703 Fit       0.005786
 1704 Fit       0.004217
 1705 Fit       0.001969
 1706 Fit      -0.001704
 1707 Fit      -0.008069
 1708 Fit       0.004110
 1709 Fit       0.002526
 1710 Fit      -0.000481
 1711 Fit      -0.005652
 1712 Fit       0.001562
 1713 Fit      -0.001924
 1714 Fit       0.003089
 1715 Fit      -0.003799
 1716 Fit      -0.003191
 1717 Fit      -0.000179
 1718 Fit       0.003374
 1719 Fit       0.003895
 1720 Fit       0.001526
 1721 Fit       0.002196
 1722 Fit       0.003219
 1723 Fit       0.002251
 1724 Fit      -0.000095
 1725 Fit       0.003470
 1726 Fit       0.001727
 1727 Fit       0.001422
 1728 Fit       0.002454
 1729 Fit       0.005152
 1730 Fit       0.004680
 1731 Fit       0.006246
 1732 Fit       0.006236
 1733 Fit       0.001722
 1734 Fit       0.004561
 1735 Fit      -0.000499
 1736 Fit      -0.000359
 1737 Fit      -0.000479
 1738 Fit      -0.001054
 1739 Fit      -0.001115
 1740 Fit      -0.003922
 1741 Fit      -0.007272
 1742 Fit      -0.007412
 1743 Fit      -0.000049
 1744 Fit      -0.002345
 1745 Fit      -0.007966
 1746 Fit      -0.002262
 1747 Fit      -0.007259
 1748 Fit      -0.004929
 1749 Fit      -0.009481
 1750 Fit      -0.008265
 1751 Fit      -0.005568
 1752 Fit       0.008646
 1753 Fit       0.004852
 1754 Fit       0.001260
 1755 Fit      -0.008126
 1756 Fit      -0.003891
 1757 Fit       0.008559
 1758 Fit       0.011333
 1759 Fit       0.004633
 1760 Fit       0.006960
 1761 Fit       0.009101
 1762 Fit       0.011558
 1763 Fit      -0.000549
 1764 Fit       0.002977
 1765 Fit       0.005664
 1766 Fit       0.007752
 1767 Fit       0.009792
 1768 Fit      -0.000352
 1769 Fit       0.003138
 1770 Fit       0.005549
 1771 Fit       0.007777
 1772 Fit      -0.001980
 1773 Fit       0.001541
 1774 Fit       0.004581
 1775 Fit       0.005938
 1776 Fit       0.006347
 1777 Fit       0.003634
 1778 Fit       0.003912
 1779 Fit       0.004633
 1780 Fit       0.006948
 1781 Fit      -0.000854
 1782 Fit       0.001690
 1783 Fit       0.001975
 1784 Fit       0.001810
 1785 Fit       0.003052
 1786 Fit      -0.003762
 1787 Fit      -0.002534
 1788 Fit      -0.002254
 1789 Fit       0.005577
 1790 Fit       0.010901
 1791 Fit       0.009713
 1792 Fit       0.009782
 1793 Fit       0.006549
 1794 Fit       0.007604
 1795 Fit       0.008212
 1796 Fit       0.009100
 1797 Fit      -0.002461
 1798 Fit       0.003892
 1799 Fit       0.006139
 1800 Fit       0.007225
 1801 Fit       0.004999
 1802 Fit       0.002349
 1803 Fit      -0.001064
 1804 Fit       0.003933
 1805 Fit       0.000113
 1806 Fit       0.009106
 1807 Fit       0.010290
 1808 Fit       0.008507
 1809 Fit       0.007505
 1810 Fit       0.009576
 1811 Fit       0.010022
 1812 Fit       0.009933
 1813 Fit       0.011531
 1814 Fit       0.010592
 1815 Fit       0.010244
 1816 Fit       0.010908
 1817 Fit       0.011363
 1818 Fit       0.010406
 1819 Fit       0.010399
 1820 Fit       0.004076
 1821 Fit      -0.000714
 1822 Fit      -0.003889
 1823 Fit      -0.005711
 1824 Fit       0.005973
 1825 Fit       0.002531
 1826 Fit       0.006404
 1827 Fit       0.007971
 1828 Fit       0.004873
 1829 Fit       0.005840
 1830 Fit       0.002228
 1831 Fit       0.002609
 1832 Fit       0.004506
 1833 Fit       0.005856
 1834 Fit       0.004022
 1835 Fit       0.005591
 1836 Fit       0.004978
 1837 Fit       0.004909
 1838 Fit       0.010565
 1839 Fit       0.010150
 1840 Fit       0.008796
 1841 Fit       0.010740
 1842 Fit       0.011144
 1843 Fit       0.010970
 1844 Fit       0.010889
 1845 Fit       0.009980
 1846 Fit       0.008059
 1847 Fit       0.002767
 1848 Fit       0.000313
 1849 Fit       0.008661
 1850 Fit       0.006856
 1851 Fit       0.008931
 1852 Fit       0.007266
 1853 Fit       0.005963
 1854 Fit       0.003322
 1855 Fit       0.004755
 1856 Fit       0.004207
 1857 Fit       0.001113
 1858 Fit       0.003199
 1859 Fit       0.003961
 1860 Fit       0.004862
 1861 Fit       0.005290
 1862 Fit       0.006552
 1863 Fit       0.005340
 1864 Fit       0.006984
 1865 Fit       0.007277
 1866 Fit       0.006593
 1867 Fit       0.006151
 1868 Fit       0.006757
 1869 Fit       0.002067
 1870 Fit       0.003846
 1871 Fit      -0.001246
 1872 Fit      -0.003210
 1873 Fit      -0.000791
 1874 Fit       0.001014
 1875 Fit      -0.004204
 1876 Fit      -0.006460
 1877 Fit      -0.005381
 1878 Fit      -0.001577
 1879 Fit       0.003248
 1880 Fit       0.000521
 1881 Fit       0.002203
 1882 Fit       0.004403
 1883 Fit       0.002671
 1884 Fit      -0.000896
 1885 Fit      -0.004852
 1886 Fit      -0.007244
 1887 Fit      -0.006701
 1888 Fit      -0.002986
 1889 Fit      -0.002735
 1890 Fit      -0.003578
 1891 Fit      -0.000780
 1892 Fit       0.003063
 1893 Fit      -0.002295
 1894 Fit      -0.002986
 1895 Fit      -0.005029
 1896 Fit      -0.006560
 1897 Fit      -0.005715
 1898 Fit      -0.001597
 1899 Fit      -0.005563
 1900 Fit      -0.005654
 1901 Fit      -0.003651
 1902 Fit      -0.005201
 1903 Fit      -0.005182
 1904 Fit      -0.005307
 1905 Fit      -0.003547
 1906 Fit       0.001208
 1907 Fit      -0.002408
 1908 Fit      -0.005861
 1909 Fit      -0.006026
 1910 Fit      -0.004797
 1911 Fit      -0.003576
 1912 Fit       0.000283
 1913 Fit       0.003250
 1914 Fit       0.000178
 1915 Fit      -0.004098
 1916 Fit      -0.001732
 1917 Fit       0.010440
 1918 Fit      -0.000911
 1919 Fit       0.001958
 1920 Fit       0.002012
 1921 Fit       0.005334
 1922 Fit       0.007115
 1923 Fit       0.007416
 1924 Fit       0.003885
 1925 Fit       0.004911
 1926 Fit       0.007648
 1927 Fit       0.009628
 1928 Fit       0.008470
 1929 Fit       0.004228
 1930 Fit       0.009470
 1931 Fit       0.004550
 1932 Fit       0.006898
 1933 Fit       0.004590
 1934 Fit       0.009926
 1935 Fit       0.010401
 1936 Fit       0.006264
 1937 Fit       0.004210
 1938 Fit       0.009049
 1939 Fit       0.004118
 1940 Fit       0.007596
 1941 Fit       0.004715
 1942 Fit       0.006156
 1943 Fit       0.014530
 1944 Fit       0.006977
 1945 Fit       0.011922
 1946 Fit       0.007546
 1947 Fit      -0.003526
 1948 Fit       0.001853
 1949 Fit      -0.000788
 1950 Fit      -0.005962
 1951 Fit      -0.007129
 1952 Fit      -0.005773
 1953 Fit      -0.002233
 1954 Fit      -0.004422
 1955 Fit      -0.008166
 1956 Fit      -0.009071
 1957 Fit      -0.008325
 1958 Fit      -0.007611
 1959 Fit      -0.007250
 1960 Fit      -0.005913
 1961 Fit      -0.002351
 1962 Fit      -0.004175
 1963 Fit      -0.007882
 1964 Fit      -0.008913
 1965 Fit      -0.007843
 1966 Fit      -0.006408
 1967 Fit      -0.005882
 1968 Fit      -0.006623
 1969 Fit      -0.007772
 1970 Fit      -0.007536
 1971 Fit      -0.004486
 1972 Fit       0.001201
 1973 Fit      -0.002590
 1974 Fit      -0.005659
 1975 Fit      -0.005677
 1976 Fit      -0.003367
 1977 Fit      -0.001324
 1978 Fit      -0.000731
 1979 Fit      -0.001385
 1980 Fit      -0.003690
 1981 Fit      -0.006647
 1982 Fit      -0.008215
 1983 Fit      -0.006676
 1984 Fit       0.000721
 1985 Fit      -0.000694
 1986 Fit      -0.001444
 1987 Fit      -0.005624
 1988 Fit      -0.006896
 1989 Fit      -0.004036
 1990 Fit      -0.002845
 1991 Fit      -0.003041
 1992 Fit       0.001991
 1993 Fit       0.003270
 1994 Fit       0.000418
 1995 Fit       0.002141
 1996 Fit       0.002804
 1997 Fit       0.000998
 1998 Fit       0.001582
 1999 Fit       0.001945
 2000 Fit       0.001215
 2001 Fit       0.002580
 2002 Fit       0.002893
 2003 Fit      -0.000315
 2004 Fit       0.001463
 2005 Fit       0.003408
 2006 Fit       0.001575
 2007 Fit       0.003173
 2008 Fit       0.005783
 2009 Fit       0.006091
 2010 Fit       0.003769
 2011 Fit       0.009701
 2012 Fit       0.009630
 2013 Fit       0.005100
 2014 Fit       0.004933
 2015 Fit       0.002469
 2016 Fit       0.001802
 2017 Fit       0.001921
 2018 Fit       0.001265
 2019 Fit       0.001032
 2020 Fit       0.000894
 2021 Fit       0.001545
 2022 Fit      -0.001989
 2023 Fit       0.001705
 2024 Fit       0.001762
 2025 Fit       0.003629
 2026 Fit       0.001857
 2027 Fit       0.009267
 2028 Fit       0.008033
 2029 Fit       0.016264
 2030 Fit       0.013066
 2031 Fit       0.012475
 2032 Fit       0.014976
 2033 Fit      -0.007238
 2034 Fit      -0.010189
 2035 Fit      -0.010236
 2036 Fit      -0.006531
 2037 Fit      -0.003113
 2038 Fit      -0.007748
 2039 Fit      -0.010806
 2040 Fit      -0.010677
 2041 Fit      -0.010694
 2042 Fit      -0.009642
 2043 Fit      -0.005413
 2044 Fit       0.000575
 2045 Fit      -0.004428
 2046 Fit      -0.008618
 2047 Fit      -0.010600
 2048 Fit      -0.009572
 2049 Fit      -0.008256
 2050 Fit      -0.007929
 2051 Fit      -0.008010
 2052 Fit      -0.007364
 2053 Fit      -0.004983
 2054 Fit      -0.003962
 2055 Fit      -0.008894
 2056 Fit      -0.011249
 2057 Fit      -0.011083
 2058 Fit      -0.006882
 2059 Fit      -0.004145
 2060 Fit      -0.002825
 2061 Fit      -0.002539
 2062 Fit      -0.002148
 2063 Fit      -0.008358
 2064 Fit      -0.011667
 2065 Fit      -0.012017
 2066 Fit      -0.010003
 2067 Fit      -0.003019
 2068 Fit       0.001359
 2069 Fit      -0.005887
 2070 Fit      -0.010438
 2071 Fit      -0.012092
 2072 Fit      -0.010931
 2073 Fit      -0.007562
 2074 Fit      -0.002389
 2075 Fit      -0.007732
 2076 Fit      -0.010054
 2077 Fit      -0.008940
 2078 Fit      -0.004766
 2079 Fit      -0.001136
 2080 Fit      -0.005026
 2081 Fit      -0.005187
 2082 Fit      -0.001482
 2083 Fit       0.004792
 2084 Fit       0.003484
 2085 Fit       0.008664
 2086 Fit       0.010184
 2087 Fit       0.003895
 2088 Fit       0.004391
 2089 Fit       0.005072
 2090 Fit       0.006589
 2091 Fit       0.007193
 2092 Fit       0.001865
 2093 Fit       0.006824
 2094 Fit       0.008102
 2095 Fit       0.008763
 2096 Fit       0.000913
 2097 Fit       0.004521
 2098 Fit       0.007822
 2099 Fit       0.009100
 2100 Fit       0.006080
 2101 Fit       0.008806
 2102 Fit       0.007652
 2103 Fit       0.003014
 2104 Fit       0.001905
 2105 Fit       0.014474
 2106 Fit       0.012510
 2107 Fit       0.009061
 2108 Fit       0.006816
 2109 Fit       0.006608
 2110 Fit       0.009058
 2111 Fit       0.010513
 2112 Fit       0.011040
 2113 Fit       0.011329
 2114 Fit       0.010495
 2115 Fit       0.008922
 2116 Fit       0.010120
 2117 Fit       0.007643
 2118 Fit       0.007545
 2119 Fit       0.005831
 2120 Fit       0.005019
 2121 Fit       0.005738
 2122 Fit       0.008854
 2123 Fit       0.005417
 2124 Fit       0.005128
 2125 Fit       0.005709
 2126 Fit       0.005990
 2127 Fit       0.006808
 2128 Fit       0.007505
 2129 Fit       0.012934
 2130 Fit       0.010564
 2131 Fit       0.010287
 2132 Fit       0.008287
 2133 Fit       0.007239
 2134 Fit       0.006586
 2135 Fit       0.006103
 2136 Fit       0.009612
 2137 Fit       0.008610
 2138 Fit       0.007857
 2139 Fit       0.007202
 2140 Fit       0.006748
 2141 Fit       0.007034
 2142 Fit       0.009323
 2143 Fit       0.008517
 2144 Fit       0.007810
 2145 Fit       0.007964
 2146 Fit       0.009559
 2147 Fit       0.010064
 2148 Fit       0.008786
 2149 Fit       0.008386
 2150 Fit       0.007669
 2151 Fit       0.011194
 2152 Fit       0.007234
 2153 Fit       0.009169
 2154 Fit       0.008768
 2155 Fit       0.000455
 2156 Fit       0.001288
 2157 Fit       0.002547
 2158 Fit       0.003717
 2159 Fit       0.004096
 2160 Fit       0.004230
 2161 Fit       0.004847
 2162 Fit       0.004817
 2163 Fit       0.004903
 2164 Fit       0.004924
 2165 Fit       0.005222
 2166 Fit       0.005165
 Job cpu time:       0 days  0 hours 11 minutes 27.3 seconds.
 Normal termination of Gaussian 16 at Sun Jul  9 10:14:37 2023.
