 Copyright (c) 1988-2019, Gaussian, Inc.  All Rights Reserved.
  
 This is part of the Gaussian(R) 16 program.  It is based on
 the Gaussian(R) 09 system (copyright 2009, Gaussian, Inc.),
 the Gaussian(R) 03 system (copyright 2003, Gaussian, Inc.),
 the Gaussian(R) 98 system (copyright 1998, Gaussian, Inc.),
 the Gaussian(R) 94 system (copyright 1995, Gaussian, Inc.),
 the Gaussian 92(TM) system (copyright 1992, Gaussian, Inc.),
 the Gaussian 90(TM) system (copyright 1990, Gaussian, Inc.),
 the Gaussian 88(TM) system (copyright 1988, Gaussian, Inc.),
 the Gaussian 86(TM) system (copyright 1986, Carnegie Mellon
 University), and the Gaussian 82(TM) system (copyright 1983,
 Carnegie Mellon University). Gaussian is a federally registered
 trademark of Gaussian, Inc.
 Cite this work as:
 Gaussian 16, Revision C.01,
 M. J. Frisch, G. W. Trucks, H. B. Schlegel, G. E. Scuseria, 
 M. A. Robb, J. R. Cheeseman, G. Scalmani, V. Barone, 
 G. A. Petersson, H. Nakatsuji, X. Li, M. Caricato, A. V. Marenich, 
 J. Bloino, B. G. Janesko, R. Gomperts, B. Mennucci, H. P. Hratchian, 
 J. V. Ortiz, A. F. Izmaylov, J. L. Sonnenberg, D. Williams-Young, 
 F. Ding, F. Lipparini, F. Egidi, J. Goings, B. Peng, A. Petrone, 
 T. Henderson, D. Ranasinghe, V. G. Zakrzewski, J. Gao, N. Rega, 
 G. Zheng, W. Liang, M. Hada, M. Ehara, K. Toyota, R. Fukuda, 
 J. Hasegawa, M. Ishida, T. Nakajima, Y. Honda, O. Kitao, H. Nakai, 
 T. Vreven, K. Throssell, J. A. Montgomery, Jr., J. E. Peralta, 
 F. Ogliaro, M. J. Bearpark, J. J. Heyd, E. N. Brothers, K. N. Kudin, 
 V. N. Staroverov, T. A. Keith, R. Kobayashi, J. Normand, 
 K. Raghavachari, A. P. Rendell, J. C. Burant, S. S. Iyengar, 
 J. Tomasi, M. Cossi, J. M. Millam, M. Klene, C. Adamo, R. Cammi, 
 J. W. Ochterski, R. L. Martin, K. Morokuma, O. Farkas, 
 J. B. Foresman, and D. J. Fox, Gaussian, Inc., Wallingford CT, 2019.
 
 ******************************************
 Gaussian 16:  EM64L-G16RevC.01  3-Jul-2019
                 9-Jul-2023 
 ******************************************
 ----------------------------------------------------------------------
 #P B3LYP/6-31G(d) Integral=Ultrafine SCF(Conver=8,XQC,MaxConventionalC
 ycles=64,MaxCycle=128) NoSymm Test Pop=mk IOp(6/33=2) GFInput GFPrint
 ----------------------------------------------------------------------
 1/38=1,172=1/1;
 2/12=2,15=1,17=6,18=5,40=1/2;
 3/5=1,6=6,7=1,11=2,24=110,25=1,30=1,74=-5,75=-5/1,2,3;
 4//1;
 5/5=2,6=8,7=128,8=3,13=1,38=5,85=64/2,8;
 6/7=2,8=2,9=2,10=2,15=8,20=1,28=1,33=2/1,2;
 99/5=1,9=1/99;
 -------------------------------------------------
 MEP step - Input generated by PyRED DVE-DMDS-OPLS
 -------------------------------------------------
 Symbolic Z-matrix:
 Charge =  0 Multiplicity = 1
 C                     6.48702  -3.23035  -0.85054 
 H                     7.53611  -2.96541  -0.68061 
 H                     6.12789  -3.78766   0.02105 
 H                     6.44965  -3.89278  -1.7232 
 C                     5.61554  -1.99887  -1.09043 
 H                     5.9794   -1.43205  -1.96271 
 H                     4.58601  -2.30609  -1.3031 
 O                     5.52296  -1.13885   0.0416 
 C                     6.66579  -0.32949   0.26536 
 H                     6.89982   0.26271  -0.63434 
 H                     7.54971  -0.94296   0.50619 
 C                     6.39783   0.6087    1.43456 
 H                     6.08286   0.01847   2.30827 
 H                     7.33747   1.11324   1.68997 
 O                     5.46676   1.63769   1.1543 
 C                     4.08555   1.30858   1.27921 
 H                     3.62625   1.99927   1.99952 
 H                     3.95979   0.28659   1.65271 
 C                     3.40264   1.47779  -0.08091 
 H                     3.82617   0.76036  -0.79655 
 H                     3.59569   2.48996  -0.45064 
 O                     1.98855   1.34221   0. 
 C                     1.52216   0.        0. 
 H                     1.8742   -0.53652   0.89689 
 H                     1.90513  -0.53605  -0.88204 
 C                     0.        0.        0. 
 H                    -0.38328   0.58869   0.83966 
 H                    -0.35239  -1.02788   0.14129 
 S                    -0.82032   0.52985  -1.55342 
 C                    -0.4785    2.33694  -1.64781 
 H                     0.57525   2.48814  -1.89327 
 H                    -1.08585   2.66511  -2.49789 
 C                    -0.80807   3.16599  -0.40861 
 H                    -0.64092   4.22059  -0.65994 
 H                    -0.12449   2.90661   0.40543 
 S                    -2.55231   2.95306   0.1437 
 C                    -2.64411   4.35154   1.33123 
 H                    -1.71974   4.36422   1.92349 
 H                    -3.45634   4.0988    2.02007 
 C                    -2.87792   5.7356    0.71265 
 H                    -2.69156   6.51296   1.46388 
 H                    -2.1748    5.91638  -0.10639 
 S                    -4.54427   6.00056  -0.0124 
 C                    -5.53992   6.34204   1.49754 
 H                    -6.57723   6.22517   1.16636 
 H                    -5.3566    5.55105   2.23388 
 C                    -5.32784   7.72647   2.10961 
 H                    -4.29362   7.87005   2.44144 
 H                    -5.55979   8.51352   1.38546 
 H                    -5.97675   7.85938   2.9848 
 
 ITRead=  0  0  0  0  0  0  0  0  0  0  0  0  0  0  0  0  0  0  0  0
 ITRead=  0  0  0  0  0  0  0  0  0  0  0  0  0  0  0  0  0  0  0  0
 ITRead=  0  0  0  0  0  0  0  0  0  0
 MicOpt= -1 -1 -1 -1 -1 -1 -1 -1 -1 -1 -1 -1 -1 -1 -1 -1 -1 -1 -1 -1
 MicOpt= -1 -1 -1 -1 -1 -1 -1 -1 -1 -1 -1 -1 -1 -1 -1 -1 -1 -1 -1 -1
 MicOpt= -1 -1 -1 -1 -1 -1 -1 -1 -1 -1
 NAtoms=     50 NQM=       50 NQMF=       0 NMMI=      0 NMMIF=      0
                NMic=       0 NMicF=      0.
                          Input orientation:                          
 ---------------------------------------------------------------------
 Center     Atomic      Atomic             Coordinates (Angstroms)
 Number     Number       Type             X           Y           Z
 ---------------------------------------------------------------------
      1          6           0        6.487016   -3.230345   -0.850543
      2          1           0        7.536110   -2.965411   -0.680606
      3          1           0        6.127891   -3.787662    0.021049
      4          1           0        6.449653   -3.892776   -1.723199
      5          6           0        5.615538   -1.998870   -1.090427
      6          1           0        5.979395   -1.432053   -1.962712
      7          1           0        4.586015   -2.306088   -1.303098
      8          8           0        5.522959   -1.138853    0.041601
      9          6           0        6.665794   -0.329485    0.265359
     10          1           0        6.899822    0.262709   -0.634339
     11          1           0        7.549708   -0.942962    0.506187
     12          6           0        6.397833    0.608704    1.434561
     13          1           0        6.082861    0.018473    2.308272
     14          1           0        7.337469    1.113238    1.689971
     15          8           0        5.466760    1.637686    1.154296
     16          6           0        4.085547    1.308579    1.279206
     17          1           0        3.626247    1.999268    1.999516
     18          1           0        3.959794    0.286589    1.652706
     19          6           0        3.402642    1.477787   -0.080905
     20          1           0        3.826165    0.760357   -0.796552
     21          1           0        3.595691    2.489960   -0.450635
     22          8           0        1.988545    1.342210    0.000000
     23          6           0        1.522164    0.000000    0.000000
     24          1           0        1.874197   -0.536517    0.896885
     25          1           0        1.905131   -0.536048   -0.882044
     26          6           0        0.000000    0.000000    0.000000
     27          1           0       -0.383275    0.588688    0.839657
     28          1           0       -0.352387   -1.027883    0.141293
     29         16           0       -0.820324    0.529853   -1.553415
     30          6           0       -0.478502    2.336943   -1.647814
     31          1           0        0.575246    2.488136   -1.893266
     32          1           0       -1.085848    2.665109   -2.497894
     33          6           0       -0.808070    3.165991   -0.408610
     34          1           0       -0.640922    4.220586   -0.659936
     35          1           0       -0.124485    2.906611    0.405429
     36         16           0       -2.552314    2.953058    0.143701
     37          6           0       -2.644114    4.351536    1.331226
     38          1           0       -1.719743    4.364217    1.923494
     39          1           0       -3.456340    4.098798    2.020073
     40          6           0       -2.877919    5.735600    0.712646
     41          1           0       -2.691560    6.512961    1.463880
     42          1           0       -2.174802    5.916383   -0.106388
     43         16           0       -4.544267    6.000561   -0.012404
     44          6           0       -5.539920    6.342037    1.497543
     45          1           0       -6.577230    6.225174    1.166361
     46          1           0       -5.356602    5.551045    2.233876
     47          6           0       -5.327835    7.726472    2.109614
     48          1           0       -4.293620    7.870046    2.441435
     49          1           0       -5.559786    8.513523    1.385460
     50          1           0       -5.976752    7.859383    2.984797
 ---------------------------------------------------------------------
 Stoichiometry    C14H30O3S3
 Framework group  C1[X(C14H30O3S3)]
 Standard basis: 6-31G(d) (6D, 7F)
   372 basis functions,   752 primitive gaussians,   372 cartesian basis functions
    93 alpha electrons       93 beta electrons
 Requested convergence on RMS density matrix=1.00D-08 within  64 cycles.
 Requested convergence on MAX density matrix=1.00D-06.
 Requested convergence on             energy=1.00D-06.
 SCF Done:  E(RB3LYP) =  -1971.75008835     A.U. after   13 cycles
            NFock= 13  Conv=0.53D-08     -V/T= 2.0058
 Mulliken charges:
     1  C   -0.461711
     2  H    0.151644
     3  H    0.159073
     4  H    0.148678
     5  C   -0.016768
     6  H    0.125416
     7  H    0.146980
     8  O   -0.475139
     9  C   -0.023779
    10  H    0.130848
    11  H    0.120092
    12  C   -0.045204
    13  H    0.137085
    14  H    0.144701
    15  O   -0.477494
    16  C   -0.036035
    17  H    0.136570
    18  H    0.143431
    19  C   -0.039413
    20  H    0.139647
    21  H    0.148316
    22  O   -0.478767
    23  C   -0.004201
    24  H    0.127845
    25  H    0.138237
    26  C   -0.442585
    27  H    0.193097
    28  H    0.175760
    29  S    0.088935
    30  C   -0.410164
    31  H    0.189733
    32  H    0.182686
    33  C   -0.415669
    34  H    0.164707
    35  H    0.187505
    36  S    0.122688
    37  C   -0.416284
    38  H    0.164715
    39  H    0.178262
    40  C   -0.411534
    41  H    0.167910
    42  H    0.179886
    43  S    0.103033
    44  C   -0.413519
    45  H    0.177714
    46  H    0.166126
    47  C   -0.433366
    48  H    0.149328
    49  H    0.164107
    50  H    0.146878
 Sum of Mulliken charges =  -0.00000
 Dipole moment (field-independent basis, Debye):
    X=              4.3538    Y=             -0.7429    Z=              2.5259  Tot=              5.0880
 Quadrupole moment (field-independent basis, Debye-Ang):
   XX=           -133.4270   YY=           -138.2057   ZZ=           -143.3573
   XY=             -8.3267   XZ=            -13.9023   YZ=             11.3239
 Traceless Quadrupole moment (field-independent basis, Debye-Ang):
   XX=              4.9030   YY=              0.1243   ZZ=             -5.0273
   XY=             -8.3267   XZ=            -13.9023   YZ=             11.3239
 Octapole moment (field-independent basis, Debye-Ang**2):
  XXX=            -87.5067  YYY=           -915.0117  ZZZ=            -52.0320  XYY=            -92.5215
  XXY=           -357.9103  XXZ=             18.4138  XZZ=            -75.5527  YZZ=           -295.6717
  YYZ=             40.7069  XYZ=            -54.8812
 Hexadecapole moment (field-independent basis, Debye-Ang**3):
 XXXX=         -13618.9623 YYYY=         -11472.2195 ZZZZ=          -1229.3127 XXXY=           3410.7071
 XXXZ=             36.1667 YYYX=           3801.4921 YYYZ=           -380.6725 ZZZX=            298.8924
 ZZZY=           -808.3692 XXYY=          -4350.4342 XXZZ=          -2613.5010 YYZZ=          -2034.6164
 XXYZ=             34.7931 YYXZ=           -294.3360 ZZXY=           1228.0848
 Merz-Kollman atomic radii used.
 Atom Element Radius
    1     6    1.50
    2     1    1.20
    3     1    1.20
    4     1    1.20
    5     6    1.50
    6     1    1.20
    7     1    1.20
    8     8    1.40
    9     6    1.50
   10     1    1.20
   11     1    1.20
   12     6    1.50
   13     1    1.20
   14     1    1.20
   15     8    1.40
   16     6    1.50
   17     1    1.20
   18     1    1.20
   19     6    1.50
   20     1    1.20
   21     1    1.20
   22     8    1.40
   23     6    1.50
   24     1    1.20
   25     1    1.20
   26     6    1.50
   27     1    1.20
   28     1    1.20
   29    16    1.75
   30     6    1.50
   31     1    1.20
   32     1    1.20
   33     6    1.50
   34     1    1.20
   35     1    1.20
   36    16    1.75
   37     6    1.50
   38     1    1.20
   39     1    1.20
   40     6    1.50
   41     1    1.20
   42     1    1.20
   43    16    1.75
   44     6    1.50
   45     1    1.20
   46     1    1.20
   47     6    1.50
   48     1    1.20
   49     1    1.20
   50     1    1.20
 Generate VDW surfaces: Layer= 4 Dens= 1 Start= 1.400 Inc= 0.200
            Electrostatic Properties Using The SCF Density.


       Atomic Center    1 is at   6.487016 -3.230345 -0.850543
       Atomic Center    2 is at   7.536110 -2.965411 -0.680606
       Atomic Center    3 is at   6.127891 -3.787662  0.021049
       Atomic Center    4 is at   6.449653 -3.892776 -1.723199
       Atomic Center    5 is at   5.615538 -1.998870 -1.090427
       Atomic Center    6 is at   5.979395 -1.432053 -1.962712
       Atomic Center    7 is at   4.586015 -2.306088 -1.303098
       Atomic Center    8 is at   5.522959 -1.138853  0.041601
       Atomic Center    9 is at   6.665794 -0.329485  0.265359
       Atomic Center   10 is at   6.899822  0.262709 -0.634339
       Atomic Center   11 is at   7.549708 -0.942962  0.506187
       Atomic Center   12 is at   6.397833  0.608704  1.434561
       Atomic Center   13 is at   6.082861  0.018473  2.308272
       Atomic Center   14 is at   7.337469  1.113238  1.689971
       Atomic Center   15 is at   5.466760  1.637686  1.154296
       Atomic Center   16 is at   4.085547  1.308579  1.279206
       Atomic Center   17 is at   3.626247  1.999268  1.999516
       Atomic Center   18 is at   3.959794  0.286589  1.652706
       Atomic Center   19 is at   3.402642  1.477787 -0.080905
       Atomic Center   20 is at   3.826165  0.760357 -0.796552
       Atomic Center   21 is at   3.595691  2.489960 -0.450635
       Atomic Center   22 is at   1.988545  1.342210  0.000000
       Atomic Center   23 is at   1.522164  0.000000  0.000000
       Atomic Center   24 is at   1.874197 -0.536517  0.896885
       Atomic Center   25 is at   1.905131 -0.536048 -0.882044
       Atomic Center   26 is at   0.000000  0.000000  0.000000
       Atomic Center   27 is at  -0.383275  0.588688  0.839657
       Atomic Center   28 is at  -0.352387 -1.027883  0.141293
       Atomic Center   29 is at  -0.820324  0.529853 -1.553415
       Atomic Center   30 is at  -0.478502  2.336943 -1.647814
       Atomic Center   31 is at   0.575246  2.488136 -1.893266
       Atomic Center   32 is at  -1.085848  2.665109 -2.497894
       Atomic Center   33 is at  -0.808070  3.165991 -0.408610
       Atomic Center   34 is at  -0.640922  4.220586 -0.659936
       Atomic Center   35 is at  -0.124485  2.906611  0.405429
       Atomic Center   36 is at  -2.552314  2.953058  0.143701
       Atomic Center   37 is at  -2.644114  4.351536  1.331226
       Atomic Center   38 is at  -1.719743  4.364217  1.923494
       Atomic Center   39 is at  -3.456340  4.098798  2.020073
       Atomic Center   40 is at  -2.877919  5.735600  0.712646
       Atomic Center   41 is at  -2.691560  6.512961  1.463880
       Atomic Center   42 is at  -2.174802  5.916383 -0.106388
       Atomic Center   43 is at  -4.544267  6.000561 -0.012404
       Atomic Center   44 is at  -5.539920  6.342037  1.497543
       Atomic Center   45 is at  -6.577230  6.225174  1.166361
       Atomic Center   46 is at  -5.356602  5.551045  2.233876
       Atomic Center   47 is at  -5.327835  7.726472  2.109614
       Atomic Center   48 is at  -4.293620  7.870046  2.441435
       Atomic Center   49 is at  -5.559786  8.513523  1.385460
       Atomic Center   50 is at  -5.976752  7.859383  2.984797
      ESP Fit Center   51 is at   4.915143 -4.622903 -0.850543
      ESP Fit Center   52 is at   5.742346 -5.193879 -0.850543
      ESP Fit Center   53 is at   6.740143 -5.315034 -0.850543
      ESP Fit Center   54 is at   7.679952 -4.958611 -0.850543
      ESP Fit Center   55 is at   7.536110 -2.965411  0.999394
      ESP Fit Center   56 is at   8.523589 -2.965411  0.678543
      ESP Fit Center   57 is at   7.841258 -3.904560  0.678543
      ESP Fit Center   58 is at   9.133885 -2.965411 -0.161457
      ESP Fit Center   59 is at   8.760077 -1.938381 -0.161457
      ESP Fit Center   60 is at   8.760077 -3.992441 -0.161457
      ESP Fit Center   61 is at   9.133885 -2.965411 -1.199755
      ESP Fit Center   62 is at   8.760077 -1.938381 -1.199755
      ESP Fit Center   63 is at   7.813561 -1.391910 -1.199755
      ESP Fit Center   64 is at   8.760077 -3.992441 -1.199755
      ESP Fit Center   65 is at   8.523589 -2.965411 -2.039755
      ESP Fit Center   66 is at   7.841258 -2.026262 -2.039755
      ESP Fit Center   67 is at   6.127891 -3.787662  1.701049
      ESP Fit Center   68 is at   7.115370 -3.787662  1.380198
      ESP Fit Center   69 is at   6.433039 -2.848513  1.380198
      ESP Fit Center   70 is at   5.329004 -3.207236  1.380198
      ESP Fit Center   71 is at   5.329004 -4.368088  1.380198
      ESP Fit Center   72 is at   6.433039 -4.726811  1.380198
      ESP Fit Center   73 is at   4.626474 -3.241191  0.540198
      ESP Fit Center   74 is at   4.626474 -4.334133  0.540198
      ESP Fit Center   75 is at   5.329004 -5.171376  0.540198
      ESP Fit Center   76 is at   6.405342 -5.361163  0.540198
      ESP Fit Center   77 is at   7.351858 -4.814692  0.540198
      ESP Fit Center   78 is at   4.626474 -4.334133 -0.498100
      ESP Fit Center   79 is at   5.329004 -5.171376 -0.498100
      ESP Fit Center   80 is at   6.405342 -5.361163 -0.498100
      ESP Fit Center   81 is at   5.650766 -5.276490 -1.204050
      ESP Fit Center   82 is at   6.727104 -5.466277 -1.204050
      ESP Fit Center   83 is at   8.047428 -3.892776 -2.242348
      ESP Fit Center   84 is at   4.948236 -4.439247 -2.242348
      ESP Fit Center   85 is at   5.650766 -5.276490 -2.242348
      ESP Fit Center   86 is at   6.727104 -5.466277 -2.242348
      ESP Fit Center   87 is at   7.673620 -4.919806 -2.242348
      ESP Fit Center   88 is at   7.437132 -3.892776 -3.082348
      ESP Fit Center   89 is at   6.754801 -2.953627 -3.082348
      ESP Fit Center   90 is at   5.650766 -3.312350 -3.082348
      ESP Fit Center   91 is at   5.650766 -4.473202 -3.082348
      ESP Fit Center   92 is at   6.754801 -4.831925 -3.082348
      ESP Fit Center   93 is at   6.449653 -3.892776 -3.403199
      ESP Fit Center   94 is at   4.424573 -0.624424 -2.140427
      ESP Fit Center   95 is at   5.090538 -2.908197 -2.909080
      ESP Fit Center   96 is at   7.577170 -1.432053 -2.481861
      ESP Fit Center   97 is at   7.203362 -0.405023 -2.481861
      ESP Fit Center   98 is at   6.256846  0.141448 -2.481861
      ESP Fit Center   99 is at   5.180508 -0.048339 -2.481861
      ESP Fit Center  100 is at   4.477978 -0.885582 -2.481861
      ESP Fit Center  101 is at   6.966874 -1.432053 -3.321861
      ESP Fit Center  102 is at   6.284543 -0.492904 -3.321861
      ESP Fit Center  103 is at   5.180508 -0.851627 -3.321861
      ESP Fit Center  104 is at   5.180508 -2.012479 -3.321861
      ESP Fit Center  105 is at   6.284543 -2.371202 -3.321861
      ESP Fit Center  106 is at   5.979395 -1.432053 -3.642712
      ESP Fit Center  107 is at   3.787128 -2.886514  0.056051
      ESP Fit Center  108 is at   3.084598 -1.759617 -0.783949
      ESP Fit Center  109 is at   3.084598 -2.852559 -0.783949
      ESP Fit Center  110 is at   3.787128 -3.689802 -0.783949
      ESP Fit Center  111 is at   3.787128 -0.922374 -1.822247
      ESP Fit Center  112 is at   3.084598 -1.759617 -1.822247
      ESP Fit Center  113 is at   3.084598 -2.852559 -1.822247
      ESP Fit Center  114 is at   3.787128 -3.689802 -1.822247
      ESP Fit Center  115 is at   3.787128 -1.725662 -2.662247
      ESP Fit Center  116 is at   3.787128 -2.886514 -2.662247
      ESP Fit Center  117 is at   4.891163 -3.245237 -2.662247
      ESP Fit Center  118 is at   4.586015 -2.306088 -2.983098
      ESP Fit Center  119 is at   5.032959 -1.987558  1.739011
      ESP Fit Center  120 is at   6.012959 -1.987558  1.739011
      ESP Fit Center  121 is at   4.149726 -2.136565  1.021601
      ESP Fit Center  122 is at   4.998431 -2.753186  1.021601
      ESP Fit Center  123 is at   3.562959 -1.138853  0.041601
      ESP Fit Center  124 is at   8.525252  0.646434  0.265359
      ESP Fit Center  125 is at   8.484447 -0.329485 -0.784641
      ESP Fit Center  126 is at   8.123789  1.289739 -0.115190
      ESP Fit Center  127 is at   7.177273  1.836210 -0.115190
      ESP Fit Center  128 is at   8.497597  0.262709 -1.153488
      ESP Fit Center  129 is at   8.123789  1.289739 -1.153488
      ESP Fit Center  130 is at   7.177273  1.836210 -1.153488
      ESP Fit Center  131 is at   6.100935  1.646423 -1.153488
      ESP Fit Center  132 is at   7.887301  0.262709 -1.993488
      ESP Fit Center  133 is at   7.204970  1.201858 -1.993488
      ESP Fit Center  134 is at   6.100935  0.843135 -1.993488
      ESP Fit Center  135 is at   6.899822  0.262709 -2.314339
      ESP Fit Center  136 is at   8.537187 -0.942962  1.865336
      ESP Fit Center  137 is at   7.854856 -1.882111  1.865336
      ESP Fit Center  138 is at   9.147483 -0.942962  1.025336
      ESP Fit Center  139 is at   8.773675  0.084068  1.025336
      ESP Fit Center  140 is at   7.827159 -2.516463  1.025336
      ESP Fit Center  141 is at   8.773675 -1.969992  1.025336
      ESP Fit Center  142 is at   9.147483 -0.942962 -0.012962
      ESP Fit Center  143 is at   8.773675  0.084068 -0.012962
      ESP Fit Center  144 is at   8.773675 -1.969992 -0.012962
      ESP Fit Center  145 is at   8.537187 -0.942962 -0.852962
      ESP Fit Center  146 is at   5.872833  1.518031  3.253214
      ESP Fit Center  147 is at   7.927782 -0.374534  2.484561
      ESP Fit Center  148 is at   6.082861  0.018473  3.988272
      ESP Fit Center  149 is at   7.070340  0.018473  3.667421
      ESP Fit Center  150 is at   6.388009  0.957622  3.667421
      ESP Fit Center  151 is at   5.283974  0.598899  3.667421
      ESP Fit Center  152 is at   5.283974 -0.561953  3.667421
      ESP Fit Center  153 is at   6.388009 -0.920676  3.667421
      ESP Fit Center  154 is at   5.283974 -1.365241  2.827421
      ESP Fit Center  155 is at   6.360312 -1.555028  2.827421
      ESP Fit Center  156 is at   7.306828 -1.008557  2.827421
      ESP Fit Center  157 is at   7.337469  1.113238  3.369971
      ESP Fit Center  158 is at   8.324948  1.113238  3.049120
      ESP Fit Center  159 is at   7.642617  2.052387  3.049120
      ESP Fit Center  160 is at   8.935244  1.113238  2.209120
      ESP Fit Center  161 is at   8.561436  2.140268  2.209120
      ESP Fit Center  162 is at   7.614920  2.686739  2.209120
      ESP Fit Center  163 is at   8.561436  0.086208  2.209120
      ESP Fit Center  164 is at   8.935244  1.113238  1.170822
      ESP Fit Center  165 is at   8.561436  2.140268  1.170822
      ESP Fit Center  166 is at   7.614920  2.686739  1.170822
      ESP Fit Center  167 is at   8.324948  1.113238  0.330822
      ESP Fit Center  168 is at   7.642617  2.052387  0.330822
      ESP Fit Center  169 is at   5.466760  1.637686  3.114296
      ESP Fit Center  170 is at   5.956760  2.486391  2.851706
      ESP Fit Center  171 is at   5.991288  3.252019  2.134296
      ESP Fit Center  172 is at   4.942232  3.252019  2.134296
      ESP Fit Center  173 is at   6.446760  3.335096  1.154296
      ESP Fit Center  174 is at   5.466760  3.597686  1.154296
      ESP Fit Center  175 is at   6.839993  2.635398  0.174296
      ESP Fit Center  176 is at   5.991288  3.252019  0.174296
      ESP Fit Center  177 is at   5.956760  2.486391 -0.543114
      ESP Fit Center  178 is at   5.466760  1.637686 -0.805704
      ESP Fit Center  179 is at   5.135547  1.308579  3.097859
      ESP Fit Center  180 is at   2.340562  0.796205  2.329206
      ESP Fit Center  181 is at   4.338674  3.393268  1.279206
      ESP Fit Center  182 is at   3.626247  1.999268  3.679516
      ESP Fit Center  183 is at   4.613726  1.999268  3.358665
      ESP Fit Center  184 is at   3.931395  2.938417  3.358665
      ESP Fit Center  185 is at   2.827360  2.579694  3.358665
      ESP Fit Center  186 is at   2.827360  1.418842  3.358665
      ESP Fit Center  187 is at   4.850214  3.026298  2.518665
      ESP Fit Center  188 is at   3.903698  3.572769  2.518665
      ESP Fit Center  189 is at   2.827360  3.382982  2.518665
      ESP Fit Center  190 is at   2.124830  2.545739  2.518665
      ESP Fit Center  191 is at   2.124830  1.452797  2.518665
      ESP Fit Center  192 is at   3.903698  3.572769  1.480367
      ESP Fit Center  193 is at   2.827360  3.382982  1.480367
      ESP Fit Center  194 is at   3.959794  0.286589  3.332706
      ESP Fit Center  195 is at   3.160907 -0.293837  3.011855
      ESP Fit Center  196 is at   4.264942 -0.652560  3.011855
      ESP Fit Center  197 is at   3.160907 -1.097125  2.171855
      ESP Fit Center  198 is at   4.237245 -1.286912  2.171855
      ESP Fit Center  199 is at   3.143821  3.277929  0.969095
      ESP Fit Center  200 is at   5.423940  0.760357 -1.315701
      ESP Fit Center  201 is at   4.813644  0.760357 -2.155701
      ESP Fit Center  202 is at   4.131313  1.699506 -2.155701
      ESP Fit Center  203 is at   3.027278  1.340783 -2.155701
      ESP Fit Center  204 is at   3.027278  0.179931 -2.155701
      ESP Fit Center  205 is at   4.131313 -0.178792 -2.155701
      ESP Fit Center  206 is at   3.826165  0.760357 -2.476552
      ESP Fit Center  207 is at   3.900839  3.429109  0.908514
      ESP Fit Center  208 is at   4.819658  3.516990  0.068514
      ESP Fit Center  209 is at   3.873142  4.063461  0.068514
      ESP Fit Center  210 is at   2.796804  3.873674  0.068514
      ESP Fit Center  211 is at   5.193466  2.489960 -0.969784
      ESP Fit Center  212 is at   4.819658  3.516990 -0.969784
      ESP Fit Center  213 is at   3.873142  4.063461 -0.969784
      ESP Fit Center  214 is at   2.796804  3.873674 -0.969784
      ESP Fit Center  215 is at   4.583170  2.489960 -1.809784
      ESP Fit Center  216 is at   3.900839  3.429109 -1.809784
      ESP Fit Center  217 is at   2.796804  3.070386 -1.809784
      ESP Fit Center  218 is at   3.595691  2.489960 -2.130635
      ESP Fit Center  219 is at   1.988545  1.342210  1.960000
      ESP Fit Center  220 is at   1.498545  2.190915  1.697410
      ESP Fit Center  221 is at   1.008545  1.342210  1.697410
      ESP Fit Center  222 is at   1.464017  2.956543  0.980000
      ESP Fit Center  223 is at   1.988545  3.302210  0.000000
      ESP Fit Center  224 is at   1.988545  1.342210 -1.960000
      ESP Fit Center  225 is at   0.997164  0.909327  1.818653
      ESP Fit Center  226 is at   1.775291 -2.084689  0.000000
      ESP Fit Center  227 is at   2.715100 -1.728266  0.000000
      ESP Fit Center  228 is at   3.381622 -0.975919  0.000000
      ESP Fit Center  229 is at   1.874197 -0.536517  2.576885
      ESP Fit Center  230 is at   2.179345  0.402632  2.256034
      ESP Fit Center  231 is at   1.075310  0.043909  2.256034
      ESP Fit Center  232 is at   1.075310 -1.116943  2.256034
      ESP Fit Center  233 is at   2.179345 -1.475666  2.256034
      ESP Fit Center  234 is at   1.075310 -1.920231  1.416034
      ESP Fit Center  235 is at   2.151648 -2.110018  1.416034
      ESP Fit Center  236 is at   3.098164 -1.563547  1.416034
      ESP Fit Center  237 is at   2.151648 -2.110018  0.377736
      ESP Fit Center  238 is at   3.098164 -1.563547  0.377736
      ESP Fit Center  239 is at   2.182582 -2.109549 -0.362895
      ESP Fit Center  240 is at   3.129098 -1.563078 -0.362895
      ESP Fit Center  241 is at   1.106244 -1.919762 -1.401193
      ESP Fit Center  242 is at   2.182582 -2.109549 -1.401193
      ESP Fit Center  243 is at   2.892610 -0.536048 -2.241193
      ESP Fit Center  244 is at   2.210279  0.403101 -2.241193
      ESP Fit Center  245 is at   1.106244 -1.116474 -2.241193
      ESP Fit Center  246 is at   2.210279 -1.475197 -2.241193
      ESP Fit Center  247 is at   1.905131 -0.536048 -2.562044
      ESP Fit Center  248 is at  -0.525000 -0.909327  1.818653
      ESP Fit Center  249 is at  -1.744985 -0.512374  1.050000
      ESP Fit Center  250 is at  -0.383275  0.588688  2.519657
      ESP Fit Center  251 is at   0.604204  0.588688  2.198806
      ESP Fit Center  252 is at  -0.078127  1.527837  2.198806
      ESP Fit Center  253 is at  -1.182162  1.169114  2.198806
      ESP Fit Center  254 is at  -1.182162  0.008262  2.198806
      ESP Fit Center  255 is at  -0.078127 -0.350461  2.198806
      ESP Fit Center  256 is at  -1.884692  0.042217  1.358806
      ESP Fit Center  257 is at  -0.352387 -1.027883  1.821293
      ESP Fit Center  258 is at  -1.151274 -1.608309  1.500442
      ESP Fit Center  259 is at  -0.047239 -1.967032  1.500442
      ESP Fit Center  260 is at  -1.853804 -1.574354  0.660442
      ESP Fit Center  261 is at  -1.151274 -2.411597  0.660442
      ESP Fit Center  262 is at  -0.074936 -2.601384  0.660442
      ESP Fit Center  263 is at   0.871580 -2.054913  0.660442
      ESP Fit Center  264 is at  -1.853804 -1.574354 -0.377856
      ESP Fit Center  265 is at  -1.151274 -2.411597 -0.377856
      ESP Fit Center  266 is at  -0.074936 -2.601384 -0.377856
      ESP Fit Center  267 is at   0.871580 -2.054913 -0.377856
      ESP Fit Center  268 is at  -0.047239 -1.967032 -1.217856
      ESP Fit Center  269 is at  -2.658220 -0.009802 -0.025865
      ESP Fit Center  270 is at  -2.074701 -0.917776 -0.025865
      ESP Fit Center  271 is at  -3.208897  0.529853 -1.008239
      ESP Fit Center  272 is at  -2.972354 -0.506510 -1.008239
      ESP Fit Center  273 is at  -2.309575 -1.337609 -1.008239
      ESP Fit Center  274 is at  -1.351832 -1.798834 -1.008239
      ESP Fit Center  275 is at  -2.972354  1.566216 -2.098591
      ESP Fit Center  276 is at  -3.208897  0.529853 -2.098591
      ESP Fit Center  277 is at  -2.972354 -0.506510 -2.098591
      ESP Fit Center  278 is at  -2.309575 -1.337609 -2.098591
      ESP Fit Center  279 is at  -1.351832 -1.798834 -2.098591
      ESP Fit Center  280 is at  -0.288816 -1.798834 -2.098591
      ESP Fit Center  281 is at   0.668927 -1.337609 -2.098591
      ESP Fit Center  282 is at   1.095163  0.529853 -3.080965
      ESP Fit Center  283 is at  -2.658220  1.069508 -3.080965
      ESP Fit Center  284 is at  -2.658220 -0.009802 -3.080965
      ESP Fit Center  285 is at  -2.074701 -0.917776 -3.080965
      ESP Fit Center  286 is at  -1.092926 -1.366137 -3.080965
      ESP Fit Center  287 is at  -0.024602 -1.212535 -3.080965
      ESP Fit Center  288 is at   0.791086 -0.505738 -3.080965
      ESP Fit Center  289 is at   0.242691  0.529853 -3.760789
      ESP Fit Center  290 is at  -0.288816  1.450451 -3.760789
      ESP Fit Center  291 is at  -1.351832  1.450451 -3.760789
      ESP Fit Center  292 is at  -1.883339  0.529853 -3.760789
      ESP Fit Center  293 is at  -1.351832 -0.390745 -3.760789
      ESP Fit Center  294 is at  -0.288816 -0.390745 -3.760789
      ESP Fit Center  295 is at  -0.820324  0.529853 -4.003415
      ESP Fit Center  296 is at   0.276994  3.991248 -2.697814
      ESP Fit Center  297 is at   1.799213  3.515166 -1.374117
      ESP Fit Center  298 is at   2.173021  2.488136 -2.412415
      ESP Fit Center  299 is at   1.799213  3.515166 -2.412415
      ESP Fit Center  300 is at   0.852697  4.061637 -2.412415
      ESP Fit Center  301 is at   1.799213  1.461106 -2.412415
      ESP Fit Center  302 is at   1.562725  2.488136 -3.252415
      ESP Fit Center  303 is at   0.880394  3.427285 -3.252415
      ESP Fit Center  304 is at   0.880394  1.548987 -3.252415
      ESP Fit Center  305 is at   0.575246  2.488136 -3.573266
      ESP Fit Center  306 is at  -0.808397  4.238610 -3.017043
      ESP Fit Center  307 is at  -1.884735  4.048823 -3.017043
      ESP Fit Center  308 is at  -2.587265  3.211580 -3.017043
      ESP Fit Center  309 is at  -2.587265  2.118638 -3.017043
      ESP Fit Center  310 is at  -0.098369  2.665109 -3.857043
      ESP Fit Center  311 is at  -0.780700  3.604258 -3.857043
      ESP Fit Center  312 is at  -1.884735  3.245535 -3.857043
      ESP Fit Center  313 is at  -1.884735  2.084683 -3.857043
      ESP Fit Center  314 is at  -0.780700  1.725960 -3.857043
      ESP Fit Center  315 is at  -1.085848  2.665109 -4.177894
      ESP Fit Center  316 is at   1.051388  4.141910 -0.408610
      ESP Fit Center  317 is at  -0.335774  5.159735  0.699213
      ESP Fit Center  318 is at   0.583045  5.247616 -0.140787
      ESP Fit Center  319 is at  -0.363471  5.794087 -0.140787
      ESP Fit Center  320 is at   0.956853  4.220586 -1.179085
      ESP Fit Center  321 is at   0.583045  5.247616 -1.179085
      ESP Fit Center  322 is at  -0.363471  5.794087 -1.179085
      ESP Fit Center  323 is at  -0.335774  5.159735 -2.019085
      ESP Fit Center  324 is at  -1.439809  4.801012 -2.019085
      ESP Fit Center  325 is at  -0.124485  2.906611  2.085429
      ESP Fit Center  326 is at   0.862994  2.906611  1.764578
      ESP Fit Center  327 is at   0.180663  3.845760  1.764578
      ESP Fit Center  328 is at   0.180663  1.967462  1.764578
      ESP Fit Center  329 is at   1.099482  3.933641  0.924578
      ESP Fit Center  330 is at   0.152966  4.480112  0.924578
      ESP Fit Center  331 is at  -3.083822  2.032460  2.351075
      ESP Fit Center  332 is at  -2.020806  2.032460  2.351075
      ESP Fit Center  333 is at  -4.390210  2.413403  1.671251
      ESP Fit Center  334 is at  -3.806691  1.505429  1.671251
      ESP Fit Center  335 is at  -2.824916  1.057068  1.671251
      ESP Fit Center  336 is at  -1.756592  1.210670  1.671251
      ESP Fit Center  337 is at  -4.940887  2.953058  0.688877
      ESP Fit Center  338 is at  -4.704344  1.916695  0.688877
      ESP Fit Center  339 is at  -4.041565  1.085596  0.688877
      ESP Fit Center  340 is at  -3.083822  0.624371  0.688877
      ESP Fit Center  341 is at  -4.940887  2.953058 -0.401475
      ESP Fit Center  342 is at  -4.704344  1.916695 -0.401475
      ESP Fit Center  343 is at  -4.041565  1.085596 -0.401475
      ESP Fit Center  344 is at  -3.083822  0.624371 -0.401475
      ESP Fit Center  345 is at  -2.824916  4.849048 -1.383849
      ESP Fit Center  346 is at  -4.390210  3.492713 -1.383849
      ESP Fit Center  347 is at  -4.390210  2.413403 -1.383849
      ESP Fit Center  348 is at  -3.806691  1.505429 -1.383849
      ESP Fit Center  349 is at  -3.083822  3.873656 -2.063673
      ESP Fit Center  350 is at  -3.615329  2.953058 -2.063673
      ESP Fit Center  351 is at  -3.083822  2.032460 -2.063673
      ESP Fit Center  352 is at  -1.719743  4.364217  3.603494
      ESP Fit Center  353 is at  -0.732264  4.364217  3.282643
      ESP Fit Center  354 is at  -1.414595  5.303366  3.282643
      ESP Fit Center  355 is at  -1.414595  3.425068  3.282643
      ESP Fit Center  356 is at  -0.121968  4.364217  2.442643
      ESP Fit Center  357 is at  -0.495776  5.391247  2.442643
      ESP Fit Center  358 is at  -1.442292  5.937718  2.442643
      ESP Fit Center  359 is at  -1.442292  2.790716  2.442643
      ESP Fit Center  360 is at  -0.495776  3.337187  2.442643
      ESP Fit Center  361 is at  -0.121968  4.364217  1.404345
      ESP Fit Center  362 is at  -0.495776  5.391247  1.404345
      ESP Fit Center  363 is at  -3.456340  4.098798  3.700073
      ESP Fit Center  364 is at  -3.151192  5.037947  3.379222
      ESP Fit Center  365 is at  -4.255227  4.679224  3.379222
      ESP Fit Center  366 is at  -4.255227  3.518372  3.379222
      ESP Fit Center  367 is at  -3.151192  3.159649  3.379222
      ESP Fit Center  368 is at  -4.957757  3.552327  2.539222
      ESP Fit Center  369 is at  -4.255227  2.715084  2.539222
      ESP Fit Center  370 is at  -3.178889  2.525297  2.539222
      ESP Fit Center  371 is at  -4.957757  3.552327  1.500924
      ESP Fit Center  372 is at  -2.691560  6.512961  3.143880
      ESP Fit Center  373 is at  -1.704081  6.512961  2.823029
      ESP Fit Center  374 is at  -2.386412  7.452110  2.823029
      ESP Fit Center  375 is at  -3.490447  5.932535  2.823029
      ESP Fit Center  376 is at  -1.093785  6.512961  1.983029
      ESP Fit Center  377 is at  -1.467593  7.539991  1.983029
      ESP Fit Center  378 is at  -2.414109  8.086462  1.983029
      ESP Fit Center  379 is at  -1.467593  7.539991  0.944731
      ESP Fit Center  380 is at  -2.414109  8.086462  0.944731
      ESP Fit Center  381 is at  -0.577027  5.916383  0.412761
      ESP Fit Center  382 is at  -0.950835  6.943413  0.412761
      ESP Fit Center  383 is at  -0.577027  5.916383 -0.625537
      ESP Fit Center  384 is at  -0.950835  6.943413 -0.625537
      ESP Fit Center  385 is at  -1.897351  7.489884 -0.625537
      ESP Fit Center  386 is at  -1.187323  5.916383 -1.465537
      ESP Fit Center  387 is at  -1.869654  6.855532 -1.465537
      ESP Fit Center  388 is at  -2.174802  5.916383 -1.786388
      ESP Fit Center  389 is at  -3.055016  7.868023  0.532772
      ESP Fit Center  390 is at  -4.012759  8.329248  0.532772
      ESP Fit Center  391 is at  -6.033518  4.133099  0.532772
      ESP Fit Center  392 is at  -5.075775  3.671874  0.532772
      ESP Fit Center  393 is at  -3.055016  7.868023 -0.557580
      ESP Fit Center  394 is at  -4.012759  8.329248 -0.557580
      ESP Fit Center  395 is at  -5.075775  8.329248 -0.557580
      ESP Fit Center  396 is at  -6.033518  7.868023 -0.557580
      ESP Fit Center  397 is at  -6.696297  7.036924 -0.557580
      ESP Fit Center  398 is at  -6.932840  6.000561 -0.557580
      ESP Fit Center  399 is at  -6.696297  4.964198 -0.557580
      ESP Fit Center  400 is at  -6.033518  4.133099 -0.557580
      ESP Fit Center  401 is at  -5.075775  3.671874 -0.557580
      ESP Fit Center  402 is at  -2.932857  7.036152 -1.539954
      ESP Fit Center  403 is at  -3.748545  7.742949 -1.539954
      ESP Fit Center  404 is at  -4.816869  7.896551 -1.539954
      ESP Fit Center  405 is at  -5.798644  7.448190 -1.539954
      ESP Fit Center  406 is at  -6.382163  6.540216 -1.539954
      ESP Fit Center  407 is at  -6.382163  5.460906 -1.539954
      ESP Fit Center  408 is at  -5.798644  4.552932 -1.539954
      ESP Fit Center  409 is at  -4.816869  4.104571 -1.539954
      ESP Fit Center  410 is at  -2.932857  4.964970 -1.539954
      ESP Fit Center  411 is at  -3.481252  6.000561 -2.219778
      ESP Fit Center  412 is at  -4.012759  6.921159 -2.219778
      ESP Fit Center  413 is at  -5.075775  6.921159 -2.219778
      ESP Fit Center  414 is at  -5.607282  6.000561 -2.219778
      ESP Fit Center  415 is at  -5.075775  5.079963 -2.219778
      ESP Fit Center  416 is at  -4.012759  5.079963 -2.219778
      ESP Fit Center  417 is at  -4.544267  6.000561 -2.462404
      ESP Fit Center  418 is at  -7.376117  6.805600  2.525510
      ESP Fit Center  419 is at  -7.376117  5.644748  2.525510
      ESP Fit Center  420 is at  -8.078647  6.771645  1.685510
      ESP Fit Center  421 is at  -8.078647  5.678703  1.685510
      ESP Fit Center  422 is at  -7.376117  4.841460  1.685510
      ESP Fit Center  423 is at  -7.376117  7.608888  0.647212
      ESP Fit Center  424 is at  -8.078647  6.771645  0.647212
      ESP Fit Center  425 is at  -8.078647  5.678703  0.647212
      ESP Fit Center  426 is at  -7.376117  4.841460  0.647212
      ESP Fit Center  427 is at  -7.376117  6.805600 -0.192788
      ESP Fit Center  428 is at  -7.376117  5.644748 -0.192788
      ESP Fit Center  429 is at  -5.356602  5.551045  3.913876
      ESP Fit Center  430 is at  -4.369123  5.551045  3.593025
      ESP Fit Center  431 is at  -6.155489  6.131471  3.593025
      ESP Fit Center  432 is at  -6.155489  4.970619  3.593025
      ESP Fit Center  433 is at  -5.051454  4.611896  3.593025
      ESP Fit Center  434 is at  -6.858019  5.004574  2.753025
      ESP Fit Center  435 is at  -6.155489  4.167331  2.753025
      ESP Fit Center  436 is at  -5.079151  3.977544  2.753025
      ESP Fit Center  437 is at  -6.155489  4.167331  1.714727
      ESP Fit Center  438 is at  -4.802835  8.635799  3.928267
      ESP Fit Center  439 is at  -4.802835  6.817145  3.928267
      ESP Fit Center  440 is at  -4.572339  9.380777  3.159614
      ESP Fit Center  441 is at  -5.586656  9.526614  3.159614
      ESP Fit Center  442 is at  -7.366813  8.229035  2.109614
      ESP Fit Center  443 is at  -3.797886  8.709710  1.059614
      ESP Fit Center  444 is at  -4.293620  7.870046  4.121435
      ESP Fit Center  445 is at  -3.306141  7.870046  3.800584
      ESP Fit Center  446 is at  -3.988472  8.809195  3.800584
      ESP Fit Center  447 is at  -3.988472  6.930897  3.800584
      ESP Fit Center  448 is at  -2.695845  7.870046  2.960584
      ESP Fit Center  449 is at  -3.069653  8.897076  2.960584
      ESP Fit Center  450 is at  -4.016169  9.443547  2.960584
      ESP Fit Center  451 is at  -4.016169  6.296545  2.960584
      ESP Fit Center  452 is at  -3.069653  8.897076  1.922286
      ESP Fit Center  453 is at  -4.016169  9.443547  1.922286
      ESP Fit Center  454 is at  -5.282335 10.087024  1.904609
      ESP Fit Center  455 is at  -6.358673  9.897237  1.904609
      ESP Fit Center  456 is at  -7.061203  9.059994  1.904609
      ESP Fit Center  457 is at  -4.335819  9.540553  0.866311
      ESP Fit Center  458 is at  -5.282335 10.087024  0.866311
      ESP Fit Center  459 is at  -6.358673  9.897237  0.866311
      ESP Fit Center  460 is at  -7.061203  9.059994  0.866311
      ESP Fit Center  461 is at  -7.061203  7.967052  0.866311
      ESP Fit Center  462 is at  -4.572307  8.513523  0.026311
      ESP Fit Center  463 is at  -5.254638  9.452672  0.026311
      ESP Fit Center  464 is at  -6.358673  9.093949  0.026311
      ESP Fit Center  465 is at  -6.358673  7.933097  0.026311
      ESP Fit Center  466 is at  -5.559786  8.513523 -0.294540
      ESP Fit Center  467 is at  -5.976752  7.859383  4.664797
      ESP Fit Center  468 is at  -4.989273  7.859383  4.343946
      ESP Fit Center  469 is at  -5.671604  8.798532  4.343946
      ESP Fit Center  470 is at  -6.775639  8.439809  4.343946
      ESP Fit Center  471 is at  -6.775639  7.278957  4.343946
      ESP Fit Center  472 is at  -5.671604  6.920234  4.343946
      ESP Fit Center  473 is at  -5.699301  9.432884  3.503946
      ESP Fit Center  474 is at  -6.775639  9.243097  3.503946
      ESP Fit Center  475 is at  -7.478169  8.405854  3.503946
      ESP Fit Center  476 is at  -7.478169  7.312912  3.503946
      ESP Fit Center  477 is at  -6.775639  6.475669  3.503946
      ESP Fit Center  478 is at  -6.775639  9.243097  2.465648
      ESP Fit Center  479 is at  -7.478169  8.405854  2.465648
      ESP Fit Center  480 is at  -7.478169  7.312912  2.465648
      ESP Fit Center  481 is at   7.528337 -3.230345  1.311782
      ESP Fit Center  482 is at   7.007676 -5.511508 -0.316493
      ESP Fit Center  483 is at   7.945874 -5.059695 -0.316493
      ESP Fit Center  484 is at   4.378905 -4.245558 -1.384593
      ESP Fit Center  485 is at   7.945874 -5.059695 -1.384593
      ESP Fit Center  486 is at   8.496110 -2.965411  0.982163
      ESP Fit Center  487 is at   8.016110 -3.796795  0.982163
      ESP Fit Center  488 is at   9.198879 -2.965411  0.279394
      ESP Fit Center  489 is at   8.881318 -3.942762  0.279394
      ESP Fit Center  490 is at   9.456110 -2.965411 -0.680606
      ESP Fit Center  491 is at   9.198879 -2.005411 -0.680606
      ESP Fit Center  492 is at   8.496110 -4.628180 -0.680606
      ESP Fit Center  493 is at   9.198879 -3.925411 -0.680606
      ESP Fit Center  494 is at   9.198879 -2.965411 -1.640606
      ESP Fit Center  495 is at   8.881318 -1.988060 -1.640606
      ESP Fit Center  496 is at   8.049934 -1.384024 -1.640606
      ESP Fit Center  497 is at   8.881318 -3.942762 -1.640606
      ESP Fit Center  498 is at   8.496110 -2.965411 -2.343375
      ESP Fit Center  499 is at   8.016110 -2.134027 -2.343375
      ESP Fit Center  500 is at   6.127891 -3.787662  1.941049
      ESP Fit Center  501 is at   7.087891 -3.787662  1.683818
      ESP Fit Center  502 is at   6.607891 -2.956278  1.683818
      ESP Fit Center  503 is at   5.647891 -2.956278  1.683818
      ESP Fit Center  504 is at   5.167891 -3.787662  1.683818
      ESP Fit Center  505 is at   5.647891 -4.619046  1.683818
      ESP Fit Center  506 is at   6.607891 -4.619046  1.683818
      ESP Fit Center  507 is at   4.465122 -3.787662  0.981049
      ESP Fit Center  508 is at   4.782683 -4.765013  0.981049
      ESP Fit Center  509 is at   5.614067 -5.369049  0.981049
      ESP Fit Center  510 is at   6.641715 -5.369049  0.981049
      ESP Fit Center  511 is at   7.473099 -4.765013  0.981049
      ESP Fit Center  512 is at   4.207891 -3.787662  0.021049
      ESP Fit Center  513 is at   4.465122 -4.747662  0.021049
      ESP Fit Center  514 is at   5.167891 -5.450431  0.021049
      ESP Fit Center  515 is at   6.127891 -5.707662  0.021049
      ESP Fit Center  516 is at   7.087891 -5.450431  0.021049
      ESP Fit Center  517 is at   4.786884 -4.852776 -1.723199
      ESP Fit Center  518 is at   5.489653 -5.555545 -1.723199
      ESP Fit Center  519 is at   6.449653 -5.812776 -1.723199
      ESP Fit Center  520 is at   7.409653 -5.555545 -1.723199
      ESP Fit Center  521 is at   8.112422 -4.852776 -1.723199
      ESP Fit Center  522 is at   8.112422 -3.892776 -2.683199
      ESP Fit Center  523 is at   4.786884 -3.892776 -2.683199
      ESP Fit Center  524 is at   5.104445 -4.870127 -2.683199
      ESP Fit Center  525 is at   5.935829 -5.474163 -2.683199
      ESP Fit Center  526 is at   6.963477 -5.474163 -2.683199
      ESP Fit Center  527 is at   7.794861 -4.870127 -2.683199
      ESP Fit Center  528 is at   7.409653 -3.892776 -3.385968
      ESP Fit Center  529 is at   6.929653 -3.061392 -3.385968
      ESP Fit Center  530 is at   5.969653 -3.061392 -3.385968
      ESP Fit Center  531 is at   5.489653 -3.892776 -3.385968
      ESP Fit Center  532 is at   5.969653 -4.724160 -3.385968
      ESP Fit Center  533 is at   6.929653 -4.724160 -3.385968
      ESP Fit Center  534 is at   6.449653 -3.892776 -3.643199
      ESP Fit Center  535 is at   4.574217 -1.998870 -3.252752
      ESP Fit Center  536 is at   5.094878 -2.900680 -3.252752
      ESP Fit Center  537 is at   7.899395 -1.432053 -1.962712
      ESP Fit Center  538 is at   7.642164 -1.432053 -2.922712
      ESP Fit Center  539 is at   7.324603 -0.454702 -2.922712
      ESP Fit Center  540 is at   6.493219  0.149334 -2.922712
      ESP Fit Center  541 is at   5.465571  0.149334 -2.922712
      ESP Fit Center  542 is at   4.634187 -0.454702 -2.922712
      ESP Fit Center  543 is at   6.939395 -1.432053 -3.625481
      ESP Fit Center  544 is at   6.459395 -0.600669 -3.625481
      ESP Fit Center  545 is at   5.499395 -0.600669 -3.625481
      ESP Fit Center  546 is at   5.019395 -1.432053 -3.625481
      ESP Fit Center  547 is at   5.499395 -2.263437 -3.625481
      ESP Fit Center  548 is at   6.459395 -2.263437 -3.625481
      ESP Fit Center  549 is at   5.979395 -1.432053 -3.882712
      ESP Fit Center  550 is at   3.626015 -2.306088  0.359671
      ESP Fit Center  551 is at   2.923246 -2.306088 -0.343098
      ESP Fit Center  552 is at   3.240807 -3.283439 -0.343098
      ESP Fit Center  553 is at   4.072191 -3.887475 -0.343098
      ESP Fit Center  554 is at   2.666015 -2.306088 -1.303098
      ESP Fit Center  555 is at   2.923246 -3.266088 -1.303098
      ESP Fit Center  556 is at   3.626015 -3.968857 -1.303098
      ESP Fit Center  557 is at   3.240807 -1.328737 -2.263098
      ESP Fit Center  558 is at   2.923246 -2.306088 -2.263098
      ESP Fit Center  559 is at   3.240807 -3.283439 -2.263098
      ESP Fit Center  560 is at   4.072191 -3.887475 -2.263098
      ESP Fit Center  561 is at   4.106015 -1.474704 -2.965867
      ESP Fit Center  562 is at   3.626015 -2.306088 -2.965867
      ESP Fit Center  563 is at   4.106015 -3.137472 -2.965867
      ESP Fit Center  564 is at   5.037009 -1.980543  2.059771
      ESP Fit Center  565 is at   6.008909 -1.980543  2.059771
      ESP Fit Center  566 is at   4.106125 -2.168243  1.438218
      ESP Fit Center  567 is at   4.981777 -2.804441  1.438218
      ESP Fit Center  568 is at   3.402579 -1.661480  0.540048
      ESP Fit Center  569 is at   3.888332 -2.587006  0.540048
      ESP Fit Center  570 is at   8.773905  0.685728 -0.268691
      ESP Fit Center  571 is at   8.819822  0.262709 -0.634339
      ESP Fit Center  572 is at   8.562591  1.222709 -0.634339
      ESP Fit Center  573 is at   7.859822  1.925478 -0.634339
      ESP Fit Center  574 is at   6.899822  2.182709 -0.634339
      ESP Fit Center  575 is at   8.562591  0.262709 -1.594339
      ESP Fit Center  576 is at   8.245030  1.240060 -1.594339
      ESP Fit Center  577 is at   7.413646  1.844096 -1.594339
      ESP Fit Center  578 is at   6.385998  1.844096 -1.594339
      ESP Fit Center  579 is at   5.554614  1.240060 -1.594339
      ESP Fit Center  580 is at   8.245030 -0.714642 -1.594339
      ESP Fit Center  581 is at   7.859822  0.262709 -2.297108
      ESP Fit Center  582 is at   7.379822  1.094093 -2.297108
      ESP Fit Center  583 is at   6.419822  1.094093 -2.297108
      ESP Fit Center  584 is at   6.899822  0.262709 -2.554339
      ESP Fit Center  585 is at   8.509708 -0.942962  2.168956
      ESP Fit Center  586 is at   7.069708 -1.774346  2.168956
      ESP Fit Center  587 is at   8.029708 -1.774346  2.168956
      ESP Fit Center  588 is at   9.212477 -0.942962  1.466187
      ESP Fit Center  589 is at   7.035884 -2.524349  1.466187
      ESP Fit Center  590 is at   8.063532 -2.524349  1.466187
      ESP Fit Center  591 is at   8.894916 -1.920313  1.466187
      ESP Fit Center  592 is at   9.469708 -0.942962  0.506187
      ESP Fit Center  593 is at   9.212477  0.017038  0.506187
      ESP Fit Center  594 is at   9.212477 -1.902962  0.506187
      ESP Fit Center  595 is at   9.212477 -0.942962 -0.453813
      ESP Fit Center  596 is at   8.509708 -0.942962 -1.156582
      ESP Fit Center  597 is at   7.439154  0.608704  3.596886
      ESP Fit Center  598 is at   6.918493  1.510514  3.596886
      ESP Fit Center  599 is at   5.877173  1.510514  3.596886
      ESP Fit Center  600 is at   7.976357 -0.405752  2.930937
      ESP Fit Center  601 is at   6.082861  0.018473  4.228272
      ESP Fit Center  602 is at   7.042861  0.018473  3.971041
      ESP Fit Center  603 is at   6.562861  0.849857  3.971041
      ESP Fit Center  604 is at   5.602861  0.849857  3.971041
      ESP Fit Center  605 is at   5.122861  0.018473  3.971041
      ESP Fit Center  606 is at   5.602861 -0.812911  3.971041
      ESP Fit Center  607 is at   6.562861 -0.812911  3.971041
      ESP Fit Center  608 is at   4.737653 -0.958878  3.268272
      ESP Fit Center  609 is at   5.569037 -1.562914  3.268272
      ESP Fit Center  610 is at   6.596685 -1.562914  3.268272
      ESP Fit Center  611 is at   7.428069 -0.958878  3.268272
      ESP Fit Center  612 is at   5.122861 -1.644296  2.308272
      ESP Fit Center  613 is at   6.082861 -1.901527  2.308272
      ESP Fit Center  614 is at   7.042861 -1.644296  2.308272
      ESP Fit Center  615 is at   7.337469  1.113238  3.609971
      ESP Fit Center  616 is at   8.297469  1.113238  3.352740
      ESP Fit Center  617 is at   7.817469  1.944622  3.352740
      ESP Fit Center  618 is at   7.817469  0.281854  3.352740
      ESP Fit Center  619 is at   9.000238  1.113238  2.649971
      ESP Fit Center  620 is at   8.682677  2.090589  2.649971
      ESP Fit Center  621 is at   7.851293  2.694625  2.649971
      ESP Fit Center  622 is at   6.823645  2.694625  2.649971
      ESP Fit Center  623 is at   8.682677  0.135887  2.649971
      ESP Fit Center  624 is at   9.257469  1.113238  1.689971
      ESP Fit Center  625 is at   9.000238  2.073238  1.689971
      ESP Fit Center  626 is at   8.297469  2.776007  1.689971
      ESP Fit Center  627 is at   7.337469  3.033238  1.689971
      ESP Fit Center  628 is at   9.000238  0.153238  1.689971
      ESP Fit Center  629 is at   9.000238  1.113238  0.729971
      ESP Fit Center  630 is at   8.682677  2.090589  0.729971
      ESP Fit Center  631 is at   7.851293  2.694625  0.729971
      ESP Fit Center  632 is at   7.817469  1.944622  0.027202
      ESP Fit Center  633 is at   5.466760  1.637686  3.394296
      ESP Fit Center  634 is at   5.952710  2.479376  3.172466
      ESP Fit Center  635 is at   6.007942  3.303274  2.550913
      ESP Fit Center  636 is at   4.925578  3.303274  2.550913
      ESP Fit Center  637 is at   6.707322  3.434950  1.652743
      ESP Fit Center  638 is at   5.729993  3.805602  1.652743
      ESP Fit Center  639 is at   4.692360  3.679610  1.652743
      ESP Fit Center  640 is at   6.707322  3.434950  0.655849
      ESP Fit Center  641 is at   5.729993  3.805602  0.655849
      ESP Fit Center  642 is at   4.692360  3.679610  0.655849
      ESP Fit Center  643 is at   6.883594  2.667076 -0.242321
      ESP Fit Center  644 is at   6.007942  3.303274 -0.242321
      ESP Fit Center  645 is at   5.952710  2.479376 -0.863874
      ESP Fit Center  646 is at   5.126868  1.308579  3.441531
      ESP Fit Center  647 is at   2.285159  0.779937  2.775582
      ESP Fit Center  648 is at   3.626247  1.999268  3.919516
      ESP Fit Center  649 is at   4.586247  1.999268  3.662285
      ESP Fit Center  650 is at   4.106247  2.830652  3.662285
      ESP Fit Center  651 is at   3.146247  2.830652  3.662285
      ESP Fit Center  652 is at   2.666247  1.999268  3.662285
      ESP Fit Center  653 is at   3.146247  1.167884  3.662285
      ESP Fit Center  654 is at   4.971455  2.976619  2.959516
      ESP Fit Center  655 is at   4.140071  3.580655  2.959516
      ESP Fit Center  656 is at   3.112423  3.580655  2.959516
      ESP Fit Center  657 is at   2.281039  2.976619  2.959516
      ESP Fit Center  658 is at   1.963478  1.999268  2.959516
      ESP Fit Center  659 is at   2.281039  1.021917  2.959516
      ESP Fit Center  660 is at   4.586247  3.662037  1.999516
      ESP Fit Center  661 is at   3.626247  3.919268  1.999516
      ESP Fit Center  662 is at   2.666247  3.662037  1.999516
      ESP Fit Center  663 is at   1.963478  2.959268  1.999516
      ESP Fit Center  664 is at   3.959794  0.286589  3.572706
      ESP Fit Center  665 is at   2.999794  0.286589  3.315475
      ESP Fit Center  666 is at   3.479794 -0.544795  3.315475
      ESP Fit Center  667 is at   4.439794 -0.544795  3.315475
      ESP Fit Center  668 is at   2.297025  0.286589  2.612706
      ESP Fit Center  669 is at   3.445970 -1.294798  2.612706
      ESP Fit Center  670 is at   4.473618 -1.294798  2.612706
      ESP Fit Center  671 is at   3.959794 -1.633411  1.652706
      ESP Fit Center  672 is at   2.881982  2.379597 -2.243230
      ESP Fit Center  673 is at   2.361321  1.477787 -2.243230
      ESP Fit Center  674 is at   5.171373  1.737708 -1.756552
      ESP Fit Center  675 is at   4.786165  0.760357 -2.459321
      ESP Fit Center  676 is at   4.306165  1.591741 -2.459321
      ESP Fit Center  677 is at   2.866165  0.760357 -2.459321
      ESP Fit Center  678 is at   3.346165 -0.071027 -2.459321
      ESP Fit Center  679 is at   4.306165 -0.071027 -2.459321
      ESP Fit Center  680 is at   3.826165  0.760357 -2.716552
      ESP Fit Center  681 is at   4.109515  4.071347  0.509365
      ESP Fit Center  682 is at   3.081867  4.071347  0.509365
      ESP Fit Center  683 is at   5.258460  3.449960 -0.450635
      ESP Fit Center  684 is at   4.555691  4.152729 -0.450635
      ESP Fit Center  685 is at   3.595691  4.409960 -0.450635
      ESP Fit Center  686 is at   2.635691  4.152729 -0.450635
      ESP Fit Center  687 is at   5.258460  2.489960 -1.410635
      ESP Fit Center  688 is at   4.940899  3.467311 -1.410635
      ESP Fit Center  689 is at   4.109515  4.071347 -1.410635
      ESP Fit Center  690 is at   3.081867  4.071347 -1.410635
      ESP Fit Center  691 is at   2.250483  3.467311 -1.410635
      ESP Fit Center  692 is at   4.555691  2.489960 -2.113404
      ESP Fit Center  693 is at   4.075691  3.321344 -2.113404
      ESP Fit Center  694 is at   3.115691  3.321344 -2.113404
      ESP Fit Center  695 is at   3.595691  2.489960 -2.370635
      ESP Fit Center  696 is at   1.502595  2.183900  2.018170
      ESP Fit Center  697 is at   1.016645  1.342210  2.018170
      ESP Fit Center  698 is at   2.251778  3.510126  0.498447
      ESP Fit Center  699 is at   1.001504  0.901810  2.162325
      ESP Fit Center  700 is at   1.001504 -2.281163 -0.534050
      ESP Fit Center  701 is at   1.874197 -0.536517  2.816885
      ESP Fit Center  702 is at   1.394197  0.294867  2.559654
      ESP Fit Center  703 is at   0.914197 -0.536517  2.559654
      ESP Fit Center  704 is at   1.394197 -1.367901  2.559654
      ESP Fit Center  705 is at   2.354197 -1.367901  2.559654
      ESP Fit Center  706 is at   0.528989 -1.513868  1.856885
      ESP Fit Center  707 is at   1.360373 -2.117904  1.856885
      ESP Fit Center  708 is at   2.388021 -2.117904  1.856885
      ESP Fit Center  709 is at   3.219405 -1.513868  1.856885
      ESP Fit Center  710 is at   1.874197 -2.456517  0.896885
      ESP Fit Center  711 is at   2.834197 -2.199286  0.896885
      ESP Fit Center  712 is at   0.945131 -2.198817 -0.882044
      ESP Fit Center  713 is at   1.905131 -2.456048 -0.882044
      ESP Fit Center  714 is at   1.391307 -2.117435 -1.842044
      ESP Fit Center  715 is at   2.418955 -2.117435 -1.842044
      ESP Fit Center  716 is at   2.865131 -0.536048 -2.544813
      ESP Fit Center  717 is at   2.385131  0.295336 -2.544813
      ESP Fit Center  718 is at   1.425131 -1.367432 -2.544813
      ESP Fit Center  719 is at   2.385131 -1.367432 -2.544813
      ESP Fit Center  720 is at   1.905131 -0.536048 -2.802044
      ESP Fit Center  721 is at  -0.520660 -0.901810  2.162325
      ESP Fit Center  722 is at  -1.800388 -0.528642  1.496376
      ESP Fit Center  723 is at  -0.383275  0.588688  2.759657
      ESP Fit Center  724 is at   0.576725  0.588688  2.502426
      ESP Fit Center  725 is at   0.096725  1.420072  2.502426
      ESP Fit Center  726 is at  -0.863275  1.420072  2.502426
      ESP Fit Center  727 is at  -1.343275  0.588688  2.502426
      ESP Fit Center  728 is at  -0.863275 -0.242696  2.502426
      ESP Fit Center  729 is at   0.096725 -0.242696  2.502426
      ESP Fit Center  730 is at  -2.046044  0.588688  1.799657
      ESP Fit Center  731 is at  -1.728483 -0.388663  1.799657
      ESP Fit Center  732 is at  -1.312387 -1.027883  1.804062
      ESP Fit Center  733 is at  -0.832387 -1.859267  1.804062
      ESP Fit Center  734 is at   0.127613 -1.859267  1.804062
      ESP Fit Center  735 is at  -2.015156 -1.027883  1.101293
      ESP Fit Center  736 is at  -1.697595 -2.005234  1.101293
      ESP Fit Center  737 is at  -0.866211 -2.609270  1.101293
      ESP Fit Center  738 is at   0.161437 -2.609270  1.101293
      ESP Fit Center  739 is at  -2.015156 -1.987883  0.141293
      ESP Fit Center  740 is at  -1.312387 -2.690652  0.141293
      ESP Fit Center  741 is at  -0.352387 -2.947883  0.141293
      ESP Fit Center  742 is at   0.607613 -2.690652  0.141293
      ESP Fit Center  743 is at  -0.866211 -2.609270 -0.818707
      ESP Fit Center  744 is at   0.161437 -2.609270 -0.818707
      ESP Fit Center  745 is at  -2.534967 -0.460096  0.426484
      ESP Fit Center  746 is at  -3.350658 -0.007986 -0.481901
      ESP Fit Center  747 is at  -2.913140 -0.990667 -0.481901
      ESP Fit Center  748 is at  -2.113755 -1.710436 -0.481901
      ESP Fit Center  749 is at  -3.572649  0.015354 -1.553415
      ESP Fit Center  750 is at  -3.200932 -0.944157 -1.553415
      ESP Fit Center  751 is at  -2.507701 -1.704595 -1.553415
      ESP Fit Center  752 is at  -1.586580 -2.163259 -1.553415
      ESP Fit Center  753 is at  -0.561973 -2.258203 -1.553415
      ESP Fit Center  754 is at   0.427743 -1.976604 -1.553415
      ESP Fit Center  755 is at   1.766539  0.529853 -2.624929
      ESP Fit Center  756 is at  -2.913140  2.050373 -2.624929
      ESP Fit Center  757 is at  -3.350658  1.067692 -2.624929
      ESP Fit Center  758 is at  -3.350658 -0.007986 -2.624929
      ESP Fit Center  759 is at  -2.913140 -0.990667 -2.624929
      ESP Fit Center  760 is at  -2.113755 -1.710436 -2.624929
      ESP Fit Center  761 is at  -1.090725 -2.042839 -2.624929
      ESP Fit Center  762 is at  -0.020939 -1.930400 -2.624929
      ESP Fit Center  763 is at   0.910625 -1.392561 -2.624929
      ESP Fit Center  764 is at   1.159575  0.529853 -3.533314
      ESP Fit Center  765 is at   0.894319  1.519802 -3.533314
      ESP Fit Center  766 is at  -2.534967  1.519802 -3.533314
      ESP Fit Center  767 is at  -2.800223  0.529853 -3.533314
      ESP Fit Center  768 is at  -2.534967 -0.460096 -3.533314
      ESP Fit Center  769 is at  -1.810273 -1.184790 -3.533314
      ESP Fit Center  770 is at  -0.820324 -1.450046 -3.533314
      ESP Fit Center  771 is at   0.169625 -1.184790 -3.533314
      ESP Fit Center  772 is at   0.894319 -0.460096 -3.533314
      ESP Fit Center  773 is at   0.251190  0.529853 -4.140278
      ESP Fit Center  774 is at  -0.284567  1.457811 -4.140278
      ESP Fit Center  775 is at  -1.356081  1.457811 -4.140278
      ESP Fit Center  776 is at  -1.891838  0.529853 -4.140278
      ESP Fit Center  777 is at  -1.356081 -0.398105 -4.140278
      ESP Fit Center  778 is at  -0.284567 -0.398105 -4.140278
      ESP Fit Center  779 is at  -0.820324  0.529853 -4.353415
      ESP Fit Center  780 is at   0.300981  4.043772 -3.144190
      ESP Fit Center  781 is at   0.562819  2.336943 -3.810139
      ESP Fit Center  782 is at   1.920454  3.465487 -0.933266
      ESP Fit Center  783 is at   2.238015  3.448136 -1.893266
      ESP Fit Center  784 is at   1.535246  4.150905 -1.893266
      ESP Fit Center  785 is at   2.238015  2.488136 -2.853266
      ESP Fit Center  786 is at   1.920454  3.465487 -2.853266
      ESP Fit Center  787 is at   1.089070  4.069523 -2.853266
      ESP Fit Center  788 is at   1.920454  1.510785 -2.853266
      ESP Fit Center  789 is at   1.535246  2.488136 -3.556035
      ESP Fit Center  790 is at   1.055246  3.319520 -3.556035
      ESP Fit Center  791 is at   1.055246  1.656752 -3.556035
      ESP Fit Center  792 is at   0.575246  2.488136 -3.813266
      ESP Fit Center  793 is at  -1.085848  4.585109 -2.497894
      ESP Fit Center  794 is at  -2.045848  4.327878 -2.497894
      ESP Fit Center  795 is at  -0.572024  4.246496 -3.457894
      ESP Fit Center  796 is at  -1.599672  4.246496 -3.457894
      ESP Fit Center  797 is at  -2.431056  3.642460 -3.457894
      ESP Fit Center  798 is at  -2.748617  2.665109 -3.457894
      ESP Fit Center  799 is at  -0.125848  2.665109 -4.160663
      ESP Fit Center  800 is at  -0.605848  3.496493 -4.160663
      ESP Fit Center  801 is at  -1.565848  3.496493 -4.160663
      ESP Fit Center  802 is at  -2.045848  2.665109 -4.160663
      ESP Fit Center  803 is at  -1.565848  1.833725 -4.160663
      ESP Fit Center  804 is at  -0.605848  1.833725 -4.160663
      ESP Fit Center  805 is at  -1.085848  2.665109 -4.417894
      ESP Fit Center  806 is at  -0.028587  4.872820  1.087766
      ESP Fit Center  807 is at   1.300041  4.181204  0.125440
      ESP Fit Center  808 is at   1.300041  4.181204 -0.942660
      ESP Fit Center  809 is at  -0.160922  5.051970  1.002833
      ESP Fit Center  810 is at   0.704286  5.197937  0.300064
      ESP Fit Center  811 is at  -0.127098  5.801973  0.300064
      ESP Fit Center  812 is at   1.021847  5.180586 -0.659936
      ESP Fit Center  813 is at   0.319078  5.883355 -0.659936
      ESP Fit Center  814 is at   0.704286  5.197937 -1.619936
      ESP Fit Center  815 is at  -0.127098  5.801973 -1.619936
      ESP Fit Center  816 is at  -0.160922  5.051970 -2.322705
      ESP Fit Center  817 is at  -1.120922  5.051970 -2.322705
      ESP Fit Center  818 is at  -0.124485  2.906611  2.325429
      ESP Fit Center  819 is at   0.835515  2.906611  2.068198
      ESP Fit Center  820 is at   0.355515  3.737995  2.068198
      ESP Fit Center  821 is at  -0.604485  2.075227  2.068198
      ESP Fit Center  822 is at   0.355515  2.075227  2.068198
      ESP Fit Center  823 is at   1.220723  3.883962  1.365429
      ESP Fit Center  824 is at   0.389339  4.487998  1.365429
      ESP Fit Center  825 is at   1.538284  3.866611  0.405429
      ESP Fit Center  826 is at  -3.088071  2.025100  2.730564
      ESP Fit Center  827 is at  -2.016557  2.025100  2.730564
      ESP Fit Center  828 is at  -4.266957  1.963109  2.123600
      ESP Fit Center  829 is at  -3.542263  1.238415  2.123600
      ESP Fit Center  830 is at  -2.552314  0.973159  2.123600
      ESP Fit Center  831 is at  -0.837671  1.963109  2.123600
      ESP Fit Center  832 is at  -5.082648  2.415219  1.215215
      ESP Fit Center  833 is at  -4.645130  1.432538  1.215215
      ESP Fit Center  834 is at  -3.845745  0.712769  1.215215
      ESP Fit Center  835 is at  -2.822715  0.380366  1.215215
      ESP Fit Center  836 is at  -5.304639  2.438559  0.143701
      ESP Fit Center  837 is at  -4.932922  1.479048  0.143701
      ESP Fit Center  838 is at  -4.239691  0.718610  0.143701
      ESP Fit Center  839 is at  -3.318570  0.259946  0.143701
      ESP Fit Center  840 is at  -5.082648  2.415219 -0.927813
      ESP Fit Center  841 is at  -4.645130  1.432538 -0.927813
      ESP Fit Center  842 is at  -3.845745  0.712769 -0.927813
      ESP Fit Center  843 is at  -2.552314  4.932957 -1.836198
      ESP Fit Center  844 is at  -4.532213  2.953058 -1.836198
      ESP Fit Center  845 is at  -4.266957  1.963109 -1.836198
      ESP Fit Center  846 is at  -3.542263  1.238415 -1.836198
      ESP Fit Center  847 is at  -3.088071  3.881016 -2.443162
      ESP Fit Center  848 is at  -3.623828  2.953058 -2.443162
      ESP Fit Center  849 is at  -3.088071  2.025100 -2.443162
      ESP Fit Center  850 is at  -1.719743  4.364217  3.843494
      ESP Fit Center  851 is at  -0.759743  4.364217  3.586263
      ESP Fit Center  852 is at  -1.239743  5.195601  3.586263
      ESP Fit Center  853 is at  -2.199743  5.195601  3.586263
      ESP Fit Center  854 is at  -2.199743  3.532833  3.586263
      ESP Fit Center  855 is at  -1.239743  3.532833  3.586263
      ESP Fit Center  856 is at  -0.056974  4.364217  2.883494
      ESP Fit Center  857 is at  -0.374535  5.341568  2.883494
      ESP Fit Center  858 is at  -1.205919  5.945604  2.883494
      ESP Fit Center  859 is at  -1.205919  2.782830  2.883494
      ESP Fit Center  860 is at  -0.374535  3.386866  2.883494
      ESP Fit Center  861 is at   0.200257  4.364217  1.923494
      ESP Fit Center  862 is at  -0.056974  5.324217  1.923494
      ESP Fit Center  863 is at  -0.759743  6.026986  1.923494
      ESP Fit Center  864 is at  -0.374535  5.341568  0.963494
      ESP Fit Center  865 is at  -3.456340  4.098798  3.940073
      ESP Fit Center  866 is at  -2.976340  4.930182  3.682842
      ESP Fit Center  867 is at  -3.936340  4.930182  3.682842
      ESP Fit Center  868 is at  -4.416340  4.098798  3.682842
      ESP Fit Center  869 is at  -3.936340  3.267414  3.682842
      ESP Fit Center  870 is at  -2.976340  3.267414  3.682842
      ESP Fit Center  871 is at  -4.801548  3.121447  2.980073
      ESP Fit Center  872 is at  -3.970164  2.517411  2.980073
      ESP Fit Center  873 is at  -2.942516  2.517411  2.980073
      ESP Fit Center  874 is at  -5.119109  3.138798  2.020073
      ESP Fit Center  875 is at  -0.538092  5.735600  1.246696
      ESP Fit Center  876 is at  -0.769808  6.750813  1.246696
      ESP Fit Center  877 is at  -2.357259  8.016763  0.178596
      ESP Fit Center  878 is at  -2.691560  6.512961  3.383880
      ESP Fit Center  879 is at  -1.731560  6.512961  3.126649
      ESP Fit Center  880 is at  -2.211560  7.344345  3.126649
      ESP Fit Center  881 is at  -1.028791  6.512961  2.423880
      ESP Fit Center  882 is at  -1.346352  7.490312  2.423880
      ESP Fit Center  883 is at  -2.177736  8.094348  2.423880
      ESP Fit Center  884 is at  -1.028791  7.472961  1.463880
      ESP Fit Center  885 is at  -1.731560  8.175730  1.463880
      ESP Fit Center  886 is at  -2.691560  8.432961  1.463880
      ESP Fit Center  887 is at  -2.177736  8.094348  0.503880
      ESP Fit Center  888 is at  -0.512033  6.876383 -0.106388
      ESP Fit Center  889 is at  -1.214802  7.579152 -0.106388
      ESP Fit Center  890 is at  -0.829594  6.893734 -1.066388
      ESP Fit Center  891 is at  -1.660978  7.497770 -1.066388
      ESP Fit Center  892 is at  -1.214802  5.916383 -1.769157
      ESP Fit Center  893 is at  -1.694802  6.747767 -1.769157
      ESP Fit Center  894 is at  -2.174802  5.916383 -2.026388
      ESP Fit Center  895 is at  -5.837698  3.760272  1.059110
      ESP Fit Center  896 is at  -3.296200  8.507018 -0.012404
      ESP Fit Center  897 is at  -6.924875  4.526551 -0.012404
      ESP Fit Center  898 is at  -6.231644  3.766113 -0.012404
      ESP Fit Center  899 is at  -2.813318  7.922975 -1.083918
      ESP Fit Center  900 is at  -3.744882  8.460814 -1.083918
      ESP Fit Center  901 is at  -4.814668  8.573253 -1.083918
      ESP Fit Center  902 is at  -5.837698  8.240850 -1.083918
      ESP Fit Center  903 is at  -6.637083  7.521081 -1.083918
      ESP Fit Center  904 is at  -7.074601  6.538400 -1.083918
      ESP Fit Center  905 is at  -7.074601  5.462722 -1.083918
      ESP Fit Center  906 is at  -6.637083  4.480041 -1.083918
      ESP Fit Center  907 is at  -5.837698  3.760272 -1.083918
      ESP Fit Center  908 is at  -2.564368  6.000561 -1.992303
      ESP Fit Center  909 is at  -2.829624  6.990510 -1.992303
      ESP Fit Center  910 is at  -3.554318  7.715204 -1.992303
      ESP Fit Center  911 is at  -4.544267  7.980460 -1.992303
      ESP Fit Center  912 is at  -5.534216  7.715204 -1.992303
      ESP Fit Center  913 is at  -6.258910  6.990510 -1.992303
      ESP Fit Center  914 is at  -6.524166  6.000561 -1.992303
      ESP Fit Center  915 is at  -6.258910  5.010612 -1.992303
      ESP Fit Center  916 is at  -5.534216  4.285918 -1.992303
      ESP Fit Center  917 is at  -4.544267  4.020662 -1.992303
      ESP Fit Center  918 is at  -2.829624  5.010612 -1.992303
      ESP Fit Center  919 is at  -3.472753  6.000561 -2.599267
      ESP Fit Center  920 is at  -4.008510  6.928519 -2.599267
      ESP Fit Center  921 is at  -5.080024  6.928519 -2.599267
      ESP Fit Center  922 is at  -5.615781  6.000561 -2.599267
      ESP Fit Center  923 is at  -5.080024  5.072603 -2.599267
      ESP Fit Center  924 is at  -4.008510  5.072603 -2.599267
      ESP Fit Center  925 is at  -4.544267  6.000561 -2.812404
      ESP Fit Center  926 is at  -7.340308  5.813395  2.993919
      ESP Fit Center  927 is at  -6.998778  4.512687  2.031593
      ESP Fit Center  928 is at  -6.768698  7.760122  0.001167
      ESP Fit Center  929 is at  -7.537230  6.225174  2.829130
      ESP Fit Center  930 is at  -7.922438  7.202525  2.126361
      ESP Fit Center  931 is at  -8.239999  6.225174  2.126361
      ESP Fit Center  932 is at  -7.922438  5.247823  2.126361
      ESP Fit Center  933 is at  -7.537230  7.887943  1.166361
      ESP Fit Center  934 is at  -8.239999  7.185174  1.166361
      ESP Fit Center  935 is at  -8.497230  6.225174  1.166361
      ESP Fit Center  936 is at  -8.239999  5.265174  1.166361
      ESP Fit Center  937 is at  -7.537230  4.562405  1.166361
      ESP Fit Center  938 is at  -7.091054  7.806561  0.206361
      ESP Fit Center  939 is at  -7.922438  7.202525  0.206361
      ESP Fit Center  940 is at  -8.239999  6.225174  0.206361
      ESP Fit Center  941 is at  -7.922438  5.247823  0.206361
      ESP Fit Center  942 is at  -7.091054  4.643787  0.206361
      ESP Fit Center  943 is at  -7.537230  6.225174 -0.496408
      ESP Fit Center  944 is at  -5.356602  5.551045  4.153876
      ESP Fit Center  945 is at  -4.396602  5.551045  3.896645
      ESP Fit Center  946 is at  -6.316602  5.551045  3.896645
      ESP Fit Center  947 is at  -5.836602  4.719661  3.896645
      ESP Fit Center  948 is at  -4.876602  4.719661  3.896645
      ESP Fit Center  949 is at  -6.701810  4.573694  3.193876
      ESP Fit Center  950 is at  -5.870426  3.969658  3.193876
      ESP Fit Center  951 is at  -7.019371  4.591045  2.233876
      ESP Fit Center  952 is at  -6.316602  3.888276  2.233876
      ESP Fit Center  953 is at  -5.356602  3.631045  2.233876
      ESP Fit Center  954 is at  -4.807175  6.824662  4.271939
      ESP Fit Center  955 is at  -4.548352  9.433301  3.605990
      ESP Fit Center  956 is at  -4.807175 10.007635  2.643664
      ESP Fit Center  957 is at  -5.848495 10.007635  2.643664
      ESP Fit Center  958 is at  -3.868977  9.555822  1.575564
      ESP Fit Center  959 is at  -3.749311  8.740928  0.613238
      ESP Fit Center  960 is at  -4.293620  7.870046  4.361435
      ESP Fit Center  961 is at  -3.333620  7.870046  4.104204
      ESP Fit Center  962 is at  -3.813620  8.701430  4.104204
      ESP Fit Center  963 is at  -3.813620  7.038662  4.104204
      ESP Fit Center  964 is at  -2.630851  7.870046  3.401435
      ESP Fit Center  965 is at  -2.948412  8.847397  3.401435
      ESP Fit Center  966 is at  -3.779796  9.451433  3.401435
      ESP Fit Center  967 is at  -3.779796  6.288659  3.401435
      ESP Fit Center  968 is at  -2.948412  6.892695  3.401435
      ESP Fit Center  969 is at  -2.630851  8.830046  2.441435
      ESP Fit Center  970 is at  -3.333620  9.532815  2.441435
      ESP Fit Center  971 is at  -2.948412  8.847397  1.481435
      ESP Fit Center  972 is at  -3.779796  9.451433  1.481435
      ESP Fit Center  973 is at  -6.073610 10.094910  2.345460
      ESP Fit Center  974 is at  -4.599786 10.176292  1.385460
      ESP Fit Center  975 is at  -5.559786 10.433523  1.385460
      ESP Fit Center  976 is at  -6.519786 10.176292  1.385460
      ESP Fit Center  977 is at  -7.222555  9.473523  1.385460
      ESP Fit Center  978 is at  -7.479786  8.513523  1.385460
      ESP Fit Center  979 is at  -4.214578  9.490874  0.425460
      ESP Fit Center  980 is at  -5.045962 10.094910  0.425460
      ESP Fit Center  981 is at  -6.073610 10.094910  0.425460
      ESP Fit Center  982 is at  -6.904994  9.490874  0.425460
      ESP Fit Center  983 is at  -7.222555  8.513523  0.425460
      ESP Fit Center  984 is at  -5.079786  9.344907 -0.277309
      ESP Fit Center  985 is at  -6.039786  9.344907 -0.277309
      ESP Fit Center  986 is at  -6.519786  8.513523 -0.277309
      ESP Fit Center  987 is at  -5.976752  7.859383  4.904797
      ESP Fit Center  988 is at  -5.016752  7.859383  4.647566
      ESP Fit Center  989 is at  -5.496752  8.690767  4.647566
      ESP Fit Center  990 is at  -6.456752  8.690767  4.647566
      ESP Fit Center  991 is at  -6.936752  7.859383  4.647566
      ESP Fit Center  992 is at  -6.456752  7.027999  4.647566
      ESP Fit Center  993 is at  -5.496752  7.027999  4.647566
      ESP Fit Center  994 is at  -5.462928  9.440770  3.944797
      ESP Fit Center  995 is at  -6.490576  9.440770  3.944797
      ESP Fit Center  996 is at  -7.321960  8.836734  3.944797
      ESP Fit Center  997 is at  -7.639521  7.859383  3.944797
      ESP Fit Center  998 is at  -7.321960  6.882032  3.944797
      ESP Fit Center  999 is at  -6.490576  6.277996  3.944797
      ESP Fit Center 1000 is at  -6.936752  9.522152  2.984797
      ESP Fit Center 1001 is at  -7.639521  8.819383  2.984797
      ESP Fit Center 1002 is at  -7.896752  7.859383  2.984797
      ESP Fit Center 1003 is at  -7.639521  6.899383  2.984797
      ESP Fit Center 1004 is at   7.520261 -3.230345  1.643932
      ESP Fit Center 1005 is at   8.093127 -4.262530  1.058645
      ESP Fit Center 1006 is at   8.042296 -5.180604  0.182702
      ESP Fit Center 1007 is at   4.577828 -5.139533 -0.850543
      ESP Fit Center 1008 is at   5.453771 -5.724820 -0.850543
      ESP Fit Center 1009 is at   6.487016 -5.930345 -0.850543
      ESP Fit Center 1010 is at   7.520261 -5.724820 -0.850543
      ESP Fit Center 1011 is at   8.396204 -5.139533 -0.850543
      ESP Fit Center 1012 is at   8.734460 -4.312657 -1.883788
      ESP Fit Center 1013 is at   8.396204 -3.230345 -2.759731
      ESP Fit Center 1014 is at   8.093127 -2.198160 -2.759731
      ESP Fit Center 1015 is at   8.616110 -2.965411  1.190009
      ESP Fit Center 1016 is at   9.406725 -2.965411  0.399394
      ESP Fit Center 1017 is at   9.109771 -3.976742  0.399394
      ESP Fit Center 1018 is at   9.696110 -2.965411 -0.680606
      ESP Fit Center 1019 is at   9.448695 -1.961609 -0.680606
      ESP Fit Center 1020 is at   8.763130 -4.743056 -0.680606
      ESP Fit Center 1021 is at   9.448695 -3.969213 -0.680606
      ESP Fit Center 1022 is at   9.406725 -2.965411 -1.760606
      ESP Fit Center 1023 is at   9.109771 -1.954080 -1.760606
      ESP Fit Center 1024 is at   8.313192 -1.263840 -1.760606
      ESP Fit Center 1025 is at   9.109771 -3.976742 -1.760606
      ESP Fit Center 1026 is at   8.616110 -2.965411 -2.551221
      ESP Fit Center 1027 is at   6.127891 -3.787662  2.181049
      ESP Fit Center 1028 is at   7.207891 -3.787662  1.891664
      ESP Fit Center 1029 is at   6.667891 -2.852355  1.891664
      ESP Fit Center 1030 is at   5.587891 -2.852355  1.891664
      ESP Fit Center 1031 is at   5.047891 -3.787662  1.891664
      ESP Fit Center 1032 is at   5.587891 -4.722969  1.891664
      ESP Fit Center 1033 is at   6.667891 -4.722969  1.891664
      ESP Fit Center 1034 is at   4.333049 -3.260649  1.101049
      ESP Fit Center 1035 is at   4.333049 -4.314675  1.101049
      ESP Fit Center 1036 is at   4.902899 -5.201378  1.101049
      ESP Fit Center 1037 is at   5.861675 -5.639237  1.101049
      ESP Fit Center 1038 is at   6.904973 -5.489233  1.101049
      ESP Fit Center 1039 is at   7.701552 -4.798993  1.101049
      ESP Fit Center 1040 is at   4.030657 -4.304584  0.021049
      ESP Fit Center 1041 is at   4.511108 -5.220007  0.021049
      ESP Fit Center 1042 is at   5.361944 -5.807297  0.021049
      ESP Fit Center 1043 is at   6.388250 -5.931913  0.021049
      ESP Fit Center 1044 is at   4.832870 -5.325121 -1.723199
      ESP Fit Center 1045 is at   5.683706 -5.912411 -1.723199
      ESP Fit Center 1046 is at   6.710012 -6.037027 -1.723199
      ESP Fit Center 1047 is at   7.676673 -5.670421 -1.723199
[...]
 1276 Fit      -0.019321
 1277 Fit      -0.018360
 1278 Fit      -0.016513
 1279 Fit      -0.010506
 1280 Fit      -0.009960
 1281 Fit      -0.016260
 1282 Fit      -0.019422
 1283 Fit      -0.019670
 1284 Fit      -0.015911
 1285 Fit       0.005382
 1286 Fit       0.001795
 1287 Fit      -0.004486
 1288 Fit       0.003925
 1289 Fit      -0.000475
 1290 Fit       0.002207
 1291 Fit       0.003262
 1292 Fit      -0.006005
 1293 Fit      -0.001750
 1294 Fit       0.000559
 1295 Fit      -0.003560
 1296 Fit       0.001851
 1297 Fit      -0.000792
 1298 Fit      -0.006958
 1299 Fit      -0.012311
 1300 Fit      -0.014226
 1301 Fit      -0.002936
 1302 Fit      -0.000543
 1303 Fit      -0.002613
 1304 Fit      -0.006101
 1305 Fit      -0.008085
 1306 Fit      -0.003374
 1307 Fit       0.000581
 1308 Fit       0.006884
 1309 Fit       0.011149
 1310 Fit       0.006088
 1311 Fit       0.008960
 1312 Fit       0.006706
 1313 Fit       0.008035
 1314 Fit       0.005806
 1315 Fit       0.002918
 1316 Fit       0.005194
 1317 Fit       0.000516
 1318 Fit       0.007631
 1319 Fit       0.000697
 1320 Fit       0.007386
 1321 Fit      -0.003239
 1322 Fit      -0.008053
 1323 Fit      -0.007189
 1324 Fit      -0.009242
 1325 Fit      -0.016035
 1326 Fit      -0.016109
 1327 Fit      -0.001567
 1328 Fit      -0.007096
 1329 Fit      -0.013814
 1330 Fit      -0.019607
 1331 Fit      -0.022817
 1332 Fit      -0.020200
 1333 Fit      -0.020902
 1334 Fit      -0.020921
 1335 Fit      -0.024012
 1336 Fit      -0.027438
 1337 Fit      -0.028523
 1338 Fit      -0.032530
 1339 Fit      -0.028067
 1340 Fit      -0.029020
 1341 Fit      -0.033123
 1342 Fit      -0.037304
 1343 Fit      -0.032606
 1344 Fit      -0.033385
 1345 Fit      -0.012198
 1346 Fit      -0.035317
 1347 Fit      -0.032650
 1348 Fit      -0.021628
 1349 Fit      -0.027410
 1350 Fit       0.008521
 1351 Fit      -0.001744
 1352 Fit       0.008225
 1353 Fit       0.008867
 1354 Fit       0.010591
 1355 Fit       0.005770
 1356 Fit       0.009128
 1357 Fit       0.010745
 1358 Fit       0.012656
 1359 Fit       0.001802
 1360 Fit       0.006786
 1361 Fit       0.008815
 1362 Fit       0.010681
 1363 Fit       0.012533
 1364 Fit       0.008550
 1365 Fit       0.012838
 1366 Fit       0.010447
 1367 Fit       0.005260
 1368 Fit       0.003805
 1369 Fit       0.007246
 1370 Fit       0.001039
 1371 Fit      -0.004227
 1372 Fit      -0.005714
 1373 Fit       0.007032
 1374 Fit       0.013572
 1375 Fit       0.012926
 1376 Fit       0.012997
 1377 Fit       0.012316
 1378 Fit       0.010773
 1379 Fit       0.010745
 1380 Fit       0.008784
 1381 Fit       0.007047
 1382 Fit       0.005059
 1383 Fit       0.009122
 1384 Fit       0.005485
 1385 Fit       0.007553
 1386 Fit       0.002070
 1387 Fit       0.006903
 1388 Fit       0.001227
 1389 Fit      -0.002910
 1390 Fit      -0.007456
 1391 Fit      -0.005683
 1392 Fit      -0.012818
 1393 Fit      -0.021034
 1394 Fit      -0.012344
 1395 Fit      -0.015794
 1396 Fit      -0.005521
 1397 Fit      -0.010571
 1398 Fit      -0.020392
 1399 Fit      -0.030099
 1400 Fit      -0.010791
 1401 Fit      -0.017843
 1402 Fit      -0.019970
 1403 Fit      -0.017813
 1404 Fit      -0.014066
 1405 Fit      -0.011518
 1406 Fit      -0.012721
 1407 Fit      -0.018476
 1408 Fit      -0.026798
 1409 Fit      -0.036024
 1410 Fit      -0.007258
 1411 Fit      -0.011038
 1412 Fit      -0.017699
 1413 Fit      -0.020997
 1414 Fit      -0.020100
 1415 Fit      -0.018163
 1416 Fit      -0.019039
 1417 Fit      -0.023829
 1418 Fit      -0.030136
 1419 Fit      -0.034611
 1420 Fit      -0.015053
 1421 Fit      -0.016418
 1422 Fit      -0.018954
 1423 Fit      -0.021131
 1424 Fit      -0.022093
 1425 Fit      -0.025343
 1426 Fit      -0.022764
 1427 Fit      -0.021280
 1428 Fit       0.005981
 1429 Fit      -0.006355
 1430 Fit       0.005601
 1431 Fit       0.004429
 1432 Fit       0.002381
 1433 Fit       0.004140
 1434 Fit       0.004347
 1435 Fit       0.003164
 1436 Fit       0.000275
 1437 Fit      -0.004427
 1438 Fit       0.001226
 1439 Fit       0.001792
 1440 Fit       0.000079
 1441 Fit      -0.004998
 1442 Fit      -0.003924
 1443 Fit       0.009132
 1444 Fit       0.011479
 1445 Fit       0.007500
 1446 Fit       0.007776
 1447 Fit       0.010592
 1448 Fit       0.004981
 1449 Fit       0.004425
 1450 Fit       0.006245
 1451 Fit       0.000104
 1452 Fit      -0.001011
 1453 Fit       0.006060
 1454 Fit       0.007133
 1455 Fit       0.003078
 1456 Fit       0.001340
 1457 Fit       0.001289
 1458 Fit       0.000408
 1459 Fit       0.002353
 1460 Fit       0.004835
 1461 Fit       0.005845
 1462 Fit       0.008464
 1463 Fit       0.005600
 1464 Fit       0.009023
 1465 Fit       0.011479
 1466 Fit       0.007783
 1467 Fit       0.004561
 1468 Fit       0.014000
 1469 Fit       0.007746
 1470 Fit       0.003827
 1471 Fit       0.002566
 1472 Fit       0.000954
 1473 Fit      -0.000530
 1474 Fit       0.000669
 1475 Fit       0.001328
 1476 Fit       0.001407
 1477 Fit       0.001618
 1478 Fit      -0.006783
 1479 Fit      -0.002447
 1480 Fit      -0.000321
 1481 Fit       0.000286
 1482 Fit       0.000209
 1483 Fit      -0.009051
 1484 Fit      -0.004547
 1485 Fit      -0.005613
 1486 Fit       0.006160
 1487 Fit       0.005469
 1488 Fit       0.004693
 1489 Fit       0.005498
 1490 Fit       0.006516
 1491 Fit       0.006969
 1492 Fit       0.006817
 1493 Fit       0.003344
 1494 Fit       0.004476
 1495 Fit       0.005559
 1496 Fit       0.006351
 1497 Fit       0.006976
 1498 Fit       0.001778
 1499 Fit       0.002900
 1500 Fit       0.004223
 1501 Fit       0.005712
 1502 Fit       0.007059
 1503 Fit       0.006957
 1504 Fit       0.006121
 1505 Fit       0.005712
 1506 Fit       0.005580
 1507 Fit       0.006312
 1508 Fit       0.008323
 1509 Fit       0.007062
 1510 Fit       0.006308
 1511 Fit       0.006609
 1512 Fit       0.007899
 1513 Fit       0.009061
 1514 Fit       0.010700
 1515 Fit       0.010484
 1516 Fit       0.011289
 1517 Fit       0.008624
 1518 Fit       0.011115
 1519 Fit       0.013655
 1520 Fit       0.007183
 1521 Fit       0.009042
 1522 Fit       0.010476
 1523 Fit       0.012218
 1524 Fit       0.008771
 1525 Fit       0.009729
 1526 Fit       0.011325
 1527 Fit       0.008310
 1528 Fit       0.004871
 1529 Fit       0.006262
 1530 Fit       0.003975
 1531 Fit       0.003501
 1532 Fit       0.006038
 1533 Fit       0.006381
 1534 Fit      -0.000264
 1535 Fit       0.005119
 1536 Fit       0.006445
 1537 Fit       0.006648
 1538 Fit       0.006459
 1539 Fit       0.006475
 1540 Fit       0.005466
 1541 Fit       0.006516
 1542 Fit       0.006566
 1543 Fit       0.006391
 1544 Fit       0.006084
 1545 Fit       0.006617
 1546 Fit       0.006414
 1547 Fit       0.006212
 1548 Fit       0.008778
 1549 Fit       0.007726
 1550 Fit       0.007465
 1551 Fit       0.007342
 1552 Fit       0.007248
 1553 Fit       0.007455
 1554 Fit       0.008621
 1555 Fit       0.009552
 1556 Fit       0.008660
 1557 Fit       0.008443
 1558 Fit       0.008310
 1559 Fit       0.008237
 1560 Fit       0.009210
 1561 Fit       0.010449
 1562 Fit       0.009914
 1563 Fit       0.009202
 1564 Fit       0.009015
 1565 Fit       0.009665
 1566 Fit       0.007823
 1567 Fit       0.009711
 1568 Fit       0.011046
 1569 Fit       0.012457
 1570 Fit       0.010683
 1571 Fit       0.010098
 1572 Fit       0.008699
 1573 Fit       0.006812
 1574 Fit       0.005643
 1575 Fit       0.009623
 1576 Fit       0.008549
 1577 Fit       0.007140
 1578 Fit       0.007339
 1579 Fit       0.009336
 1580 Fit       0.010104
 1581 Fit       0.008534
 1582 Fit       0.006564
 1583 Fit       0.006508
 1584 Fit       0.008258
 1585 Fit       0.008072
 1586 Fit       0.007554
 1587 Fit       0.008322
 1588 Fit       0.004728
 1589 Fit       0.004799
 1590 Fit       0.006305
 1591 Fit       0.008143
 1592 Fit       0.010384
 1593 Fit       0.006464
 1594 Fit       0.008766
 1595 Fit      -0.001237
 1596 Fit      -0.002549
 1597 Fit       0.000285
 1598 Fit       0.011411
 1599 Fit       0.009131
 1600 Fit       0.011945
 1601 Fit       0.011210
 1602 Fit       0.008989
 1603 Fit       0.005465
 1604 Fit      -0.000463
 1605 Fit       0.010248
 1606 Fit       0.008035
 1607 Fit       0.005030
 1608 Fit       0.001876
 1609 Fit       0.001504
 1610 Fit       0.012566
 1611 Fit       0.010057
 1612 Fit       0.007469
 1613 Fit       0.006188
 1614 Fit       0.010829
 1615 Fit       0.012475
 1616 Fit       0.010049
 1617 Fit       0.011533
 1618 Fit       0.012339
 1619 Fit       0.013133
 1620 Fit       0.012352
 1621 Fit       0.012399
 1622 Fit       0.012319
 1623 Fit       0.013576
 1624 Fit       0.012783
 1625 Fit       0.006866
 1626 Fit       0.003349
 1627 Fit       0.001734
 1628 Fit      -0.005158
 1629 Fit       0.009764
 1630 Fit       0.011535
 1631 Fit       0.011856
 1632 Fit       0.006530
 1633 Fit       0.007359
 1634 Fit       0.004946
 1635 Fit       0.004229
 1636 Fit       0.006346
 1637 Fit       0.007181
 1638 Fit       0.007786
 1639 Fit       0.006418
 1640 Fit       0.006623
 1641 Fit       0.008206
 1642 Fit       0.009464
 1643 Fit       0.002128
 1644 Fit       0.002214
 1645 Fit       0.006100
 1646 Fit       0.010217
 1647 Fit       0.007430
 1648 Fit       0.004070
 1649 Fit       0.009005
 1650 Fit       0.006447
 1651 Fit       0.002214
 1652 Fit      -0.004547
 1653 Fit       0.010670
 1654 Fit       0.010236
 1655 Fit       0.007719
 1656 Fit       0.003942
 1657 Fit      -0.002416
 1658 Fit       0.012339
 1659 Fit       0.011136
 1660 Fit       0.007987
 1661 Fit       0.003541
 1662 Fit      -0.004206
 1663 Fit       0.007185
 1664 Fit       0.000082
 1665 Fit      -0.005529
 1666 Fit      -0.009410
 1667 Fit      -0.010070
 1668 Fit      -0.008876
 1669 Fit      -0.013132
 1670 Fit      -0.011439
 1671 Fit      -0.007950
 1672 Fit      -0.013354
 1673 Fit      -0.013537
 1674 Fit      -0.009057
 1675 Fit      -0.010133
 1676 Fit      -0.013204
 1677 Fit      -0.009999
 1678 Fit      -0.010292
 1679 Fit      -0.006339
 1680 Fit       0.003222
 1681 Fit       0.002319
 1682 Fit       0.005203
 1683 Fit       0.004566
 1684 Fit       0.002626
 1685 Fit       0.000310
 1686 Fit       0.000253
 1687 Fit       0.002545
 1688 Fit       0.003409
 1689 Fit       0.004103
 1690 Fit      -0.002745
 1691 Fit       0.001121
 1692 Fit       0.002845
 1693 Fit       0.002733
 1694 Fit       0.003040
 1695 Fit      -0.003483
 1696 Fit       0.000713
 1697 Fit       0.001931
 1698 Fit       0.000373
 1699 Fit      -0.000144
 1700 Fit      -0.001091
 1701 Fit       0.006546
 1702 Fit       0.007668
 1703 Fit       0.005498
 1704 Fit       0.002814
 1705 Fit      -0.004884
 1706 Fit       0.000267
 1707 Fit       0.000626
 1708 Fit      -0.000778
 1709 Fit      -0.000483
 1710 Fit       0.004560
 1711 Fit       0.001595
 1712 Fit      -0.003121
 1713 Fit       0.001928
 1714 Fit       0.001713
 1715 Fit      -0.000467
 1716 Fit      -0.008168
 1717 Fit      -0.001368
 1718 Fit       0.001205
 1719 Fit       0.000231
 1720 Fit      -0.008711
 1721 Fit      -0.002982
 1722 Fit       0.000600
 1723 Fit       0.002271
 1724 Fit       0.002135
 1725 Fit      -0.001143
 1726 Fit       0.000930
 1727 Fit       0.002262
 1728 Fit       0.001194
 1729 Fit       0.001466
 1730 Fit       0.002923
 1731 Fit       0.008250
 1732 Fit       0.008080
 1733 Fit       0.006926
 1734 Fit       0.004928
 1735 Fit       0.006181
 1736 Fit       0.007097
 1737 Fit       0.007450
 1738 Fit       0.007849
 1739 Fit       0.007421
 1740 Fit       0.006127
 1741 Fit       0.008375
 1742 Fit       0.006241
 1743 Fit       0.000657
 1744 Fit       0.005029
 1745 Fit       0.001157
 1746 Fit       0.000813
 1747 Fit      -0.005677
 1748 Fit       0.000420
 1749 Fit       0.003184
 1750 Fit      -0.013650
 1751 Fit       0.001851
 1752 Fit       0.003952
 1753 Fit       0.002115
 1754 Fit      -0.001456
 1755 Fit      -0.003594
 1756 Fit       0.000806
 1757 Fit       0.004623
 1758 Fit      -0.010296
 1759 Fit       0.003602
 1760 Fit       0.007219
 1761 Fit      -0.003809
 1762 Fit       0.001666
 1763 Fit       0.005434
 1764 Fit       0.008190
 1765 Fit      -0.005437
 1766 Fit       0.000582
 1767 Fit       0.004456
 1768 Fit       0.007171
 1769 Fit      -0.001882
 1770 Fit       0.002576
 1771 Fit       0.005620
 1772 Fit       0.002517
 1773 Fit      -0.023340
 1774 Fit      -0.012262
 1775 Fit      -0.022384
 1776 Fit      -0.014019
 1777 Fit      -0.005211
 1778 Fit      -0.029137
 1779 Fit      -0.023785
 1780 Fit      -0.017991
 1781 Fit      -0.011971
 1782 Fit      -0.006412
 1783 Fit      -0.002049
 1784 Fit       0.001116
 1785 Fit      -0.027913
 1786 Fit      -0.025387
 1787 Fit      -0.022010
 1788 Fit      -0.017833
 1789 Fit      -0.013554
 1790 Fit      -0.009976
 1791 Fit      -0.007358
 1792 Fit      -0.004977
 1793 Fit      -0.009177
 1794 Fit      -0.019250
 1795 Fit      -0.021152
 1796 Fit      -0.020555
 1797 Fit      -0.018488
 1798 Fit      -0.015962
 1799 Fit      -0.013869
 1800 Fit      -0.012377
 1801 Fit      -0.011058
 1802 Fit      -0.010052
 1803 Fit      -0.012066
 1804 Fit      -0.008481
 1805 Fit      -0.012654
 1806 Fit      -0.016715
 1807 Fit      -0.017805
 1808 Fit      -0.017246
 1809 Fit      -0.016303
 1810 Fit      -0.015426
 1811 Fit      -0.014222
 1812 Fit      -0.013199
 1813 Fit      -0.009469
 1814 Fit      -0.009788
 1815 Fit      -0.014224
 1816 Fit      -0.016121
 1817 Fit      -0.015686
 1818 Fit      -0.013437
 1819 Fit       0.003038
 1820 Fit       0.000607
 1821 Fit      -0.004727
 1822 Fit       0.002857
 1823 Fit       0.001946
 1824 Fit       0.003046
 1825 Fit       0.004657
 1826 Fit      -0.000877
 1827 Fit       0.001191
 1828 Fit       0.001998
 1829 Fit      -0.005494
 1830 Fit      -0.002437
 1831 Fit      -0.000380
 1832 Fit      -0.002033
 1833 Fit      -0.011500
 1834 Fit       0.000361
 1835 Fit      -0.002014
 1836 Fit      -0.006799
 1837 Fit      -0.010937
 1838 Fit      -0.012810
 1839 Fit      -0.003571
 1840 Fit      -0.001717
 1841 Fit      -0.003671
 1842 Fit      -0.006687
 1843 Fit      -0.004354
 1844 Fit       0.006415
 1845 Fit      -0.000360
 1846 Fit       0.001858
 1847 Fit       0.010501
 1848 Fit       0.004803
 1849 Fit       0.007651
 1850 Fit       0.005140
 1851 Fit       0.006814
 1852 Fit       0.005379
 1853 Fit       0.005815
 1854 Fit       0.005220
 1855 Fit       0.004169
 1856 Fit       0.001437
 1857 Fit       0.001646
 1858 Fit       0.001817
 1859 Fit      -0.004832
 1860 Fit      -0.003995
 1861 Fit      -0.006148
 1862 Fit      -0.011130
 1863 Fit      -0.010851
 1864 Fit      -0.005749
 1865 Fit      -0.000536
 1866 Fit      -0.009810
 1867 Fit      -0.014622
 1868 Fit      -0.016711
 1869 Fit      -0.014123
 1870 Fit      -0.014135
 1871 Fit      -0.016805
 1872 Fit      -0.019686
 1873 Fit      -0.021297
 1874 Fit      -0.019126
 1875 Fit      -0.022168
 1876 Fit      -0.021821
 1877 Fit      -0.023428
 1878 Fit      -0.025813
 1879 Fit      -0.027985
 1880 Fit      -0.026310
 1881 Fit      -0.027948
 1882 Fit      -0.032372
 1883 Fit      -0.028991
 1884 Fit      -0.029850
 1885 Fit      -0.029428
 1886 Fit      -0.027891
 1887 Fit      -0.017363
 1888 Fit      -0.022384
 1889 Fit       0.007641
 1890 Fit       0.009648
 1891 Fit       0.010469
 1892 Fit       0.004677
 1893 Fit      -0.000040
 1894 Fit       0.007391
 1895 Fit       0.007625
 1896 Fit       0.009240
 1897 Fit       0.005249
 1898 Fit       0.007769
 1899 Fit       0.009259
 1900 Fit       0.010996
 1901 Fit       0.002222
 1902 Fit       0.005772
 1903 Fit       0.007365
 1904 Fit       0.009039
 1905 Fit       0.010715
 1906 Fit       0.009472
 1907 Fit       0.007508
 1908 Fit       0.010882
 1909 Fit       0.008718
 1910 Fit       0.004680
 1911 Fit       0.003855
 1912 Fit       0.001473
 1913 Fit      -0.002192
 1914 Fit      -0.000107
 1915 Fit       0.009007
 1916 Fit       0.001620
 1917 Fit       0.012088
 1918 Fit       0.011585
 1919 Fit       0.011552
 1920 Fit       0.011277
 1921 Fit       0.009989
 1922 Fit       0.010123
 1923 Fit       0.008656
 1924 Fit       0.007541
 1925 Fit       0.004877
 1926 Fit       0.001792
 1927 Fit       0.008436
 1928 Fit       0.007764
 1929 Fit       0.004350
 1930 Fit      -0.000677
 1931 Fit       0.005429
 1932 Fit       0.000429
 1933 Fit      -0.000602
 1934 Fit      -0.010332
 1935 Fit      -0.004147
 1936 Fit      -0.008229
 1937 Fit      -0.015696
 1938 Fit      -0.022702
 1939 Fit      -0.009763
 1940 Fit      -0.013171
 1941 Fit      -0.013060
 1942 Fit      -0.010728
 1943 Fit      -0.008294
 1944 Fit      -0.006289
 1945 Fit      -0.005967
 1946 Fit      -0.009048
 1947 Fit      -0.015064
 1948 Fit      -0.022346
 1949 Fit      -0.030720
 1950 Fit      -0.009366
 1951 Fit      -0.014375
 1952 Fit      -0.016196
 1953 Fit      -0.015226
 1954 Fit      -0.013166
 1955 Fit      -0.011921
 1956 Fit      -0.013145
 1957 Fit      -0.017344
 1958 Fit      -0.023494
 1959 Fit      -0.030701
 1960 Fit      -0.008088
 1961 Fit      -0.010260
 1962 Fit      -0.014592
 1963 Fit      -0.017026
 1964 Fit      -0.016917
 1965 Fit      -0.016191
 1966 Fit      -0.017241
 1967 Fit      -0.020801
 1968 Fit      -0.025411
 1969 Fit      -0.028321
 1970 Fit      -0.013328
 1971 Fit      -0.014726
 1972 Fit      -0.016090
 1973 Fit      -0.017850
 1974 Fit      -0.019079
 1975 Fit      -0.021590
 1976 Fit      -0.019561
 1977 Fit      -0.018309
 1978 Fit       0.005599
 1979 Fit       0.004558
 1980 Fit       0.003050
 1981 Fit      -0.001583
 1982 Fit       0.005053
 1983 Fit       0.003895
 1984 Fit       0.003931
 1985 Fit       0.003374
 1986 Fit       0.001863
 1987 Fit      -0.000595
 1988 Fit       0.001931
 1989 Fit       0.002281
 1990 Fit       0.001688
 1991 Fit      -0.000299
 1992 Fit      -0.004148
 1993 Fit      -0.001259
 1994 Fit      -0.000763
 1995 Fit      -0.002582
 1996 Fit       0.008065
 1997 Fit       0.009907
 1998 Fit       0.006837
 1999 Fit       0.006833
 2000 Fit       0.008908
 2001 Fit       0.004848
 2002 Fit       0.004322
 2003 Fit       0.005634
 2004 Fit       0.000747
 2005 Fit       0.001075
 2006 Fit       0.005770
 2007 Fit       0.006632
 2008 Fit       0.003350
 2009 Fit       0.002067
 2010 Fit       0.001717
 2011 Fit       0.001369
 2012 Fit       0.000842
 2013 Fit       0.001034
 2014 Fit       0.001431
 2015 Fit      -0.000290
 2016 Fit       0.001372
 2017 Fit       0.002662
 2018 Fit      -0.004350
 2019 Fit       0.001540
 2020 Fit       0.007360
 2021 Fit       0.005196
 2022 Fit       0.008013
 2023 Fit       0.009553
 2024 Fit       0.006801
 2025 Fit       0.004353
 2026 Fit       0.011722
 2027 Fit       0.011550
 2028 Fit       0.007552
 2029 Fit       0.004503
 2030 Fit       0.002343
 2031 Fit       0.006027
 2032 Fit       0.002414
 2033 Fit      -0.000442
 2034 Fit       0.000495
 2035 Fit       0.000897
 2036 Fit       0.001114
 2037 Fit      -0.001861
 2038 Fit      -0.000537
 2039 Fit       0.000285
 2040 Fit       0.000582
 2041 Fit       0.000682
 2042 Fit      -0.008784
 2043 Fit      -0.004133
 2044 Fit      -0.002016
 2045 Fit      -0.001355
 2046 Fit      -0.001432
 2047 Fit      -0.010682
 2048 Fit      -0.006438
 2049 Fit       0.005459
 2050 Fit       0.005288
 2051 Fit       0.004483
 2052 Fit       0.004847
 2053 Fit       0.005568
 2054 Fit       0.006073
 2055 Fit       0.006203
 2056 Fit       0.003177
 2057 Fit       0.003411
 2058 Fit       0.004152
 2059 Fit       0.004920
 2060 Fit       0.005527
 2061 Fit       0.006107
 2062 Fit       0.007316
 2063 Fit       0.002076
 2064 Fit       0.002831
 2065 Fit       0.003689
 2066 Fit       0.004566
 2067 Fit       0.005402
 2068 Fit       0.002529
 2069 Fit       0.004052
 Job cpu time:       0 days  0 hours 13 minutes 14.1 seconds.
 Normal termination of Gaussian 16 at Sun Jul  9 10:37:06 2023.
