 Copyright (c) 1988-2019, Gaussian, Inc.  All Rights Reserved.
  
 This is part of the Gaussian(R) 16 program.  It is based on
 the Gaussian(R) 09 system (copyright 2009, Gaussian, Inc.),
 the Gaussian(R) 03 system (copyright 2003, Gaussian, Inc.),
 the Gaussian(R) 98 system (copyright 1998, Gaussian, Inc.),
 the Gaussian(R) 94 system (copyright 1995, Gaussian, Inc.),
 the Gaussian 92(TM) system (copyright 1992, Gaussian, Inc.),
 the Gaussian 90(TM) system (copyright 1990, Gaussian, Inc.),
 the Gaussian 88(TM) system (copyright 1988, Gaussian, Inc.),
 the Gaussian 86(TM) system (copyright 1986, Carnegie Mellon
 University), and the Gaussian 82(TM) system (copyright 1983,
 Carnegie Mellon University). Gaussian is a federally registered
 trademark of Gaussian, Inc.
 Cite this work as:
 Gaussian 16, Revision C.01,
 M. J. Frisch, G. W. Trucks, H. B. Schlegel, G. E. Scuseria, 
 M. A. Robb, J. R. Cheeseman, G. Scalmani, V. Barone, 
 G. A. Petersson, H. Nakatsuji, X. Li, M. Caricato, A. V. Marenich, 
 J. Bloino, B. G. Janesko, R. Gomperts, B. Mennucci, H. P. Hratchian, 
 J. V. Ortiz, A. F. Izmaylov, J. L. Sonnenberg, D. Williams-Young, 
 F. Ding, F. Lipparini, F. Egidi, J. Goings, B. Peng, A. Petrone, 
 T. Henderson, D. Ranasinghe, V. G. Zakrzewski, J. Gao, N. Rega, 
 G. Zheng, W. Liang, M. Hada, M. Ehara, K. Toyota, R. Fukuda, 
 J. Hasegawa, M. Ishida, T. Nakajima, Y. Honda, O. Kitao, H. Nakai, 
 T. Vreven, K. Throssell, J. A. Montgomery, Jr., J. E. Peralta, 
 F. Ogliaro, M. J. Bearpark, J. J. Heyd, E. N. Brothers, K. N. Kudin, 
 V. N. Staroverov, T. A. Keith, R. Kobayashi, J. Normand, 
 K. Raghavachari, A. P. Rendell, J. C. Burant, S. S. Iyengar, 
 J. Tomasi, M. Cossi, J. M. Millam, M. Klene, C. Adamo, R. Cammi, 
 J. W. Ochterski, R. L. Martin, K. Morokuma, O. Farkas, 
 J. B. Foresman, and D. J. Fox, Gaussian, Inc., Wallingford CT, 2019.
 
 ******************************************
 Gaussian 16:  EM64L-G16RevC.01  3-Jul-2019
                 9-Jul-2023 
 ******************************************
 ----------------------------------------------------------------------
 #P B3LYP/6-31G(d) Integral=Ultrafine SCF(Conver=8,XQC,MaxConventionalC
 ycles=64,MaxCycle=128) NoSymm Test Pop=mk IOp(6/33=2) GFInput GFPrint
 ----------------------------------------------------------------------
 1/38=1,172=1/1;
 2/12=2,15=1,17=6,18=5,40=1/2;
 3/5=1,6=6,7=1,11=2,24=110,25=1,30=1,74=-5,75=-5/1,2,3;
 4//1;
 5/5=2,6=8,7=128,8=3,13=1,38=5,85=64/2,8;
 6/7=2,8=2,9=2,10=2,15=8,20=1,28=1,33=2/1,2;
 99/5=1,9=1/99;
 -------------------------------------------------
 MEP step - Input generated by PyRED DVE-DMDS-OPLS
 -------------------------------------------------
 Symbolic Z-matrix:
 Charge =  0 Multiplicity = 1
 C                     0.21992  -7.87017  -0.51353 
 H                     0.67057  -7.288     0.29659 
 H                    -0.52937  -8.53904  -0.07822 
 H                     1.00152  -8.4778   -0.9829 
 C                    -0.42233  -6.9466   -1.53613 
 H                     0.34089  -6.28984  -1.98405 
 H                    -0.87119  -7.53     -2.35907 
 O                    -1.42578  -6.19047  -0.87665 
 C                    -2.18772  -5.35076  -1.7216 
 H                    -3.09882  -5.10796  -1.1646 
 H                    -2.47966  -5.88382  -2.64285 
 C                    -1.49692  -4.04803  -2.10916 
 H                    -0.51869  -4.24417  -2.57944 
 H                    -2.11814  -3.52689  -2.85944 
 O                    -1.33824  -3.251    -0.95277 
 C                    -0.68108  -2.02466  -1.19995 
 H                    -1.23733  -1.41121  -1.92814 
 H                     0.32484  -2.20083  -1.6171 
 C                    -0.59687  -1.28065   0.13335 
 H                    -0.05678  -1.89723   0.86749 
 H                    -1.60987  -1.11571   0.51343 
 O                     0.        0.        0. 
 C                     1.41952   0.        0. 
 H                     1.8305   -0.51321  -0.8817 
 H                     1.79898  -0.52422   0.89218 
 C                     1.86808   1.45784   0. 
 H                     1.42361   1.98902   0.84726 
 H                     1.51656   1.95251  -0.91048 
 S                     3.69258   1.65322   0.00699 
 C                     4.08775   1.41252   1.79075 
 H                     3.56364   0.53204   2.17366 
 H                     5.15772   1.18424   1.80748 
 C                     3.7818    2.64198   2.64763 
 H                     2.71339   2.87761   2.61819 
 H                     4.31807   3.51956   2.27214 
 S                     4.15875   2.41378   4.43382 
 C                     6.00208   2.49619   4.41046 
 H                     6.30025   3.4111    3.88691 
 H                     6.41591   1.64032   3.87011 
 C                     6.52334   2.49931   5.84757 
 H                     6.09173   3.32599   6.42045 
 H                     6.24089   1.57232   6.35664 
 S                     8.35664   2.56216   5.95478 
 C                     8.69725   4.33892   5.61118 
 H                     9.77541   4.36813   5.42081 
 H                     8.20494   4.62555   4.67545 
 C                     8.32757   5.29261   6.74638 
 H                     7.25287   5.27605   6.95708 
 H                     8.85592   5.02827   7.66751 
 H                     8.59481   6.32234   6.4773 
 
 ITRead=  0  0  0  0  0  0  0  0  0  0  0  0  0  0  0  0  0  0  0  0
 ITRead=  0  0  0  0  0  0  0  0  0  0  0  0  0  0  0  0  0  0  0  0
 ITRead=  0  0  0  0  0  0  0  0  0  0
 MicOpt= -1 -1 -1 -1 -1 -1 -1 -1 -1 -1 -1 -1 -1 -1 -1 -1 -1 -1 -1 -1
 MicOpt= -1 -1 -1 -1 -1 -1 -1 -1 -1 -1 -1 -1 -1 -1 -1 -1 -1 -1 -1 -1
 MicOpt= -1 -1 -1 -1 -1 -1 -1 -1 -1 -1
 NAtoms=     50 NQM=       50 NQMF=       0 NMMI=      0 NMMIF=      0
                NMic=       0 NMicF=      0.
                          Input orientation:                          
 ---------------------------------------------------------------------
 Center     Atomic      Atomic             Coordinates (Angstroms)
 Number     Number       Type             X           Y           Z
 ---------------------------------------------------------------------
      1          6           0        0.219916   -7.870167   -0.513528
      2          1           0        0.670570   -7.288000    0.296593
      3          1           0       -0.529374   -8.539035   -0.078215
      4          1           0        1.001517   -8.477801   -0.982903
      5          6           0       -0.422325   -6.946599   -1.536132
      6          1           0        0.340887   -6.289841   -1.984053
      7          1           0       -0.871186   -7.530001   -2.359072
      8          8           0       -1.425780   -6.190468   -0.876651
      9          6           0       -2.187723   -5.350763   -1.721596
     10          1           0       -3.098820   -5.107962   -1.164597
     11          1           0       -2.479655   -5.883821   -2.642847
     12          6           0       -1.496920   -4.048033   -2.109157
     13          1           0       -0.518687   -4.244168   -2.579438
     14          1           0       -2.118143   -3.526891   -2.859435
     15          8           0       -1.338241   -3.251001   -0.952765
     16          6           0       -0.681082   -2.024664   -1.199947
     17          1           0       -1.237331   -1.411210   -1.928140
     18          1           0        0.324839   -2.200832   -1.617100
     19          6           0       -0.596867   -1.280647    0.133351
     20          1           0       -0.056783   -1.897226    0.867494
     21          1           0       -1.609874   -1.115709    0.513434
     22          8           0        0.000000    0.000000    0.000000
     23          6           0        1.419519    0.000000    0.000000
     24          1           0        1.830497   -0.513212   -0.881698
     25          1           0        1.798976   -0.524224    0.892184
     26          6           0        1.868078    1.457841    0.000000
     27          1           0        1.423605    1.989024    0.847261
     28          1           0        1.516559    1.952505   -0.910476
     29         16           0        3.692578    1.653223    0.006993
     30          6           0        4.087748    1.412520    1.790747
     31          1           0        3.563643    0.532035    2.173663
     32          1           0        5.157724    1.184240    1.807479
     33          6           0        3.781799    2.641975    2.647625
     34          1           0        2.713392    2.877614    2.618187
     35          1           0        4.318069    3.519563    2.272139
     36         16           0        4.158747    2.413779    4.433817
     37          6           0        6.002078    2.496194    4.410461
     38          1           0        6.300254    3.411100    3.886912
     39          1           0        6.415909    1.640316    3.870110
     40          6           0        6.523341    2.499312    5.847567
     41          1           0        6.091731    3.325987    6.420447
     42          1           0        6.240889    1.572315    6.356639
     43         16           0        8.356639    2.562164    5.954780
     44          6           0        8.697249    4.338917    5.611181
     45          1           0        9.775405    4.368132    5.420808
     46          1           0        8.204938    4.625551    4.675446
     47          6           0        8.327569    5.292605    6.746377
     48          1           0        7.252874    5.276046    6.957081
     49          1           0        8.855922    5.028272    7.667508
     50          1           0        8.594812    6.322338    6.477303
 ---------------------------------------------------------------------
 Stoichiometry    C14H30O3S3
 Framework group  C1[X(C14H30O3S3)]
 Standard basis: 6-31G(d) (6D, 7F)
   372 basis functions,   752 primitive gaussians,   372 cartesian basis functions
    93 alpha electrons       93 beta electrons
 Requested convergence on RMS density matrix=1.00D-08 within  64 cycles.
 Requested convergence on MAX density matrix=1.00D-06.
 Requested convergence on             energy=1.00D-06.
 SCF Done:  E(RB3LYP) =  -1971.75516557     A.U. after   13 cycles
            NFock= 13  Conv=0.35D-08     -V/T= 2.0058
 Mulliken charges:
     1  C   -0.451446
     2  H    0.160933
     3  H    0.158543
     4  H    0.140974
     5  C   -0.011998
     6  H    0.120622
     7  H    0.116197
     8  O   -0.458392
     9  C   -0.032445
    10  H    0.156888
    11  H    0.116158
    12  C   -0.022290
    13  H    0.123501
    14  H    0.118028
    15  O   -0.470185
    16  C   -0.023104
    17  H    0.128681
    18  H    0.121105
    19  C   -0.039723
    20  H    0.137575
    21  H    0.157826
    22  O   -0.480872
    23  C   -0.007872
    24  H    0.139170
    25  H    0.128834
    26  C   -0.436812
    27  H    0.181124
    28  H    0.188310
    29  S    0.083919
    30  C   -0.416689
    31  H    0.188162
    32  H    0.183544
    33  C   -0.410878
    34  H    0.182983
    35  H    0.182911
    36  S    0.079480
    37  C   -0.394274
    38  H    0.170792
    39  H    0.184285
    40  C   -0.435080
    41  H    0.188312
    42  H    0.192616
    43  S    0.088492
    44  C   -0.411161
    45  H    0.178660
    46  H    0.169192
    47  C   -0.435923
    48  H    0.155304
    49  H    0.165677
    50  H    0.150347
 Sum of Mulliken charges =  -0.00000
 Dipole moment (field-independent basis, Debye):
    X=              0.3300    Y=              0.5503    Z=             -2.1301  Tot=              2.2246
 Quadrupole moment (field-independent basis, Debye-Ang):
   XX=           -148.9728   YY=           -134.8303   ZZ=           -150.7690
   XY=              9.4547   XZ=              2.2107   YZ=             16.8762
 Traceless Quadrupole moment (field-independent basis, Debye-Ang):
   XX=             -4.1155   YY=             10.0271   ZZ=             -5.9116
   XY=              9.4547   XZ=              2.2107   YZ=             16.8762
 Octapole moment (field-independent basis, Debye-Ang**2):
  XXX=          -1334.1635  YYY=             56.9833  ZZZ=           -857.4175  XYY=           -322.2511
  XXY=            127.1752  XXZ=           -281.4682  XZZ=           -492.5185  YZZ=             12.2427
  YYZ=           -261.3529  XYZ=             57.3423
 Hexadecapole moment (field-independent basis, Debye-Ang**3):
 XXXX=         -19209.4283 YYYY=         -11885.1204 ZZZZ=         -11260.5571 XXXY=          -3675.3968
 XXXZ=          -6911.8317 YYYX=          -4421.3610 YYYZ=          -3191.4632 ZZZX=          -7091.2838
 ZZZY=          -3693.2060 XXYY=          -4423.9756 XXZZ=          -5385.6642 YYZZ=          -3492.0508
 XXYZ=           -624.1094 YYXZ=          -1647.4999 ZZXY=          -1264.3009
 Merz-Kollman atomic radii used.
 Atom Element Radius
    1     6    1.50
    2     1    1.20
    3     1    1.20
    4     1    1.20
    5     6    1.50
    6     1    1.20
    7     1    1.20
    8     8    1.40
    9     6    1.50
   10     1    1.20
   11     1    1.20
   12     6    1.50
   13     1    1.20
   14     1    1.20
   15     8    1.40
   16     6    1.50
   17     1    1.20
   18     1    1.20
   19     6    1.50
   20     1    1.20
   21     1    1.20
   22     8    1.40
   23     6    1.50
   24     1    1.20
   25     1    1.20
   26     6    1.50
   27     1    1.20
   28     1    1.20
   29    16    1.75
   30     6    1.50
   31     1    1.20
   32     1    1.20
   33     6    1.50
   34     1    1.20
   35     1    1.20
   36    16    1.75
   37     6    1.50
   38     1    1.20
   39     1    1.20
   40     6    1.50
   41     1    1.20
   42     1    1.20
   43    16    1.75
   44     6    1.50
   45     1    1.20
   46     1    1.20
   47     6    1.50
   48     1    1.20
   49     1    1.20
   50     1    1.20
 Generate VDW surfaces: Layer= 4 Dens= 1 Start= 1.400 Inc= 0.200
            Electrostatic Properties Using The SCF Density.


       Atomic Center    1 is at   0.219916 -7.870167 -0.513528
       Atomic Center    2 is at   0.670570 -7.288000  0.296593
       Atomic Center    3 is at  -0.529374 -8.539035 -0.078215
       Atomic Center    4 is at   1.001517 -8.477801 -0.982903
       Atomic Center    5 is at  -0.422325 -6.946599 -1.536132
       Atomic Center    6 is at   0.340887 -6.289841 -1.984053
       Atomic Center    7 is at  -0.871186 -7.530001 -2.359072
       Atomic Center    8 is at  -1.425780 -6.190468 -0.876651
       Atomic Center    9 is at  -2.187723 -5.350763 -1.721596
       Atomic Center   10 is at  -3.098820 -5.107962 -1.164597
       Atomic Center   11 is at  -2.479655 -5.883821 -2.642847
       Atomic Center   12 is at  -1.496920 -4.048033 -2.109157
       Atomic Center   13 is at  -0.518687 -4.244168 -2.579438
       Atomic Center   14 is at  -2.118143 -3.526891 -2.859435
       Atomic Center   15 is at  -1.338241 -3.251001 -0.952765
       Atomic Center   16 is at  -0.681082 -2.024664 -1.199947
       Atomic Center   17 is at  -1.237331 -1.411210 -1.928140
       Atomic Center   18 is at   0.324839 -2.200832 -1.617100
       Atomic Center   19 is at  -0.596867 -1.280647  0.133351
       Atomic Center   20 is at  -0.056783 -1.897226  0.867494
       Atomic Center   21 is at  -1.609874 -1.115709  0.513434
       Atomic Center   22 is at   0.000000  0.000000  0.000000
       Atomic Center   23 is at   1.419519  0.000000  0.000000
       Atomic Center   24 is at   1.830497 -0.513212 -0.881698
       Atomic Center   25 is at   1.798976 -0.524224  0.892184
       Atomic Center   26 is at   1.868078  1.457841  0.000000
       Atomic Center   27 is at   1.423605  1.989024  0.847261
       Atomic Center   28 is at   1.516559  1.952505 -0.910476
       Atomic Center   29 is at   3.692578  1.653223  0.006993
       Atomic Center   30 is at   4.087748  1.412520  1.790747
       Atomic Center   31 is at   3.563643  0.532035  2.173663
       Atomic Center   32 is at   5.157724  1.184240  1.807479
       Atomic Center   33 is at   3.781799  2.641975  2.647625
       Atomic Center   34 is at   2.713392  2.877614  2.618187
       Atomic Center   35 is at   4.318069  3.519563  2.272139
       Atomic Center   36 is at   4.158747  2.413779  4.433817
       Atomic Center   37 is at   6.002078  2.496194  4.410461
       Atomic Center   38 is at   6.300254  3.411100  3.886912
       Atomic Center   39 is at   6.415909  1.640316  3.870110
       Atomic Center   40 is at   6.523341  2.499312  5.847567
       Atomic Center   41 is at   6.091731  3.325987  6.420447
       Atomic Center   42 is at   6.240889  1.572315  6.356639
       Atomic Center   43 is at   8.356639  2.562164  5.954780
       Atomic Center   44 is at   8.697249  4.338917  5.611181
       Atomic Center   45 is at   9.775405  4.368132  5.420808
       Atomic Center   46 is at   8.204938  4.625551  4.675446
       Atomic Center   47 is at   8.327569  5.292605  6.746377
       Atomic Center   48 is at   7.252874  5.276046  6.957081
       Atomic Center   49 is at   8.855922  5.028272  7.667508
       Atomic Center   50 is at   8.594812  6.322338  6.477303
      ESP Fit Center   51 is at   0.744916 -8.779494  1.305125
      ESP Fit Center   52 is at   0.975412 -9.524472  0.536472
      ESP Fit Center   53 is at   1.749865 -8.853405  0.536472
      ESP Fit Center   54 is at  -0.971049 -9.244613 -1.563528
      ESP Fit Center   55 is at  -0.038905 -9.670309 -1.563528
      ESP Fit Center   56 is at   0.670570 -7.288000  1.976593
      ESP Fit Center   57 is at   1.658049 -7.288000  1.655742
      ESP Fit Center   58 is at   0.975718 -6.348851  1.655742
      ESP Fit Center   59 is at  -0.128317 -6.707574  1.655742
      ESP Fit Center   60 is at  -0.128317 -7.868426  1.655742
      ESP Fit Center   61 is at   0.975718 -8.227149  1.655742
      ESP Fit Center   62 is at   2.268345 -7.288000  0.815742
      ESP Fit Center   63 is at   1.894537 -6.260970  0.815742
      ESP Fit Center   64 is at   0.948021 -5.714499  0.815742
      ESP Fit Center   65 is at  -0.128317 -5.904286  0.815742
      ESP Fit Center   66 is at   1.894537 -8.315030  0.815742
      ESP Fit Center   67 is at   2.268345 -7.288000 -0.222556
      ESP Fit Center   68 is at   1.894537 -6.260970 -0.222556
      ESP Fit Center   69 is at   0.948021 -5.714499 -0.222556
      ESP Fit Center   70 is at  -0.529374 -8.539035  1.601785
      ESP Fit Center   71 is at  -1.328261 -7.958609  1.280934
      ESP Fit Center   72 is at  -1.328261 -9.119461  1.280934
      ESP Fit Center   73 is at  -0.224226 -9.478184  1.280934
      ESP Fit Center   74 is at  -2.030791 -7.992564  0.440934
      ESP Fit Center   75 is at  -2.030791 -9.085506  0.440934
      ESP Fit Center   76 is at  -1.328261 -9.922749  0.440934
      ESP Fit Center   77 is at  -0.251923-10.112536  0.440934
      ESP Fit Center   78 is at  -2.030791 -9.085506 -0.597364
      ESP Fit Center   79 is at  -1.328261 -9.922749 -0.597364
      ESP Fit Center   80 is at  -0.251923-10.112536 -0.597364
      ESP Fit Center   81 is at  -1.328261 -9.119461 -1.437364
      ESP Fit Center   82 is at   2.599292 -8.477801 -0.463754
      ESP Fit Center   83 is at   1.278968-10.051302 -0.463754
      ESP Fit Center   84 is at   2.225484 -9.504831 -0.463754
      ESP Fit Center   85 is at   2.599292 -8.477801 -1.502052
      ESP Fit Center   86 is at   2.225484 -7.450771 -1.502052
      ESP Fit Center   87 is at   0.202630 -9.861515 -1.502052
      ESP Fit Center   88 is at   1.278968-10.051302 -1.502052
      ESP Fit Center   89 is at   2.225484 -9.504831 -1.502052
      ESP Fit Center   90 is at   1.988996 -8.477801 -2.342052
      ESP Fit Center   91 is at   0.202630 -9.058227 -2.342052
      ESP Fit Center   92 is at   1.306665 -9.416950 -2.342052
      ESP Fit Center   93 is at   1.001517 -8.477801 -2.662903
      ESP Fit Center   94 is at   0.333171 -5.292294 -0.486132
      ESP Fit Center   95 is at   1.107624 -7.929837 -2.586132
      ESP Fit Center   96 is at  -0.947325 -6.037272 -3.354785
      ESP Fit Center   97 is at   0.646035 -5.350692 -0.624904
      ESP Fit Center   98 is at   1.938662 -6.289841 -1.464904
      ESP Fit Center   99 is at   1.564854 -5.262811 -1.464904
      ESP Fit Center  100 is at   1.938662 -6.289841 -2.503202
      ESP Fit Center  101 is at   1.564854 -5.262811 -2.503202
      ESP Fit Center  102 is at   1.564854 -7.316871 -2.503202
      ESP Fit Center  103 is at   1.328366 -6.289841 -3.343202
      ESP Fit Center  104 is at   0.646035 -5.350692 -3.343202
      ESP Fit Center  105 is at   0.646035 -7.228990 -3.343202
      ESP Fit Center  106 is at   0.340887 -6.289841 -3.664053
      ESP Fit Center  107 is at  -2.372603 -8.076472 -1.839923
      ESP Fit Center  108 is at  -1.670073 -8.913715 -1.839923
      ESP Fit Center  109 is at  -2.372603 -8.076472 -2.878221
      ESP Fit Center  110 is at  -1.670073 -8.913715 -2.878221
      ESP Fit Center  111 is at  -0.593735 -9.103502 -2.878221
      ESP Fit Center  112 is at   0.352781 -8.557031 -2.878221
      ESP Fit Center  113 is at   0.116293 -7.530001 -3.718221
      ESP Fit Center  114 is at  -0.566038 -6.590852 -3.718221
      ESP Fit Center  115 is at  -1.670073 -6.949575 -3.718221
      ESP Fit Center  116 is at  -1.670073 -8.110427 -3.718221
      ESP Fit Center  117 is at  -0.566038 -8.469150 -3.718221
      ESP Fit Center  118 is at  -0.871186 -7.530001 -4.039072
      ESP Fit Center  119 is at  -1.425780 -6.190468  1.083349
      ESP Fit Center  120 is at  -0.935780 -5.341763  0.820759
      ESP Fit Center  121 is at  -1.915780 -5.341763  0.820759
      ESP Fit Center  122 is at  -2.405780 -6.190468  0.820759
      ESP Fit Center  123 is at  -1.915780 -7.039173  0.820759
      ESP Fit Center  124 is at  -0.052547 -5.192756  0.103349
      ESP Fit Center  125 is at  -2.799013 -7.188180  0.103349
      ESP Fit Center  126 is at  -3.123190 -7.170468 -0.876651
      ESP Fit Center  127 is at  -2.405780 -7.887878 -0.876651
      ESP Fit Center  128 is at  -3.378688 -6.725209 -0.671596
      ESP Fit Center  129 is at  -3.759596 -6.743321 -1.721596
      ESP Fit Center  130 is at  -2.932393 -7.314297 -1.721596
      ESP Fit Center  131 is at  -3.932708 -4.838389 -2.771596
      ESP Fit Center  132 is at  -3.098820 -5.107962  0.515403
      ESP Fit Center  133 is at  -2.793672 -4.168813  0.194552
      ESP Fit Center  134 is at  -3.897707 -4.527536  0.194552
      ESP Fit Center  135 is at  -3.897707 -5.688388  0.194552
      ESP Fit Center  136 is at  -3.897707 -3.724248 -0.645448
      ESP Fit Center  137 is at  -4.600237 -4.561491 -0.645448
      ESP Fit Center  138 is at  -4.600237 -5.654433 -0.645448
      ESP Fit Center  139 is at  -3.897707 -6.491676 -0.645448
      ESP Fit Center  140 is at  -3.897707 -3.724248 -1.683746
      ESP Fit Center  141 is at  -4.600237 -4.561491 -1.683746
      ESP Fit Center  142 is at  -4.600237 -5.654433 -1.683746
      ESP Fit Center  143 is at  -3.981072 -6.430292 -2.123698
      ESP Fit Center  144 is at  -3.278542 -7.267535 -2.123698
      ESP Fit Center  145 is at  -3.981072 -5.337350 -3.161996
      ESP Fit Center  146 is at  -3.981072 -6.430292 -3.161996
      ESP Fit Center  147 is at  -3.278542 -7.267535 -3.161996
      ESP Fit Center  148 is at  -1.492176 -5.883821 -4.001996
      ESP Fit Center  149 is at  -2.174507 -4.944672 -4.001996
      ESP Fit Center  150 is at  -3.278542 -5.303395 -4.001996
      ESP Fit Center  151 is at  -3.278542 -6.464247 -4.001996
      ESP Fit Center  152 is at  -2.174507 -6.822970 -4.001996
      ESP Fit Center  153 is at  -2.479655 -5.883821 -4.322847
      ESP Fit Center  154 is at   0.468792 -4.244168 -1.220289
      ESP Fit Center  155 is at   1.079088 -4.244168 -2.060289
      ESP Fit Center  156 is at   1.079088 -4.244168 -3.098587
      ESP Fit Center  157 is at   0.705280 -3.217138 -3.098587
      ESP Fit Center  158 is at   0.468792 -4.244168 -3.938587
      ESP Fit Center  159 is at  -0.213539 -3.305019 -3.938587
      ESP Fit Center  160 is at  -0.213539 -5.183317 -3.938587
      ESP Fit Center  161 is at  -0.518687 -4.244168 -4.259438
      ESP Fit Center  162 is at  -2.917030 -2.143177 -2.340286
      ESP Fit Center  163 is at  -3.619560 -2.980420 -2.340286
      ESP Fit Center  164 is at  -2.917030 -2.143177 -3.378584
      ESP Fit Center  165 is at  -3.619560 -2.980420 -3.378584
      ESP Fit Center  166 is at  -3.619560 -4.073362 -3.378584
      ESP Fit Center  167 is at  -1.130664 -3.526891 -4.218584
      ESP Fit Center  168 is at  -1.812995 -2.587742 -4.218584
      ESP Fit Center  169 is at  -2.917030 -2.946465 -4.218584
      ESP Fit Center  170 is at  -2.917030 -4.107317 -4.218584
      ESP Fit Center  171 is at  -1.812995 -4.466040 -4.218584
      ESP Fit Center  172 is at  -2.118143 -3.526891 -4.539435
      ESP Fit Center  173 is at  -1.338241 -3.251001  1.007235
      ESP Fit Center  174 is at  -2.318241 -3.251001  0.744645
      ESP Fit Center  175 is at  -1.828241 -4.099706  0.744645
      ESP Fit Center  176 is at  -0.848241 -4.099706  0.744645
      ESP Fit Center  177 is at  -3.035651 -3.251001  0.027235
      ESP Fit Center  178 is at   0.034992 -4.248713  0.027235
      ESP Fit Center  179 is at  -3.035651 -2.271001 -0.952765
      ESP Fit Center  180 is at  -3.298241 -3.251001 -0.952765
      ESP Fit Center  181 is at   0.359169 -4.231001 -0.952765
      ESP Fit Center  182 is at  -2.711474 -2.253289 -1.932765
      ESP Fit Center  183 is at   0.848867 -3.007902 -0.149947
      ESP Fit Center  184 is at   0.074414 -0.370359 -2.249947
      ESP Fit Center  185 is at  -2.036218 -0.027496 -1.408991
      ESP Fit Center  186 is at  -2.738748 -0.864739 -1.408991
      ESP Fit Center  187 is at  -0.013364 -0.384180 -2.447289
      ESP Fit Center  188 is at  -0.959880  0.162291 -2.447289
      ESP Fit Center  189 is at  -2.036218 -0.027496 -2.447289
      ESP Fit Center  190 is at  -2.738748 -0.864739 -2.447289
      ESP Fit Center  191 is at  -2.738748 -1.957681 -2.447289
      ESP Fit Center  192 is at  -0.249852 -1.411210 -3.287289
      ESP Fit Center  193 is at  -0.932183 -0.472061 -3.287289
      ESP Fit Center  194 is at  -2.036218 -0.830784 -3.287289
      ESP Fit Center  195 is at  -0.932183 -2.350359 -3.287289
      ESP Fit Center  196 is at  -1.237331 -1.411210 -3.608140
      ESP Fit Center  197 is at   1.312318 -2.200832 -0.257951
      ESP Fit Center  198 is at   1.922614 -2.200832 -1.097951
      ESP Fit Center  199 is at   0.602290 -3.774333 -1.097951
      ESP Fit Center  200 is at   1.548806 -3.227862 -1.097951
      ESP Fit Center  201 is at   1.922614 -2.200832 -2.136249
      ESP Fit Center  202 is at   0.602290 -0.627331 -2.136249
      ESP Fit Center  203 is at   1.548806 -3.227862 -2.136249
      ESP Fit Center  204 is at   1.312318 -2.200832 -2.976249
      ESP Fit Center  205 is at   0.629987 -1.261683 -2.976249
      ESP Fit Center  206 is at   0.324839 -2.200832 -3.297100
      ESP Fit Center  207 is at  -0.071867 -0.371320  1.952004
      ESP Fit Center  208 is at  -1.121867 -0.371320  1.952004
      ESP Fit Center  209 is at  -1.787832 -2.655093  1.183351
      ESP Fit Center  210 is at  -1.787832  0.093799 -0.916649
      ESP Fit Center  211 is at  -0.056783 -1.897226  2.547494
      ESP Fit Center  212 is at   0.930696 -1.897226  2.226643
      ESP Fit Center  213 is at   0.248365 -0.958077  2.226643
      ESP Fit Center  214 is at  -0.855670 -1.316800  2.226643
      ESP Fit Center  215 is at  -0.855670 -2.477652  2.226643
      ESP Fit Center  216 is at   0.248365 -2.836375  2.226643
      ESP Fit Center  217 is at  -0.855670 -3.280940  1.386643
      ESP Fit Center  218 is at   0.220668 -3.470727  1.386643
      ESP Fit Center  219 is at   1.167184 -2.924256  1.386643
      ESP Fit Center  220 is at   0.220668 -3.470727  0.348345
      ESP Fit Center  221 is at   1.167184 -2.924256  0.348345
      ESP Fit Center  222 is at  -1.609874 -1.115709  2.193434
      ESP Fit Center  223 is at  -1.304726 -0.176560  1.872583
      ESP Fit Center  224 is at  -2.408761 -0.535283  1.872583
      ESP Fit Center  225 is at  -2.408761 -1.696135  1.872583
      ESP Fit Center  226 is at  -2.408761  0.268005  1.032583
      ESP Fit Center  227 is at  -3.111291 -0.569238  1.032583
      ESP Fit Center  228 is at  -3.111291 -1.662180  1.032583
      ESP Fit Center  229 is at  -2.408761 -2.499423  1.032583
      ESP Fit Center  230 is at  -2.408761  0.268005 -0.005715
      ESP Fit Center  231 is at  -3.111291 -0.569238 -0.005715
      ESP Fit Center  232 is at  -3.111291 -1.662180 -0.005715
      ESP Fit Center  233 is at  -2.408761 -0.535283 -0.845715
      ESP Fit Center  234 is at   0.000000  0.000000  1.960000
      ESP Fit Center  235 is at   0.490000  0.848705  1.697410
      ESP Fit Center  236 is at  -0.490000  0.848705  1.697410
      ESP Fit Center  237 is at  -0.524528  1.614333  0.980000
      ESP Fit Center  238 is at  -1.373233  0.997712  0.980000
      ESP Fit Center  239 is at  -0.980000  1.697410  0.000000
      ESP Fit Center  240 is at  -1.697410  0.980000  0.000000
      ESP Fit Center  241 is at  -0.524528  1.614333 -0.980000
      ESP Fit Center  242 is at  -1.373233  0.997712 -0.980000
      ESP Fit Center  243 is at   0.490000  0.848705 -1.697410
      ESP Fit Center  244 is at  -0.490000  0.848705 -1.697410
      ESP Fit Center  245 is at   0.000000  0.000000 -1.960000
      ESP Fit Center  246 is at   1.672646 -2.084689  0.000000
      ESP Fit Center  247 is at   2.612455 -1.728266  0.000000
      ESP Fit Center  248 is at   3.278977 -0.975919  0.000000
      ESP Fit Center  249 is at   2.107948 -2.086713 -0.362549
      ESP Fit Center  250 is at   3.054464 -1.540242 -0.362549
      ESP Fit Center  251 is at   3.428272 -0.513212 -1.400847
      ESP Fit Center  252 is at   2.107948 -2.086713 -1.400847
      ESP Fit Center  253 is at   3.054464 -1.540242 -1.400847
      ESP Fit Center  254 is at   2.817976 -0.513212 -2.240847
      ESP Fit Center  255 is at   2.135645  0.425937 -2.240847
      ESP Fit Center  256 is at   1.031610  0.067214 -2.240847
      ESP Fit Center  257 is at   2.135645 -1.452361 -2.240847
      ESP Fit Center  258 is at   1.830497 -0.513212 -2.561698
      ESP Fit Center  259 is at   1.798976 -0.524224  2.572184
      ESP Fit Center  260 is at   1.000089  0.056202  2.251333
      ESP Fit Center  261 is at   1.000089 -1.104650  2.251333
      ESP Fit Center  262 is at   2.104124 -1.463373  2.251333
      ESP Fit Center  263 is at   2.076427 -2.097725  1.411333
      ESP Fit Center  264 is at   3.022943 -1.551254  1.411333
      ESP Fit Center  265 is at   2.076427 -2.097725  0.373035
      ESP Fit Center  266 is at   3.022943 -1.551254  0.373035
      ESP Fit Center  267 is at   2.121205  3.542530  0.000000
      ESP Fit Center  268 is at   1.123408  3.421375  0.000000
      ESP Fit Center  269 is at  -0.170900  1.960404  0.000000
      ESP Fit Center  270 is at   0.624718  2.569450  2.206410
      ESP Fit Center  271 is at   0.624718  1.408598  2.206410
      ESP Fit Center  272 is at   1.728753  1.049875  2.206410
      ESP Fit Center  273 is at   1.701056  3.562525  1.366410
      ESP Fit Center  274 is at   0.624718  3.372738  1.366410
      ESP Fit Center  275 is at  -0.077812  2.535495  1.366410
      ESP Fit Center  276 is at  -0.077812  1.442553  1.366410
      ESP Fit Center  277 is at   1.701056  3.562525  0.328112
      ESP Fit Center  278 is at   0.624718  3.372738  0.328112
      ESP Fit Center  279 is at  -0.077812  2.535495  0.328112
      ESP Fit Center  280 is at   1.794010  3.526006 -0.391327
      ESP Fit Center  281 is at   0.717672  3.336219 -0.391327
      ESP Fit Center  282 is at   0.015142  2.498976 -0.391327
      ESP Fit Center  283 is at   1.794010  3.526006 -1.429625
      ESP Fit Center  284 is at   0.717672  3.336219 -1.429625
      ESP Fit Center  285 is at   0.015142  2.498976 -1.429625
      ESP Fit Center  286 is at   0.015142  1.406034 -1.429625
      ESP Fit Center  287 is at   2.504038  1.952505 -2.269625
      ESP Fit Center  288 is at   1.821707  2.891654 -2.269625
      ESP Fit Center  289 is at   0.717672  2.532931 -2.269625
      ESP Fit Center  290 is at   0.717672  1.372079 -2.269625
      ESP Fit Center  291 is at   1.821707  1.013356 -2.269625
      ESP Fit Center  292 is at   1.516559  1.952505 -2.590476
      ESP Fit Center  293 is at   5.844608  2.689586  0.552169
      ESP Fit Center  294 is at   5.181829  3.520685  0.552169
      ESP Fit Center  295 is at   4.224086  3.981910  0.552169
      ESP Fit Center  296 is at   3.161070  3.981910  0.552169
      ESP Fit Center  297 is at   2.203327  3.520685  0.552169
      ESP Fit Center  298 is at   4.224086 -0.675464  0.552169
      ESP Fit Center  299 is at   5.181829 -0.214239  0.552169
      ESP Fit Center  300 is at   6.081151  1.653223 -0.538183
      ESP Fit Center  301 is at   5.844608  2.689586 -0.538183
      ESP Fit Center  302 is at   5.181829  3.520685 -0.538183
      ESP Fit Center  303 is at   4.224086  3.981910 -0.538183
      ESP Fit Center  304 is at   3.161070  3.981910 -0.538183
      ESP Fit Center  305 is at   2.203327  3.520685 -0.538183
      ESP Fit Center  306 is at   4.224086 -0.675464 -0.538183
      ESP Fit Center  307 is at   5.181829 -0.214239 -0.538183
      ESP Fit Center  308 is at   5.844608  0.616860 -0.538183
      ESP Fit Center  309 is at   5.608065  1.653223 -1.520557
      ESP Fit Center  310 is at   5.303988  2.688814 -1.520557
      ESP Fit Center  311 is at   4.488300  3.395611 -1.520557
      ESP Fit Center  312 is at   3.419976  3.549213 -1.520557
      ESP Fit Center  313 is at   3.419976 -0.242767 -1.520557
      ESP Fit Center  314 is at   4.488300 -0.089165 -1.520557
      ESP Fit Center  315 is at   5.303988  0.617632 -1.520557
      ESP Fit Center  316 is at   4.755593  1.653223 -2.200381
      ESP Fit Center  317 is at   4.224086  2.573821 -2.200381
      ESP Fit Center  318 is at   3.161070  2.573821 -2.200381
      ESP Fit Center  319 is at   2.629563  1.653223 -2.200381
      ESP Fit Center  320 is at   3.161070  0.732625 -2.200381
      ESP Fit Center  321 is at   4.224086  0.732625 -2.200381
      ESP Fit Center  322 is at   3.692578  1.653223 -2.443007
      ESP Fit Center  323 is at   2.764756 -0.048391  3.532812
      ESP Fit Center  324 is at   3.868791 -0.407114  3.532812
      ESP Fit Center  325 is at   2.062226  1.078506  2.692812
      ESP Fit Center  326 is at   2.062226 -0.014436  2.692812
      ESP Fit Center  327 is at   2.764756 -0.851679  2.692812
      ESP Fit Center  328 is at   3.841094 -1.041466  2.692812
      ESP Fit Center  329 is at   4.787610 -0.494995  2.692812
      ESP Fit Center  330 is at   3.841094 -1.041466  1.654514
      ESP Fit Center  331 is at   5.462872  0.245091  3.166628
      ESP Fit Center  332 is at   5.435175 -0.389261  2.326628
      ESP Fit Center  333 is at   6.381691  0.157210  2.326628
      ESP Fit Center  334 is at   6.755499  1.184240  1.288330
      ESP Fit Center  335 is at   6.381691  2.211270  1.288330
      ESP Fit Center  336 is at   5.435175 -0.389261  1.288330
      ESP Fit Center  337 is at   6.381691  0.157210  1.288330
      ESP Fit Center  338 is at   6.145203  1.184240  0.448330
      ESP Fit Center  339 is at   3.037129  4.605509  2.647625
      ESP Fit Center  340 is at   1.914505  3.458040  3.977336
      ESP Fit Center  341 is at   1.914505  4.261328  3.137336
      ESP Fit Center  342 is at   1.211975  3.424085  3.137336
      ESP Fit Center  343 is at   1.211975  2.331143  3.137336
      ESP Fit Center  344 is at   1.914505  1.493900  3.137336
      ESP Fit Center  345 is at   1.914505  4.261328  2.099038
      ESP Fit Center  346 is at   1.211975  3.424085  2.099038
      ESP Fit Center  347 is at   5.542036  4.546593  2.791288
      ESP Fit Center  348 is at   4.595520  5.093064  2.791288
      ESP Fit Center  349 is at   3.519182  4.903277  2.791288
      ESP Fit Center  350 is at   5.915844  3.519563  1.752990
      ESP Fit Center  351 is at   5.542036  4.546593  1.752990
      ESP Fit Center  352 is at   4.595520  5.093064  1.752990
      ESP Fit Center  353 is at   3.519182  4.903277  1.752990
      ESP Fit Center  354 is at   5.305548  3.519563  0.912990
      ESP Fit Center  355 is at   4.623217  4.458712  0.912990
      ESP Fit Center  356 is at   3.519182  4.099989  0.912990
      ESP Fit Center  357 is at   4.158747  2.413779  6.883817
      ESP Fit Center  358 is at   3.627239  3.334377  6.641191
      ESP Fit Center  359 is at   3.095732  2.413779  6.641191
      ESP Fit Center  360 is at   3.627239  1.493181  6.641191
      ESP Fit Center  361 is at   3.886145  4.309769  5.961367
      ESP Fit Center  362 is at   2.904370  3.861408  5.961367
      ESP Fit Center  363 is at   2.320851  2.953434  5.961367
      ESP Fit Center  364 is at   2.320851  1.874124  5.961367
      ESP Fit Center  365 is at   2.904370  0.966150  5.961367
      ESP Fit Center  366 is at   3.886145  0.517789  5.961367
      ESP Fit Center  367 is at   4.690255  4.742466  4.978993
      ESP Fit Center  368 is at   3.627239  4.742466  4.978993
      ESP Fit Center  369 is at   2.669496  4.281241  4.978993
      ESP Fit Center  370 is at   2.006717  3.450142  4.978993
      ESP Fit Center  371 is at   1.770174  2.413779  4.978993
      ESP Fit Center  372 is at   2.006717  1.377416  4.978993
      ESP Fit Center  373 is at   2.669496  0.546317  4.978993
      ESP Fit Center  374 is at   3.627239  0.085092  4.978993
      ESP Fit Center  375 is at   4.690255  0.085092  4.978993
      ESP Fit Center  376 is at   4.690255  4.742466  3.888641
      ESP Fit Center  377 is at   3.627239  4.742466  3.888641
      ESP Fit Center  378 is at   2.669496  4.281241  3.888641
      ESP Fit Center  379 is at   2.006717  1.377416  3.888641
      ESP Fit Center  380 is at   2.669496  0.546317  3.888641
      ESP Fit Center  381 is at   3.627239  0.085092  3.888641
      ESP Fit Center  382 is at   4.690255  0.085092  3.888641
      ESP Fit Center  383 is at   7.820731  2.496194  3.360461
      ESP Fit Center  384 is at   6.577705  4.984601  4.406061
      ESP Fit Center  385 is at   5.501367  4.794814  4.406061
      ESP Fit Center  386 is at   7.898029  3.411100  3.367763
      ESP Fit Center  387 is at   6.577705  4.984601  3.367763
      ESP Fit Center  388 is at   5.501367  4.794814  3.367763
      ESP Fit Center  389 is at   7.287733  3.411100  2.527763
      ESP Fit Center  390 is at   6.605402  4.350249  2.527763
      ESP Fit Center  391 is at   6.300254  3.411100  2.206912
      ESP Fit Center  392 is at   5.617022  0.256602  4.389259
      ESP Fit Center  393 is at   6.693360  0.066815  4.389259
      ESP Fit Center  394 is at   7.639876  0.613286  4.389259
      ESP Fit Center  395 is at   8.013684  1.640316  3.350961
      ESP Fit Center  396 is at   5.617022  0.256602  3.350961
      ESP Fit Center  397 is at   6.693360  0.066815  3.350961
      ESP Fit Center  398 is at   7.639876  0.613286  3.350961
      ESP Fit Center  399 is at   7.403388  1.640316  2.510961
      ESP Fit Center  400 is at   6.721057  0.701167  2.510961
      ESP Fit Center  401 is at   6.523341  2.499312  7.947567
      ESP Fit Center  402 is at   6.091731  3.325987  8.100447
      ESP Fit Center  403 is at   5.292844  3.906413  7.779596
      ESP Fit Center  404 is at   5.292844  2.745561  7.779596
      ESP Fit Center  405 is at   5.292844  4.709701  6.939596
      ESP Fit Center  406 is at   4.590314  3.872458  6.939596
      ESP Fit Center  407 is at   4.590314  2.779516  6.939596
      ESP Fit Center  408 is at   5.292844  4.709701  5.901298
      ESP Fit Center  409 is at   6.240889  1.572315  8.036639
      ESP Fit Center  410 is at   5.442002  2.152741  7.715788
      ESP Fit Center  411 is at   5.442002  0.991889  7.715788
      ESP Fit Center  412 is at   6.546037  0.633166  7.715788
      ESP Fit Center  413 is at   4.739472  1.025844  6.875788
      ESP Fit Center  414 is at   5.442002  0.188601  6.875788
      ESP Fit Center  415 is at   6.518340 -0.001186  6.875788
      ESP Fit Center  416 is at   5.442002  0.188601  5.837490
      ESP Fit Center  417 is at   6.518340 -0.001186  5.837490
      ESP Fit Center  418 is at   8.356639  2.562164  8.404780
      ESP Fit Center  419 is at   9.419654  2.562164  8.162154
      ESP Fit Center  420 is at   7.825131  3.482762  8.162154
      ESP Fit Center  421 is at   7.293624  2.562164  8.162154
      ESP Fit Center  422 is at   7.825131  1.641566  8.162154
      ESP Fit Center  423 is at   8.888147  1.641566  8.162154
      ESP Fit Center  424 is at  10.272126  2.562164  7.482330
      ESP Fit Center  425 is at   9.968049  3.597755  7.482330
      ESP Fit Center  426 is at   8.084037  0.666174  7.482330
      ESP Fit Center  427 is at   9.152361  0.819776  7.482330
      ESP Fit Center  428 is at   9.968049  1.526573  7.482330
      ESP Fit Center  429 is at  10.745212  2.562164  6.499956
      ESP Fit Center  430 is at   7.825131  0.233477  6.499956
      ESP Fit Center  431 is at   8.888147  0.233477  6.499956
      ESP Fit Center  432 is at   9.845890  0.694702  6.499956
      ESP Fit Center  433 is at  10.508669  1.525801  6.499956
      ESP Fit Center  434 is at  10.745212  2.562164  5.409604
      ESP Fit Center  435 is at   7.825131  0.233477  5.409604
      ESP Fit Center  436 is at   8.888147  0.233477  5.409604
      ESP Fit Center  437 is at   9.845890  0.694702  5.409604
      ESP Fit Center  438 is at  10.508669  1.525801  5.409604
      ESP Fit Center  439 is at  10.272126  2.562164  4.427230
      ESP Fit Center  440 is at   8.084037  0.666174  4.427230
      ESP Fit Center  441 is at   9.152361  0.819776  4.427230
      ESP Fit Center  442 is at   9.968049  1.526573  4.427230
      ESP Fit Center  443 is at   9.419654  2.562164  3.747406
      ESP Fit Center  444 is at   8.888147  1.641566  3.747406
      ESP Fit Center  445 is at   8.356639  2.562164  3.504780
      ESP Fit Center  446 is at   9.452745  5.993222  4.561181
      ESP Fit Center  447 is at   9.222249  3.429590  3.792528
      ESP Fit Center  448 is at  10.762884  4.368132  6.779957
      ESP Fit Center  449 is at  11.373180  4.368132  5.939957
      ESP Fit Center  450 is at  10.999372  5.395162  5.939957
      ESP Fit Center  451 is at  10.999372  3.341102  5.939957
      ESP Fit Center  452 is at  11.373180  4.368132  4.901659
      ESP Fit Center  453 is at  10.999372  5.395162  4.901659
      ESP Fit Center  454 is at  10.052856  5.941633  4.901659
      ESP Fit Center  455 is at  10.999372  3.341102  4.901659
      ESP Fit Center  456 is at  10.762884  4.368132  4.061659
      ESP Fit Center  457 is at  10.080553  5.307281  4.061659
      ESP Fit Center  458 is at  10.080553  3.428983  4.061659
      ESP Fit Center  459 is at   9.775405  4.368132  3.740808
      ESP Fit Center  460 is at   6.703521  5.172022  5.194595
      ESP Fit Center  461 is at   8.482389  6.199052  4.156297
      ESP Fit Center  462 is at   7.406051  6.009265  4.156297
      ESP Fit Center  463 is at   6.703521  5.172022  4.156297
      ESP Fit Center  464 is at   9.192417  4.625551  3.316297
      ESP Fit Center  465 is at   8.510086  5.564700  3.316297
      ESP Fit Center  466 is at   7.406051  5.205977  3.316297
      ESP Fit Center  467 is at   8.510086  3.686402  3.316297
      ESP Fit Center  468 is at   8.204938  4.625551  2.995446
      ESP Fit Center  469 is at   7.802569  6.201932  8.565030
      ESP Fit Center  470 is at  10.427569  5.292605  6.746377
      ESP Fit Center  471 is at   7.136604  6.667051  5.696377
      ESP Fit Center  472 is at   7.252874  5.276046  8.637081
      ESP Fit Center  473 is at   6.453987  5.856472  8.316230
      ESP Fit Center  474 is at   6.453987  4.695620  8.316230
      ESP Fit Center  475 is at   6.453987  6.659760  7.476230
      ESP Fit Center  476 is at   5.751457  5.822517  7.476230
      ESP Fit Center  477 is at   5.751457  4.729575  7.476230
      ESP Fit Center  478 is at   6.453987  6.659760  6.437932
      ESP Fit Center  479 is at   5.751457  5.822517  6.437932
      ESP Fit Center  480 is at   6.453987  5.856472  5.597932
      ESP Fit Center  481 is at   8.855922  5.028272  9.347508
      ESP Fit Center  482 is at   9.843401  5.028272  9.026657
      ESP Fit Center  483 is at   9.161070  5.967421  9.026657
      ESP Fit Center  484 is at   8.057035  5.608698  9.026657
      ESP Fit Center  485 is at   8.057035  4.447846  9.026657
      ESP Fit Center  486 is at   9.161070  4.089123  9.026657
      ESP Fit Center  487 is at  10.453697  5.028272  8.186657
      ESP Fit Center  488 is at  10.079889  6.055302  8.186657
      ESP Fit Center  489 is at   9.133373  6.601773  8.186657
      ESP Fit Center  490 is at   8.057035  3.644558  8.186657
      ESP Fit Center  491 is at   9.133373  3.454771  8.186657
      ESP Fit Center  492 is at  10.079889  4.001242  8.186657
      ESP Fit Center  493 is at  10.453697  5.028272  7.148359
      ESP Fit Center  494 is at   8.899960  7.261487  7.836452
      ESP Fit Center  495 is at  10.192587  6.322338  6.996452
      ESP Fit Center  496 is at   9.818779  7.349368  6.996452
      ESP Fit Center  497 is at   8.872263  7.895839  6.996452
      ESP Fit Center  498 is at   7.795925  7.706052  6.996452
      ESP Fit Center  499 is at  10.192587  6.322338  5.958154
      ESP Fit Center  500 is at   9.818779  7.349368  5.958154
      ESP Fit Center  501 is at   8.872263  7.895839  5.958154
      ESP Fit Center  502 is at   7.795925  7.706052  5.958154
      ESP Fit Center  503 is at   7.093395  6.868809  5.958154
      ESP Fit Center  504 is at   9.582291  6.322338  5.118154
      ESP Fit Center  505 is at   8.899960  7.261487  5.118154
      ESP Fit Center  506 is at   7.795925  6.902764  5.118154
      ESP Fit Center  507 is at   8.594812  6.322338  4.797303
      ESP Fit Center  508 is at   0.740576 -8.771977  1.648797
      ESP Fit Center  509 is at   0.999399 -9.576996  0.982848
      ESP Fit Center  510 is at   1.798440 -8.884623  0.982848
      ESP Fit Center  511 is at   2.559743 -7.870167  0.020522
      ESP Fit Center  512 is at   0.740576-10.151330  0.020522
      ESP Fit Center  513 is at   2.328027 -6.854954 -1.047578
      ESP Fit Center  514 is at  -0.047123 -9.727464 -2.009904
      ESP Fit Center  515 is at   0.670570 -7.288000  2.216593
      ESP Fit Center  516 is at   1.630570 -7.288000  1.959362
      ESP Fit Center  517 is at   1.150570 -6.456616  1.959362
      ESP Fit Center  518 is at   0.190570 -6.456616  1.959362
      ESP Fit Center  519 is at  -0.289430 -7.288000  1.959362
      ESP Fit Center  520 is at   0.190570 -8.119384  1.959362
      ESP Fit Center  521 is at   1.150570 -8.119384  1.959362
      ESP Fit Center  522 is at   2.333339 -7.288000  1.256593
      ESP Fit Center  523 is at   2.015778 -6.310649  1.256593
      ESP Fit Center  524 is at   1.184394 -5.706613  1.256593
      ESP Fit Center  525 is at   0.156746 -5.706613  1.256593
      ESP Fit Center  526 is at  -0.674638 -6.310649  1.256593
      ESP Fit Center  527 is at   2.015778 -8.265351  1.256593
      ESP Fit Center  528 is at   2.590570 -7.288000  0.296593
      ESP Fit Center  529 is at   2.333339 -6.328000  0.296593
      ESP Fit Center  530 is at   1.630570 -5.625231  0.296593
      ESP Fit Center  531 is at   0.670570 -5.368000  0.296593
      ESP Fit Center  532 is at  -0.529374 -8.539035  1.841785
      ESP Fit Center  533 is at  -1.009374 -7.707651  1.584554
      ESP Fit Center  534 is at  -1.489374 -8.539035  1.584554
      ESP Fit Center  535 is at  -1.009374 -9.370419  1.584554
      ESP Fit Center  536 is at  -0.049374 -9.370419  1.584554
      ESP Fit Center  537 is at  -1.874582 -7.561684  0.881785
      ESP Fit Center  538 is at  -2.192143 -8.539035  0.881785
      ESP Fit Center  539 is at  -1.874582 -9.516386  0.881785
      ESP Fit Center  540 is at  -1.043198-10.120422  0.881785
      ESP Fit Center  541 is at  -0.015550-10.120422  0.881785
      ESP Fit Center  542 is at  -2.449374 -8.539035 -0.078215
      ESP Fit Center  543 is at  -2.192143 -9.499035 -0.078215
      ESP Fit Center  544 is at  -1.489374-10.201804 -0.078215
      ESP Fit Center  545 is at  -0.529374-10.459035 -0.078215
      ESP Fit Center  546 is at  -2.192143 -8.539035 -1.038215
      ESP Fit Center  547 is at  -1.874582 -9.516386 -1.038215
      ESP Fit Center  548 is at  -1.043198-10.120422 -1.038215
      ESP Fit Center  549 is at   2.664286 -8.477801 -0.022903
      ESP Fit Center  550 is at   1.515341-10.059188 -0.022903
      ESP Fit Center  551 is at   2.346725 -9.455152 -0.022903
      ESP Fit Center  552 is at   2.921517 -8.477801 -0.982903
      ESP Fit Center  553 is at   2.664286 -7.517801 -0.982903
      ESP Fit Center  554 is at   1.001517-10.397801 -0.982903
      ESP Fit Center  555 is at   1.961517-10.140570 -0.982903
      ESP Fit Center  556 is at   2.664286 -9.437801 -0.982903
      ESP Fit Center  557 is at   2.664286 -8.477801 -1.942903
      ESP Fit Center  558 is at   2.346725 -7.500450 -1.942903
      ESP Fit Center  559 is at   0.487693-10.059188 -1.942903
      ESP Fit Center  560 is at   1.515341-10.059188 -1.942903
      ESP Fit Center  561 is at   2.346725 -9.455152 -1.942903
      ESP Fit Center  562 is at   1.961517 -8.477801 -2.645672
      ESP Fit Center  563 is at   0.521517 -9.309185 -2.645672
      ESP Fit Center  564 is at   1.481517 -9.309185 -2.645672
      ESP Fit Center  565 is at   1.001517 -8.477801 -2.902903
      ESP Fit Center  566 is at   1.156199 -7.961055 -3.032508
      ESP Fit Center  567 is at   2.003656 -6.289841 -1.024053
      ESP Fit Center  568 is at   1.686095 -5.312490 -1.024053
      ESP Fit Center  569 is at   0.854711 -4.708454 -1.024053
      ESP Fit Center  570 is at   2.260887 -6.289841 -1.984053
      ESP Fit Center  571 is at   2.003656 -5.329841 -1.984053
      ESP Fit Center  572 is at   1.300887 -4.627072 -1.984053
      ESP Fit Center  573 is at   2.003656 -6.289841 -2.944053
      ESP Fit Center  574 is at   1.686095 -5.312490 -2.944053
      ESP Fit Center  575 is at   1.686095 -7.267192 -2.944053
      ESP Fit Center  576 is at   1.300887 -6.289841 -3.646822
      ESP Fit Center  577 is at   0.820887 -5.458457 -3.646822
      ESP Fit Center  578 is at   0.820887 -7.121225 -3.646822
      ESP Fit Center  579 is at   0.340887 -6.289841 -3.904053
      ESP Fit Center  580 is at  -2.533955 -8.490001 -2.359072
      ESP Fit Center  581 is at  -1.831186 -9.192770 -2.359072
      ESP Fit Center  582 is at  -0.871186 -9.450001 -2.359072
      ESP Fit Center  583 is at  -2.216394 -8.507352 -3.319072
      ESP Fit Center  584 is at  -1.385010 -9.111388 -3.319072
      ESP Fit Center  585 is at  -0.357362 -9.111388 -3.319072
      ESP Fit Center  586 is at   0.474022 -8.507352 -3.319072
      ESP Fit Center  587 is at   0.088814 -7.530001 -4.021841
      ESP Fit Center  588 is at  -0.391186 -6.698617 -4.021841
      ESP Fit Center  589 is at  -1.351186 -6.698617 -4.021841
      ESP Fit Center  590 is at  -1.831186 -7.530001 -4.021841
      ESP Fit Center  591 is at  -1.351186 -8.361385 -4.021841
      ESP Fit Center  592 is at  -0.391186 -8.361385 -4.021841
      ESP Fit Center  593 is at  -0.871186 -7.530001 -4.279072
      ESP Fit Center  594 is at  -1.425780 -6.190468  1.363349
      ESP Fit Center  595 is at  -0.939830 -5.348778  1.141519
      ESP Fit Center  596 is at  -1.911730 -5.348778  1.141519
      ESP Fit Center  597 is at  -2.397680 -6.190468  1.141519
      ESP Fit Center  598 is at  -1.911730 -7.032158  1.141519
      ESP Fit Center  599 is at  -0.008946 -5.161078  0.519966
      ESP Fit Center  600 is at  -3.177083 -6.190468  0.519966
      ESP Fit Center  601 is at  -2.842614 -7.219858  0.519966
      ESP Fit Center  602 is at  -3.060407 -7.638621 -0.378204
      ESP Fit Center  603 is at  -3.060407 -7.638621 -1.375098
      ESP Fit Center  604 is at  -3.646581 -7.180113 -1.187546
      ESP Fit Center  605 is at  -3.988111 -4.822121 -3.217972
      ESP Fit Center  606 is at  -3.098820 -5.107962  0.755403
      ESP Fit Center  607 is at  -3.578820 -4.276578  0.498172
      ESP Fit Center  608 is at  -4.058820 -5.107962  0.498172
      ESP Fit Center  609 is at  -3.578820 -5.939346  0.498172
      ESP Fit Center  610 is at  -3.612644 -3.526575 -0.204597
      ESP Fit Center  611 is at  -4.444028 -4.130611 -0.204597
      ESP Fit Center  612 is at  -4.761589 -5.107962 -0.204597
      ESP Fit Center  613 is at  -4.444028 -6.085313 -0.204597
      ESP Fit Center  614 is at  -3.612644 -6.689349 -0.204597
      ESP Fit Center  615 is at  -4.058820 -3.445193 -1.164597
      ESP Fit Center  616 is at  -4.761589 -4.147962 -1.164597
      ESP Fit Center  617 is at  -5.018820 -5.107962 -1.164597
      ESP Fit Center  618 is at  -4.761589 -6.067962 -1.164597
      ESP Fit Center  619 is at  -4.058820 -6.770731 -1.164597
      ESP Fit Center  620 is at  -4.444028 -4.130611 -2.124597
      ESP Fit Center  621 is at  -4.761589 -5.107962 -2.124597
      ESP Fit Center  622 is at  -4.444028 -6.085313 -2.124597
      ESP Fit Center  623 is at  -4.399655 -5.883821 -2.642847
      ESP Fit Center  624 is at  -4.142424 -6.843821 -2.642847
      ESP Fit Center  625 is at  -3.439655 -7.546590 -2.642847
      ESP Fit Center  626 is at  -3.824863 -4.906470 -3.602847
      ESP Fit Center  627 is at  -4.142424 -5.883821 -3.602847
      ESP Fit Center  628 is at  -3.824863 -6.861172 -3.602847
      ESP Fit Center  629 is at  -2.993479 -7.465208 -3.602847
      ESP Fit Center  630 is at  -1.519655 -5.883821 -4.305616
      ESP Fit Center  631 is at  -1.999655 -5.052437 -4.305616
      ESP Fit Center  632 is at  -2.959655 -5.052437 -4.305616
      ESP Fit Center  633 is at  -3.439655 -5.883821 -4.305616
      ESP Fit Center  634 is at  -2.959655 -6.715205 -4.305616
      ESP Fit Center  635 is at  -1.999655 -6.715205 -4.305616
      ESP Fit Center  636 is at  -2.479655 -5.883821 -4.562847
      ESP Fit Center  637 is at  -3.605031 -3.032820 -1.575107
      ESP Fit Center  638 is at  -0.717437 -2.341204 -3.605533
      ESP Fit Center  639 is at  -2.017580 -4.949843 -4.271482
      ESP Fit Center  640 is at   1.144082 -4.244168 -1.619438
      ESP Fit Center  641 is at   1.401313 -4.244168 -2.579438
      ESP Fit Center  642 is at   1.144082 -4.244168 -3.539438
      ESP Fit Center  643 is at   0.826521 -3.266817 -3.539438
      ESP Fit Center  644 is at  -0.004863 -2.662781 -3.539438
      ESP Fit Center  645 is at   0.826521 -5.221519 -3.539438
      ESP Fit Center  646 is at   0.441313 -4.244168 -4.242207
      ESP Fit Center  647 is at  -0.038687 -3.412784 -4.242207
      ESP Fit Center  648 is at  -0.998687 -5.075552 -4.242207
      ESP Fit Center  649 is at  -0.038687 -5.075552 -4.242207
      ESP Fit Center  650 is at  -0.518687 -4.244168 -4.499438
      ESP Fit Center  651 is at  -3.463351 -2.549540 -1.899435
      ESP Fit Center  652 is at  -3.078143 -1.864122 -2.859435
      ESP Fit Center  653 is at  -3.780912 -2.566891 -2.859435
      ESP Fit Center  654 is at  -4.038143 -3.526891 -2.859435
      ESP Fit Center  655 is at  -1.604319 -1.945504 -3.819435
      ESP Fit Center  656 is at  -2.631967 -1.945504 -3.819435
      ESP Fit Center  657 is at  -3.463351 -2.549540 -3.819435
      ESP Fit Center  658 is at  -3.780912 -3.526891 -3.819435
      ESP Fit Center  659 is at  -3.463351 -4.504242 -3.819435
      ESP Fit Center  660 is at  -1.158143 -3.526891 -4.522204
      ESP Fit Center  661 is at  -1.638143 -2.695507 -4.522204
      ESP Fit Center  662 is at  -2.598143 -2.695507 -4.522204
      ESP Fit Center  663 is at  -3.078143 -3.526891 -4.522204
      ESP Fit Center  664 is at  -2.598143 -4.358275 -4.522204
      ESP Fit Center  665 is at  -1.638143 -4.358275 -4.522204
      ESP Fit Center  666 is at  -2.118143 -3.526891 -4.779435
      ESP Fit Center  667 is at  -2.310141 -3.251001  1.065405
      ESP Fit Center  668 is at  -1.824191 -4.092691  1.065405
      ESP Fit Center  669 is at  -0.852291 -4.092691  1.065405
      ESP Fit Center  670 is at  -3.089544 -3.251001  0.443852
      ESP Fit Center  671 is at   0.078593 -4.280391  0.443852
      ESP Fit Center  672 is at  -3.458621 -2.728374 -0.454318
      ESP Fit Center  673 is at   0.595452 -4.265881 -0.454318
      ESP Fit Center  674 is at  -3.458621 -2.728374 -1.451212
      ESP Fit Center  675 is at  -1.237331  0.508790 -1.928140
      ESP Fit Center  676 is at  -2.197331  0.251559 -1.928140
      ESP Fit Center  677 is at  -2.900100 -0.451210 -1.928140
      ESP Fit Center  678 is at  -3.157331 -1.411210 -1.928140
      ESP Fit Center  679 is at   0.107877 -0.433859 -2.888140
      ESP Fit Center  680 is at  -0.723507  0.170177 -2.888140
      ESP Fit Center  681 is at  -1.751155  0.170177 -2.888140
      ESP Fit Center  682 is at  -2.582539 -0.433859 -2.888140
      ESP Fit Center  683 is at  -2.900100 -1.411210 -2.888140
      ESP Fit Center  684 is at  -0.277331 -1.411210 -3.590909
      ESP Fit Center  685 is at  -0.757331 -0.579826 -3.590909
      ESP Fit Center  686 is at  -1.717331 -0.579826 -3.590909
      ESP Fit Center  687 is at  -2.197331 -1.411210 -3.590909
      ESP Fit Center  688 is at  -0.757331 -2.242594 -3.590909
      ESP Fit Center  689 is at  -1.237331 -1.411210 -3.848140
      ESP Fit Center  690 is at   1.670047 -3.178183 -0.657100
      ESP Fit Center  691 is at   1.284839 -3.863601 -1.617100
      ESP Fit Center  692 is at   1.987608 -3.160832 -1.617100
      ESP Fit Center  693 is at   1.987608 -2.200832 -2.577100
      ESP Fit Center  694 is at   0.838663 -0.619445 -2.577100
      ESP Fit Center  695 is at   1.670047 -3.178183 -2.577100
      ESP Fit Center  696 is at   1.284839 -2.200832 -3.279869
      ESP Fit Center  697 is at   0.804839 -1.369448 -3.279869
      ESP Fit Center  698 is at   0.804839 -3.032216 -3.279869
      ESP Fit Center  699 is at   0.324839 -2.200832 -3.537100
      ESP Fit Center  700 is at  -0.076207 -0.378837  2.295676
      ESP Fit Center  701 is at  -1.117527 -0.378837  2.295676
      ESP Fit Center  702 is at  -1.825645 -2.698732  1.629727
      ESP Fit Center  703 is at  -0.056783 -1.897226  2.787494
      ESP Fit Center  704 is at   0.903217 -1.897226  2.530263
      ESP Fit Center  705 is at   0.423217 -1.065842  2.530263
      ESP Fit Center  706 is at  -0.536783 -1.065842  2.530263
      ESP Fit Center  707 is at  -1.016783 -1.897226  2.530263
      ESP Fit Center  708 is at  -0.536783 -2.728610  2.530263
      ESP Fit Center  709 is at   0.423217 -2.728610  2.530263
      ESP Fit Center  710 is at  -1.401991 -2.874577  1.827494
      ESP Fit Center  711 is at  -0.570607 -3.478613  1.827494
      ESP Fit Center  712 is at   0.457041 -3.478613  1.827494
      ESP Fit Center  713 is at   1.288425 -2.874577  1.827494
      ESP Fit Center  714 is at  -0.056783 -3.817226  0.867494
      ESP Fit Center  715 is at   0.903217 -3.559995  0.867494
      ESP Fit Center  716 is at   1.605986 -2.857226  0.867494
      ESP Fit Center  717 is at   1.288425 -2.874577 -0.092506
      ESP Fit Center  718 is at  -1.609874 -1.115709  2.433434
      ESP Fit Center  719 is at  -2.089874 -0.284325  2.176203
      ESP Fit Center  720 is at  -2.569874 -1.115709  2.176203
      ESP Fit Center  721 is at  -2.089874 -1.947093  2.176203
      ESP Fit Center  722 is at  -2.123698  0.465678  1.473434
      ESP Fit Center  723 is at  -2.955082 -0.138358  1.473434
      ESP Fit Center  724 is at  -3.272643 -1.115709  1.473434
      ESP Fit Center  725 is at  -2.955082 -2.093060  1.473434
      ESP Fit Center  726 is at  -2.123698 -2.697096  1.473434
      ESP Fit Center  727 is at  -2.569874  0.547060  0.513434
      ESP Fit Center  728 is at  -3.272643 -0.155709  0.513434
      ESP Fit Center  729 is at  -3.529874 -1.115709  0.513434
      ESP Fit Center  730 is at  -3.272643 -2.075709  0.513434
      ESP Fit Center  731 is at  -2.955082 -0.138358 -0.446566
      ESP Fit Center  732 is at  -3.272643 -1.115709 -0.446566
      ESP Fit Center  733 is at   0.000000  0.000000  2.240000
      ESP Fit Center  734 is at  -0.485950  0.841690  2.018170
      ESP Fit Center  735 is at  -0.541182  1.665588  1.396617
      ESP Fit Center  736 is at  -1.416834  1.029390  1.396617
      ESP Fit Center  737 is at  -0.774400  2.041924  0.498447
      ESP Fit Center  738 is at  -1.634627  1.448153  0.498447
      ESP Fit Center  739 is at  -0.774400  2.041924 -0.498447
      ESP Fit Center  740 is at  -1.634627  1.448153 -0.498447
      ESP Fit Center  741 is at  -2.120380  0.522627 -0.498447
      ESP Fit Center  742 is at  -0.541182  1.665588 -1.396617
      ESP Fit Center  743 is at  -1.416834  1.029390 -1.396617
      ESP Fit Center  744 is at  -0.485950  0.841690 -2.018170
      ESP Fit Center  745 is at   2.790497 -2.175981 -0.881698
      ESP Fit Center  746 is at   3.493266 -1.473212 -0.881698
      ESP Fit Center  747 is at   3.493266 -0.513212 -1.841698
      ESP Fit Center  748 is at   2.344321 -2.094599 -1.841698
      ESP Fit Center  749 is at   3.175705 -1.490563 -1.841698
      ESP Fit Center  750 is at   2.790497 -0.513212 -2.544467
      ESP Fit Center  751 is at   2.310497  0.318172 -2.544467
      ESP Fit Center  752 is at   1.350497  0.318172 -2.544467
      ESP Fit Center  753 is at   0.870497 -0.513212 -2.544467
      ESP Fit Center  754 is at   2.310497 -1.344596 -2.544467
      ESP Fit Center  755 is at   1.830497 -0.513212 -2.801698
      ESP Fit Center  756 is at   1.798976 -0.524224  2.812184
      ESP Fit Center  757 is at   1.318976  0.307160  2.554953
      ESP Fit Center  758 is at   0.838976 -0.524224  2.554953
      ESP Fit Center  759 is at   1.318976 -1.355608  2.554953
      ESP Fit Center  760 is at   2.278976 -1.355608  2.554953
      ESP Fit Center  761 is at   2.312800 -2.105611  1.852184
      ESP Fit Center  762 is at   3.144184 -1.501575  1.852184
      ESP Fit Center  763 is at   1.798976 -2.444224  0.892184
      ESP Fit Center  764 is at   2.758976 -2.186993  0.892184
      ESP Fit Center  765 is at   3.461745 -1.484224  0.892184
      ESP Fit Center  766 is at   0.463605  1.989024  2.510030
      ESP Fit Center  767 is at   0.943605  1.157640  2.510030
      ESP Fit Center  768 is at   0.909781  3.570411  1.807261
      ESP Fit Center  769 is at   0.078397  2.966375  1.807261
      ESP Fit Center  770 is at  -0.239164  1.989024  1.807261
      ESP Fit Center  771 is at   1.423605  3.909024  0.847261
      ESP Fit Center  772 is at   0.463605  3.651793  0.847261
      ESP Fit Center  773 is at  -0.239164  2.949024  0.847261
      ESP Fit Center  774 is at   1.516559  3.872505 -0.910476
      ESP Fit Center  775 is at   0.556559  3.615274 -0.910476
      ESP Fit Center  776 is at  -0.146210  2.912505 -0.910476
      ESP Fit Center  777 is at   2.030383  3.533892 -1.870476
      ESP Fit Center  778 is at   1.002735  3.533892 -1.870476
      ESP Fit Center  779 is at   0.171351  2.929856 -1.870476
      ESP Fit Center  780 is at  -0.146210  1.952505 -1.870476
      ESP Fit Center  781 is at   2.476559  1.952505 -2.573245
      ESP Fit Center  782 is at   1.996559  2.783889 -2.573245
      ESP Fit Center  783 is at   1.036559  2.783889 -2.573245
      ESP Fit Center  784 is at   0.556559  1.952505 -2.573245
      ESP Fit Center  785 is at   1.036559  1.121121 -2.573245
      ESP Fit Center  786 is at   1.996559  1.121121 -2.573245
      ESP Fit Center  787 is at   1.516559  1.952505 -2.830476
      ESP Fit Center  788 is at   6.492578  1.653223  0.006993
      ESP Fit Center  789 is at   6.303500  2.664700  0.006993
      ESP Fit Center  790 is at   5.761803  3.539571  0.006993
      ESP Fit Center  791 is at   4.940645  4.159680  0.006993
      ESP Fit Center  792 is at   3.950929  4.441279  0.006993
      ESP Fit Center  793 is at   2.926322  4.346335  0.006993
      ESP Fit Center  794 is at   2.005201  3.887671  0.006993
      ESP Fit Center  795 is at   3.950929 -1.134833  0.006993
      ESP Fit Center  796 is at   4.940645 -0.853234  0.006993
      ESP Fit Center  797 is at   5.761803 -0.233125  0.006993
      ESP Fit Center  798 is at   6.303500  0.641746  0.006993
      ESP Fit Center  799 is at   6.279441  1.653223 -1.064521
      ESP Fit Center  800 is at   6.055795  2.705395 -1.064521
      ESP Fit Center  801 is at   5.423527  3.575637 -1.064521
      ESP Fit Center  802 is at   4.491963  4.113476 -1.064521
      ESP Fit Center  803 is at   3.422177  4.225915 -1.064521
      ESP Fit Center  804 is at   2.399147  3.893512 -1.064521
      ESP Fit Center  805 is at   4.491963 -0.807030 -1.064521
      ESP Fit Center  806 is at   5.423527 -0.269191 -1.064521
      ESP Fit Center  807 is at   6.055795  0.601051 -1.064521
      ESP Fit Center  808 is at   5.672477  1.653223 -1.972906
      ESP Fit Center  809 is at   5.407221  2.643172 -1.972906
      ESP Fit Center  810 is at   4.682527  3.367866 -1.972906
      ESP Fit Center  811 is at   3.692578  3.633122 -1.972906
      ESP Fit Center  812 is at   2.702629  3.367866 -1.972906
      ESP Fit Center  813 is at   3.692578 -0.326676 -1.972906
      ESP Fit Center  814 is at   4.682527 -0.061420 -1.972906
      ESP Fit Center  815 is at   5.407221  0.663274 -1.972906
      ESP Fit Center  816 is at   4.764092  1.653223 -2.579870
      ESP Fit Center  817 is at   4.228335  2.581181 -2.579870
      ESP Fit Center  818 is at   3.156821  2.581181 -2.579870
      ESP Fit Center  819 is at   2.621064  1.653223 -2.579870
      ESP Fit Center  820 is at   3.156821  0.725265 -2.579870
      ESP Fit Center  821 is at   4.228335  0.725265 -2.579870
      ESP Fit Center  822 is at   3.692578  1.653223 -2.793007
      ESP Fit Center  823 is at   4.608408 -0.868643  1.256697
      ESP Fit Center  824 is at   3.083643 -0.299349  3.836432
      ESP Fit Center  825 is at   1.900874  0.532035  3.133663
      ESP Fit Center  826 is at   2.218435 -0.445316  3.133663
      ESP Fit Center  827 is at   3.049819 -1.049352  3.133663
      ESP Fit Center  828 is at   4.077467 -1.049352  3.133663
      ESP Fit Center  829 is at   4.908851 -0.445316  3.133663
      ESP Fit Center  830 is at   3.563643 -1.387965  2.173663
      ESP Fit Center  831 is at   4.523643 -1.130734  2.173663
      ESP Fit Center  832 is at   4.077467 -1.049352  1.213663
      ESP Fit Center  833 is at   5.671548 -0.397147  2.767479
      ESP Fit Center  834 is at   7.077724  1.184240  1.807479
      ESP Fit Center  835 is at   6.820493  2.144240  1.807479
      ESP Fit Center  836 is at   6.117724  2.847009  1.807479
      ESP Fit Center  837 is at   5.157724 -0.735760  1.807479
      ESP Fit Center  838 is at   6.117724 -0.478529  1.807479
      ESP Fit Center  839 is at   6.820493  0.224240  1.807479
      ESP Fit Center  840 is at   6.820493  1.184240  0.847479
      ESP Fit Center  841 is at   6.502932  2.161591  0.847479
      ESP Fit Center  842 is at   5.671548 -0.397147  0.847479
      ESP Fit Center  843 is at   6.502932  0.206889  0.847479
      ESP Fit Center  844 is at   3.261139  4.923138  3.181675
      ESP Fit Center  845 is at   2.199568  4.459001  3.578187
      ESP Fit Center  846 is at   1.368184  3.854965  3.578187
      ESP Fit Center  847 is at   1.050623  2.877614  3.578187
      ESP Fit Center  848 is at   1.368184  1.900263  3.578187
      ESP Fit Center  849 is at   2.713392  4.797614  2.618187
      ESP Fit Center  850 is at   1.753392  4.540383  2.618187
      ESP Fit Center  851 is at   1.050623  3.837614  2.618187
      ESP Fit Center  852 is at   0.793392  2.877614  2.618187
      ESP Fit Center  853 is at   1.753392  1.214845  2.618187
      ESP Fit Center  854 is at   2.199568  4.459001  1.658187
      ESP Fit Center  855 is at   1.368184  3.854965  1.658187
      ESP Fit Center  856 is at   4.831893  5.100950  3.232139
      ESP Fit Center  857 is at   3.804245  5.100950  3.232139
      ESP Fit Center  858 is at   5.980838  4.479563  2.272139
      ESP Fit Center  859 is at   5.278069  5.182332  2.272139
      ESP Fit Center  860 is at   4.318069  5.439563  2.272139
      ESP Fit Center  861 is at   3.358069  5.182332  2.272139
      ESP Fit Center  862 is at   5.980838  3.519563  1.312139
      ESP Fit Center  863 is at   5.663277  4.496914  1.312139
      ESP Fit Center  864 is at   4.831893  5.100950  1.312139
      ESP Fit Center  865 is at   3.804245  5.100950  1.312139
      ESP Fit Center  866 is at   2.972861  4.496914  1.312139
      ESP Fit Center  867 is at   4.798069  4.350947  0.609370
      ESP Fit Center  868 is at   4.158747  2.413779  7.233817
      ESP Fit Center  869 is at   3.622990  3.341737  7.020680
      ESP Fit Center  870 is at   3.087233  2.413779  7.020680
      ESP Fit Center  871 is at   3.622990  1.485821  7.020680
      ESP Fit Center  872 is at   4.158747  4.393678  6.413716
      ESP Fit Center  873 is at   3.168798  4.128422  6.413716
      ESP Fit Center  874 is at   2.444104  3.403728  6.413716
      ESP Fit Center  875 is at   2.178848  2.413779  6.413716
      ESP Fit Center  876 is at   2.444104  1.423830  6.413716
      ESP Fit Center  877 is at   3.168798  0.699136  6.413716
      ESP Fit Center  878 is at   4.158747  0.433880  6.413716
      ESP Fit Center  879 is at   4.958132  4.874032  5.505331
      ESP Fit Center  880 is at   3.888346  4.986471  5.505331
      ESP Fit Center  881 is at   2.865316  4.654068  5.505331
      ESP Fit Center  882 is at   2.065931  3.934299  5.505331
      ESP Fit Center  883 is at   1.628413  2.951618  5.505331
      ESP Fit Center  884 is at   1.628413  1.875940  5.505331
      ESP Fit Center  885 is at   2.065931  0.893259  5.505331
      ESP Fit Center  886 is at   2.865316  0.173490  5.505331
      ESP Fit Center  887 is at   3.888346 -0.158913  5.505331
      ESP Fit Center  888 is at   4.958132 -0.046474  5.505331
      ESP Fit Center  889 is at   4.417098  5.201835  4.433817
      ESP Fit Center  890 is at   3.392491  5.106891  4.433817
      ESP Fit Center  891 is at   2.471370  4.648227  4.433817
      ESP Fit Center  892 is at   1.778139  3.887789  4.433817
      ESP Fit Center  893 is at   1.406422  2.928278  4.433817
      ESP Fit Center  894 is at   1.406422  1.899280  4.433817
      ESP Fit Center  895 is at   1.778139  0.939769  4.433817
      ESP Fit Center  896 is at   2.471370  0.179331  4.433817
      ESP Fit Center  897 is at   3.392491 -0.279333  4.433817
      ESP Fit Center  898 is at   4.417098 -0.374277  4.433817
      ESP Fit Center  899 is at   5.406814 -0.092678  4.433817
      ESP Fit Center  900 is at   2.065931  0.893259  3.362303
      ESP Fit Center  901 is at   7.878474  2.496194  2.914085
      ESP Fit Center  902 is at   7.043399  2.496194  2.248136
      ESP Fit Center  903 is at   5.786430  4.992487  4.846912
      ESP Fit Center  904 is at   6.300254  5.331100  3.886912
      ESP Fit Center  905 is at   5.340254  5.073869  3.886912
      ESP Fit Center  906 is at   7.963023  3.411100  2.926912
      ESP Fit Center  907 is at   6.814078  4.992487  2.926912
      ESP Fit Center  908 is at   5.786430  4.992487  2.926912
      ESP Fit Center  909 is at   7.260254  3.411100  2.224143
      ESP Fit Center  910 is at   6.780254  4.242484  2.224143
      ESP Fit Center  911 is at   6.300254  3.411100  1.966912
      ESP Fit Center  912 is at   5.902085  0.058929  4.830110
      ESP Fit Center  913 is at   6.929733  0.058929  4.830110
      ESP Fit Center  914 is at   5.455909 -0.022453  3.870110
      ESP Fit Center  915 is at   6.415909 -0.279684  3.870110
      ESP Fit Center  916 is at   7.375909 -0.022453  3.870110
      ESP Fit Center  917 is at   8.078678  0.680316  3.870110
      ESP Fit Center  918 is at   8.078678  1.640316  2.910110
      ESP Fit Center  919 is at   6.929733  0.058929  2.910110
      ESP Fit Center  920 is at   7.761117  0.662965  2.910110
      ESP Fit Center  921 is at   7.375909  1.640316  2.207341
      ESP Fit Center  922 is at   6.523341  2.499312  8.247567
      ESP Fit Center  923 is at   6.091731  3.325987  8.340447
      ESP Fit Center  924 is at   5.611731  4.157371  8.083216
      ESP Fit Center  925 is at   5.131731  3.325987  8.083216
      ESP Fit Center  926 is at   5.611731  2.494603  8.083216
      ESP Fit Center  927 is at   4.746523  4.303338  7.380447
      ESP Fit Center  928 is at   4.428962  3.325987  7.380447
      ESP Fit Center  929 is at   5.131731  4.988756  6.420447
      ESP Fit Center  930 is at   5.577907  4.907374  5.460447
      ESP Fit Center  931 is at   6.240889  1.572315  8.276639
      ESP Fit Center  932 is at   5.280889  1.572315  8.019408
      ESP Fit Center  933 is at   5.760889  0.740931  8.019408
      ESP Fit Center  934 is at   6.720889  0.740931  8.019408
      ESP Fit Center  935 is at   4.578120  1.572315  7.316639
      ESP Fit Center  936 is at   4.895681  0.594964  7.316639
      ESP Fit Center  937 is at   5.727065 -0.009072  7.316639
      ESP Fit Center  938 is at   6.754713 -0.009072  7.316639
      ESP Fit Center  939 is at   5.280889 -0.090454  6.356639
      ESP Fit Center  940 is at   6.240889 -0.347685  6.356639
      ESP Fit Center  941 is at   7.200889 -0.090454  6.356639
      ESP Fit Center  942 is at   5.727065 -0.009072  5.396639
      ESP Fit Center  943 is at   6.754713 -0.009072  5.396639
      ESP Fit Center  944 is at   8.356639  2.562164  8.754780
      ESP Fit Center  945 is at   9.428153  2.562164  8.541643
      ESP Fit Center  946 is at   7.820882  3.490122  8.541643
      ESP Fit Center  947 is at   7.285125  2.562164  8.541643
      ESP Fit Center  948 is at   7.820882  1.634206  8.541643
      ESP Fit Center  949 is at   8.892396  1.634206  8.541643
      ESP Fit Center  950 is at  10.336538  2.562164  7.934679
      ESP Fit Center  951 is at  10.071282  3.552113  7.934679
      ESP Fit Center  952 is at   7.366690  0.847521  7.934679
      ESP Fit Center  953 is at   8.356639  0.582265  7.934679
      ESP Fit Center  954 is at   9.346588  0.847521  7.934679
      ESP Fit Center  955 is at  10.071282  1.572215  7.934679
      ESP Fit Center  956 is at  10.943502  2.562164  7.026294
      ESP Fit Center  957 is at  10.719856  3.614336  7.026294
      ESP Fit Center  958 is at   8.086238 -0.010528  7.026294
      ESP Fit Center  959 is at   9.156024  0.101911  7.026294
      ESP Fit Center  960 is at  10.087588  0.639750  7.026294
      ESP Fit Center  961 is at  10.719856  1.509992  7.026294
      ESP Fit Center  962 is at  11.156639  2.562164  5.954780
      ESP Fit Center  963 is at   7.590383 -0.130948  5.954780
      ESP Fit Center  964 is at   8.614990 -0.225892  5.954780
      ESP Fit Center  965 is at   9.604706  0.055707  5.954780
      ESP Fit Center  966 is at  10.425864  0.675816  5.954780
      ESP Fit Center  967 is at  10.967561  1.550687  5.954780
      ESP Fit Center  968 is at  10.943502  2.562164  4.883266
      ESP Fit Center  969 is at   8.086238 -0.010528  4.883266
      ESP Fit Center  970 is at   9.156024  0.101911  4.883266
      ESP Fit Center  971 is at  10.087588  0.639750  4.883266
      ESP Fit Center  972 is at  10.719856  1.509992  4.883266
      ESP Fit Center  973 is at  10.336538  2.562164  3.974881
      ESP Fit Center  974 is at   8.356639  0.582265  3.974881
      ESP Fit Center  975 is at   9.346588  0.847521  3.974881
      ESP Fit Center  976 is at  10.071282  1.572215  3.974881
      ESP Fit Center  977 is at   9.428153  2.562164  3.367917
      ESP Fit Center  978 is at   8.892396  1.634206  3.367917
      ESP Fit Center  979 is at   8.356639  2.562164  3.154780
      ESP Fit Center  980 is at   9.476732  6.045746  4.114805
      ESP Fit Center  981 is at   9.738570  4.338917  3.448856
      ESP Fit Center  982 is at  10.735405  4.368132  7.083577
      ESP Fit Center  983 is at  11.438174  4.368132  6.380808
      ESP Fit Center  984 is at  11.120613  5.345483  6.380808
      ESP Fit Center  985 is at  11.120613  3.390781  6.380808
      ESP Fit Center  986 is at  11.695405  4.368132  5.420808
      ESP Fit Center  987 is at  11.438174  5.328132  5.420808
      ESP Fit Center  988 is at  10.735405  6.030901  5.420808
      ESP Fit Center  989 is at  11.438174  3.408132  5.420808
      ESP Fit Center  990 is at  11.438174  4.368132  4.460808
      ESP Fit Center  991 is at  11.120613  5.345483  4.460808
      ESP Fit Center  992 is at  10.289229  5.949519  4.460808
      ESP Fit Center  993 is at  11.120613  3.390781  4.460808
      ESP Fit Center  994 is at  10.735405  4.368132  3.758039
      ESP Fit Center  995 is at  10.255405  5.199516  3.758039
      ESP Fit Center  996 is at  10.255405  3.536748  3.758039
      ESP Fit Center  997 is at   7.244938  6.288320  4.675446
      ESP Fit Center  998 is at   6.542169  5.585551  4.675446
      ESP Fit Center  999 is at   9.550146  5.602902  3.715446
      ESP Fit Center 1000 is at   8.718762  6.206938  3.715446
      ESP Fit Center 1001 is at   7.691114  6.206938  3.715446
      ESP Fit Center 1002 is at   6.859730  5.602902  3.715446
      ESP Fit Center 1003 is at   9.164938  4.625551  3.012677
      ESP Fit Center 1004 is at   8.684938  5.456935  3.012677
      ESP Fit Center 1005 is at   7.724938  5.456935  3.012677
      ESP Fit Center 1006 is at   8.684938  3.794167  3.012677
      ESP Fit Center 1007 is at   8.204938  4.625551  2.755446
      ESP Fit Center 1008 is at   7.806909  6.194415  8.908702
      ESP Fit Center 1009 is at   7.286248  5.292605  8.908702
      ESP Fit Center 1010 is at   9.107052  6.999434  8.242753
      ESP Fit Center 1011 is at   8.060530  7.149902  8.242753
      ESP Fit Center 1012 is at   7.098791  6.710690  8.242753
      ESP Fit Center 1013 is at  10.435680  6.307818  7.280427
      ESP Fit Center 1014 is at   6.868711  7.121955  6.212327
      ESP Fit Center 1015 is at   7.098791  6.710690  5.250001
      ESP Fit Center 1016 is at   6.527181  5.821247  5.250001
      ESP Fit Center 1017 is at   6.772874  6.107430  8.619850
      ESP Fit Center 1018 is at   6.292874  5.276046  8.619850
      ESP Fit Center 1019 is at   6.772874  4.444662  8.619850
      ESP Fit Center 1020 is at   6.739050  6.857433  7.917081
      ESP Fit Center 1021 is at   5.907666  6.253397  7.917081
      ESP Fit Center 1022 is at   5.590105  5.276046  7.917081
      ESP Fit Center 1023 is at   6.292874  6.938815  6.957081
      ESP Fit Center 1024 is at   5.590105  6.236046  6.957081
      ESP Fit Center 1025 is at   5.332874  5.276046  6.957081
      ESP Fit Center 1026 is at   5.907666  6.253397  5.997081
      ESP Fit Center 1027 is at   5.590105  5.276046  5.997081
      ESP Fit Center 1028 is at   6.292874  5.276046  5.294312
      ESP Fit Center 1029 is at   8.855922  5.028272  9.587508
      ESP Fit Center 1030 is at   9.815922  5.028272  9.330277
      ESP Fit Center 1031 is at   9.335922  5.859656  9.330277
      ESP Fit Center 1032 is at   8.375922  5.859656  9.330277
      ESP Fit Center 1033 is at   7.895922  5.028272  9.330277
      ESP Fit Center 1034 is at   8.375922  4.196888  9.330277
      ESP Fit Center 1035 is at   9.335922  4.196888  9.330277
      ESP Fit Center 1036 is at  10.518691  5.028272  8.627508
      ESP Fit Center 1037 is at  10.201130  6.005623  8.627508
      ESP Fit Center 1038 is at   9.369746  6.609659  8.627508
      ESP Fit Center 1039 is at   8.342098  3.446885  8.627508
      ESP Fit Center 1040 is at   9.369746  3.446885  8.627508
      ESP Fit Center 1041 is at  10.201130  4.050921  8.627508
      ESP Fit Center 1042 is at  10.775922  5.028272  7.667508
      ESP Fit Center 1043 is at  10.518691  5.988272  7.667508
      ESP Fit Center 1044 is at  10.518691  4.068272  7.667508
      ESP Fit Center 1045 is at   9.074812  7.153722  8.140072
      ESP Fit Center 1046 is at   9.940020  7.299689  7.437303
      ESP Fit Center 1047 is at   9.108636  7.903725  7.437303
[...]
 1423 Fit      -0.012688
 1424 Fit      -0.012943
 1425 Fit      -0.011045
 1426 Fit      -0.010002
 1427 Fit      -0.011015
 1428 Fit      -0.012994
 1429 Fit      -0.013532
 1430 Fit      -0.010115
 1431 Fit      -0.002476
 1432 Fit      -0.009397
 1433 Fit      -0.010852
 1434 Fit      -0.008444
 1435 Fit      -0.005275
 1436 Fit      -0.004247
 1437 Fit      -0.005976
 1438 Fit      -0.009044
 1439 Fit      -0.011586
 1440 Fit      -0.011793
 1441 Fit      -0.007949
 1442 Fit       0.000361
 1443 Fit       0.002044
 1444 Fit      -0.003937
 1445 Fit      -0.004381
 1446 Fit      -0.000119
 1447 Fit       0.002338
 1448 Fit      -0.000548
 1449 Fit      -0.003367
 1450 Fit       0.004563
 1451 Fit       0.012257
 1452 Fit       0.012580
 1453 Fit       0.009813
 1454 Fit       0.006864
 1455 Fit       0.016217
 1456 Fit       0.014417
 1457 Fit       0.010682
 1458 Fit       0.013438
 1459 Fit       0.003722
 1460 Fit       0.002772
 1461 Fit       0.004858
 1462 Fit       0.000817
 1463 Fit      -0.001886
 1464 Fit       0.007507
 1465 Fit       0.002300
 1466 Fit       0.009164
 1467 Fit      -0.003053
 1468 Fit       0.001839
 1469 Fit       0.001576
 1470 Fit       0.005889
 1471 Fit       0.002590
 1472 Fit       0.005158
 1473 Fit      -0.000772
 1474 Fit      -0.000426
 1475 Fit       0.001585
 1476 Fit       0.002225
 1477 Fit      -0.000720
 1478 Fit      -0.001350
 1479 Fit       0.001499
 1480 Fit       0.003115
 1481 Fit       0.001095
 1482 Fit       0.001488
 1483 Fit       0.003219
 1484 Fit       0.002765
 1485 Fit      -0.014184
 1486 Fit      -0.014626
 1487 Fit      -0.008609
 1488 Fit      -0.009342
 1489 Fit      -0.012524
 1490 Fit      -0.016300
 1491 Fit      -0.011788
 1492 Fit      -0.006189
 1493 Fit      -0.011963
 1494 Fit      -0.015645
 1495 Fit      -0.015565
 1496 Fit      -0.007354
 1497 Fit      -0.000820
 1498 Fit      -0.001067
 1499 Fit      -0.008508
 1500 Fit      -0.013233
 1501 Fit      -0.014623
 1502 Fit      -0.012403
 1503 Fit      -0.003341
 1504 Fit      -0.003172
 1505 Fit      -0.009676
 1506 Fit      -0.013312
 1507 Fit      -0.013335
 1508 Fit      -0.009752
 1509 Fit      -0.001759
 1510 Fit      -0.003325
 1511 Fit      -0.010039
 1512 Fit      -0.013731
 1513 Fit      -0.013476
 1514 Fit      -0.009292
 1515 Fit      -0.003514
 1516 Fit      -0.007538
 1517 Fit      -0.013417
 1518 Fit      -0.014533
 1519 Fit      -0.010960
 1520 Fit      -0.006441
 1521 Fit      -0.006527
 1522 Fit      -0.013177
 1523 Fit      -0.012478
 1524 Fit      -0.006494
 1525 Fit      -0.008721
 1526 Fit      -0.000958
 1527 Fit       0.010226
 1528 Fit       0.006081
 1529 Fit       0.006699
 1530 Fit       0.008401
 1531 Fit       0.007747
 1532 Fit       0.009261
 1533 Fit       0.010057
 1534 Fit       0.004461
 1535 Fit       0.007535
 1536 Fit       0.009172
 1537 Fit       0.009983
 1538 Fit       0.003540
 1539 Fit       0.006459
 1540 Fit       0.008642
 1541 Fit       0.000837
 1542 Fit       0.012155
 1543 Fit       0.010729
 1544 Fit       0.011870
 1545 Fit       0.013625
 1546 Fit       0.007788
 1547 Fit       0.010528
 1548 Fit       0.013382
 1549 Fit       0.005304
 1550 Fit       0.011434
 1551 Fit       0.002217
 1552 Fit       0.001389
 1553 Fit       0.003368
 1554 Fit       0.002942
 1555 Fit       0.003070
 1556 Fit      -0.002621
 1557 Fit       0.004799
 1558 Fit       0.004214
 1559 Fit       0.007155
 1560 Fit       0.006962
 1561 Fit       0.010097
 1562 Fit       0.003319
 1563 Fit       0.003930
 1564 Fit       0.001207
 1565 Fit       0.004863
 1566 Fit       0.005784
 1567 Fit       0.007332
 1568 Fit       0.005176
 1569 Fit       0.005774
 1570 Fit       0.006171
 1571 Fit       0.006808
 1572 Fit       0.006785
 1573 Fit       0.013614
 1574 Fit       0.001891
 1575 Fit       0.002869
 1576 Fit       0.003446
 1577 Fit       0.002465
 1578 Fit       0.000842
 1579 Fit      -0.002166
 1580 Fit      -0.000834
 1581 Fit       0.003484
 1582 Fit       0.004182
 1583 Fit       0.003690
 1584 Fit      -0.008901
 1585 Fit      -0.000315
 1586 Fit       0.005005
 1587 Fit       0.005134
 1588 Fit       0.001681
 1589 Fit       0.005500
 1590 Fit       0.005979
 1591 Fit       0.005619
 1592 Fit       0.004619
 1593 Fit       0.007631
 1594 Fit       0.007940
 1595 Fit       0.007829
 1596 Fit       0.007004
 1597 Fit       0.005902
 1598 Fit       0.009478
 1599 Fit       0.009293
 1600 Fit       0.008803
 1601 Fit       0.007957
 1602 Fit       0.010464
 1603 Fit       0.010292
 1604 Fit      -0.009287
 1605 Fit      -0.004929
 1606 Fit      -0.003341
 1607 Fit      -0.018150
 1608 Fit      -0.002046
 1609 Fit      -0.001519
 1610 Fit      -0.000784
 1611 Fit      -0.000419
 1612 Fit      -0.000115
 1613 Fit       0.001483
 1614 Fit       0.000430
 1615 Fit       0.003217
 1616 Fit       0.002743
 1617 Fit       0.003093
 1618 Fit       0.005384
 1619 Fit      -0.004541
 1620 Fit      -0.001657
 1621 Fit      -0.003624
 1622 Fit      -0.008767
 1623 Fit      -0.009317
 1624 Fit      -0.002674
 1625 Fit      -0.000079
 1626 Fit      -0.000519
 1627 Fit      -0.003646
 1628 Fit      -0.011503
 1629 Fit      -0.020644
 1630 Fit      -0.000829
 1631 Fit       0.000755
 1632 Fit       0.000800
 1633 Fit      -0.000783
 1634 Fit      -0.007038
 1635 Fit       0.001836
 1636 Fit       0.000764
 1637 Fit      -0.005951
 1638 Fit      -0.007543
 1639 Fit      -0.003406
 1640 Fit      -0.002991
 1641 Fit      -0.013926
 1642 Fit      -0.005744
 1643 Fit      -0.001929
 1644 Fit      -0.000848
 1645 Fit      -0.001245
 1646 Fit      -0.010412
 1647 Fit      -0.003339
 1648 Fit      -0.000450
 1649 Fit       0.000362
 1650 Fit       0.000116
 1651 Fit      -0.002123
 1652 Fit       0.000431
 1653 Fit       0.001084
 1654 Fit       0.001529
 1655 Fit       0.000828
 1656 Fit       0.002629
 1657 Fit       0.001954
 1658 Fit       0.002741
 1659 Fit       0.002952
 1660 Fit       0.004500
 1661 Fit       0.004327
 1662 Fit       0.002642
 1663 Fit       0.003655
 1664 Fit       0.004417
 1665 Fit       0.004674
 1666 Fit       0.006037
 1667 Fit       0.006656
 1668 Fit       0.004619
 1669 Fit       0.005359
 1670 Fit       0.005861
 1671 Fit       0.007263
 1672 Fit       0.006785
 1673 Fit       0.006619
 1674 Fit       0.007918
 1675 Fit       0.008861
 1676 Fit       0.000717
 1677 Fit      -0.005476
 1678 Fit       0.004516
 1679 Fit       0.004614
 1680 Fit       0.004893
 1681 Fit       0.006441
 1682 Fit       0.007063
 1683 Fit       0.007021
 1684 Fit       0.007767
 1685 Fit       0.009061
 1686 Fit       0.007859
 1687 Fit       0.008841
 1688 Fit       0.010104
 1689 Fit      -0.001966
 1690 Fit       0.000773
 1691 Fit       0.003395
 1692 Fit       0.003614
 1693 Fit       0.004291
 1694 Fit       0.005176
 1695 Fit       0.006992
 1696 Fit       0.005815
 1697 Fit       0.005923
 1698 Fit       0.006581
 1699 Fit       0.007638
 1700 Fit       0.008315
 1701 Fit       0.010087
 1702 Fit       0.008874
 1703 Fit       0.007258
 1704 Fit       0.007371
 1705 Fit       0.008521
 1706 Fit      -0.022978
 1707 Fit      -0.024938
 1708 Fit      -0.025445
 1709 Fit      -0.022501
 1710 Fit      -0.020718
 1711 Fit      -0.017685
 1712 Fit      -0.018823
 1713 Fit      -0.014609
 1714 Fit      -0.008503
 1715 Fit      -0.001696
 1716 Fit      -0.005585
 1717 Fit       0.002036
 1718 Fit       0.007377
 1719 Fit      -0.018631
 1720 Fit      -0.012905
 1721 Fit      -0.008814
 1722 Fit      -0.015003
 1723 Fit      -0.006484
 1724 Fit      -0.003012
 1725 Fit      -0.003699
 1726 Fit      -0.008379
 1727 Fit      -0.002522
 1728 Fit       0.000467
 1729 Fit       0.000785
 1730 Fit      -0.000766
 1731 Fit      -0.004524
 1732 Fit       0.002439
 1733 Fit       0.003574
 1734 Fit       0.003371
 1735 Fit       0.002137
 1736 Fit       0.005929
 1737 Fit       0.004673
 1738 Fit       0.004191
 1739 Fit       0.008463
 1740 Fit       0.007164
 1741 Fit       0.006860
 1742 Fit       0.007712
 1743 Fit       0.011676
 1744 Fit       0.011221
 1745 Fit       0.009176
 1746 Fit       0.008793
 1747 Fit       0.009918
 1748 Fit       0.010419
 1749 Fit      -0.001164
 1750 Fit       0.009234
 1751 Fit       0.012692
 1752 Fit       0.012091
 1753 Fit       0.011731
 1754 Fit       0.007729
 1755 Fit       0.009471
 1756 Fit       0.009902
 1757 Fit       0.009686
 1758 Fit       0.009753
 1759 Fit       0.010894
 1760 Fit       0.010130
 1761 Fit       0.009799
 1762 Fit       0.011135
 1763 Fit       0.010799
 1764 Fit       0.003300
 1765 Fit       0.006006
 1766 Fit       0.006217
 1767 Fit       0.007543
 1768 Fit       0.008637
 1769 Fit       0.007886
 1770 Fit       0.007564
 1771 Fit       0.008075
 1772 Fit       0.009474
 1773 Fit       0.008953
 1774 Fit       0.008609
 1775 Fit       0.009325
 1776 Fit       0.010964
 1777 Fit       0.009725
 1778 Fit      -0.016394
 1779 Fit      -0.023768
 1780 Fit      -0.021659
 1781 Fit      -0.015112
 1782 Fit      -0.010062
 1783 Fit      -0.008656
 1784 Fit      -0.003936
 1785 Fit      -0.004784
 1786 Fit       0.008746
 1787 Fit       0.009093
 1788 Fit      -0.003085
 1789 Fit       0.000321
 1790 Fit      -0.003034
 1791 Fit       0.000375
 1792 Fit       0.002398
 1793 Fit       0.003386
 1794 Fit       0.002619
 1795 Fit       0.002179
 1796 Fit       0.003531
 1797 Fit       0.005266
 1798 Fit       0.005517
 1799 Fit       0.005527
 1800 Fit       0.007713
 1801 Fit       0.007651
 1802 Fit       0.004506
 1803 Fit       0.003721
 1804 Fit       0.006056
 1805 Fit       0.007472
 1806 Fit       0.007950
 1807 Fit       0.009074
 1808 Fit       0.008453
 1809 Fit       0.007448
 1810 Fit      -0.001449
 1811 Fit      -0.001463
 1812 Fit      -0.003480
 1813 Fit      -0.002698
 1814 Fit      -0.007668
 1815 Fit      -0.000473
 1816 Fit       0.002924
 1817 Fit       0.001774
 1818 Fit      -0.002680
 1819 Fit      -0.003645
 1820 Fit      -0.000565
 1821 Fit      -0.010261
 1822 Fit      -0.008744
 1823 Fit      -0.002756
 1824 Fit       0.002676
 1825 Fit      -0.010984
 1826 Fit      -0.001135
 1827 Fit       0.004767
 1828 Fit      -0.001452
 1829 Fit      -0.003208
 1830 Fit      -0.002445
 1831 Fit      -0.004224
 1832 Fit      -0.008074
 1833 Fit      -0.003135
 1834 Fit      -0.001564
 1835 Fit      -0.003172
 1836 Fit      -0.007654
 1837 Fit      -0.004081
 1838 Fit      -0.001283
 1839 Fit      -0.001754
 1840 Fit      -0.005880
 1841 Fit      -0.004559
 1842 Fit      -0.001100
 1843 Fit      -0.001717
 1844 Fit      -0.000050
 1845 Fit      -0.002325
 1846 Fit      -0.006225
 1847 Fit      -0.008961
 1848 Fit      -0.009518
 1849 Fit      -0.011142
 1850 Fit      -0.011477
 1851 Fit      -0.012783
 1852 Fit      -0.011232
 1853 Fit      -0.011142
 1854 Fit      -0.011066
 1855 Fit      -0.008335
 1856 Fit      -0.007445
 1857 Fit      -0.003932
 1858 Fit       0.000219
 1859 Fit       0.003291
 1860 Fit       0.003770
 1861 Fit       0.007603
 1862 Fit       0.001877
 1863 Fit       0.002546
 1864 Fit       0.003746
 1865 Fit       0.005356
 1866 Fit       0.006857
 1867 Fit       0.006110
 1868 Fit       0.006070
 1869 Fit       0.002595
 1870 Fit       0.004253
 1871 Fit       0.006071
 1872 Fit       0.005794
 1873 Fit       0.005094
 1874 Fit       0.005233
 1875 Fit       0.003971
 1876 Fit       0.001179
 1877 Fit      -0.004799
 1878 Fit       0.005300
 1879 Fit       0.005902
 1880 Fit       0.006222
 1881 Fit       0.000901
 1882 Fit       0.005729
 1883 Fit       0.003248
 1884 Fit      -0.001806
 1885 Fit       0.001058
 1886 Fit      -0.004995
 1887 Fit       0.001693
 1888 Fit       0.001418
 1889 Fit      -0.002382
 1890 Fit       0.002675
 1891 Fit       0.002731
 1892 Fit       0.000180
 1893 Fit      -0.003615
 1894 Fit       0.002859
 1895 Fit       0.003939
 1896 Fit       0.003284
 1897 Fit       0.004495
 1898 Fit       0.004666
 1899 Fit       0.004427
 1900 Fit       0.001526
 1901 Fit       0.001279
 1902 Fit       0.001423
 1903 Fit       0.001031
 1904 Fit      -0.000319
 1905 Fit      -0.002303
 1906 Fit      -0.004406
 1907 Fit      -0.005711
 1908 Fit      -0.004935
 1909 Fit      -0.001761
 1910 Fit      -0.000931
 1911 Fit      -0.004079
 1912 Fit      -0.004003
 1913 Fit      -0.001876
 1914 Fit       0.000423
 1915 Fit      -0.004358
 1916 Fit      -0.004607
 1917 Fit      -0.006027
 1918 Fit      -0.007827
 1919 Fit      -0.008817
 1920 Fit      -0.007829
 1921 Fit      -0.004337
 1922 Fit      -0.005745
 1923 Fit      -0.007865
 1924 Fit      -0.007151
 1925 Fit      -0.005446
 1926 Fit      -0.007850
 1927 Fit      -0.007965
 1928 Fit      -0.008848
 1929 Fit      -0.009307
 1930 Fit      -0.007898
 1931 Fit      -0.003774
 1932 Fit      -0.007862
 1933 Fit      -0.009341
 1934 Fit      -0.008679
 1935 Fit      -0.008839
 1936 Fit      -0.008687
 1937 Fit      -0.008272
 1938 Fit      -0.006094
 1939 Fit      -0.001260
 1940 Fit      -0.003209
 1941 Fit      -0.007758
 1942 Fit      -0.009034
 1943 Fit      -0.007281
 1944 Fit      -0.006098
 1945 Fit      -0.001952
 1946 Fit       0.001528
 1947 Fit      -0.000881
 1948 Fit      -0.005741
 1949 Fit      -0.003582
 1950 Fit       0.004418
 1951 Fit       0.001974
 1952 Fit       0.001982
 1953 Fit       0.001084
 1954 Fit      -0.000172
 1955 Fit       0.006478
 1956 Fit       0.004337
 1957 Fit       0.003981
 1958 Fit       0.004763
 1959 Fit       0.004895
 1960 Fit       0.006447
 1961 Fit       0.007039
 1962 Fit       0.008481
 1963 Fit       0.002488
 1964 Fit       0.004235
 1965 Fit       0.005838
 1966 Fit       0.000579
 1967 Fit       0.001209
 1968 Fit       0.001585
 1969 Fit       0.003599
 1970 Fit       0.005292
 1971 Fit       0.006071
 1972 Fit       0.006171
 1973 Fit       0.003711
 1974 Fit       0.005378
 1975 Fit       0.007585
 1976 Fit       0.007210
 1977 Fit       0.003477
 1978 Fit       0.011876
 1979 Fit       0.009278
 1980 Fit       0.006262
 1981 Fit       0.003792
 1982 Fit       0.002857
 1983 Fit       0.004171
 1984 Fit       0.002594
 1985 Fit       0.000194
 1986 Fit      -0.002538
 1987 Fit      -0.005100
 1988 Fit      -0.007278
 1989 Fit      -0.005597
 1990 Fit      -0.001974
 1991 Fit      -0.007836
 1992 Fit      -0.009386
 1993 Fit      -0.009466
 1994 Fit      -0.009437
 1995 Fit      -0.008458
 1996 Fit      -0.004333
 1997 Fit      -0.003452
 1998 Fit      -0.008725
 1999 Fit      -0.009933
 2000 Fit      -0.009340
 2001 Fit      -0.008914
 2002 Fit      -0.009448
 2003 Fit      -0.010294
 2004 Fit      -0.009943
 2005 Fit      -0.006715
 2006 Fit       0.001762
 2007 Fit      -0.005418
 2008 Fit      -0.008529
 2009 Fit      -0.008496
 2010 Fit      -0.006992
 2011 Fit      -0.005858
 2012 Fit      -0.006111
 2013 Fit      -0.007515
 2014 Fit      -0.009110
 2015 Fit      -0.009804
 2016 Fit      -0.008494
 2017 Fit      -0.004307
 2018 Fit       0.006618
 2019 Fit      -0.000703
 2020 Fit      -0.004687
 2021 Fit      -0.005456
 2022 Fit      -0.003795
 2023 Fit      -0.001385
 2024 Fit      -0.000177
 2025 Fit      -0.000882
 2026 Fit      -0.002555
 2027 Fit      -0.004077
 2028 Fit      -0.005205
 2029 Fit      -0.005768
 2030 Fit      -0.004762
 2031 Fit      -0.001172
 2032 Fit       0.006894
 2033 Fit       0.001425
 2034 Fit      -0.000415
 2035 Fit       0.004843
 2036 Fit       0.005365
 2037 Fit       0.009458
 2038 Fit       0.011041
 2039 Fit       0.006697
 2040 Fit       0.013175
 2041 Fit       0.012792
 2042 Fit       0.009500
 2043 Fit       0.011275
 2044 Fit       0.001438
 2045 Fit       0.002173
 2046 Fit       0.005177
 2047 Fit       0.004505
 2048 Fit       0.000647
 2049 Fit       0.000958
 2050 Fit       0.007426
 2051 Fit       0.003302
 2052 Fit       0.000564
 2053 Fit      -0.000144
 2054 Fit       0.000493
 2055 Fit       0.003968
 2056 Fit       0.001604
 2057 Fit       0.004118
 2058 Fit      -0.000208
 2059 Fit      -0.001530
 2060 Fit       0.002243
 2061 Fit      -0.001460
 2062 Fit       0.000512
 2063 Fit       0.000641
 2064 Fit      -0.002101
 2065 Fit      -0.001274
 2066 Fit       0.000529
 2067 Fit       0.001350
 2068 Fit      -0.000852
 2069 Fit      -0.001640
 2070 Fit       0.001297
 2071 Fit       0.001164
 2072 Fit       0.000542
 2073 Fit       0.001702
 2074 Fit      -0.010426
 2075 Fit      -0.010920
 2076 Fit      -0.006327
 2077 Fit      -0.007308
 2078 Fit      -0.009821
 2079 Fit      -0.012387
 2080 Fit      -0.009431
 2081 Fit      -0.000716
 2082 Fit      -0.003163
 2083 Fit      -0.006136
 2084 Fit      -0.010021
 2085 Fit      -0.012494
 2086 Fit      -0.012321
 2087 Fit      -0.006759
 2088 Fit      -0.001637
 2089 Fit      -0.002753
 2090 Fit      -0.007798
 2091 Fit      -0.011104
 2092 Fit      -0.012068
 2093 Fit      -0.010473
 2094 Fit      -0.003841
 2095 Fit       0.001757
 2096 Fit      -0.004937
 2097 Fit      -0.009063
 2098 Fit      -0.011182
 2099 Fit      -0.010909
 2100 Fit      -0.008300
 2101 Fit      -0.001791
 2102 Fit      -0.001927
 2103 Fit      -0.006654
 2104 Fit      -0.009923
 2105 Fit      -0.011154
 2106 Fit      -0.010093
 2107 Fit      -0.006868
 2108 Fit      -0.001558
 2109 Fit       0.001758
 2110 Fit      -0.004231
 2111 Fit      -0.008903
 2112 Fit      -0.011168
 2113 Fit      -0.010601
 2114 Fit      -0.007293
 2115 Fit      -0.003033
 2116 Fit      -0.004893
 2117 Fit      -0.009849
 2118 Fit      -0.010927
 2119 Fit      -0.008431
 2120 Fit      -0.004416
 2121 Fit      -0.008689
 2122 Fit      -0.008583
 2123 Fit      -0.003430
 2124 Fit       0.003319
 2125 Fit      -0.004558
 2126 Fit       0.001493
 2127 Fit       0.009060
 2128 Fit       0.009721
 2129 Fit       0.007738
 2130 Fit       0.005406
 2131 Fit       0.004808
 2132 Fit       0.006693
 2133 Fit       0.005875
 2134 Fit       0.007446
 2135 Fit       0.008405
 2136 Fit       0.002885
 2137 Fit       0.006237
 2138 Fit       0.007766
 2139 Fit       0.008698
 2140 Fit       0.003262
 2141 Fit       0.005872
 2142 Fit       0.007596
 2143 Fit       0.008679
 2144 Fit       0.002227
 2145 Fit       0.005263
 2146 Fit       0.010565
 2147 Fit       0.010924
 2148 Fit       0.009483
 2149 Fit       0.010563
 2150 Fit       0.012339
 2151 Fit       0.007007
 2152 Fit       0.009259
 2153 Fit       0.011657
 2154 Fit       0.005474
 2155 Fit       0.009968
 2156 Fit       0.001956
 2157 Fit       0.001077
 2158 Fit       0.003039
 2159 Fit       0.002627
 2160 Fit       0.002568
 2161 Fit      -0.002534
 2162 Fit       0.004060
 2163 Fit       0.003804
 2164 Fit       0.003408
 2165 Fit       0.005693
 2166 Fit       0.005432
 2167 Fit       0.004418
 2168 Fit       0.007943
 2169 Fit       0.005519
 2170 Fit       0.007249
 2171 Fit       0.010305
 2172 Fit       0.002726
 2173 Fit       0.000485
 2174 Fit       0.003798
 2175 Fit       0.004204
 2176 Fit       0.004744
 2177 Fit       0.004452
 2178 Fit       0.004546
 2179 Fit       0.004871
 2180 Fit       0.005170
 2181 Fit       0.004617
 2182 Fit       0.005999
 2183 Fit       0.001170
 2184 Fit       0.001865
 2185 Fit       0.002633
 2186 Fit       0.001995
 2187 Fit       0.000577
 2188 Fit      -0.001861
 2189 Fit      -0.001048
 2190 Fit       0.002430
 2191 Fit       0.003367
 2192 Fit       0.003226
 2193 Fit      -0.006771
 2194 Fit      -0.000797
 2195 Fit       0.003375
 2196 Fit       0.004126
 2197 Fit       0.000228
 2198 Fit       0.004498
 2199 Fit       0.004717
 2200 Fit       0.004452
 2201 Fit       0.005971
 2202 Fit       0.006195
 2203 Fit       0.006195
 2204 Fit       0.005736
 2205 Fit       0.005014
 2206 Fit       0.007653
 2207 Fit       0.007524
 2208 Fit       0.007403
 2209 Fit       0.006930
 2210 Fit       0.006243
 2211 Fit       0.008871
 2212 Fit       0.008460
 2213 Fit       0.008115
 2214 Fit       0.007828
 2215 Fit       0.009733
 2216 Fit       0.009910
 Job cpu time:       0 days  0 hours 11 minutes  3.4 seconds.
 Normal termination of Gaussian 16 at Sun Jul  9 10:17:24 2023.
