 Copyright (c) 1988-2019, Gaussian, Inc.  All Rights Reserved.
  
 This is part of the Gaussian(R) 16 program.  It is based on
 the Gaussian(R) 09 system (copyright 2009, Gaussian, Inc.),
 the Gaussian(R) 03 system (copyright 2003, Gaussian, Inc.),
 the Gaussian(R) 98 system (copyright 1998, Gaussian, Inc.),
 the Gaussian(R) 94 system (copyright 1995, Gaussian, Inc.),
 the Gaussian 92(TM) system (copyright 1992, Gaussian, Inc.),
 the Gaussian 90(TM) system (copyright 1990, Gaussian, Inc.),
 the Gaussian 88(TM) system (copyright 1988, Gaussian, Inc.),
 the Gaussian 86(TM) system (copyright 1986, Carnegie Mellon
 University), and the Gaussian 82(TM) system (copyright 1983,
 Carnegie Mellon University). Gaussian is a federally registered
 trademark of Gaussian, Inc.
 Cite this work as:
 Gaussian 16, Revision C.01,
 M. J. Frisch, G. W. Trucks, H. B. Schlegel, G. E. Scuseria, 
 M. A. Robb, J. R. Cheeseman, G. Scalmani, V. Barone, 
 G. A. Petersson, H. Nakatsuji, X. Li, M. Caricato, A. V. Marenich, 
 J. Bloino, B. G. Janesko, R. Gomperts, B. Mennucci, H. P. Hratchian, 
 J. V. Ortiz, A. F. Izmaylov, J. L. Sonnenberg, D. Williams-Young, 
 F. Ding, F. Lipparini, F. Egidi, J. Goings, B. Peng, A. Petrone, 
 T. Henderson, D. Ranasinghe, V. G. Zakrzewski, J. Gao, N. Rega, 
 G. Zheng, W. Liang, M. Hada, M. Ehara, K. Toyota, R. Fukuda, 
 J. Hasegawa, M. Ishida, T. Nakajima, Y. Honda, O. Kitao, H. Nakai, 
 T. Vreven, K. Throssell, J. A. Montgomery, Jr., J. E. Peralta, 
 F. Ogliaro, M. J. Bearpark, J. J. Heyd, E. N. Brothers, K. N. Kudin, 
 V. N. Staroverov, T. A. Keith, R. Kobayashi, J. Normand, 
 K. Raghavachari, A. P. Rendell, J. C. Burant, S. S. Iyengar, 
 J. Tomasi, M. Cossi, J. M. Millam, M. Klene, C. Adamo, R. Cammi, 
 J. W. Ochterski, R. L. Martin, K. Morokuma, O. Farkas, 
 J. B. Foresman, and D. J. Fox, Gaussian, Inc., Wallingford CT, 2019.
 
 ******************************************
 Gaussian 16:  EM64L-G16RevC.01  3-Jul-2019
                 9-Jul-2023 
 ******************************************
 ----------------------------------------------------------------------
 #P B3LYP/6-31G(d) Integral=Ultrafine SCF(Conver=8,XQC,MaxConventionalC
 ycles=64,MaxCycle=128) NoSymm Test Pop=mk IOp(6/33=2) GFInput GFPrint
 ----------------------------------------------------------------------
 1/38=1,172=1/1;
 2/12=2,15=1,17=6,18=5,40=1/2;
 3/5=1,6=6,7=1,11=2,24=110,25=1,30=1,74=-5,75=-5/1,2,3;
 4//1;
 5/5=2,6=8,7=128,8=3,13=1,38=5,85=64/2,8;
 6/7=2,8=2,9=2,10=2,15=8,20=1,28=1,33=2/1,2;
 99/5=1,9=1/99;
 -------------------------------------------------
 MEP step - Input generated by PyRED DVE-DMDS-OPLS
 -------------------------------------------------
 Symbolic Z-matrix:
 Charge =  0 Multiplicity = 1
 C                     9.40022  -1.16791   0.51353 
 H                     8.71127  -1.42743  -0.29659 
 H                     10.25986  -0.64846   0.07822 
 H                     9.75113  -2.09364   0.9829 
 C                     8.70636  -0.28247   1.53613 
 H                     7.8542   -0.81879   1.98405 
 H                     9.39597  -0.02502   2.35907 
 O                     8.27877   0.89898   0.87665 
 C                     7.70026   1.87417   1.7216 
 H                     7.73614   2.81639   1.1646 
 H                     8.2956    1.99643   2.64285 
 C                     6.25199   1.59703   2.10916 
 H                     6.15177   0.60437   2.57944 
 H                     5.93658   2.34404   2.85944 
 O                     5.44354   1.67976   0.95277 
 C                     4.07817   1.4123    1.19995 
 H                     3.65543   2.12436   1.92814 
 H                     3.95073   0.39905   1.6171 
 C                     3.34229   1.55061  -0.13335 
 H                     3.77277   0.85308  -0.86749 
 H                     3.48255   2.56733  -0.51343 
 O                     1.94274   1.35675   0. 
 C                     1.52529   0.        0. 
 H                     1.89495  -0.54373   0.8817 
 H                     1.91474  -0.51684  -0.89218 
 C                     0.        0.        0. 
 H                    -0.37698   0.58103  -0.84726 
 H                    -0.36942   0.48145   0.91048 
 S                    -0.72329  -1.68636  -0.00699 
 C                    -0.60945  -2.13484  -1.79075 
 H                     0.38623  -1.89285  -2.17366 
 H                    -0.70592  -3.22464  -1.80748 
 C                    -1.69456  -1.48087  -2.64763 
 H                    -1.60558  -0.39041  -2.61819 
 H                    -2.69105  -1.73534  -2.27214 
 S                    -1.58731  -1.90825  -4.43382 
 C                    -2.20817  -3.64584  -4.41046 
 H                    -3.1703   -3.66177  -3.88691 
 H                    -1.51184  -4.29307  -3.87011 
 C                    -2.36444  -4.14313  -5.84757 
 H                    -3.02763  -3.4875   -6.42045 
 H                    -1.39537  -4.14578  -6.35664 
 S                    -2.96365  -5.87688  -5.95478 
 C                    -4.76201  -5.67992  -5.61118 
 H                    -5.107    -6.70181  -5.42081 
 H                    -4.89119  -5.12508  -4.67545 
 C                    -5.56481  -5.04612  -6.74638 
 H                    -5.23293  -4.02382  -6.95708 
 H                    -5.46754  -5.62885  -7.66751 
 H                    -6.6276   -4.99873  -6.4773 
 
 ITRead=  0  0  0  0  0  0  0  0  0  0  0  0  0  0  0  0  0  0  0  0
 ITRead=  0  0  0  0  0  0  0  0  0  0  0  0  0  0  0  0  0  0  0  0
 ITRead=  0  0  0  0  0  0  0  0  0  0
 MicOpt= -1 -1 -1 -1 -1 -1 -1 -1 -1 -1 -1 -1 -1 -1 -1 -1 -1 -1 -1 -1
 MicOpt= -1 -1 -1 -1 -1 -1 -1 -1 -1 -1 -1 -1 -1 -1 -1 -1 -1 -1 -1 -1
 MicOpt= -1 -1 -1 -1 -1 -1 -1 -1 -1 -1
 NAtoms=     50 NQM=       50 NQMF=       0 NMMI=      0 NMMIF=      0
                NMic=       0 NMicF=      0.
                          Input orientation:                          
 ---------------------------------------------------------------------
 Center     Atomic      Atomic             Coordinates (Angstroms)
 Number     Number       Type             X           Y           Z
 ---------------------------------------------------------------------
      1          6           0        9.400221   -1.167910    0.513528
      2          1           0        8.711269   -1.427432   -0.296593
      3          1           0       10.259864   -0.648455    0.078215
      4          1           0        9.751132   -2.093643    0.982903
      5          6           0        8.706364   -0.282465    1.536132
      6          1           0        7.854202   -0.818788    1.984053
      7          1           0        9.395970   -0.025020    2.359072
      8          8           0        8.278766    0.898981    0.876651
      9          6           0        7.700265    1.874173    1.721596
     10          1           0        7.736137    2.816385    1.164597
     11          1           0        8.295604    1.996433    2.642847
     12          6           0        6.251989    1.597026    2.109157
     13          1           0        6.151772    0.604370    2.579438
     14          1           0        5.936582    2.344037    2.859435
     15          8           0        5.443537    1.679755    0.952765
     16          6           0        4.078170    1.412297    1.199947
     17          1           0        3.655425    2.124356    1.928140
     18          1           0        3.950726    0.399050    1.617100
     19          6           0        3.342287    1.550609   -0.133351
     20          1           0        3.772772    0.853082   -0.867494
     21          1           0        3.482549    2.567326   -0.513434
     22          8           0        1.942742    1.356749    0.000000
     23          6           0        1.525289    0.000000    0.000000
     24          1           0        1.894946   -0.543731    0.881698
     25          1           0        1.914741   -0.516842   -0.892184
     26          6           0        0.000000    0.000000    0.000000
     27          1           0       -0.376983    0.581029   -0.847261
     28          1           0       -0.369415    0.481446    0.910476
     29         16           0       -0.723293   -1.686364   -0.006993
     30          6           0       -0.609446   -2.134845   -1.790747
     31          1           0        0.386234   -1.892850   -2.173663
     32          1           0       -0.705920   -3.224641   -1.807479
     33          6           0       -1.694561   -1.480866   -2.647625
     34          1           0       -1.605582   -0.390406   -2.618187
     35          1           0       -2.691049   -1.735341   -2.272139
     36         16           0       -1.587309   -1.908254   -4.433817
     37          6           0       -2.208169   -3.645837   -4.410461
     38          1           0       -3.170305   -3.661771   -3.886912
     39          1           0       -1.511837   -4.293066   -3.870110
     40          6           0       -2.364442   -4.143132   -5.847567
     41          1           0       -3.027634   -3.487499   -6.420447
     42          1           0       -1.395373   -4.145783   -6.356639
     43         16           0       -2.963654   -5.876880   -5.954780
     44          6           0       -4.762006   -5.679918   -5.611181
     45          1           0       -5.106995   -6.701807   -5.420808
     46          1           0       -4.891186   -5.125083   -4.675446
     47          6           0       -5.564807   -5.046124   -6.746377
     48          1           0       -5.232932   -4.023821   -6.957081
     49          1           0       -5.467541   -5.628849   -7.667508
     50          1           0       -6.627597   -4.998725   -6.477303
 ---------------------------------------------------------------------
 Stoichiometry    C14H30O3S3
 Framework group  C1[X(C14H30O3S3)]
 Standard basis: 6-31G(d) (6D, 7F)
   372 basis functions,   752 primitive gaussians,   372 cartesian basis functions
    93 alpha electrons       93 beta electrons
 Requested convergence on RMS density matrix=1.00D-08 within  64 cycles.
 Requested convergence on MAX density matrix=1.00D-06.
 Requested convergence on             energy=1.00D-06.
 SCF Done:  E(RB3LYP) =  -1971.75516885     A.U. after   13 cycles
            NFock= 13  Conv=0.37D-08     -V/T= 2.0058
 Mulliken charges:
     1  C   -0.451447
     2  H    0.160933
     3  H    0.158543
     4  H    0.140974
     5  C   -0.011995
     6  H    0.120621
     7  H    0.116197
     8  O   -0.458394
     9  C   -0.032452
    10  H    0.156890
    11  H    0.116159
    12  C   -0.022282
    13  H    0.123500
    14  H    0.118028
    15  O   -0.470190
    16  C   -0.023097
    17  H    0.128679
    18  H    0.121103
    19  C   -0.039720
    20  H    0.137574
    21  H    0.157826
    22  O   -0.480874
    23  C   -0.007868
    24  H    0.139171
    25  H    0.128835
    26  C   -0.436826
    27  H    0.181127
    28  H    0.188313
    29  S    0.083921
    30  C   -0.416690
    31  H    0.188161
    32  H    0.183544
    33  C   -0.410862
    34  H    0.182980
    35  H    0.182908
    36  S    0.079475
    37  C   -0.394283
    38  H    0.170797
    39  H    0.184289
    40  C   -0.435085
    41  H    0.188312
    42  H    0.192619
    43  S    0.088488
    44  C   -0.411154
    45  H    0.178659
    46  H    0.169192
    47  C   -0.435927
    48  H    0.155304
    49  H    0.165677
    50  H    0.150347
 Sum of Mulliken charges =  -0.00000
 Dipole moment (field-independent basis, Debye):
    X=             -0.6230    Y=             -0.1535    Z=              2.1300  Tot=              2.2246
 Quadrupole moment (field-independent basis, Debye-Ang):
   XX=           -133.1586   YY=           -153.4815   ZZ=           -150.7687
   XY=              2.7007   XZ=             20.9186   YZ=              0.0400
 Traceless Quadrupole moment (field-independent basis, Debye-Ang):
   XX=             12.6443   YY=             -7.6786   ZZ=             -4.9658
   XY=              2.7007   XZ=             20.9186   YZ=              0.0400
 Octapole moment (field-independent basis, Debye-Ang**2):
  XXX=           -556.6662  YYY=            724.8855  ZZZ=            857.4146  XYY=           -190.1434
  XXY=            122.2766  XXZ=            304.0948  XZZ=           -159.7684  YZZ=            269.7828
  YYZ=            308.1511  XYZ=            -18.9269
 Hexadecapole moment (field-independent basis, Debye-Ang**3):
 XXXX=         -18386.1064 YYYY=          -8384.1262 ZZZZ=         -11260.5362 XXXY=          -3016.7287
 XXXZ=          -2893.7652 YYYX=          -2939.3144 YYYZ=          -4599.8963 ZZZX=          -3949.5512
 ZZZY=          -4528.2940 XXYY=          -4053.7959 XXZZ=          -4418.2695 YYZZ=          -3501.5699
 XXYZ=           -959.9763 YYXZ=          -1202.8993 ZZXY=           -873.1028
 Merz-Kollman atomic radii used.
 Atom Element Radius
    1     6    1.50
    2     1    1.20
    3     1    1.20
    4     1    1.20
    5     6    1.50
    6     1    1.20
    7     1    1.20
    8     8    1.40
    9     6    1.50
   10     1    1.20
   11     1    1.20
   12     6    1.50
   13     1    1.20
   14     1    1.20
   15     8    1.40
   16     6    1.50
   17     1    1.20
   18     1    1.20
   19     6    1.50
   20     1    1.20
   21     1    1.20
   22     8    1.40
   23     6    1.50
   24     1    1.20
   25     1    1.20
   26     6    1.50
   27     1    1.20
   28     1    1.20
   29    16    1.75
   30     6    1.50
   31     1    1.20
   32     1    1.20
   33     6    1.50
   34     1    1.20
   35     1    1.20
   36    16    1.75
   37     6    1.50
   38     1    1.20
   39     1    1.20
   40     6    1.50
   41     1    1.20
   42     1    1.20
   43    16    1.75
   44     6    1.50
   45     1    1.20
   46     1    1.20
   47     6    1.50
   48     1    1.20
   49     1    1.20
   50     1    1.20
 Generate VDW surfaces: Layer= 4 Dens= 1 Start= 1.400 Inc= 0.200
            Electrostatic Properties Using The SCF Density.


       Atomic Center    1 is at   9.400221 -1.167910  0.513528
       Atomic Center    2 is at   8.711269 -1.427432 -0.296593
       Atomic Center    3 is at  10.259864 -0.648455  0.078215
       Atomic Center    4 is at   9.751132 -2.093643  0.982903
       Atomic Center    5 is at   8.706364 -0.282465  1.536132
       Atomic Center    6 is at   7.854202 -0.818788  1.984053
       Atomic Center    7 is at   9.395970 -0.025020  2.359072
       Atomic Center    8 is at   8.278766  0.898981  0.876651
       Atomic Center    9 is at   7.700265  1.874173  1.721596
       Atomic Center   10 is at   7.736137  2.816385  1.164597
       Atomic Center   11 is at   8.295604  1.996433  2.642847
       Atomic Center   12 is at   6.251989  1.597026  2.109157
       Atomic Center   13 is at   6.151772  0.604370  2.579438
       Atomic Center   14 is at   5.936582  2.344037  2.859435
       Atomic Center   15 is at   5.443537  1.679755  0.952765
       Atomic Center   16 is at   4.078170  1.412297  1.199947
       Atomic Center   17 is at   3.655425  2.124356  1.928140
       Atomic Center   18 is at   3.950726  0.399050  1.617100
       Atomic Center   19 is at   3.342287  1.550609 -0.133351
       Atomic Center   20 is at   3.772772  0.853082 -0.867494
       Atomic Center   21 is at   3.482549  2.567326 -0.513434
       Atomic Center   22 is at   1.942742  1.356749  0.000000
       Atomic Center   23 is at   1.525289  0.000000  0.000000
       Atomic Center   24 is at   1.894946 -0.543731  0.881698
       Atomic Center   25 is at   1.914741 -0.516842 -0.892184
       Atomic Center   26 is at   0.000000  0.000000  0.000000
       Atomic Center   27 is at  -0.376983  0.581029 -0.847261
       Atomic Center   28 is at  -0.369415  0.481446  0.910476
       Atomic Center   29 is at  -0.723293 -1.686364 -0.006993
       Atomic Center   30 is at  -0.609446 -2.134845 -1.790747
       Atomic Center   31 is at   0.386234 -1.892850 -2.173663
       Atomic Center   32 is at  -0.705920 -3.224641 -1.807479
       Atomic Center   33 is at  -1.694561 -1.480866 -2.647625
       Atomic Center   34 is at  -1.605582 -0.390406 -2.618187
       Atomic Center   35 is at  -2.691049 -1.735341 -2.272139
       Atomic Center   36 is at  -1.587309 -1.908254 -4.433817
       Atomic Center   37 is at  -2.208169 -3.645837 -4.410461
       Atomic Center   38 is at  -3.170305 -3.661771 -3.886912
       Atomic Center   39 is at  -1.511837 -4.293066 -3.870110
       Atomic Center   40 is at  -2.364442 -4.143132 -5.847567
       Atomic Center   41 is at  -3.027634 -3.487499 -6.420447
       Atomic Center   42 is at  -1.395373 -4.145783 -6.356639
       Atomic Center   43 is at  -2.963654 -5.876880 -5.954780
       Atomic Center   44 is at  -4.762006 -5.679918 -5.611181
       Atomic Center   45 is at  -5.106995 -6.701807 -5.420808
       Atomic Center   46 is at  -4.891186 -5.125083 -4.675446
       Atomic Center   47 is at  -5.564807 -5.046124 -6.746377
       Atomic Center   48 is at  -5.232932 -4.023821 -6.957081
       Atomic Center   49 is at  -5.467541 -5.628849 -7.667508
       Atomic Center   50 is at  -6.627597 -4.998725 -6.477303
      ESP Fit Center   51 is at  11.218874 -1.167910  1.563528
      ESP Fit Center   52 is at  10.930170 -0.184672  1.563528
      ESP Fit Center   53 is at   8.209256 -2.542356  1.563528
      ESP Fit Center   54 is at  10.155717 -2.822215 -0.536472
      ESP Fit Center   55 is at  10.930170 -2.151148 -0.536472
      ESP Fit Center   56 is at   9.925221 -2.077237 -1.305125
      ESP Fit Center   57 is at   7.209852 -1.973903  0.222556
      ESP Fit Center   58 is at   7.912382 -2.811146  0.222556
      ESP Fit Center   59 is at   7.912382 -0.043718 -0.815742
      ESP Fit Center   60 is at   7.209852 -0.880961 -0.815742
      ESP Fit Center   61 is at   7.209852 -1.973903 -0.815742
      ESP Fit Center   62 is at   7.912382 -2.811146 -0.815742
      ESP Fit Center   63 is at   8.988720 -3.000933 -0.815742
      ESP Fit Center   64 is at   9.698748 -1.427432 -1.655742
      ESP Fit Center   65 is at   9.016417 -0.488283 -1.655742
      ESP Fit Center   66 is at   7.912382 -0.847006 -1.655742
      ESP Fit Center   67 is at   7.912382 -2.007858 -1.655742
      ESP Fit Center   68 is at   9.016417 -2.366581 -1.655742
      ESP Fit Center   69 is at   8.711269 -1.427432 -1.976593
      ESP Fit Center   70 is at  11.247343 -0.648455  1.437364
      ESP Fit Center   71 is at  11.857639 -0.648455  0.597364
      ESP Fit Center   72 is at  11.483831  0.378575  0.597364
      ESP Fit Center   73 is at  10.537315  0.925046  0.597364
      ESP Fit Center   74 is at  11.483831 -1.675485  0.597364
      ESP Fit Center   75 is at  11.857639 -0.648455 -0.440934
      ESP Fit Center   76 is at  11.483831  0.378575 -0.440934
      ESP Fit Center   77 is at  10.537315  0.925046 -0.440934
      ESP Fit Center   78 is at  11.483831 -1.675485 -0.440934
      ESP Fit Center   79 is at  11.247343 -0.648455 -1.280934
      ESP Fit Center   80 is at  10.565012  0.290694 -1.280934
      ESP Fit Center   81 is at   9.460977 -0.068029 -1.280934
      ESP Fit Center   82 is at  10.565012 -1.587604 -1.280934
      ESP Fit Center   83 is at  10.259864 -0.648455 -1.601785
      ESP Fit Center   84 is at   9.751132 -2.093643  2.662903
      ESP Fit Center   85 is at  10.738611 -2.093643  2.342052
      ESP Fit Center   86 is at   8.952245 -2.674069  2.342052
      ESP Fit Center   87 is at  10.056280 -3.032792  2.342052
      ESP Fit Center   88 is at  11.348907 -2.093643  1.502052
      ESP Fit Center   89 is at   8.249715 -2.640114  1.502052
      ESP Fit Center   90 is at   8.952245 -3.477357  1.502052
      ESP Fit Center   91 is at  10.028583 -3.667144  1.502052
      ESP Fit Center   92 is at  10.975099 -3.120673  1.502052
      ESP Fit Center   93 is at  11.348907 -2.093643  0.463754
      ESP Fit Center   94 is at   8.952245 -3.477357  0.463754
      ESP Fit Center   95 is at  10.028583 -3.667144  0.463754
      ESP Fit Center   96 is at  10.975099 -3.120673  0.463754
      ESP Fit Center   97 is at  10.056280 -3.032792 -0.376246
      ESP Fit Center   98 is at   6.961379 -0.794839  0.486132
      ESP Fit Center   99 is at   7.854202 -0.818788  3.664053
      ESP Fit Center  100 is at   7.055315 -1.399214  3.343202
      ESP Fit Center  101 is at   8.159350 -1.757937  3.343202
      ESP Fit Center  102 is at   6.352785 -1.365259  2.503202
      ESP Fit Center  103 is at   7.055315 -2.202502  2.503202
      ESP Fit Center  104 is at   8.131653 -2.392289  2.503202
      ESP Fit Center  105 is at   6.352785 -1.365259  1.464904
      ESP Fit Center  106 is at   7.055315 -2.202502  1.464904
      ESP Fit Center  107 is at   7.055315 -1.399214  0.624904
      ESP Fit Center  108 is at   9.395970 -0.025020  4.039072
      ESP Fit Center  109 is at  10.383449 -0.025020  3.718221
      ESP Fit Center  110 is at   9.701118  0.914129  3.718221
      ESP Fit Center  111 is at   8.597083  0.555406  3.718221
      ESP Fit Center  112 is at   8.597083 -0.605446  3.718221
      ESP Fit Center  113 is at   9.701118 -0.964169  3.718221
      ESP Fit Center  114 is at  10.993745 -0.025020  2.878221
      ESP Fit Center  115 is at  10.619937  1.002010  2.878221
      ESP Fit Center  116 is at   9.673421 -1.598521  2.878221
      ESP Fit Center  117 is at  10.619937 -1.052050  2.878221
      ESP Fit Center  118 is at  10.993745 -0.025020  1.839923
      ESP Fit Center  119 is at  10.619937  1.002010  1.839923
      ESP Fit Center  120 is at   9.976176  1.878981  0.876651
      ESP Fit Center  121 is at   6.581356 -0.081019  0.876651
      ESP Fit Center  122 is at   9.651999  1.896693 -0.103349
      ESP Fit Center  123 is at   8.803294  2.513314 -0.103349
      ESP Fit Center  124 is at   6.905533 -0.098731 -0.103349
      ESP Fit Center  125 is at   9.258766  0.898981 -0.820759
      ESP Fit Center  126 is at   8.768766  1.747686 -0.820759
      ESP Fit Center  127 is at   7.788766  1.747686 -0.820759
      ESP Fit Center  128 is at   7.298766  0.898981 -0.820759
      ESP Fit Center  129 is at   7.788766  0.050276 -0.820759
      ESP Fit Center  130 is at   8.278766  0.898981 -1.083349
      ESP Fit Center  131 is at   7.441444  3.674315  2.771596
      ESP Fit Center  132 is at   9.800265  1.874173  1.721596
      ESP Fit Center  133 is at   9.559723  2.850092  1.721596
      ESP Fit Center  134 is at   8.960104  3.843415  1.683746
      ESP Fit Center  135 is at   8.013588  4.389886  1.683746
      ESP Fit Center  136 is at   6.937250  4.200099  1.683746
      ESP Fit Center  137 is at   9.333912  2.816385  0.645448
      ESP Fit Center  138 is at   8.960104  3.843415  0.645448
      ESP Fit Center  139 is at   8.013588  4.389886  0.645448
      ESP Fit Center  140 is at   6.937250  4.200099  0.645448
      ESP Fit Center  141 is at   8.723616  2.816385 -0.194552
      ESP Fit Center  142 is at   8.041285  3.755534 -0.194552
      ESP Fit Center  143 is at   6.937250  3.396811 -0.194552
      ESP Fit Center  144 is at   7.736137  2.816385 -0.515403
      ESP Fit Center  145 is at   8.295604  1.996433  4.322847
      ESP Fit Center  146 is at   9.283083  1.996433  4.001996
      ESP Fit Center  147 is at   8.600752  2.935582  4.001996
      ESP Fit Center  148 is at   7.496717  2.576859  4.001996
      ESP Fit Center  149 is at   7.496717  1.416007  4.001996
      ESP Fit Center  150 is at   8.600752  1.057284  4.001996
      ESP Fit Center  151 is at   9.893379  1.996433  3.161996
      ESP Fit Center  152 is at   9.519571  3.023463  3.161996
      ESP Fit Center  153 is at   8.573055  3.569934  3.161996
      ESP Fit Center  154 is at   9.893379  1.996433  2.123698
      ESP Fit Center  155 is at   9.519571  3.023463  2.123698
      ESP Fit Center  156 is at   5.993168 -0.203116  1.059157
      ESP Fit Center  157 is at   6.151772  0.604370  4.259438
      ESP Fit Center  158 is at   7.139251  0.604370  3.938587
      ESP Fit Center  159 is at   5.352885  0.023944  3.938587
      ESP Fit Center  160 is at   6.456920 -0.334779  3.938587
      ESP Fit Center  161 is at   5.352885 -0.779344  3.098587
      ESP Fit Center  162 is at   6.429223 -0.969131  3.098587
      ESP Fit Center  163 is at   5.352885 -0.779344  2.060289
      ESP Fit Center  164 is at   5.936582  2.344037  4.539435
      ESP Fit Center  165 is at   6.924061  2.344037  4.218584
      ESP Fit Center  166 is at   6.241730  3.283186  4.218584
      ESP Fit Center  167 is at   5.137695  2.924463  4.218584
      ESP Fit Center  168 is at   5.137695  1.763611  4.218584
      ESP Fit Center  169 is at   6.241730  1.404888  4.218584
      ESP Fit Center  170 is at   7.160549  3.371067  3.378584
      ESP Fit Center  171 is at   6.214033  3.917538  3.378584
      ESP Fit Center  172 is at   5.137695  3.727751  3.378584
      ESP Fit Center  173 is at   4.435165  2.890508  3.378584
      ESP Fit Center  174 is at   6.214033  3.917538  2.340286
      ESP Fit Center  175 is at   5.137695  3.727751  2.340286
      ESP Fit Center  176 is at   5.443537  3.639755  0.952765
      ESP Fit Center  177 is at   5.443537 -0.280245  0.952765
      ESP Fit Center  178 is at   5.968065  3.294088 -0.027235
      ESP Fit Center  179 is at   4.919009  3.294088 -0.027235
      ESP Fit Center  180 is at   5.968065  0.065422 -0.027235
      ESP Fit Center  181 is at   6.423537  1.679755 -0.744645
      ESP Fit Center  182 is at   5.933537  2.528460 -0.744645
      ESP Fit Center  183 is at   5.933537  0.831050 -0.744645
      ESP Fit Center  184 is at   5.443537  1.679755 -1.007235
      ESP Fit Center  185 is at   2.333185  0.899923  2.249947
      ESP Fit Center  186 is at   4.331297  3.496986  1.199947
      ESP Fit Center  187 is at   4.833666 -0.242008  0.149947
      ESP Fit Center  188 is at   3.655425  2.124356  3.608140
      ESP Fit Center  189 is at   3.960573  3.063505  3.287289
      ESP Fit Center  190 is at   2.856538  2.704782  3.287289
      ESP Fit Center  191 is at   2.856538  1.543930  3.287289
      ESP Fit Center  192 is at   3.960573  1.185207  3.287289
      ESP Fit Center  193 is at   3.932876  3.697857  2.447289
      ESP Fit Center  194 is at   2.856538  3.508070  2.447289
      ESP Fit Center  195 is at   2.154008  2.670827  2.447289
      ESP Fit Center  196 is at   2.154008  1.577885  2.447289
      ESP Fit Center  197 is at   3.932876  3.697857  1.408991
      ESP Fit Center  198 is at   2.856538  3.508070  1.408991
      ESP Fit Center  199 is at   3.950726  0.399050  3.297100
      ESP Fit Center  200 is at   3.151839 -0.181376  2.976249
      ESP Fit Center  201 is at   4.255874 -0.540099  2.976249
      ESP Fit Center  202 is at   3.151839 -0.984664  2.136249
      ESP Fit Center  203 is at   4.228177 -1.174451  2.136249
      ESP Fit Center  204 is at   4.228177 -1.174451  1.097951
      ESP Fit Center  205 is at   5.174693 -0.627980  1.097951
      ESP Fit Center  206 is at   4.255874 -0.540099  0.257951
      ESP Fit Center  207 is at   2.292287  1.550609 -1.952004
      ESP Fit Center  208 is at   4.050223 -0.720419 -0.348345
      ESP Fit Center  209 is at   4.996739 -0.173948 -0.348345
      ESP Fit Center  210 is at   5.370547  0.853082 -1.386643
      ESP Fit Center  211 is at   4.996739  1.880112 -1.386643
      ESP Fit Center  212 is at   4.050223 -0.720419 -1.386643
      ESP Fit Center  213 is at   4.996739 -0.173948 -1.386643
      ESP Fit Center  214 is at   4.760251  0.853082 -2.226643
      ESP Fit Center  215 is at   4.077920  1.792231 -2.226643
      ESP Fit Center  216 is at   2.973885  1.433508 -2.226643
      ESP Fit Center  217 is at   2.973885  0.272656 -2.226643
      ESP Fit Center  218 is at   4.077920 -0.086067 -2.226643
      ESP Fit Center  219 is at   3.772772  0.853082 -2.547494
      ESP Fit Center  220 is at   3.787697  3.506475  0.845715
      ESP Fit Center  221 is at   4.706516  3.594356  0.005715
      ESP Fit Center  222 is at   3.760000  4.140827  0.005715
      ESP Fit Center  223 is at   2.683662  3.951040  0.005715
      ESP Fit Center  224 is at   5.080324  2.567326 -1.032583
      ESP Fit Center  225 is at   4.706516  3.594356 -1.032583
      ESP Fit Center  226 is at   3.760000  4.140827 -1.032583
      ESP Fit Center  227 is at   2.683662  3.951040 -1.032583
      ESP Fit Center  228 is at   1.981132  3.113797 -1.032583
      ESP Fit Center  229 is at   4.470028  2.567326 -1.872583
      ESP Fit Center  230 is at   3.787697  3.506475 -1.872583
      ESP Fit Center  231 is at   2.683662  3.147752 -1.872583
      ESP Fit Center  232 is at   3.482549  2.567326 -2.193434
      ESP Fit Center  233 is at   1.942742  1.356749  1.960000
      ESP Fit Center  234 is at   1.452742  2.205454  1.697410
      ESP Fit Center  235 is at   0.962742  1.356749  1.697410
      ESP Fit Center  236 is at   1.418214  2.971082  0.980000
      ESP Fit Center  237 is at   0.569509  2.354461  0.980000
      ESP Fit Center  238 is at   1.942742  3.316749  0.000000
      ESP Fit Center  239 is at   0.962742  3.054159  0.000000
      ESP Fit Center  240 is at   0.245332  2.336749  0.000000
      ESP Fit Center  241 is at   1.418214  2.971082 -0.980000
      ESP Fit Center  242 is at   0.569509  2.354461 -0.980000
      ESP Fit Center  243 is at   1.452742  2.205454 -1.697410
      ESP Fit Center  244 is at   0.962742  1.356749 -1.697410
      ESP Fit Center  245 is at   1.942742  1.356749 -1.960000
      ESP Fit Center  246 is at   1.000289  0.909327  1.818653
      ESP Fit Center  247 is at   1.778416 -2.084689  0.000000
      ESP Fit Center  248 is at   2.718225 -1.728266  0.000000
      ESP Fit Center  249 is at   3.384747 -0.975919  0.000000
      ESP Fit Center  250 is at   1.000289  0.909327 -1.818653
      ESP Fit Center  251 is at   1.894946 -0.543731  2.561698
      ESP Fit Center  252 is at   2.200094  0.395418  2.240847
      ESP Fit Center  253 is at   1.096059  0.036695  2.240847
      ESP Fit Center  254 is at   1.096059 -1.124157  2.240847
      ESP Fit Center  255 is at   2.200094 -1.482880  2.240847
      ESP Fit Center  256 is at   2.172397 -2.117232  1.400847
      ESP Fit Center  257 is at   3.118913 -1.570761  1.400847
      ESP Fit Center  258 is at   2.172397 -2.117232  0.362549
      ESP Fit Center  259 is at   3.118913 -1.570761  0.362549
      ESP Fit Center  260 is at   2.192192 -2.090343 -0.373035
      ESP Fit Center  261 is at   3.138708 -1.543872 -0.373035
      ESP Fit Center  262 is at   2.192192 -2.090343 -1.411333
      ESP Fit Center  263 is at   3.138708 -1.543872 -1.411333
      ESP Fit Center  264 is at   2.902220 -0.516842 -2.251333
      ESP Fit Center  265 is at   2.219889  0.422307 -2.251333
      ESP Fit Center  266 is at   1.115854  0.063584 -2.251333
      ESP Fit Center  267 is at   2.219889 -1.455991 -2.251333
      ESP Fit Center  268 is at   1.914741 -0.516842 -2.572184
      ESP Fit Center  269 is at  -2.038978  0.502563  0.000000
      ESP Fit Center  270 is at  -0.099532  2.154530 -0.328112
      ESP Fit Center  271 is at  -1.175870  1.964743 -0.328112
      ESP Fit Center  272 is at  -1.878400  1.127500 -0.328112
      ESP Fit Center  273 is at  -0.099532  2.154530 -1.366410
      ESP Fit Center  274 is at  -1.175870  1.964743 -1.366410
      ESP Fit Center  275 is at  -1.878400  1.127500 -1.366410
      ESP Fit Center  276 is at   0.610496  0.581029 -2.206410
      ESP Fit Center  277 is at  -0.071835  1.520178 -2.206410
      ESP Fit Center  278 is at  -0.369415  0.481446  2.590476
      ESP Fit Center  279 is at   0.618064  0.481446  2.269625
      ESP Fit Center  280 is at  -0.064267  1.420595  2.269625
      ESP Fit Center  281 is at  -1.168302  1.061872  2.269625
      ESP Fit Center  282 is at  -1.168302 -0.098980  2.269625
      ESP Fit Center  283 is at  -0.064267 -0.457703  2.269625
      ESP Fit Center  284 is at  -0.091964  2.054947  1.429625
      ESP Fit Center  285 is at  -1.168302  1.865160  1.429625
      ESP Fit Center  286 is at  -1.870832  1.027917  1.429625
      ESP Fit Center  287 is at  -1.870832 -0.065025  1.429625
      ESP Fit Center  288 is at  -1.168302  1.865160  0.391327
      ESP Fit Center  289 is at  -1.870832  1.027917  0.391327
      ESP Fit Center  290 is at  -0.723293 -1.686364  2.443007
      ESP Fit Center  291 is at   0.339722 -1.686364  2.200381
      ESP Fit Center  292 is at  -0.191785 -0.765766  2.200381
      ESP Fit Center  293 is at  -1.254801 -0.765766  2.200381
      ESP Fit Center  294 is at  -1.786308 -1.686364  2.200381
      ESP Fit Center  295 is at  -1.254801 -2.606962  2.200381
      ESP Fit Center  296 is at  -0.191785 -2.606962  2.200381
      ESP Fit Center  297 is at  -1.977670 -0.238735  1.520557
      ESP Fit Center  298 is at  -2.561189 -1.146709  1.520557
      ESP Fit Center  299 is at  -2.561189 -2.226019  1.520557
      ESP Fit Center  300 is at  -1.977670 -3.133993  1.520557
      ESP Fit Center  301 is at  -0.995895 -3.582354  1.520557
      ESP Fit Center  302 is at   0.072429 -3.428752  1.520557
      ESP Fit Center  303 is at   0.888117 -2.721955  1.520557
      ESP Fit Center  304 is at  -2.212544  0.181098  0.538183
      ESP Fit Center  305 is at  -2.875323 -0.650001  0.538183
      ESP Fit Center  306 is at  -3.111866 -1.686364  0.538183
      ESP Fit Center  307 is at  -2.875323 -2.722727  0.538183
      ESP Fit Center  308 is at  -2.212544 -3.553826  0.538183
      ESP Fit Center  309 is at  -1.254801 -4.015051  0.538183
      ESP Fit Center  310 is at  -0.191785 -4.015051  0.538183
      ESP Fit Center  311 is at   0.765958 -3.553826  0.538183
      ESP Fit Center  312 is at   1.428737 -2.722727  0.538183
      ESP Fit Center  313 is at  -2.212544  0.181098 -0.552169
      ESP Fit Center  314 is at  -2.875323 -0.650001 -0.552169
      ESP Fit Center  315 is at  -3.111866 -1.686364 -0.552169
      ESP Fit Center  316 is at  -2.875323 -2.722727 -0.552169
      ESP Fit Center  317 is at  -2.212544 -3.553826 -0.552169
      ESP Fit Center  318 is at   0.765958 -3.553826 -0.552169
      ESP Fit Center  319 is at   1.428737 -2.722727 -0.552169
      ESP Fit Center  320 is at   1.610201 -2.919880 -1.654514
      ESP Fit Center  321 is at   1.984009 -1.892850 -2.692812
      ESP Fit Center  322 is at   1.610201 -0.865820 -2.692812
      ESP Fit Center  323 is at   0.663685 -0.319349 -2.692812
      ESP Fit Center  324 is at   1.610201 -2.919880 -2.692812
      ESP Fit Center  325 is at   1.373713 -1.892850 -3.532812
      ESP Fit Center  326 is at   0.691382 -0.953701 -3.532812
      ESP Fit Center  327 is at   0.691382 -2.831999 -3.532812
      ESP Fit Center  328 is at  -0.400772 -4.163790 -0.448330
      ESP Fit Center  329 is at  -2.207337 -3.771112 -1.288330
      ESP Fit Center  330 is at  -1.504807 -4.608355 -1.288330
      ESP Fit Center  331 is at  -0.428469 -4.798142 -1.288330
      ESP Fit Center  332 is at   0.518047 -4.251671 -1.288330
      ESP Fit Center  333 is at  -0.428469 -4.798142 -2.326628
      ESP Fit Center  334 is at   0.518047 -4.251671 -2.326628
      ESP Fit Center  335 is at  -3.266434 -0.088308 -2.647625
      ESP Fit Center  336 is at  -2.404469  0.190020 -1.259038
      ESP Fit Center  337 is at  -1.328131  1.183095 -2.099038
      ESP Fit Center  338 is at  -2.404469  0.993308 -2.099038
      ESP Fit Center  339 is at  -3.106999  0.156065 -2.099038
      ESP Fit Center  340 is at  -0.381615  0.636624 -3.137336
      ESP Fit Center  341 is at  -1.328131  1.183095 -3.137336
      ESP Fit Center  342 is at  -2.404469  0.993308 -3.137336
      ESP Fit Center  343 is at  -3.106999  0.156065 -3.137336
      ESP Fit Center  344 is at  -1.300434  0.548743 -3.977336
      ESP Fit Center  345 is at  -3.489936 -1.154915 -0.912990
      ESP Fit Center  346 is at  -3.489936 -2.315767 -0.912990
      ESP Fit Center  347 is at  -3.489936 -0.351627 -1.752990
      ESP Fit Center  348 is at  -4.192466 -1.188870 -1.752990
      ESP Fit Center  349 is at  -4.192466 -2.281812 -1.752990
      ESP Fit Center  350 is at  -3.489936 -3.119055 -1.752990
      ESP Fit Center  351 is at  -2.413598 -3.308842 -1.752990
      ESP Fit Center  352 is at  -3.489936 -0.351627 -2.791288
      ESP Fit Center  353 is at  -4.192466 -1.188870 -2.791288
      ESP Fit Center  354 is at  -4.192466 -2.281812 -2.791288
      ESP Fit Center  355 is at   0.801264 -1.908254 -3.888641
      ESP Fit Center  356 is at   0.564721 -0.871891 -3.888641
      ESP Fit Center  357 is at  -0.098058 -0.040792 -3.888641
      ESP Fit Center  358 is at  -3.076560 -0.040792 -3.888641
      ESP Fit Center  359 is at  -3.739339 -0.871891 -3.888641
      ESP Fit Center  360 is at  -3.975882 -1.908254 -3.888641
      ESP Fit Center  361 is at   0.564721 -2.944617 -3.888641
      ESP Fit Center  362 is at   0.801264 -1.908254 -4.978993
      ESP Fit Center  363 is at   0.564721 -0.871891 -4.978993
      ESP Fit Center  364 is at  -0.098058 -0.040792 -4.978993
      ESP Fit Center  365 is at  -1.055801  0.420433 -4.978993
      ESP Fit Center  366 is at  -2.118817  0.420433 -4.978993
      ESP Fit Center  367 is at  -3.076560 -0.040792 -4.978993
      ESP Fit Center  368 is at  -3.739339 -0.871891 -4.978993
      ESP Fit Center  369 is at  -3.975882 -1.908254 -4.978993
      ESP Fit Center  370 is at  -0.098058 -3.775716 -4.978993
      ESP Fit Center  371 is at   0.564721 -2.944617 -4.978993
      ESP Fit Center  372 is at   0.328178 -1.908254 -5.961367
      ESP Fit Center  373 is at   0.024101 -0.872663 -5.961367
      ESP Fit Center  374 is at  -0.791587 -0.165866 -5.961367
      ESP Fit Center  375 is at  -1.859911 -0.012264 -5.961367
      ESP Fit Center  376 is at  -2.841686 -0.460625 -5.961367
      ESP Fit Center  377 is at  -3.425205 -1.368599 -5.961367
      ESP Fit Center  378 is at   0.024101 -2.943845 -5.961367
      ESP Fit Center  379 is at  -0.524294 -1.908254 -6.641191
      ESP Fit Center  380 is at  -1.055801 -0.987656 -6.641191
      ESP Fit Center  381 is at  -2.118817 -0.987656 -6.641191
      ESP Fit Center  382 is at  -1.587309 -1.908254 -6.883817
      ESP Fit Center  383 is at  -3.170305 -3.661771 -2.206912
      ESP Fit Center  384 is at  -3.969192 -3.081345 -2.527763
      ESP Fit Center  385 is at  -3.969192 -4.242197 -2.527763
      ESP Fit Center  386 is at  -2.865157 -4.600920 -2.527763
      ESP Fit Center  387 is at  -3.969192 -2.278057 -3.367763
      ESP Fit Center  388 is at  -4.671722 -3.115300 -3.367763
      ESP Fit Center  389 is at  -4.671722 -3.115300 -4.406061
      ESP Fit Center  390 is at  -2.310724 -4.873492 -2.510961
      ESP Fit Center  391 is at  -1.206689 -5.232215 -2.510961
      ESP Fit Center  392 is at   0.085938 -4.293066 -3.350961
      ESP Fit Center  393 is at  -2.310724 -5.676780 -3.350961
      ESP Fit Center  394 is at  -1.234386 -5.866567 -3.350961
      ESP Fit Center  395 is at  -0.287870 -5.320096 -3.350961
      ESP Fit Center  396 is at   0.085938 -4.293066 -4.389259
      ESP Fit Center  397 is at  -0.287870 -5.320096 -4.389259
      ESP Fit Center  398 is at  -1.608946 -2.488827 -6.897567
      ESP Fit Center  399 is at  -2.364442 -4.143132 -7.947567
      ESP Fit Center  400 is at  -3.826521 -2.103785 -5.901298
      ESP Fit Center  401 is at  -2.750183 -1.913998 -6.939596
      ESP Fit Center  402 is at  -3.826521 -2.103785 -6.939596
      ESP Fit Center  403 is at  -2.722486 -2.548350 -7.779596
      ESP Fit Center  404 is at  -3.826521 -2.907073 -7.779596
      ESP Fit Center  405 is at  -3.027634 -3.487499 -8.100447
      ESP Fit Center  406 is at   0.202402 -4.145783 -5.837490
      ESP Fit Center  407 is at  -0.171406 -5.172813 -5.837490
      ESP Fit Center  408 is at   0.202402 -4.145783 -6.875788
      ESP Fit Center  409 is at  -0.171406 -3.118753 -6.875788
      ESP Fit Center  410 is at  -1.117922 -2.572282 -6.875788
      ESP Fit Center  411 is at  -0.171406 -5.172813 -6.875788
      ESP Fit Center  412 is at  -0.407894 -4.145783 -7.715788
      ESP Fit Center  413 is at  -1.090225 -3.206634 -7.715788
      ESP Fit Center  414 is at  -1.090225 -5.084932 -7.715788
      ESP Fit Center  415 is at  -1.395373 -4.145783 -8.036639
      ESP Fit Center  416 is at  -2.963654 -5.876880 -3.504780
      ESP Fit Center  417 is at  -3.495162 -6.797478 -3.747406
      ESP Fit Center  418 is at  -2.432146 -6.797478 -3.747406
      ESP Fit Center  419 is at  -1.048167 -5.876880 -4.427230
      ESP Fit Center  420 is at  -3.236256 -7.772870 -4.427230
      ESP Fit Center  421 is at  -2.167932 -7.619268 -4.427230
      ESP Fit Center  422 is at  -1.352244 -6.912471 -4.427230
      ESP Fit Center  423 is at  -0.575081 -5.876880 -5.409604
      ESP Fit Center  424 is at  -3.495162 -8.205567 -5.409604
      ESP Fit Center  425 is at  -2.432146 -8.205567 -5.409604
      ESP Fit Center  426 is at  -1.474403 -7.744342 -5.409604
      ESP Fit Center  427 is at  -0.811624 -6.913243 -5.409604
      ESP Fit Center  428 is at  -0.575081 -5.876880 -6.499956
      ESP Fit Center  429 is at  -3.495162 -8.205567 -6.499956
      ESP Fit Center  430 is at  -2.432146 -8.205567 -6.499956
      ESP Fit Center  431 is at  -1.474403 -7.744342 -6.499956
      ESP Fit Center  432 is at  -0.811624 -6.913243 -6.499956
      ESP Fit Center  433 is at  -1.048167 -5.876880 -7.482330
      ESP Fit Center  434 is at  -4.218031 -7.324509 -7.482330
      ESP Fit Center  435 is at  -3.236256 -7.772870 -7.482330
      ESP Fit Center  436 is at  -2.167932 -7.619268 -7.482330
      ESP Fit Center  437 is at  -1.352244 -6.912471 -7.482330
      ESP Fit Center  438 is at  -1.900639 -5.876880 -8.162154
      ESP Fit Center  439 is at  -2.432146 -4.956282 -8.162154
      ESP Fit Center  440 is at  -3.495162 -4.956282 -8.162154
      ESP Fit Center  441 is at  -3.495162 -6.797478 -8.162154
      ESP Fit Center  442 is at  -2.432146 -6.797478 -8.162154
      ESP Fit Center  443 is at  -2.963654 -5.876880 -8.404780
      ESP Fit Center  444 is at  -4.237006 -6.589245 -3.792528
      ESP Fit Center  445 is at  -6.506991 -6.192292 -4.561181
      ESP Fit Center  446 is at  -5.106995 -6.701807 -3.740808
      ESP Fit Center  447 is at  -5.905882 -7.282233 -4.061659
      ESP Fit Center  448 is at  -4.801847 -7.640956 -4.061659
      ESP Fit Center  449 is at  -6.608412 -7.248278 -4.901659
      ESP Fit Center  450 is at  -5.905882 -8.085521 -4.901659
      ESP Fit Center  451 is at  -4.829544 -8.275308 -4.901659
      ESP Fit Center  452 is at  -6.608412 -7.248278 -5.939957
      ESP Fit Center  453 is at  -5.905882 -8.085521 -5.939957
      ESP Fit Center  454 is at  -4.829544 -8.275308 -5.939957
      ESP Fit Center  455 is at  -5.905882 -7.282233 -6.779957
      ESP Fit Center  456 is at  -4.801847 -7.640956 -6.779957
      ESP Fit Center  457 is at  -4.891186 -5.125083 -2.995446
      ESP Fit Center  458 is at  -3.903707 -5.125083 -3.316297
      ESP Fit Center  459 is at  -5.690073 -4.544657 -3.316297
      ESP Fit Center  460 is at  -5.690073 -5.705509 -3.316297
      ESP Fit Center  461 is at  -4.586038 -6.064232 -3.316297
      ESP Fit Center  462 is at  -5.690073 -3.741369 -4.156297
      ESP Fit Center  463 is at  -6.392603 -4.578612 -4.156297
      ESP Fit Center  464 is at  -6.392603 -5.671554 -4.156297
      ESP Fit Center  465 is at  -4.613735 -3.551582 -5.194595
      ESP Fit Center  466 is at  -6.309477 -7.009658 -6.746377
      ESP Fit Center  467 is at  -6.755772 -3.671678 -7.796377
      ESP Fit Center  468 is at  -6.089807 -4.136797 -8.565030
      ESP Fit Center  469 is at  -4.927784 -3.084672 -5.597932
      ESP Fit Center  470 is at  -4.955481 -2.450320 -6.437932
      ESP Fit Center  471 is at  -6.031819 -2.640107 -6.437932
      ESP Fit Center  472 is at  -4.955481 -2.450320 -7.476230
      ESP Fit Center  473 is at  -6.031819 -2.640107 -7.476230
      ESP Fit Center  474 is at  -4.245453 -4.023821 -8.316230
      ESP Fit Center  475 is at  -4.927784 -3.084672 -8.316230
      ESP Fit Center  476 is at  -6.031819 -3.443395 -8.316230
      ESP Fit Center  477 is at  -5.232932 -4.023821 -8.637081
      ESP Fit Center  478 is at  -6.266428 -7.012563 -7.148359
      ESP Fit Center  479 is at  -5.190090 -7.202350 -7.148359
      ESP Fit Center  480 is at  -6.968958 -6.175320 -8.186657
      ESP Fit Center  481 is at  -6.266428 -7.012563 -8.186657
      ESP Fit Center  482 is at  -5.190090 -7.202350 -8.186657
      ESP Fit Center  483 is at  -4.243574 -6.655879 -8.186657
      ESP Fit Center  484 is at  -4.480062 -5.628849 -9.026657
      ESP Fit Center  485 is at  -5.162393 -4.689700 -9.026657
      ESP Fit Center  486 is at  -6.266428 -5.048423 -9.026657
      ESP Fit Center  487 is at  -6.266428 -6.209275 -9.026657
      ESP Fit Center  488 is at  -5.162393 -6.567998 -9.026657
      ESP Fit Center  489 is at  -5.467541 -5.628849 -9.347508
      ESP Fit Center  490 is at  -6.627597 -4.998725 -4.797303
      ESP Fit Center  491 is at  -7.426484 -4.418299 -5.118154
      ESP Fit Center  492 is at  -7.426484 -5.579151 -5.118154
      ESP Fit Center  493 is at  -7.426484 -3.615011 -5.958154
      ESP Fit Center  494 is at  -8.129014 -4.452254 -5.958154
      ESP Fit Center  495 is at  -8.129014 -5.545196 -5.958154
      ESP Fit Center  496 is at  -7.426484 -6.382439 -5.958154
      ESP Fit Center  497 is at  -7.426484 -3.615011 -6.996452
      ESP Fit Center  498 is at  -8.129014 -4.452254 -6.996452
      ESP Fit Center  499 is at  -8.129014 -5.545196 -6.996452
      ESP Fit Center  500 is at  -7.426484 -6.382439 -6.996452
      ESP Fit Center  501 is at  -7.426484 -4.418299 -7.836452
      ESP Fit Center  502 is at  -7.426484 -5.579151 -7.836452
      ESP Fit Center  503 is at  11.276617 -1.167910  2.009904
      ESP Fit Center  504 is at   7.941363 -2.997260  1.047578
      ESP Fit Center  505 is at  11.508332 -2.183123 -0.020522
      ESP Fit Center  506 is at  10.179704 -2.874739 -0.982848
      ESP Fit Center  507 is at  10.978745 -2.182366 -0.982848
      ESP Fit Center  508 is at   9.920881 -2.069720 -1.648797
      ESP Fit Center  509 is at   6.791269 -1.427432 -0.296593
      ESP Fit Center  510 is at   7.048500 -2.387432 -0.296593
      ESP Fit Center  511 is at   7.751269 -3.090201 -0.296593
      ESP Fit Center  512 is at   8.711269 -3.347432 -0.296593
      ESP Fit Center  513 is at   8.197445  0.153955 -1.256593
      ESP Fit Center  514 is at   7.366061 -0.450081 -1.256593
      ESP Fit Center  515 is at   7.048500 -1.427432 -1.256593
      ESP Fit Center  516 is at   7.366061 -2.404783 -1.256593
      ESP Fit Center  517 is at   8.197445 -3.008819 -1.256593
      ESP Fit Center  518 is at   9.225093 -3.008819 -1.256593
      ESP Fit Center  519 is at   9.671269 -1.427432 -1.959362
      ESP Fit Center  520 is at   9.191269 -0.596048 -1.959362
      ESP Fit Center  521 is at   8.231269 -0.596048 -1.959362
      ESP Fit Center  522 is at   7.751269 -1.427432 -1.959362
      ESP Fit Center  523 is at   8.231269 -2.258816 -1.959362
      ESP Fit Center  524 is at   9.191269 -2.258816 -1.959362
      ESP Fit Center  525 is at   8.711269 -1.427432 -2.216593
      ESP Fit Center  526 is at  11.922633 -0.648455  1.038215
      ESP Fit Center  527 is at  11.605072  0.328896  1.038215
      ESP Fit Center  528 is at  10.773688  0.932932  1.038215
      ESP Fit Center  529 is at  12.179864 -0.648455  0.078215
      ESP Fit Center  530 is at  11.922633  0.311545  0.078215
      ESP Fit Center  531 is at  11.219864  1.014314  0.078215
      ESP Fit Center  532 is at  11.922633 -1.608455  0.078215
      ESP Fit Center  533 is at  11.922633 -0.648455 -0.881785
      ESP Fit Center  534 is at  11.605072  0.328896 -0.881785
      ESP Fit Center  535 is at  10.773688  0.932932 -0.881785
      ESP Fit Center  536 is at   9.746040  0.932932 -0.881785
      ESP Fit Center  537 is at  11.605072 -1.625806 -0.881785
      ESP Fit Center  538 is at  11.219864 -0.648455 -1.584554
      ESP Fit Center  539 is at  10.739864  0.182929 -1.584554
      ESP Fit Center  540 is at   9.779864  0.182929 -1.584554
      ESP Fit Center  541 is at  10.739864 -1.479839 -1.584554
      ESP Fit Center  542 is at  10.259864 -0.648455 -1.841785
      ESP Fit Center  543 is at   9.751132 -2.093643  2.902903
      ESP Fit Center  544 is at  10.711132 -2.093643  2.645672
      ESP Fit Center  545 is at   9.271132 -2.925027  2.645672
      ESP Fit Center  546 is at  10.231132 -2.925027  2.645672
      ESP Fit Center  547 is at  11.413901 -2.093643  1.942903
      ESP Fit Center  548 is at   8.405924 -3.070994  1.942903
      ESP Fit Center  549 is at   9.237308 -3.675030  1.942903
      ESP Fit Center  550 is at  10.264956 -3.675030  1.942903
      ESP Fit Center  551 is at  11.096340 -3.070994  1.942903
      ESP Fit Center  552 is at  11.671132 -2.093643  0.982903
      ESP Fit Center  553 is at   8.791132 -3.756412  0.982903
      ESP Fit Center  554 is at   9.751132 -4.013643  0.982903
      ESP Fit Center  555 is at  10.711132 -3.756412  0.982903
      ESP Fit Center  556 is at  11.413901 -3.053643  0.982903
      ESP Fit Center  557 is at   9.237308 -3.675030  0.022903
      ESP Fit Center  558 is at  10.264956 -3.675030  0.022903
      ESP Fit Center  559 is at  11.096340 -3.070994  0.022903
      ESP Fit Center  560 is at   9.485847 -1.989294  3.032508
      ESP Fit Center  561 is at   6.905976 -0.811107  0.039756
      ESP Fit Center  562 is at   7.854202 -0.818788  3.904053
      ESP Fit Center  563 is at   6.894202 -0.818788  3.646822
      ESP Fit Center  564 is at   7.374202 -1.650172  3.646822
      ESP Fit Center  565 is at   8.334202 -1.650172  3.646822
      ESP Fit Center  566 is at   6.508994 -1.796139  2.944053
      ESP Fit Center  567 is at   7.340378 -2.400175  2.944053
      ESP Fit Center  568 is at   8.368026 -2.400175  2.944053
      ESP Fit Center  569 is at   6.191433 -1.778788  1.984053
      ESP Fit Center  570 is at   6.894202 -2.481557  1.984053
      ESP Fit Center  571 is at   7.854202 -2.738788  1.984053
      ESP Fit Center  572 is at   6.191433 -0.818788  1.024053
      ESP Fit Center  573 is at   6.508994 -1.796139  1.024053
      ESP Fit Center  574 is at   7.340378 -2.400175  1.024053
      ESP Fit Center  575 is at   9.395970 -0.025020  4.279072
      ESP Fit Center  576 is at  10.355970 -0.025020  4.021841
      ESP Fit Center  577 is at   9.875970  0.806364  4.021841
      ESP Fit Center  578 is at   8.915970  0.806364  4.021841
      ESP Fit Center  579 is at   8.435970 -0.025020  4.021841
      ESP Fit Center  580 is at   8.915970 -0.856404  4.021841
      ESP Fit Center  581 is at   9.875970 -0.856404  4.021841
      ESP Fit Center  582 is at  11.058739 -0.025020  3.319072
      ESP Fit Center  583 is at  10.741178  0.952331  3.319072
      ESP Fit Center  584 is at   9.909794 -1.606407  3.319072
      ESP Fit Center  585 is at  10.741178 -1.002371  3.319072
      ESP Fit Center  586 is at  11.315970 -0.025020  2.359072
      ESP Fit Center  587 is at  11.058739  0.934980  2.359072
      ESP Fit Center  588 is at  10.355970  1.637749  2.359072
      ESP Fit Center  589 is at  11.058739 -0.985020  2.359072
      ESP Fit Center  590 is at  10.212459  1.913861  1.375098
      ESP Fit Center  591 is at  10.212459  1.913861  0.378204
      ESP Fit Center  592 is at   9.519328  2.696245  0.378204
      ESP Fit Center  593 is at   9.695600  1.928371 -0.519966
      ESP Fit Center  594 is at   8.819948  2.564569 -0.519966
      ESP Fit Center  595 is at   6.861932 -0.130409 -0.519966
      ESP Fit Center  596 is at   9.250666  0.898981 -1.141519
      ESP Fit Center  597 is at   8.764716  1.740671 -1.141519
      ESP Fit Center  598 is at   7.792816  1.740671 -1.141519
      ESP Fit Center  599 is at   7.306866  0.898981 -1.141519
      ESP Fit Center  600 is at   7.792816  0.057291 -1.141519
      ESP Fit Center  601 is at   8.278766  0.898981 -1.363349
      ESP Fit Center  602 is at   7.433226  3.731470  3.217972
      ESP Fit Center  603 is at   9.159123  3.703523  2.255646
      ESP Fit Center  604 is at   9.808376  2.889386  1.187546
      ESP Fit Center  605 is at   8.249961  4.397772  2.124597
      ESP Fit Center  606 is at   7.222313  4.397772  2.124597
      ESP Fit Center  607 is at   9.398906  3.776385  1.164597
      ESP Fit Center  608 is at   8.696137  4.479154  1.164597
      ESP Fit Center  609 is at   7.736137  4.736385  1.164597
      ESP Fit Center  610 is at   6.776137  4.479154  1.164597
      ESP Fit Center  611 is at   9.398906  2.816385  0.204597
      ESP Fit Center  612 is at   9.081345  3.793736  0.204597
      ESP Fit Center  613 is at   8.249961  4.397772  0.204597
      ESP Fit Center  614 is at   7.222313  4.397772  0.204597
      ESP Fit Center  615 is at   6.390929  3.793736  0.204597
      ESP Fit Center  616 is at   8.696137  2.816385 -0.498172
      ESP Fit Center  617 is at   8.216137  3.647769 -0.498172
      ESP Fit Center  618 is at   7.256137  3.647769 -0.498172
      ESP Fit Center  619 is at   6.776137  2.816385 -0.498172
      ESP Fit Center  620 is at   7.736137  2.816385 -0.755403
      ESP Fit Center  621 is at   8.295604  1.996433  4.562847
      ESP Fit Center  622 is at   9.255604  1.996433  4.305616
      ESP Fit Center  623 is at   8.775604  2.827817  4.305616
      ESP Fit Center  624 is at   7.815604  2.827817  4.305616
      ESP Fit Center  625 is at   7.335604  1.996433  4.305616
      ESP Fit Center  626 is at   7.815604  1.165049  4.305616
      ESP Fit Center  627 is at   8.775604  1.165049  4.305616
      ESP Fit Center  628 is at   9.958373  1.996433  3.602847
      ESP Fit Center  629 is at   9.640812  2.973784  3.602847
      ESP Fit Center  630 is at   8.809428  3.577820  3.602847
      ESP Fit Center  631 is at   7.781780  3.577820  3.602847
      ESP Fit Center  632 is at  10.215604  1.996433  2.642847
      ESP Fit Center  633 is at   9.958373  2.956433  2.642847
      ESP Fit Center  634 is at   9.255604  3.659202  2.642847
      ESP Fit Center  635 is at   7.293310  1.597026  4.271482
      ESP Fit Center  636 is at   4.451601  1.068384  3.605533
      ESP Fit Center  637 is at   5.731329  3.878189  1.575107
      ESP Fit Center  638 is at   6.151772  0.604370  4.499438
      ESP Fit Center  639 is at   7.111772  0.604370  4.242207
      ESP Fit Center  640 is at   5.191772  0.604370  4.242207
      ESP Fit Center  641 is at   5.671772 -0.227014  4.242207
      ESP Fit Center  642 is at   6.631772 -0.227014  4.242207
      ESP Fit Center  643 is at   4.489003  0.604370  3.539438
      ESP Fit Center  644 is at   4.806564 -0.372981  3.539438
      ESP Fit Center  645 is at   5.637948 -0.977017  3.539438
      ESP Fit Center  646 is at   6.665596 -0.977017  3.539438
      ESP Fit Center  647 is at   5.191772 -1.058399  2.579438
      ESP Fit Center  648 is at   5.637948 -0.977017  1.619438
      ESP Fit Center  649 is at   5.936582  2.344037  4.779435
      ESP Fit Center  650 is at   6.896582  2.344037  4.522204
      ESP Fit Center  651 is at   6.416582  3.175421  4.522204
      ESP Fit Center  652 is at   5.456582  3.175421  4.522204
      ESP Fit Center  653 is at   4.976582  2.344037  4.522204
      ESP Fit Center  654 is at   5.456582  1.512653  4.522204
      ESP Fit Center  655 is at   6.416582  1.512653  4.522204
      ESP Fit Center  656 is at   7.281790  3.321388  3.819435
      ESP Fit Center  657 is at   6.450406  3.925424  3.819435
      ESP Fit Center  658 is at   5.422758  3.925424  3.819435
      ESP Fit Center  659 is at   4.591374  3.321388  3.819435
      ESP Fit Center  660 is at   4.273813  2.344037  3.819435
      ESP Fit Center  661 is at   6.896582  4.006806  2.859435
      ESP Fit Center  662 is at   5.936582  4.264037  2.859435
      ESP Fit Center  663 is at   4.976582  4.006806  2.859435
      ESP Fit Center  664 is at   5.422758  3.925424  1.899435
      ESP Fit Center  665 is at   5.706770  3.847671  1.451212
      ESP Fit Center  666 is at   5.706770  3.847671  0.454318
      ESP Fit Center  667 is at   5.706770 -0.488161  0.454318
      ESP Fit Center  668 is at   5.984719  3.345343 -0.443852
      ESP Fit Center  669 is at   5.984719  0.014167 -0.443852
      ESP Fit Center  670 is at   6.415437  1.679755 -1.065405
      ESP Fit Center  671 is at   5.929487  2.521445 -1.065405
      ESP Fit Center  672 is at   5.929487  0.838065 -1.065405
      ESP Fit Center  673 is at   2.277782  0.883655  2.696323
      ESP Fit Center  674 is at   3.655425  2.124356  3.848140
      ESP Fit Center  675 is at   4.135425  2.955740  3.590909
      ESP Fit Center  676 is at   3.175425  2.955740  3.590909
      ESP Fit Center  677 is at   2.695425  2.124356  3.590909
      ESP Fit Center  678 is at   3.175425  1.292972  3.590909
      ESP Fit Center  679 is at   4.169249  3.705743  2.888140
      ESP Fit Center  680 is at   3.141601  3.705743  2.888140
      ESP Fit Center  681 is at   2.310217  3.101707  2.888140
      ESP Fit Center  682 is at   1.992656  2.124356  2.888140
      ESP Fit Center  683 is at   2.310217  1.147005  2.888140
      ESP Fit Center  684 is at   4.615425  3.787125  1.928140
      ESP Fit Center  685 is at   3.655425  4.044356  1.928140
      ESP Fit Center  686 is at   2.695425  3.787125  1.928140
      ESP Fit Center  687 is at   1.992656  3.084356  1.928140
      ESP Fit Center  688 is at   3.950726  0.399050  3.537100
      ESP Fit Center  689 is at   2.990726  0.399050  3.279869
      ESP Fit Center  690 is at   3.470726 -0.432334  3.279869
      ESP Fit Center  691 is at   4.430726 -0.432334  3.279869
      ESP Fit Center  692 is at   2.287957  0.399050  2.577100
      ESP Fit Center  693 is at   3.436902 -1.182337  2.577100
      ESP Fit Center  694 is at   4.464550 -1.182337  2.577100
      ESP Fit Center  695 is at   3.950726 -1.520950  1.617100
      ESP Fit Center  696 is at   4.910726 -1.263719  1.617100
      ESP Fit Center  697 is at   4.464550 -1.182337  0.657100
      ESP Fit Center  698 is at   2.300966  1.550609 -2.295676
      ESP Fit Center  699 is at   4.286596 -0.728305  0.092506
      ESP Fit Center  700 is at   3.772772 -1.066918 -0.867494
      ESP Fit Center  701 is at   4.732772 -0.809687 -0.867494
      ESP Fit Center  702 is at   5.435541 -0.106918 -0.867494
      ESP Fit Center  703 is at   5.435541  0.853082 -1.827494
      ESP Fit Center  704 is at   5.117980  1.830433 -1.827494
      ESP Fit Center  705 is at   4.286596 -0.728305 -1.827494
      ESP Fit Center  706 is at   5.117980 -0.124269 -1.827494
      ESP Fit Center  707 is at   4.732772  0.853082 -2.530263
      ESP Fit Center  708 is at   4.252772  1.684466 -2.530263
      ESP Fit Center  709 is at   3.292772  1.684466 -2.530263
      ESP Fit Center  710 is at   2.812772  0.853082 -2.530263
      ESP Fit Center  711 is at   3.292772  0.021698 -2.530263
      ESP Fit Center  712 is at   4.252772  0.021698 -2.530263
      ESP Fit Center  713 is at   3.772772  0.853082 -2.787494
      ESP Fit Center  714 is at   3.996373  4.148713  0.446566
      ESP Fit Center  715 is at   2.968725  4.148713  0.446566
      ESP Fit Center  716 is at   2.137341  3.544677  0.446566
      ESP Fit Center  717 is at   5.145318  3.527326 -0.513434
      ESP Fit Center  718 is at   4.442549  4.230095 -0.513434
      ESP Fit Center  719 is at   3.482549  4.487326 -0.513434
      ESP Fit Center  720 is at   2.522549  4.230095 -0.513434
      ESP Fit Center  721 is at   5.145318  2.567326 -1.473434
      ESP Fit Center  722 is at   4.827757  3.544677 -1.473434
      ESP Fit Center  723 is at   3.996373  4.148713 -1.473434
      ESP Fit Center  724 is at   2.968725  4.148713 -1.473434
      ESP Fit Center  725 is at   2.137341  3.544677 -1.473434
      ESP Fit Center  726 is at   4.442549  2.567326 -2.176203
      ESP Fit Center  727 is at   3.962549  3.398710 -2.176203
      ESP Fit Center  728 is at   3.002549  3.398710 -2.176203
      ESP Fit Center  729 is at   2.522549  2.567326 -2.176203
      ESP Fit Center  730 is at   3.482549  2.567326 -2.433434
      ESP Fit Center  731 is at   1.456792  2.198439  2.018170
      ESP Fit Center  732 is at   0.970842  1.356749  2.018170
      ESP Fit Center  733 is at   1.401560  3.022337  1.396617
      ESP Fit Center  734 is at   0.525908  2.386139  1.396617
      ESP Fit Center  735 is at   1.168342  3.398673  0.498447
      ESP Fit Center  736 is at   0.308115  2.804902  0.498447
      ESP Fit Center  737 is at   1.168342  3.398673 -0.498447
      ESP Fit Center  738 is at   0.308115  2.804902 -0.498447
      ESP Fit Center  739 is at   1.401560  3.022337 -1.396617
      ESP Fit Center  740 is at   0.525908  2.386139 -1.396617
      ESP Fit Center  741 is at   1.456792  2.198439 -2.018170
      ESP Fit Center  742 is at   0.970842  1.356749 -2.018170
      ESP Fit Center  743 is at   1.942742  1.356749 -2.240000
      ESP Fit Center  744 is at   1.004629  0.901810 -2.162325
      ESP Fit Center  745 is at   1.894946 -0.543731  2.801698
      ESP Fit Center  746 is at   1.414946  0.287653  2.544467
      ESP Fit Center  747 is at   0.934946 -0.543731  2.544467
      ESP Fit Center  748 is at   1.414946 -1.375115  2.544467
      ESP Fit Center  749 is at   2.374946 -1.375115  2.544467
      ESP Fit Center  750 is at   1.381122 -2.125118  1.841698
      ESP Fit Center  751 is at   2.408770 -2.125118  1.841698
      ESP Fit Center  752 is at   3.240154 -1.521082  1.841698
      ESP Fit Center  753 is at   1.894946 -2.463731  0.881698
      ESP Fit Center  754 is at   2.854946 -2.206500  0.881698
      ESP Fit Center  755 is at   3.557715 -1.503731  0.881698
      ESP Fit Center  756 is at   1.914741 -2.436842 -0.892184
      ESP Fit Center  757 is at   2.874741 -2.179611 -0.892184
      ESP Fit Center  758 is at   3.577510 -1.476842 -0.892184
      ESP Fit Center  759 is at   2.428565 -2.098229 -1.852184
      ESP Fit Center  760 is at   3.259949 -1.494193 -1.852184
      ESP Fit Center  761 is at   2.874741 -0.516842 -2.554953
      ESP Fit Center  762 is at   2.394741  0.314542 -2.554953
      ESP Fit Center  763 is at   1.434741  0.314542 -2.554953
      ESP Fit Center  764 is at   2.394741 -1.348226 -2.554953
      ESP Fit Center  765 is at   1.914741 -0.516842 -2.812184
      ESP Fit Center  766 is at  -0.376983  2.501029 -0.847261
      ESP Fit Center  767 is at  -1.336983  2.243798 -0.847261
      ESP Fit Center  768 is at  -2.039752  1.541029 -0.847261
      ESP Fit Center  769 is at  -2.296983  0.581029 -0.847261
      ESP Fit Center  770 is at   0.136841  2.162416 -1.807261
      ESP Fit Center  771 is at  -0.890807  2.162416 -1.807261
      ESP Fit Center  772 is at  -1.722191  1.558380 -1.807261
      ESP Fit Center  773 is at   0.583017  0.581029 -2.510030
      ESP Fit Center  774 is at   0.103017  1.412413 -2.510030
      ESP Fit Center  775 is at  -0.856983  1.412413 -2.510030
      ESP Fit Center  776 is at  -0.369415  0.481446  2.830476
      ESP Fit Center  777 is at   0.590585  0.481446  2.573245
      ESP Fit Center  778 is at   0.110585  1.312830  2.573245
      ESP Fit Center  779 is at  -0.849415  1.312830  2.573245
      ESP Fit Center  780 is at  -1.329415  0.481446  2.573245
      ESP Fit Center  781 is at  -0.849415 -0.349938  2.573245
      ESP Fit Center  782 is at   0.110585 -0.349938  2.573245
      ESP Fit Center  783 is at   0.144409  2.062833  1.870476
      ESP Fit Center  784 is at  -0.883239  2.062833  1.870476
      ESP Fit Center  785 is at  -1.714623  1.458797  1.870476
      ESP Fit Center  786 is at  -2.032184  0.481446  1.870476
      ESP Fit Center  787 is at  -0.369415  2.401446  0.910476
      ESP Fit Center  788 is at  -1.329415  2.144215  0.910476
      ESP Fit Center  789 is at  -2.032184  1.441446  0.910476
      ESP Fit Center  790 is at  -2.289415  0.481446  0.910476
      ESP Fit Center  791 is at  -0.723293 -1.686364  2.793007
      ESP Fit Center  792 is at   0.348221 -1.686364  2.579870
      ESP Fit Center  793 is at  -0.187536 -0.758406  2.579870
      ESP Fit Center  794 is at  -1.259050 -0.758406  2.579870
      ESP Fit Center  795 is at  -1.794807 -1.686364  2.579870
      ESP Fit Center  796 is at  -1.259050 -2.614322  2.579870
      ESP Fit Center  797 is at  -0.187536 -2.614322  2.579870
      ESP Fit Center  798 is at  -2.437936 -0.696415  1.972906
      ESP Fit Center  799 is at  -2.703192 -1.686364  1.972906
      ESP Fit Center  800 is at  -2.437936 -2.676313  1.972906
      ESP Fit Center  801 is at  -1.713242 -3.401007  1.972906
      ESP Fit Center  802 is at  -0.723293 -3.666263  1.972906
      ESP Fit Center  803 is at   0.266656 -3.401007  1.972906
      ESP Fit Center  804 is at   0.991350 -2.676313  1.972906
      ESP Fit Center  805 is at  -2.816109 -0.165844  1.064521
      ESP Fit Center  806 is at  -3.253627 -1.148525  1.064521
      ESP Fit Center  807 is at  -3.253627 -2.224203  1.064521
      ESP Fit Center  808 is at  -2.816109 -3.206884  1.064521
      ESP Fit Center  809 is at  -2.016724 -3.926653  1.064521
      ESP Fit Center  810 is at  -0.993694 -4.259056  1.064521
      ESP Fit Center  811 is at   0.076092 -4.146617  1.064521
      ESP Fit Center  812 is at   1.007656 -3.608778  1.064521
      ESP Fit Center  813 is at   1.639924 -2.738536  1.064521
      ESP Fit Center  814 is at  -2.410670  0.548084 -0.006993
      ESP Fit Center  815 is at  -3.103901 -0.212354 -0.006993
      ESP Fit Center  816 is at  -3.475618 -1.171865 -0.006993
      ESP Fit Center  817 is at  -3.475618 -2.200863 -0.006993
      ESP Fit Center  818 is at  -3.103901 -3.160374 -0.006993
      ESP Fit Center  819 is at  -2.410670 -3.920812 -0.006993
      ESP Fit Center  820 is at  -1.489549 -4.379476 -0.006993
      ESP Fit Center  821 is at  -0.464942 -4.474420 -0.006993
      ESP Fit Center  822 is at   0.524774 -4.192821 -0.006993
      ESP Fit Center  823 is at   1.345932 -3.572712 -0.006993
      ESP Fit Center  824 is at   1.887629 -2.697841 -0.006993
      ESP Fit Center  825 is at   1.731442 -2.870201 -1.213663
      ESP Fit Center  826 is at   2.306234 -1.892850 -2.173663
      ESP Fit Center  827 is at   1.346234 -3.555619 -2.173663
      ESP Fit Center  828 is at   2.049003 -2.852850 -2.173663
      ESP Fit Center  829 is at   2.049003 -1.892850 -3.133663
      ESP Fit Center  830 is at   1.731442 -0.915499 -3.133663
      ESP Fit Center  831 is at   0.900058 -0.311463 -3.133663
      ESP Fit Center  832 is at   0.900058 -3.474237 -3.133663
      ESP Fit Center  833 is at   1.731442 -2.870201 -3.133663
      ESP Fit Center  834 is at   1.346234 -1.892850 -3.836432
      ESP Fit Center  835 is at  -2.051128 -4.201992 -0.847479
      ESP Fit Center  836 is at  -1.219744 -4.806028 -0.847479
      ESP Fit Center  837 is at  -0.192096 -4.806028 -0.847479
      ESP Fit Center  838 is at   0.639288 -4.201992 -0.847479
      ESP Fit Center  839 is at  -2.368689 -4.184641 -1.807479
      ESP Fit Center  840 is at  -1.665920 -4.887410 -1.807479
      ESP Fit Center  841 is at  -0.705920 -5.144641 -1.807479
      ESP Fit Center  842 is at   0.254080 -4.887410 -1.807479
      ESP Fit Center  843 is at   0.956849 -4.184641 -1.807479
      ESP Fit Center  844 is at   0.639288 -4.201992 -2.767479
      ESP Fit Center  845 is at  -2.923339 -0.062781 -1.151249
      ESP Fit Center  846 is at  -2.119406  1.190981 -1.658187
      ESP Fit Center  847 is at  -2.950790  0.586945 -1.658187
      ESP Fit Center  848 is at  -1.605582  1.529594 -2.618187
      ESP Fit Center  849 is at  -2.565582  1.272363 -2.618187
      ESP Fit Center  850 is at  -3.268351  0.569594 -2.618187
      ESP Fit Center  851 is at  -0.260374  0.586945 -3.578187
      ESP Fit Center  852 is at  -1.091758  1.190981 -3.578187
      ESP Fit Center  853 is at  -2.119406  1.190981 -3.578187
      ESP Fit Center  854 is at  -2.950790  0.586945 -3.578187
      ESP Fit Center  855 is at  -3.651049 -1.735341 -0.609370
      ESP Fit Center  856 is at  -3.204873 -0.153954 -1.312139
      ESP Fit Center  857 is at  -4.036257 -0.757990 -1.312139
      ESP Fit Center  858 is at  -4.353818 -1.735341 -1.312139
      ESP Fit Center  859 is at  -4.036257 -2.712692 -1.312139
      ESP Fit Center  860 is at  -3.204873 -3.316728 -1.312139
      ESP Fit Center  861 is at  -3.651049 -0.072572 -2.272139
      ESP Fit Center  862 is at  -4.353818 -0.775341 -2.272139
      ESP Fit Center  863 is at  -4.611049 -1.735341 -2.272139
      ESP Fit Center  864 is at  -4.353818 -2.695341 -2.272139
      ESP Fit Center  865 is at  -4.036257 -0.757990 -3.232139
      ESP Fit Center  866 is at  -4.353818 -1.735341 -3.232139
      ESP Fit Center  867 is at   0.143640  0.014160 -3.362303
      ESP Fit Center  868 is at   1.212691 -1.908254 -4.433817
      ESP Fit Center  869 is at   1.023613 -0.896777 -4.433817
      ESP Fit Center  870 is at   0.481916 -0.021906 -4.433817
      ESP Fit Center  871 is at  -0.339242  0.598203 -4.433817
      ESP Fit Center  872 is at  -1.328958  0.879802 -4.433817
      ESP Fit Center  873 is at  -2.353565  0.784858 -4.433817
      ESP Fit Center  874 is at  -3.274686  0.326194 -4.433817
      ESP Fit Center  875 is at  -3.967917 -0.434244 -4.433817
      ESP Fit Center  876 is at  -4.339634 -1.393755 -4.433817
      ESP Fit Center  877 is at   0.481916 -3.794602 -4.433817
      ESP Fit Center  878 is at   1.023613 -2.919731 -4.433817
      ESP Fit Center  879 is at   0.999554 -1.908254 -5.505331
      ESP Fit Center  880 is at   0.775908 -0.856082 -5.505331
      ESP Fit Center  881 is at   0.143640  0.014160 -5.505331
      ESP Fit Center  882 is at  -0.787924  0.551999 -5.505331
      ESP Fit Center  883 is at  -1.857710  0.664438 -5.505331
      ESP Fit Center  884 is at  -2.880740  0.332035 -5.505331
      ESP Fit Center  885 is at  -3.680125 -0.387734 -5.505331
      ESP Fit Center  886 is at  -4.117643 -1.370415 -5.505331
      ESP Fit Center  887 is at   0.775908 -2.960426 -5.505331
      ESP Fit Center  888 is at   0.392590 -1.908254 -6.413716
      ESP Fit Center  889 is at   0.127334 -0.918305 -6.413716
      ESP Fit Center  890 is at  -0.597360 -0.193611 -6.413716
      ESP Fit Center  891 is at  -1.587309  0.071645 -6.413716
      ESP Fit Center  892 is at  -2.577258 -0.193611 -6.413716
      ESP Fit Center  893 is at  -3.301952 -0.918305 -6.413716
      ESP Fit Center  894 is at   0.127334 -2.898203 -6.413716
      ESP Fit Center  895 is at  -0.515795 -1.908254 -7.020680
      ESP Fit Center  896 is at  -1.051552 -0.980296 -7.020680
      ESP Fit Center  897 is at  -2.123066 -0.980296 -7.020680
      ESP Fit Center  898 is at  -1.587309 -1.908254 -7.233817
      ESP Fit Center  899 is at  -3.170305 -3.661771 -1.966912
      ESP Fit Center  900 is at  -4.130305 -3.661771 -2.224143
      ESP Fit Center  901 is at  -3.650305 -4.493155 -2.224143
      ESP Fit Center  902 is at  -4.515513 -2.684420 -2.926912
      ESP Fit Center  903 is at  -4.833074 -3.661771 -2.926912
      ESP Fit Center  904 is at  -3.684129 -5.243158 -2.926912
      ESP Fit Center  905 is at  -4.833074 -2.701771 -3.886912
      ESP Fit Center  906 is at  -4.515513 -2.684420 -4.846912
      ESP Fit Center  907 is at  -1.991837 -5.124450 -2.207341
      ESP Fit Center  908 is at  -1.031837 -5.124450 -2.207341
      ESP Fit Center  909 is at  -2.025661 -5.874453 -2.910110
      ESP Fit Center  910 is at  -0.998013 -5.874453 -2.910110
      ESP Fit Center  911 is at  -0.166629 -5.270417 -2.910110
      ESP Fit Center  912 is at   0.408163 -4.293066 -3.870110
      ESP Fit Center  913 is at  -0.551837 -5.955835 -3.870110
      ESP Fit Center  914 is at   0.150932 -5.253066 -3.870110
      ESP Fit Center  915 is at   0.150932 -4.293066 -4.830110
      ESP Fit Center  916 is at  -0.166629 -5.270417 -4.830110
      ESP Fit Center  917 is at  -1.584959 -2.436303 -7.343943
      ESP Fit Center  918 is at  -1.843782 -3.241322 -8.009892
      ESP Fit Center  919 is at  -2.364442 -4.143132 -8.247567
      ESP Fit Center  920 is at  -4.372842 -2.510148 -5.460447
      ESP Fit Center  921 is at  -3.987634 -1.824730 -6.420447
      ESP Fit Center  922 is at  -2.513810 -1.906112 -7.380447
      ESP Fit Center  923 is at  -3.541458 -1.906112 -7.380447
      ESP Fit Center  924 is at  -2.547634 -2.656115 -8.083216
      ESP Fit Center  925 is at  -3.507634 -2.656115 -8.083216
      ESP Fit Center  926 is at  -3.027634 -3.487499 -8.340447
      ESP Fit Center  927 is at   0.267396 -4.145783 -5.396639
      ESP Fit Center  928 is at  -0.050165 -5.123134 -5.396639
      ESP Fit Center  929 is at   0.524627 -4.145783 -6.356639
      ESP Fit Center  930 is at   0.267396 -3.185783 -6.356639
      ESP Fit Center  931 is at   0.267396 -5.105783 -6.356639
      ESP Fit Center  932 is at   0.267396 -4.145783 -7.316639
      ESP Fit Center  933 is at  -0.050165 -3.168432 -7.316639
      ESP Fit Center  934 is at  -0.881549 -2.564396 -7.316639
      ESP Fit Center  935 is at  -0.050165 -5.123134 -7.316639
      ESP Fit Center  936 is at  -0.435373 -4.145783 -8.019408
      ESP Fit Center  937 is at  -0.915373 -3.314399 -8.019408
      ESP Fit Center  938 is at  -0.915373 -4.977167 -8.019408
      ESP Fit Center  939 is at  -1.395373 -4.145783 -8.276639
      ESP Fit Center  940 is at  -2.963654 -5.876880 -3.154780
      ESP Fit Center  941 is at  -3.499411 -6.804838 -3.367917
      ESP Fit Center  942 is at  -2.427897 -6.804838 -3.367917
      ESP Fit Center  943 is at  -3.953603 -7.591523 -3.974881
      ESP Fit Center  944 is at  -2.963654 -7.856779 -3.974881
      ESP Fit Center  945 is at  -1.973705 -7.591523 -3.974881
      ESP Fit Center  946 is at  -1.249011 -6.866829 -3.974881
      ESP Fit Center  947 is at  -0.376791 -5.876880 -4.883266
      ESP Fit Center  948 is at  -3.234055 -8.449572 -4.883266
      ESP Fit Center  949 is at  -2.164269 -8.337133 -4.883266
      ESP Fit Center  950 is at  -1.232705 -7.799294 -4.883266
      ESP Fit Center  951 is at  -0.600437 -6.929052 -4.883266
      ESP Fit Center  952 is at  -0.163654 -5.876880 -5.954780
      ESP Fit Center  953 is at  -3.729910 -8.569992 -5.954780
      ESP Fit Center  954 is at  -2.705303 -8.664936 -5.954780
      ESP Fit Center  955 is at  -1.715587 -8.383337 -5.954780
      ESP Fit Center  956 is at  -0.894429 -7.763228 -5.954780
      ESP Fit Center  957 is at  -0.352732 -6.888357 -5.954780
      ESP Fit Center  958 is at  -0.376791 -5.876880 -7.026294
      ESP Fit Center  959 is at  -4.257085 -8.117169 -7.026294
      ESP Fit Center  960 is at  -3.234055 -8.449572 -7.026294
      ESP Fit Center  961 is at  -2.164269 -8.337133 -7.026294
      ESP Fit Center  962 is at  -1.232705 -7.799294 -7.026294
      ESP Fit Center  963 is at  -0.600437 -6.929052 -7.026294
      ESP Fit Center  964 is at  -0.983755 -5.876880 -7.934679
      ESP Fit Center  965 is at  -3.953603 -7.591523 -7.934679
      ESP Fit Center  966 is at  -2.963654 -7.856779 -7.934679
      ESP Fit Center  967 is at  -1.973705 -7.591523 -7.934679
      ESP Fit Center  968 is at  -1.249011 -6.866829 -7.934679
      ESP Fit Center  969 is at  -1.892140 -5.876880 -8.541643
      ESP Fit Center  970 is at  -2.427897 -4.948922 -8.541643
      ESP Fit Center  971 is at  -3.499411 -4.948922 -8.541643
      ESP Fit Center  972 is at  -3.499411 -6.804838 -8.541643
      ESP Fit Center  973 is at  -2.427897 -6.804838 -8.541643
      ESP Fit Center  974 is at  -2.963654 -5.876880 -8.754780
      ESP Fit Center  975 is at  -5.282666 -6.581728 -3.448856
      ESP Fit Center  976 is at  -4.241346 -6.581728 -3.448856
      ESP Fit Center  977 is at  -6.562394 -6.208560 -4.114805
      ESP Fit Center  978 is at  -6.066995 -6.701807 -3.758039
      ESP Fit Center  979 is at  -5.586995 -7.533191 -3.758039
      ESP Fit Center  980 is at  -4.626995 -7.533191 -3.758039
      ESP Fit Center  981 is at  -6.769764 -6.701807 -4.460808
      ESP Fit Center  982 is at  -6.452203 -7.679158 -4.460808
      ESP Fit Center  983 is at  -5.620819 -8.283194 -4.460808
      ESP Fit Center  984 is at  -4.593171 -8.283194 -4.460808
      ESP Fit Center  985 is at  -7.026995 -6.701807 -5.420808
      ESP Fit Center  986 is at  -6.769764 -7.661807 -5.420808
      ESP Fit Center  987 is at  -6.066995 -8.364576 -5.420808
      ESP Fit Center  988 is at  -5.106995 -8.621807 -5.420808
      ESP Fit Center  989 is at  -4.146995 -8.364576 -5.420808
      ESP Fit Center  990 is at  -6.452203 -7.679158 -6.380808
      ESP Fit Center  991 is at  -5.620819 -8.283194 -6.380808
      ESP Fit Center  992 is at  -4.593171 -8.283194 -6.380808
      ESP Fit Center  993 is at  -5.586995 -7.533191 -7.083577
      ESP Fit Center  994 is at  -4.891186 -5.125083 -2.755446
      ESP Fit Center  995 is at  -5.371186 -4.293699 -3.012677
      ESP Fit Center  996 is at  -5.851186 -5.125083 -3.012677
      ESP Fit Center  997 is at  -5.371186 -5.956467 -3.012677
      ESP Fit Center  998 is at  -4.411186 -5.956467 -3.012677
      ESP Fit Center  999 is at  -5.405010 -3.543696 -3.715446
      ESP Fit Center 1000 is at  -6.236394 -4.147732 -3.715446
      ESP Fit Center 1001 is at  -6.553955 -5.125083 -3.715446
      ESP Fit Center 1002 is at  -6.236394 -6.102434 -3.715446
      ESP Fit Center 1003 is at  -4.891186 -3.205083 -4.675446
      ESP Fit Center 1004 is at  -5.851186 -3.462314 -4.675446
      ESP Fit Center 1005 is at  -6.553955 -4.165083 -4.675446
      ESP Fit Center 1006 is at  -5.831846 -3.188827 -5.250001
      ESP Fit Center 1007 is at  -7.023665 -6.875474 -6.212327
      ESP Fit Center 1008 is at  -7.023665 -3.216774 -7.280427
      ESP Fit Center 1009 is at  -7.023665 -6.875474 -7.280427
      ESP Fit Center 1010 is at  -6.793585 -3.628039 -8.242753
      ESP Fit Center 1011 is at  -7.365195 -4.517482 -8.242753
      ESP Fit Center 1012 is at  -7.365195 -5.574766 -8.242753
      ESP Fit Center 1013 is at  -5.044147 -4.144314 -8.908702
      ESP Fit Center 1014 is at  -6.085467 -4.144314 -8.908702
      ESP Fit Center 1015 is at  -4.752932 -3.192437 -5.294312
      ESP Fit Center 1016 is at  -4.719108 -2.442434 -5.997081
      ESP Fit Center 1017 is at  -5.746756 -2.442434 -5.997081
      ESP Fit Center 1018 is at  -5.232932 -2.103821 -6.957081
      ESP Fit Center 1019 is at  -6.192932 -2.361052 -6.957081
      ESP Fit Center 1020 is at  -4.719108 -2.442434 -7.917081
      ESP Fit Center 1021 is at  -5.746756 -2.442434 -7.917081
      ESP Fit Center 1022 is at  -6.578140 -3.046470 -7.917081
      ESP Fit Center 1023 is at  -4.272932 -4.023821 -8.619850
      ESP Fit Center 1024 is at  -4.752932 -3.192437 -8.619850
      ESP Fit Center 1025 is at  -5.712932 -3.192437 -8.619850
      ESP Fit Center 1026 is at  -6.427541 -7.291618 -7.667508
      ESP Fit Center 1027 is at  -5.467541 -7.548849 -7.667508
      ESP Fit Center 1028 is at  -3.804772 -5.628849 -8.627508
      ESP Fit Center 1029 is at  -4.122333 -4.651498 -8.627508
      ESP Fit Center 1030 is at  -7.130310 -5.628849 -8.627508
      ESP Fit Center 1031 is at  -6.812749 -6.606200 -8.627508
      ESP Fit Center 1032 is at  -5.981365 -7.210236 -8.627508
      ESP Fit Center 1033 is at  -4.953717 -7.210236 -8.627508
      ESP Fit Center 1034 is at  -4.122333 -6.606200 -8.627508
      ESP Fit Center 1035 is at  -4.507541 -5.628849 -9.330277
      ESP Fit Center 1036 is at  -4.987541 -4.797465 -9.330277
      ESP Fit Center 1037 is at  -5.947541 -4.797465 -9.330277
      ESP Fit Center 1038 is at  -6.427541 -5.628849 -9.330277
      ESP Fit Center 1039 is at  -5.947541 -6.460233 -9.330277
      ESP Fit Center 1040 is at  -4.987541 -6.460233 -9.330277
      ESP Fit Center 1041 is at  -5.467541 -5.628849 -9.587508
      ESP Fit Center 1042 is at  -7.107597 -4.167341 -4.814534
      ESP Fit Center 1043 is at  -7.587597 -4.998725 -4.814534
      ESP Fit Center 1044 is at  -7.107597 -5.830109 -4.814534
      ESP Fit Center 1045 is at  -7.141421 -3.417338 -5.517303
      ESP Fit Center 1046 is at  -7.972805 -4.021374 -5.517303
      ESP Fit Center 1047 is at  -8.290366 -4.998725 -5.517303
[...]
 1404 Fit       0.011321
 1405 Fit       0.003541
 1406 Fit      -0.001750
 1407 Fit       0.000330
 1408 Fit       0.003551
 1409 Fit      -0.002004
 1410 Fit      -0.004855
 1411 Fit      -0.002430
 1412 Fit       0.005450
 1413 Fit       0.000348
 1414 Fit      -0.004235
 1415 Fit      -0.012104
 1416 Fit      -0.010856
 1417 Fit      -0.007921
 1418 Fit      -0.005112
 1419 Fit      -0.004269
 1420 Fit      -0.006272
 1421 Fit      -0.009566
 1422 Fit      -0.010901
 1423 Fit      -0.007590
 1424 Fit       0.001295
 1425 Fit      -0.003021
 1426 Fit      -0.009853
 1427 Fit      -0.013158
 1428 Fit      -0.013355
 1429 Fit      -0.011480
 1430 Fit      -0.010065
 1431 Fit      -0.010631
 1432 Fit      -0.012556
 1433 Fit      -0.013125
 1434 Fit      -0.009123
 1435 Fit      -0.008474
 1436 Fit      -0.010107
 1437 Fit      -0.012125
 1438 Fit      -0.011944
 1439 Fit      -0.012207
 1440 Fit      -0.012330
 1441 Fit      -0.008631
 1442 Fit      -0.006157
 1443 Fit      -0.009519
 1444 Fit      -0.008415
 1445 Fit      -0.003296
 1446 Fit       0.012165
 1447 Fit       0.013898
 1448 Fit       0.011237
 1449 Fit       0.014809
 1450 Fit       0.004618
 1451 Fit       0.008822
 1452 Fit       0.015400
 1453 Fit       0.009257
 1454 Fit      -0.001290
 1455 Fit       0.003852
 1456 Fit       0.008614
 1457 Fit       0.003487
 1458 Fit      -0.000201
 1459 Fit       0.004657
 1460 Fit       0.003740
 1461 Fit       0.000181
 1462 Fit       0.001636
 1463 Fit      -0.003053
 1464 Fit       0.000569
 1465 Fit       0.007141
 1466 Fit       0.002217
 1467 Fit       0.005134
 1468 Fit       0.001577
 1469 Fit       0.000915
 1470 Fit       0.004124
 1471 Fit       0.001989
 1472 Fit       0.003113
 1473 Fit       0.002971
 1474 Fit       0.000682
 1475 Fit      -0.001769
 1476 Fit       0.002092
 1477 Fit       0.002111
 1478 Fit       0.001687
 1479 Fit      -0.002356
 1480 Fit      -0.000426
 1481 Fit      -0.000959
 1482 Fit      -0.004814
 1483 Fit      -0.009302
 1484 Fit      -0.002952
 1485 Fit      -0.010384
 1486 Fit      -0.013677
 1487 Fit      -0.010419
 1488 Fit      -0.001211
 1489 Fit      -0.009493
 1490 Fit      -0.014081
 1491 Fit      -0.014131
 1492 Fit      -0.009360
 1493 Fit      -0.000497
 1494 Fit      -0.004801
 1495 Fit      -0.011192
 1496 Fit      -0.014038
 1497 Fit      -0.012842
 1498 Fit      -0.007929
 1499 Fit      -0.000250
 1500 Fit       0.001904
 1501 Fit      -0.005880
 1502 Fit      -0.011399
 1503 Fit      -0.013761
 1504 Fit      -0.012406
 1505 Fit      -0.007651
 1506 Fit      -0.003120
 1507 Fit       0.000853
 1508 Fit      -0.005871
 1509 Fit      -0.011402
 1510 Fit      -0.014406
 1511 Fit      -0.013898
 1512 Fit      -0.009902
 1513 Fit      -0.008760
 1514 Fit      -0.009281
 1515 Fit      -0.014333
 1516 Fit      -0.016110
 1517 Fit      -0.013934
 1518 Fit      -0.013517
 1519 Fit      -0.009771
 1520 Fit      -0.008701
 1521 Fit      -0.013490
 1522 Fit      -0.016507
 1523 Fit      -0.014183
 1524 Fit       0.007065
 1525 Fit       0.001539
 1526 Fit       0.009792
 1527 Fit       0.009001
 1528 Fit       0.007131
 1529 Fit       0.002382
 1530 Fit       0.009748
 1531 Fit       0.008873
 1532 Fit       0.006751
 1533 Fit       0.001748
 1534 Fit       0.010196
 1535 Fit       0.009379
 1536 Fit       0.008029
 1537 Fit       0.005035
 1538 Fit       0.008101
 1539 Fit       0.005893
 1540 Fit       0.011434
 1541 Fit       0.014255
 1542 Fit       0.011068
 1543 Fit       0.008457
 1544 Fit       0.005392
 1545 Fit       0.012986
 1546 Fit       0.011554
 1547 Fit       0.010413
 1548 Fit       0.012366
 1549 Fit       0.011649
 1550 Fit       0.010055
 1551 Fit       0.008175
 1552 Fit       0.004086
 1553 Fit       0.002903
 1554 Fit       0.003046
 1555 Fit       0.003542
 1556 Fit       0.000962
 1557 Fit       0.002086
 1558 Fit       0.006846
 1559 Fit       0.006747
 1560 Fit       0.006267
 1561 Fit       0.005842
 1562 Fit       0.005231
 1563 Fit       0.006725
 1564 Fit       0.005548
 1565 Fit       0.004567
 1566 Fit      -0.000092
 1567 Fit       0.003775
 1568 Fit       0.003567
 1569 Fit       0.005133
 1570 Fit       0.002447
 1571 Fit       0.003866
 1572 Fit       0.004177
 1573 Fit       0.002851
 1574 Fit      -0.002181
 1575 Fit      -0.002500
 1576 Fit       0.000265
 1577 Fit       0.002200
 1578 Fit       0.003294
 1579 Fit       0.003246
 1580 Fit       0.000113
 1581 Fit       0.001891
 1582 Fit       0.010483
 1583 Fit       0.010361
 1584 Fit       0.008174
 1585 Fit       0.008993
 1586 Fit       0.009339
 1587 Fit       0.009651
 1588 Fit       0.005807
 1589 Fit       0.006854
 1590 Fit       0.007760
 1591 Fit       0.007963
 1592 Fit       0.007665
 1593 Fit       0.007955
 1594 Fit       0.004892
 1595 Fit       0.005810
 1596 Fit       0.005914
 1597 Fit       0.005317
 1598 Fit       0.002819
 1599 Fit       0.002693
 1600 Fit       0.003209
 1601 Fit       0.001813
 1602 Fit       0.001500
 1603 Fit       0.000421
 1604 Fit       0.000058
 1605 Fit      -0.000234
 1606 Fit      -0.000614
 1607 Fit      -0.000763
 1608 Fit      -0.001704
 1609 Fit      -0.002112
 1610 Fit      -0.004423
 1611 Fit      -0.008197
 1612 Fit      -0.003105
 1613 Fit       0.001138
 1614 Fit       0.001842
 1615 Fit      -0.005448
 1616 Fit      -0.000320
 1617 Fit       0.000862
 1618 Fit       0.000681
 1619 Fit      -0.018623
 1620 Fit      -0.008890
 1621 Fit      -0.002394
 1622 Fit      -0.000217
 1623 Fit      -0.000203
 1624 Fit      -0.001142
 1625 Fit      -0.004576
 1626 Fit      -0.008518
 1627 Fit      -0.009574
 1628 Fit      -0.004597
 1629 Fit      -0.001754
 1630 Fit      -0.002302
 1631 Fit      -0.004541
 1632 Fit       0.001180
 1633 Fit       0.001055
 1634 Fit       0.000179
 1635 Fit      -0.002858
 1636 Fit       0.001027
 1637 Fit       0.000324
 1638 Fit      -0.000749
 1639 Fit      -0.004128
 1640 Fit      -0.012303
 1641 Fit       0.000194
 1642 Fit      -0.000949
 1643 Fit      -0.002636
 1644 Fit      -0.007471
 1645 Fit      -0.017013
 1646 Fit      -0.001051
 1647 Fit      -0.003055
 1648 Fit      -0.006327
 1649 Fit      -0.005951
 1650 Fit       0.006565
 1651 Fit       0.007502
 1652 Fit       0.006727
 1653 Fit       0.004473
 1654 Fit       0.006355
 1655 Fit       0.005996
 1656 Fit       0.005767
 1657 Fit       0.005159
 1658 Fit       0.002490
 1659 Fit       0.004324
 1660 Fit       0.004546
 1661 Fit       0.004668
 1662 Fit       0.004324
 1663 Fit       0.003493
 1664 Fit       0.002708
 1665 Fit       0.002959
 1666 Fit       0.002647
 1667 Fit       0.001785
 1668 Fit       0.000770
 1669 Fit       0.011540
 1670 Fit       0.009192
 1671 Fit       0.007846
 1672 Fit       0.010104
 1673 Fit       0.009131
 1674 Fit       0.008538
 1675 Fit       0.007670
 1676 Fit       0.008650
 1677 Fit       0.006884
 1678 Fit       0.006439
 1679 Fit       0.004853
 1680 Fit       0.004582
 1681 Fit      -0.002844
 1682 Fit       0.008521
 1683 Fit       0.007180
 1684 Fit       0.008326
 1685 Fit       0.010508
 1686 Fit       0.008619
 1687 Fit       0.007518
 1688 Fit       0.005832
 1689 Fit       0.005940
 1690 Fit       0.007339
 1691 Fit       0.006350
 1692 Fit       0.004175
 1693 Fit       0.003519
 1694 Fit       0.003506
 1695 Fit       0.004988
 1696 Fit       0.000368
 1697 Fit      -0.002435
 1698 Fit      -0.008641
 1699 Fit      -0.014050
 1700 Fit      -0.013900
 1701 Fit      -0.018522
 1702 Fit      -0.018317
 1703 Fit      -0.022478
 1704 Fit      -0.020070
 1705 Fit      -0.022223
 1706 Fit      -0.024621
 1707 Fit      -0.025897
 1708 Fit      -0.022978
 1709 Fit       0.006742
 1710 Fit       0.007986
 1711 Fit       0.002138
 1712 Fit      -0.005357
 1713 Fit       0.002407
 1714 Fit       0.003480
 1715 Fit       0.003493
 1716 Fit       0.002066
 1717 Fit      -0.003693
 1718 Fit      -0.000381
 1719 Fit       0.000867
 1720 Fit       0.000203
 1721 Fit      -0.003459
 1722 Fit      -0.006594
 1723 Fit      -0.003161
 1724 Fit      -0.003468
 1725 Fit      -0.008566
 1726 Fit      -0.009252
 1727 Fit      -0.011110
 1728 Fit      -0.018631
 1729 Fit       0.010419
 1730 Fit       0.008932
 1731 Fit       0.008946
 1732 Fit       0.010684
 1733 Fit       0.012066
 1734 Fit       0.010260
 1735 Fit       0.007335
 1736 Fit       0.006846
 1737 Fit       0.007412
 1738 Fit       0.009033
 1739 Fit       0.004721
 1740 Fit       0.004207
 1741 Fit       0.004830
 1742 Fit       0.006210
 1743 Fit       0.012113
 1744 Fit       0.011568
 1745 Fit       0.009338
 1746 Fit      -0.001300
 1747 Fit       0.010799
 1748 Fit       0.009866
 1749 Fit       0.009986
 1750 Fit       0.010883
 1751 Fit       0.009743
 1752 Fit       0.009679
 1753 Fit       0.010104
 1754 Fit       0.009560
 1755 Fit       0.009725
 1756 Fit       0.011280
 1757 Fit       0.009626
 1758 Fit       0.008667
 1759 Fit       0.008799
 1760 Fit       0.009901
 1761 Fit       0.008994
 1762 Fit       0.007852
 1763 Fit       0.007573
 1764 Fit       0.008080
 1765 Fit       0.008864
 1766 Fit       0.007254
 1767 Fit       0.006099
 1768 Fit       0.006108
 1769 Fit       0.005285
 1770 Fit       0.003088
 1771 Fit      -0.004882
 1772 Fit      -0.003744
 1773 Fit      -0.008435
 1774 Fit      -0.013521
 1775 Fit      -0.016789
 1776 Fit      -0.023387
 1777 Fit      -0.024706
 1778 Fit      -0.018179
 1779 Fit       0.009093
 1780 Fit       0.008278
 1781 Fit       0.005506
 1782 Fit       0.007651
 1783 Fit       0.005824
 1784 Fit       0.005307
 1785 Fit       0.007042
 1786 Fit       0.004750
 1787 Fit       0.003097
 1788 Fit       0.002038
 1789 Fit       0.003216
 1790 Fit       0.003231
 1791 Fit       0.002163
 1792 Fit      -0.000107
 1793 Fit      -0.003635
 1794 Fit      -0.000317
 1795 Fit       0.000092
 1796 Fit      -0.004193
 1797 Fit       0.007316
 1798 Fit       0.008176
 1799 Fit       0.007903
 1800 Fit       0.008118
 1801 Fit       0.009720
 1802 Fit       0.007538
 1803 Fit       0.005775
 1804 Fit       0.003107
 1805 Fit      -0.006672
 1806 Fit      -0.006242
 1807 Fit      -0.002848
 1808 Fit      -0.003232
 1809 Fit      -0.002427
 1810 Fit      -0.001449
 1811 Fit       0.004778
 1812 Fit      -0.003297
 1813 Fit       0.003897
 1814 Fit      -0.002400
 1815 Fit      -0.013100
 1816 Fit      -0.009829
 1817 Fit      -0.009511
 1818 Fit       0.001321
 1819 Fit      -0.004469
 1820 Fit      -0.003312
 1821 Fit      -0.003064
 1822 Fit       0.000822
 1823 Fit       0.003250
 1824 Fit       0.000328
 1825 Fit      -0.000473
 1826 Fit      -0.000268
 1827 Fit      -0.006177
 1828 Fit      -0.001328
 1829 Fit      -0.001372
 1830 Fit      -0.005638
 1831 Fit      -0.004884
 1832 Fit      -0.001453
 1833 Fit      -0.001507
 1834 Fit      -0.004926
 1835 Fit      -0.006235
 1836 Fit      -0.002418
 1837 Fit      -0.001676
 1838 Fit      -0.004133
 1839 Fit      -0.002728
 1840 Fit      -0.002778
 1841 Fit      -0.008907
 1842 Fit      -0.008672
 1843 Fit      -0.011882
 1844 Fit      -0.008842
 1845 Fit      -0.011456
 1846 Fit      -0.012713
 1847 Fit      -0.012182
 1848 Fit      -0.010158
 1849 Fit      -0.006974
 1850 Fit      -0.002325
 1851 Fit       0.003684
 1852 Fit       0.006110
 1853 Fit       0.005211
 1854 Fit       0.004517
 1855 Fit       0.002170
 1856 Fit       0.005799
 1857 Fit       0.003535
 1858 Fit      -0.001796
 1859 Fit       0.004596
 1860 Fit       0.003981
 1861 Fit       0.004395
 1862 Fit       0.005220
 1863 Fit       0.005091
 1864 Fit       0.005472
 1865 Fit       0.004567
 1866 Fit       0.002847
 1867 Fit       0.004658
 1868 Fit      -0.004285
 1869 Fit       0.001041
 1870 Fit      -0.003544
 1871 Fit       0.001564
 1872 Fit      -0.000717
 1873 Fit       0.003798
 1874 Fit       0.005958
 1875 Fit      -0.003517
 1876 Fit       0.002452
 1877 Fit       0.007615
 1878 Fit       0.007163
 1879 Fit       0.004661
 1880 Fit       0.004427
 1881 Fit       0.004970
 1882 Fit       0.003239
 1883 Fit       0.003894
 1884 Fit       0.003210
 1885 Fit      -0.002707
 1886 Fit       0.001107
 1887 Fit       0.002986
 1888 Fit       0.002180
 1889 Fit      -0.001460
 1890 Fit       0.001688
 1891 Fit       0.001412
 1892 Fit      -0.003582
 1893 Fit      -0.001974
 1894 Fit       0.001487
 1895 Fit      -0.000857
 1896 Fit      -0.005469
 1897 Fit      -0.007223
 1898 Fit      -0.006399
 1899 Fit      -0.004338
 1900 Fit      -0.007637
 1901 Fit      -0.008620
 1902 Fit      -0.008742
 1903 Fit      -0.009008
 1904 Fit      -0.008627
 1905 Fit      -0.005607
 1906 Fit      -0.002355
 1907 Fit      -0.007170
 1908 Fit      -0.009186
 1909 Fit      -0.009054
 1910 Fit      -0.008139
 1911 Fit      -0.007776
 1912 Fit      -0.008433
 1913 Fit      -0.009297
 1914 Fit      -0.008524
 1915 Fit      -0.004043
 1916 Fit      -0.002597
 1917 Fit      -0.006897
 1918 Fit      -0.008745
 1919 Fit      -0.008328
 1920 Fit      -0.006665
 1921 Fit      -0.004997
 1922 Fit      -0.004286
 1923 Fit      -0.004939
 1924 Fit      -0.006576
 1925 Fit      -0.007848
 1926 Fit      -0.006907
 1927 Fit      -0.002719
 1928 Fit      -0.005369
 1929 Fit      -0.005535
 1930 Fit      -0.003914
 1931 Fit      -0.001776
 1932 Fit       0.000088
 1933 Fit       0.001232
 1934 Fit       0.001321
 1935 Fit      -0.000060
 1936 Fit      -0.002497
 1937 Fit      -0.004274
 1938 Fit      -0.003625
 1939 Fit       0.008406
 1940 Fit       0.000918
 1941 Fit       0.001903
 1942 Fit       0.004346
 1943 Fit       0.003452
 1944 Fit       0.005290
 1945 Fit       0.006937
 1946 Fit       0.003843
 1947 Fit       0.004600
 1948 Fit       0.001425
 1949 Fit       0.002002
 1950 Fit       0.000116
 1951 Fit       0.009995
 1952 Fit       0.008201
 1953 Fit       0.006846
 1954 Fit       0.005608
 1955 Fit       0.003931
 1956 Fit       0.006137
 1957 Fit       0.000607
 1958 Fit       0.003968
 1959 Fit       0.007206
 1960 Fit       0.005040
 1961 Fit       0.007012
 1962 Fit       0.006141
 1963 Fit       0.006011
 1964 Fit       0.005067
 1965 Fit       0.003262
 1966 Fit      -0.001580
 1967 Fit       0.000886
 1968 Fit       0.003132
 1969 Fit       0.004415
 1970 Fit       0.002831
 1971 Fit       0.004130
 1972 Fit       0.006742
 1973 Fit       0.009774
 1974 Fit       0.003950
 1975 Fit       0.008018
 1976 Fit       0.004768
 1977 Fit      -0.000063
 1978 Fit       0.000326
 1979 Fit       0.004634
 1980 Fit      -0.005722
 1981 Fit      -0.004960
 1982 Fit      -0.003739
 1983 Fit      -0.002125
 1984 Fit      -0.000563
 1985 Fit      -0.000292
 1986 Fit      -0.001937
 1987 Fit      -0.004355
 1988 Fit      -0.005537
 1989 Fit      -0.004011
 1990 Fit       0.000800
 1991 Fit      -0.002304
 1992 Fit      -0.005232
 1993 Fit      -0.009631
 1994 Fit      -0.009510
 1995 Fit      -0.008102
 1996 Fit      -0.006510
 1997 Fit      -0.005776
 1998 Fit      -0.006478
 1999 Fit      -0.008041
 2000 Fit      -0.008801
 2001 Fit      -0.006931
 2002 Fit      -0.001212
 2003 Fit      -0.002136
 2004 Fit      -0.007392
 2005 Fit      -0.009492
 2006 Fit      -0.010383
 2007 Fit      -0.009671
 2008 Fit      -0.008958
 2009 Fit      -0.009167
 2010 Fit      -0.009870
 2011 Fit      -0.009302
 2012 Fit      -0.005209
 2013 Fit      -0.005325
 2014 Fit      -0.007219
 2015 Fit      -0.009245
 2016 Fit      -0.009469
 2017 Fit      -0.009472
 2018 Fit      -0.008848
 2019 Fit      -0.005234
 2020 Fit      -0.004635
 2021 Fit      -0.007227
 2022 Fit      -0.006003
 2023 Fit      -0.002538
 2024 Fit       0.010844
 2025 Fit       0.011670
 2026 Fit       0.009778
 2027 Fit       0.012775
 2028 Fit       0.013194
 2029 Fit       0.005422
 2030 Fit       0.011634
 2031 Fit       0.010611
 2032 Fit       0.001158
 2033 Fit       0.004397
 2034 Fit       0.004955
 2035 Fit       0.001516
 2036 Fit       0.004834
 2037 Fit       0.002467
 2038 Fit      -0.000317
 2039 Fit       0.000363
 2040 Fit       0.003569
 2041 Fit      -0.001578
 2042 Fit       0.000774
 2043 Fit       0.001294
 2044 Fit       0.003472
 2045 Fit       0.000494
 2046 Fit      -0.000149
 2047 Fit       0.001835
 2048 Fit       0.001016
 2049 Fit      -0.002385
 2050 Fit       0.001408
 2051 Fit       0.001357
 2052 Fit       0.000020
 2053 Fit      -0.001548
 2054 Fit       0.000149
 2055 Fit       0.000458
 2056 Fit       0.000531
 2057 Fit      -0.001459
 2058 Fit       0.001492
 2059 Fit      -0.002227
 2060 Fit      -0.005137
 2061 Fit      -0.001924
 2062 Fit      -0.007174
 2063 Fit      -0.009255
 2064 Fit      -0.006286
 2065 Fit      -0.001394
 2066 Fit      -0.007371
 2067 Fit      -0.010635
 2068 Fit      -0.010455
 2069 Fit      -0.006448
 2070 Fit      -0.000354
 2071 Fit       0.001028
 2072 Fit      -0.005568
 2073 Fit      -0.009746
 2074 Fit      -0.011297
 2075 Fit      -0.009996
 2076 Fit      -0.006077
 2077 Fit      -0.000609
 2078 Fit      -0.003210
 2079 Fit      -0.007851
 2080 Fit      -0.010568
 2081 Fit      -0.011060
 2082 Fit      -0.009285
 2083 Fit      -0.005593
 2084 Fit      -0.001331
 2085 Fit      -0.001982
 2086 Fit      -0.006928
 2087 Fit      -0.010250
 2088 Fit      -0.011366
 2089 Fit      -0.010052
 2090 Fit      -0.006566
 2091 Fit      -0.004093
 2092 Fit      -0.005638
 2093 Fit      -0.009747
 2094 Fit      -0.011912
 2095 Fit      -0.011567
 2096 Fit      -0.008773
 2097 Fit      -0.007853
 2098 Fit      -0.004160
 2099 Fit      -0.007471
 2100 Fit      -0.011382
 2101 Fit      -0.012774
 2102 Fit      -0.011355
 2103 Fit      -0.010524
 2104 Fit      -0.007697
 2105 Fit      -0.006483
 2106 Fit      -0.010037
 2107 Fit      -0.012486
 2108 Fit      -0.010426
 2109 Fit       0.006229
 2110 Fit       0.008652
 2111 Fit       0.010284
 2112 Fit       0.009295
 2113 Fit       0.005890
 2114 Fit       0.001939
 2115 Fit       0.008374
 2116 Fit       0.007241
 2117 Fit       0.005131
 2118 Fit       0.000655
 2119 Fit       0.008545
 2120 Fit       0.007578
 2121 Fit       0.005871
 2122 Fit       0.002552
 2123 Fit       0.008243
 2124 Fit       0.007252
 2125 Fit       0.005501
 2126 Fit       0.002191
 2127 Fit       0.006341
 2128 Fit       0.003959
 2129 Fit       0.009968
 2130 Fit       0.012387
 2131 Fit       0.009707
 2132 Fit       0.007542
 2133 Fit       0.005393
 2134 Fit       0.011689
 2135 Fit       0.010252
 2136 Fit       0.009196
 2137 Fit       0.010796
 2138 Fit       0.010581
 2139 Fit       0.010067
 2140 Fit       0.007137
 2141 Fit       0.005556
 2142 Fit       0.008007
 2143 Fit       0.004418
 2144 Fit       0.005444
 2145 Fit       0.005687
 2146 Fit       0.003627
 2147 Fit       0.003509
 2148 Fit       0.004044
 2149 Fit      -0.000813
 2150 Fit       0.002521
 2151 Fit       0.002721
 2152 Fit       0.000703
 2153 Fit       0.001820
 2154 Fit       0.006340
 2155 Fit       0.003642
 2156 Fit       0.004771
 2157 Fit       0.005206
 2158 Fit       0.004699
 2159 Fit       0.004551
 2160 Fit       0.004412
 2161 Fit       0.004552
 2162 Fit       0.004109
 2163 Fit       0.003652
 2164 Fit       0.002531
 2165 Fit       0.002745
 2166 Fit       0.004089
 2167 Fit       0.003077
 2168 Fit      -0.000695
 2169 Fit       0.003320
 2170 Fit       0.003264
 2171 Fit       0.001832
 2172 Fit      -0.002207
 2173 Fit      -0.002137
 2174 Fit       0.000088
 2175 Fit       0.001775
 2176 Fit       0.002566
 2177 Fit       0.002224
 2178 Fit      -0.000356
 2179 Fit       0.001171
 2180 Fit       0.010245
 2181 Fit       0.009652
 2182 Fit       0.007857
 2183 Fit       0.008224
 2184 Fit       0.008538
 2185 Fit       0.009133
 2186 Fit       0.006351
 2187 Fit       0.007032
 2188 Fit       0.007444
 2189 Fit       0.007526
 2190 Fit       0.007740
 2191 Fit       0.005126
 2192 Fit       0.005841
 2193 Fit       0.006226
 2194 Fit       0.006161
 2195 Fit       0.005954
 2196 Fit       0.004580
 2197 Fit       0.004691
 Job cpu time:       0 days  0 hours 11 minutes  2.9 seconds.
 Normal termination of Gaussian 16 at Sun Jul  9 10:16:00 2023.
