 Copyright (c) 1988-2019, Gaussian, Inc.  All Rights Reserved.
  
 This is part of the Gaussian(R) 16 program.  It is based on
 the Gaussian(R) 09 system (copyright 2009, Gaussian, Inc.),
 the Gaussian(R) 03 system (copyright 2003, Gaussian, Inc.),
 the Gaussian(R) 98 system (copyright 1998, Gaussian, Inc.),
 the Gaussian(R) 94 system (copyright 1995, Gaussian, Inc.),
 the Gaussian 92(TM) system (copyright 1992, Gaussian, Inc.),
 the Gaussian 90(TM) system (copyright 1990, Gaussian, Inc.),
 the Gaussian 88(TM) system (copyright 1988, Gaussian, Inc.),
 the Gaussian 86(TM) system (copyright 1986, Carnegie Mellon
 University), and the Gaussian 82(TM) system (copyright 1983,
 Carnegie Mellon University). Gaussian is a federally registered
 trademark of Gaussian, Inc.
 Cite this work as:
 Gaussian 16, Revision C.01,
 M. J. Frisch, G. W. Trucks, H. B. Schlegel, G. E. Scuseria, 
 M. A. Robb, J. R. Cheeseman, G. Scalmani, V. Barone, 
 G. A. Petersson, H. Nakatsuji, X. Li, M. Caricato, A. V. Marenich, 
 J. Bloino, B. G. Janesko, R. Gomperts, B. Mennucci, H. P. Hratchian, 
 J. V. Ortiz, A. F. Izmaylov, J. L. Sonnenberg, D. Williams-Young, 
 F. Ding, F. Lipparini, F. Egidi, J. Goings, B. Peng, A. Petrone, 
 T. Henderson, D. Ranasinghe, V. G. Zakrzewski, J. Gao, N. Rega, 
 G. Zheng, W. Liang, M. Hada, M. Ehara, K. Toyota, R. Fukuda, 
 J. Hasegawa, M. Ishida, T. Nakajima, Y. Honda, O. Kitao, H. Nakai, 
 T. Vreven, K. Throssell, J. A. Montgomery, Jr., J. E. Peralta, 
 F. Ogliaro, M. J. Bearpark, J. J. Heyd, E. N. Brothers, K. N. Kudin, 
 V. N. Staroverov, T. A. Keith, R. Kobayashi, J. Normand, 
 K. Raghavachari, A. P. Rendell, J. C. Burant, S. S. Iyengar, 
 J. Tomasi, M. Cossi, J. M. Millam, M. Klene, C. Adamo, R. Cammi, 
 J. W. Ochterski, R. L. Martin, K. Morokuma, O. Farkas, 
 J. B. Foresman, and D. J. Fox, Gaussian, Inc., Wallingford CT, 2019.
 
 ******************************************
 Gaussian 16:  EM64L-G16RevC.01  3-Jul-2019
                 9-Jul-2023 
 ******************************************
 ----------------------------------------------------------------------
 #P B3LYP/6-31G(d) Integral=Ultrafine SCF(Conver=8,XQC,MaxConventionalC
 ycles=64,MaxCycle=128) NoSymm Test Pop=mk IOp(6/33=2) GFInput GFPrint
 ----------------------------------------------------------------------
 1/38=1,172=1/1;
 2/12=2,15=1,17=6,18=5,40=1/2;
 3/5=1,6=6,7=1,11=2,24=110,25=1,30=1,74=-5,75=-5/1,2,3;
 4//1;
 5/5=2,6=8,7=128,8=3,13=1,38=5,85=64/2,8;
 6/7=2,8=2,9=2,10=2,15=8,20=1,28=1,33=2/1,2;
 99/5=1,9=1/99;
 -------------------------------------------------
 MEP step - Input generated by PyRED DVE-DMDS-OPLS
 -------------------------------------------------
 Symbolic Z-matrix:
 Charge =  0 Multiplicity = 1
 C                     0.56867  -7.73008   3.31223 
 H                     0.47745  -7.62534   2.22572 
 H                     1.63362  -7.75392   3.56652 
 H                     0.12511  -8.69297   3.59177 
 C                    -0.13016  -6.59403   4.05756 
 H                    -1.20083  -6.56377   3.79422 
 H                    -0.06071  -6.75804   5.13826 
 O                     0.45758  -5.31849   3.83779 
 C                     0.18873  -4.74806   2.57155 
 H                    -0.89619  -4.75403   2.37077 
 H                     0.68058  -5.29714   1.75429 
 C                     0.73143  -3.31822   2.60767 
 H                     0.2288   -2.749     3.40357 
 H                     1.79988  -3.3522    2.84133 
 O                     0.61271  -2.65976   1.35531 
 C                    -0.67289  -2.12265   1.08122 
 H                    -1.02143  -1.50603   1.92473 
 H                    -1.41325  -2.92438   0.92114 
 C                    -0.60913  -1.26677  -0.17725 
 H                    -1.63495  -1.05851  -0.50271 
 H                    -0.10433  -1.83365  -0.9757 
 O                     0.        0.        0. 
 C                     1.42362   0.        0. 
 H                     1.79109  -0.5021   -0.9128 
 H                     1.81812  -0.54556   0.86368 
 C                     1.91467   1.44107   0. 
 H                     1.45808   1.9957   -0.8274 
 H                     2.99896   1.44425  -0.15637 
 S                     1.66484   2.37382   1.5636 
 C                    -0.12278   2.8212    1.44592 
 H                    -0.27442   3.38885   0.52115 
 H                    -0.71805   1.90949   1.38936 
 C                    -0.50561   3.6533    2.668 
 H                     0.13158   4.53812   2.76737 
 H                    -0.37881   3.06618   3.58336 
 S                    -2.27236   4.15872   2.694 
 C                    -2.33409   5.43962   1.37681 
 H                    -3.3984    5.68191   1.29434 
 H                    -2.0242    4.99789   0.42287 
 C                    -1.52548   6.71331   1.62749 
 H                    -0.45551   6.48671   1.67956 
 H                    -1.67789   7.38978   0.77657 
 S                    -2.06687   7.58469   3.15588 
 C                    -1.4524    9.27846   2.78912 
 H                    -1.87071   9.60715   1.83004 
 H                    -1.9074    9.9021    3.56635 
 C                     0.0684    9.43313   2.80662 
 H                     0.54492   8.82998   2.02625 
 H                     0.34637   10.48032   2.63175 
 H                     0.48197   9.12353   3.77158 
 
 ITRead=  0  0  0  0  0  0  0  0  0  0  0  0  0  0  0  0  0  0  0  0
 ITRead=  0  0  0  0  0  0  0  0  0  0  0  0  0  0  0  0  0  0  0  0
 ITRead=  0  0  0  0  0  0  0  0  0  0
 MicOpt= -1 -1 -1 -1 -1 -1 -1 -1 -1 -1 -1 -1 -1 -1 -1 -1 -1 -1 -1 -1
 MicOpt= -1 -1 -1 -1 -1 -1 -1 -1 -1 -1 -1 -1 -1 -1 -1 -1 -1 -1 -1 -1
 MicOpt= -1 -1 -1 -1 -1 -1 -1 -1 -1 -1
 NAtoms=     50 NQM=       50 NQMF=       0 NMMI=      0 NMMIF=      0
                NMic=       0 NMicF=      0.
                          Input orientation:                          
 ---------------------------------------------------------------------
 Center     Atomic      Atomic             Coordinates (Angstroms)
 Number     Number       Type             X           Y           Z
 ---------------------------------------------------------------------
      1          6           0        0.568669   -7.730078    3.312225
      2          1           0        0.477452   -7.625337    2.225716
      3          1           0        1.633619   -7.753920    3.566523
      4          1           0        0.125105   -8.692968    3.591765
      5          6           0       -0.130164   -6.594032    4.057564
      6          1           0       -1.200826   -6.563766    3.794224
      7          1           0       -0.060711   -6.758037    5.138263
      8          8           0        0.457582   -5.318486    3.837794
      9          6           0        0.188729   -4.748057    2.571552
     10          1           0       -0.896186   -4.754027    2.370768
     11          1           0        0.680578   -5.297136    1.754290
     12          6           0        0.731427   -3.318220    2.607672
     13          1           0        0.228804   -2.748996    3.403573
     14          1           0        1.799876   -3.352197    2.841329
     15          8           0        0.612709   -2.659757    1.355313
     16          6           0       -0.672885   -2.122650    1.081221
     17          1           0       -1.021432   -1.506027    1.924729
     18          1           0       -1.413247   -2.924380    0.921141
     19          6           0       -0.609132   -1.266770   -0.177254
     20          1           0       -1.634951   -1.058508   -0.502710
     21          1           0       -0.104333   -1.833647   -0.975696
     22          8           0        0.000000    0.000000    0.000000
     23          6           0        1.423616    0.000000    0.000000
     24          1           0        1.791092   -0.502104   -0.912800
     25          1           0        1.818121   -0.545556    0.863678
     26          6           0        1.914674    1.441066    0.000000
     27          1           0        1.458078    1.995698   -0.827395
     28          1           0        2.998956    1.444246   -0.156373
     29         16           0        1.664838    2.373815    1.563599
     30          6           0       -0.122779    2.821204    1.445917
     31          1           0       -0.274421    3.388850    0.521147
     32          1           0       -0.718049    1.909489    1.389364
     33          6           0       -0.505611    3.653300    2.668001
     34          1           0        0.131582    4.538117    2.767367
     35          1           0       -0.378807    3.066177    3.583364
     36         16           0       -2.272361    4.158724    2.694001
     37          6           0       -2.334087    5.439624    1.376810
     38          1           0       -3.398403    5.681907    1.294340
     39          1           0       -2.024199    4.997892    0.422865
     40          6           0       -1.525480    6.713312    1.627492
     41          1           0       -0.455507    6.486705    1.679564
     42          1           0       -1.677891    7.389780    0.776572
     43         16           0       -2.066868    7.584692    3.155880
     44          6           0       -1.452398    9.278456    2.789120
     45          1           0       -1.870706    9.607147    1.830041
     46          1           0       -1.907399    9.902101    3.566347
     47          6           0        0.068399    9.433131    2.806624
     48          1           0        0.544915    8.829978    2.026250
     49          1           0        0.346372   10.480322    2.631746
     50          1           0        0.481968    9.123532    3.771579
 ---------------------------------------------------------------------
 Stoichiometry    C14H30O3S3
 Framework group  C1[X(C14H30O3S3)]
 Standard basis: 6-31G(d) (6D, 7F)
   372 basis functions,   752 primitive gaussians,   372 cartesian basis functions
    93 alpha electrons       93 beta electrons
 Requested convergence on RMS density matrix=1.00D-08 within  64 cycles.
 Requested convergence on MAX density matrix=1.00D-06.
 Requested convergence on             energy=1.00D-06.
 SCF Done:  E(RB3LYP) =  -1971.75304844     A.U. after   13 cycles
            NFock= 13  Conv=0.43D-08     -V/T= 2.0058
 Mulliken charges:
     1  C   -0.461074
     2  H    0.150751
     3  H    0.159556
     4  H    0.145255
     5  C   -0.013405
     6  H    0.119685
     7  H    0.146882
     8  O   -0.473918
     9  C   -0.030815
    10  H    0.117308
    11  H    0.132844
    12  C   -0.037709
    13  H    0.138014
    14  H    0.158623
    15  O   -0.477584
    16  C   -0.028337
    17  H    0.139295
    18  H    0.120416
    19  C   -0.038816
    20  H    0.146351
    21  H    0.133714
    22  O   -0.472971
    23  C   -0.003098
    24  H    0.119676
    25  H    0.165749
    26  C   -0.436318
    27  H    0.172802
    28  H    0.174674
    29  S    0.067687
    30  C   -0.392555
    31  H    0.161711
    32  H    0.207558
    33  C   -0.438386
    34  H    0.188280
    35  H    0.192286
    36  S    0.107874
    37  C   -0.426402
    38  H    0.191343
    39  H    0.174421
    40  C   -0.401614
    41  H    0.177139
    42  H    0.166269
    43  S    0.105815
    44  C   -0.413471
    45  H    0.162879
    46  H    0.174780
    47  C   -0.436531
    48  H    0.150985
    49  H    0.147364
    50  H    0.165018
 Sum of Mulliken charges =  -0.00000
 Dipole moment (field-independent basis, Debye):
    X=              0.0141    Y=             -1.6736    Z=             -3.3667  Tot=              3.7597
 Quadrupole moment (field-independent basis, Debye-Ang):
   XX=           -152.8481   YY=           -117.6228   ZZ=           -159.5813
   XY=              9.3623   XZ=              3.0508   YZ=            -16.5249
 Traceless Quadrupole moment (field-independent basis, Debye-Ang):
   XX=             -9.4973   YY=             25.7280   ZZ=            -16.2306
   XY=              9.3623   XZ=              3.0508   YZ=            -16.5249
 Octapole moment (field-independent basis, Debye-Ang**2):
  XXX=            155.6568  YYY=           -559.3078  ZZZ=           -935.8282  XYY=             40.2829
  XXY=           -267.7187  XXZ=           -331.9336  XZZ=             63.4953  YZZ=           -291.4845
  YYZ=           -289.0778  XYZ=             52.8839
 Hexadecapole moment (field-independent basis, Debye-Ang**3):
 XXXX=          -1938.0846 YYYY=         -21179.7167 ZZZZ=          -5322.8355 XXXY=           1725.3272
 XXXZ=            566.0732 YYYX=           1748.4560 YYYZ=          -1546.2249 ZZZX=            563.1662
 ZZZY=          -1520.7751 XXYY=          -4663.7673 XXZZ=          -1292.1673 YYZZ=          -5046.9844
 XXYZ=           -601.5669 YYXZ=            327.5765 ZZXY=            767.6855
 Merz-Kollman atomic radii used.
 Atom Element Radius
    1     6    1.50
    2     1    1.20
    3     1    1.20
    4     1    1.20
    5     6    1.50
    6     1    1.20
    7     1    1.20
    8     8    1.40
    9     6    1.50
   10     1    1.20
   11     1    1.20
   12     6    1.50
   13     1    1.20
   14     1    1.20
   15     8    1.40
   16     6    1.50
   17     1    1.20
   18     1    1.20
   19     6    1.50
   20     1    1.20
   21     1    1.20
   22     8    1.40
   23     6    1.50
   24     1    1.20
   25     1    1.20
   26     6    1.50
   27     1    1.20
   28     1    1.20
   29    16    1.75
   30     6    1.50
   31     1    1.20
   32     1    1.20
   33     6    1.50
   34     1    1.20
   35     1    1.20
   36    16    1.75
   37     6    1.50
   38     1    1.20
   39     1    1.20
   40     6    1.50
   41     1    1.20
   42     1    1.20
   43    16    1.75
   44     6    1.50
   45     1    1.20
   46     1    1.20
   47     6    1.50
   48     1    1.20
   49     1    1.20
   50     1    1.20
 Generate VDW surfaces: Layer= 4 Dens= 1 Start= 1.400 Inc= 0.200
            Electrostatic Properties Using The SCF Density.


       Atomic Center    1 is at   0.568669 -7.730078  3.312225
       Atomic Center    2 is at   0.477452 -7.625337  2.225716
       Atomic Center    3 is at   1.633619 -7.753920  3.566523
       Atomic Center    4 is at   0.125105 -8.692968  3.591765
       Atomic Center    5 is at  -0.130164 -6.594032  4.057564
       Atomic Center    6 is at  -1.200826 -6.563766  3.794224
       Atomic Center    7 is at  -0.060711 -6.758037  5.138263
       Atomic Center    8 is at   0.457582 -5.318486  3.837794
       Atomic Center    9 is at   0.188729 -4.748057  2.571552
       Atomic Center   10 is at  -0.896186 -4.754027  2.370768
       Atomic Center   11 is at   0.680578 -5.297136  1.754290
       Atomic Center   12 is at   0.731427 -3.318220  2.607672
       Atomic Center   13 is at   0.228804 -2.748996  3.403573
       Atomic Center   14 is at   1.799876 -3.352197  2.841329
       Atomic Center   15 is at   0.612709 -2.659757  1.355313
       Atomic Center   16 is at  -0.672885 -2.122650  1.081221
       Atomic Center   17 is at  -1.021432 -1.506027  1.924729
       Atomic Center   18 is at  -1.413247 -2.924380  0.921141
       Atomic Center   19 is at  -0.609132 -1.266770 -0.177254
       Atomic Center   20 is at  -1.634951 -1.058508 -0.502710
       Atomic Center   21 is at  -0.104333 -1.833647 -0.975696
       Atomic Center   22 is at   0.000000  0.000000  0.000000
       Atomic Center   23 is at   1.423616  0.000000  0.000000
       Atomic Center   24 is at   1.791092 -0.502104 -0.912800
       Atomic Center   25 is at   1.818121 -0.545556  0.863678
       Atomic Center   26 is at   1.914674  1.441066  0.000000
       Atomic Center   27 is at   1.458078  1.995698 -0.827395
       Atomic Center   28 is at   2.998956  1.444246 -0.156373
       Atomic Center   29 is at   1.664838  2.373815  1.563599
       Atomic Center   30 is at  -0.122779  2.821204  1.445917
       Atomic Center   31 is at  -0.274421  3.388850  0.521147
       Atomic Center   32 is at  -0.718049  1.909489  1.389364
       Atomic Center   33 is at  -0.505611  3.653300  2.668001
       Atomic Center   34 is at   0.131582  4.538117  2.767367
       Atomic Center   35 is at  -0.378807  3.066177  3.583364
       Atomic Center   36 is at  -2.272361  4.158724  2.694001
       Atomic Center   37 is at  -2.334087  5.439624  1.376810
       Atomic Center   38 is at  -3.398403  5.681907  1.294340
       Atomic Center   39 is at  -2.024199  4.997892  0.422865
       Atomic Center   40 is at  -1.525480  6.713312  1.627492
       Atomic Center   41 is at  -0.455507  6.486705  1.679564
       Atomic Center   42 is at  -1.677891  7.389780  0.776572
       Atomic Center   43 is at  -2.066868  7.584692  3.155880
       Atomic Center   44 is at  -1.452398  9.278456  2.789120
       Atomic Center   45 is at  -1.870706  9.607147  1.830041
       Atomic Center   46 is at  -1.907399  9.902101  3.566347
       Atomic Center   47 is at   0.068399  9.433131  2.806624
       Atomic Center   48 is at   0.544915  8.829978  2.026250
       Atomic Center   49 is at   0.346372 10.480322  2.631746
       Atomic Center   50 is at   0.481968  9.123532  3.771579
      ESP Fit Center   51 is at   1.093669 -8.639405  5.130878
      ESP Fit Center   52 is at  -1.470309 -8.232641  3.312225
      ESP Fit Center   53 is at   1.761605 -9.458344  3.312225
      ESP Fit Center   54 is at   2.098618 -6.746840  2.262225
      ESP Fit Center   55 is at  -1.176316 -8.242452  2.262225
      ESP Fit Center   56 is at   1.324165 -9.384383  2.262225
      ESP Fit Center   57 is at   2.098618 -8.713316  2.262225
      ESP Fit Center   58 is at   2.075227 -7.625337  1.706567
      ESP Fit Center   59 is at  -1.023965 -7.078866  1.706567
      ESP Fit Center   60 is at  -1.023965 -8.171808  1.706567
      ESP Fit Center   61 is at  -0.321435 -9.009051  1.706567
      ESP Fit Center   62 is at   0.754903 -9.198838  1.706567
      ESP Fit Center   63 is at   1.701419 -8.652367  1.706567
      ESP Fit Center   64 is at   1.464931 -7.625337  0.866567
      ESP Fit Center   65 is at  -0.321435 -7.044911  0.866567
      ESP Fit Center   66 is at  -0.321435 -8.205763  0.866567
      ESP Fit Center   67 is at   0.782600 -8.564486  0.866567
      ESP Fit Center   68 is at   0.477452 -7.625337  0.545716
      ESP Fit Center   69 is at   1.633619 -7.753920  5.246523
      ESP Fit Center   70 is at   2.621098 -7.753920  4.925672
      ESP Fit Center   71 is at   1.938767 -6.814771  4.925672
      ESP Fit Center   72 is at   1.938767 -8.693069  4.925672
      ESP Fit Center   73 is at   3.231394 -7.753920  4.085672
      ESP Fit Center   74 is at   2.857586 -6.726890  4.085672
      ESP Fit Center   75 is at   1.911070 -9.327421  4.085672
      ESP Fit Center   76 is at   2.857586 -8.780950  4.085672
      ESP Fit Center   77 is at   3.231394 -7.753920  3.047374
      ESP Fit Center   78 is at   2.857586 -6.726890  3.047374
      ESP Fit Center   79 is at   1.911070 -9.327421  3.047374
      ESP Fit Center   80 is at   2.857586 -8.780950  3.047374
      ESP Fit Center   81 is at   2.621098 -7.753920  2.207374
      ESP Fit Center   82 is at   0.125105 -8.692968  5.271765
      ESP Fit Center   83 is at  -0.673782 -9.273394  4.950914
      ESP Fit Center   84 is at   0.430253 -9.632117  4.950914
      ESP Fit Center   85 is at  -1.376312 -9.239439  4.110914
      ESP Fit Center   86 is at  -0.673782-10.076682  4.110914
      ESP Fit Center   87 is at   0.402556-10.266469  4.110914
      ESP Fit Center   88 is at   1.349072 -9.719998  4.110914
      ESP Fit Center   89 is at  -1.376312 -9.239439  3.072616
      ESP Fit Center   90 is at  -0.673782-10.076682  3.072616
      ESP Fit Center   91 is at   0.402556-10.266469  3.072616
      ESP Fit Center   92 is at   1.349072 -9.719998  3.072616
      ESP Fit Center   93 is at  -0.673782 -9.273394  2.232616
      ESP Fit Center   94 is at   0.430253 -9.632117  2.232616
      ESP Fit Center   95 is at   1.688489 -6.594032  5.107564
      ESP Fit Center   96 is at  -1.321129 -5.219586  5.107564
      ESP Fit Center   97 is at  -1.321129 -7.968478  5.107564
      ESP Fit Center   98 is at  -1.999713 -5.983340  5.153373
      ESP Fit Center   99 is at  -1.999713 -7.144192  5.153373
      ESP Fit Center  100 is at  -1.999713 -5.180052  4.313373
      ESP Fit Center  101 is at  -2.702243 -6.017295  4.313373
      ESP Fit Center  102 is at  -2.702243 -7.110237  4.313373
      ESP Fit Center  103 is at  -1.999713 -7.947480  4.313373
      ESP Fit Center  104 is at  -2.702243 -6.017295  3.275075
      ESP Fit Center  105 is at  -2.702243 -7.110237  3.275075
      ESP Fit Center  106 is at  -1.999713 -7.947480  3.275075
      ESP Fit Center  107 is at  -1.999713 -7.144192  2.435075
      ESP Fit Center  108 is at  -1.200826 -6.563766  2.114224
      ESP Fit Center  109 is at  -0.060711 -6.758037  6.818263
      ESP Fit Center  110 is at   0.926768 -6.758037  6.497412
      ESP Fit Center  111 is at   0.244437 -5.818888  6.497412
      ESP Fit Center  112 is at  -0.859598 -6.177611  6.497412
      ESP Fit Center  113 is at  -0.859598 -7.338463  6.497412
      ESP Fit Center  114 is at   0.244437 -7.697186  6.497412
      ESP Fit Center  115 is at   1.537064 -6.758037  5.657412
      ESP Fit Center  116 is at   1.163256 -5.731007  5.657412
      ESP Fit Center  117 is at  -0.859598 -5.374323  5.657412
      ESP Fit Center  118 is at  -1.562128 -6.211566  5.657412
      ESP Fit Center  119 is at  -1.562128 -7.304508  5.657412
      ESP Fit Center  120 is at  -0.859598 -8.141751  5.657412
      ESP Fit Center  121 is at   0.216740 -8.331538  5.657412
      ESP Fit Center  122 is at   1.163256 -7.785067  5.657412
      ESP Fit Center  123 is at   1.437582 -5.318486  5.535204
      ESP Fit Center  124 is at   0.947582 -4.469781  5.535204
      ESP Fit Center  125 is at  -0.032418 -4.469781  5.535204
      ESP Fit Center  126 is at   2.154992 -5.318486  4.817794
      ESP Fit Center  127 is at   1.830815 -4.320774  4.817794
      ESP Fit Center  128 is at   0.982110 -3.704153  4.817794
      ESP Fit Center  129 is at  -0.066946 -3.704153  4.817794
      ESP Fit Center  130 is at  -0.915651 -4.320774  4.817794
      ESP Fit Center  131 is at   1.830815 -6.316198  4.817794
      ESP Fit Center  132 is at   2.417582 -5.318486  3.837794
      ESP Fit Center  133 is at  -1.695073 -4.173601  3.729917
      ESP Fit Center  134 is at  -1.695073 -3.370313  2.889917
      ESP Fit Center  135 is at  -2.397603 -4.207556  2.889917
      ESP Fit Center  136 is at  -2.397603 -5.300498  2.889917
      ESP Fit Center  137 is at  -2.397603 -4.207556  1.851619
      ESP Fit Center  138 is at  -2.397603 -5.300498  1.851619
      ESP Fit Center  139 is at  -1.695073 -6.137741  1.851619
      ESP Fit Center  140 is at  -1.695073 -5.334453  1.011619
      ESP Fit Center  141 is at  -0.896186 -4.754027  0.690768
      ESP Fit Center  142 is at   2.278353 -5.297136  2.273439
      ESP Fit Center  143 is at   1.904545 -6.324166  2.273439
      ESP Fit Center  144 is at   2.278353 -5.297136  1.235141
      ESP Fit Center  145 is at   1.904545 -6.324166  1.235141
      ESP Fit Center  146 is at   1.668057 -5.297136  0.395141
      ESP Fit Center  147 is at   0.985726 -4.357987  0.395141
      ESP Fit Center  148 is at  -0.118309 -4.716710  0.395141
      ESP Fit Center  149 is at  -0.118309 -5.877562  0.395141
      ESP Fit Center  150 is at   0.985726 -6.236285  0.395141
      ESP Fit Center  151 is at   0.680578 -5.297136  0.074290
      ESP Fit Center  152 is at   1.486923 -1.663915  3.657672
      ESP Fit Center  153 is at   1.924363 -1.589954  2.607672
      ESP Fit Center  154 is at   0.228804 -2.748996  5.083573
      ESP Fit Center  155 is at   1.216283 -2.748996  4.762722
      ESP Fit Center  156 is at   0.533952 -1.809847  4.762722
      ESP Fit Center  157 is at  -0.570083 -2.168570  4.762722
      ESP Fit Center  158 is at  -0.570083 -3.329422  4.762722
      ESP Fit Center  159 is at   1.452771 -1.721966  3.922722
      ESP Fit Center  160 is at   0.506255 -1.175495  3.922722
      ESP Fit Center  161 is at  -0.570083 -1.365282  3.922722
      ESP Fit Center  162 is at  -1.272613 -2.202525  3.922722
      ESP Fit Center  163 is at  -1.272613 -3.295467  3.922722
      ESP Fit Center  164 is at   0.506255 -1.175495  2.884424
      ESP Fit Center  165 is at   1.799876 -3.352197  4.521329
      ESP Fit Center  166 is at   2.787355 -3.352197  4.200478
      ESP Fit Center  167 is at   2.105024 -2.413048  4.200478
      ESP Fit Center  168 is at   2.105024 -4.291346  4.200478
      ESP Fit Center  169 is at   3.397651 -3.352197  3.360478
      ESP Fit Center  170 is at   3.023843 -2.325167  3.360478
      ESP Fit Center  171 is at   2.077327 -1.778696  3.360478
      ESP Fit Center  172 is at   3.023843 -4.379227  3.360478
      ESP Fit Center  173 is at   3.397651 -3.352197  2.322180
      ESP Fit Center  174 is at   3.023843 -2.325167  2.322180
      ESP Fit Center  175 is at   3.023843 -4.379227  2.322180
      ESP Fit Center  176 is at   2.787355 -3.352197  1.482180
      ESP Fit Center  177 is at   1.137237 -1.045424  2.335313
      ESP Fit Center  178 is at   2.572709 -2.659757  1.355313
      ESP Fit Center  179 is at   2.310119 -2.659757  0.375313
      ESP Fit Center  180 is at   0.088181 -4.274090  0.375313
      ESP Fit Center  181 is at   1.137237 -4.274090  0.375313
      ESP Fit Center  182 is at   1.985942 -3.657469  0.375313
      ESP Fit Center  183 is at   1.592709 -2.659757 -0.342097
      ESP Fit Center  184 is at   0.122709 -3.508462 -0.342097
      ESP Fit Center  185 is at   1.102709 -3.508462 -0.342097
      ESP Fit Center  186 is at  -2.711863 -1.620087  1.081221
      ESP Fit Center  187 is at  -1.021432 -1.506027  3.604729
      ESP Fit Center  188 is at  -0.716284 -0.566878  3.283878
      ESP Fit Center  189 is at  -1.820319 -0.925601  3.283878
      ESP Fit Center  190 is at  -1.820319 -2.086453  3.283878
      ESP Fit Center  191 is at   0.202535 -0.478997  2.443878
      ESP Fit Center  192 is at  -0.743981  0.067474  2.443878
      ESP Fit Center  193 is at  -1.820319 -0.122313  2.443878
      ESP Fit Center  194 is at  -2.522849 -0.959556  2.443878
      ESP Fit Center  195 is at  -2.522849 -2.052498  2.443878
      ESP Fit Center  196 is at  -1.820319 -0.122313  1.405580
      ESP Fit Center  197 is at  -2.522849 -0.959556  1.405580
      ESP Fit Center  198 is at  -2.212134 -3.504806  2.280290
      ESP Fit Center  199 is at  -2.914664 -2.377909  1.440290
      ESP Fit Center  200 is at  -2.914664 -3.470851  1.440290
      ESP Fit Center  201 is at  -2.914664 -2.377909  0.401992
      ESP Fit Center  202 is at  -2.914664 -3.470851  0.401992
      ESP Fit Center  203 is at  -2.212134 -4.308094  0.401992
      ESP Fit Center  204 is at  -1.135796 -4.497881  0.401992
      ESP Fit Center  205 is at  -2.212134 -3.504806 -0.438008
      ESP Fit Center  206 is at  -1.108099 -3.863529 -0.438008
      ESP Fit Center  207 is at  -1.800097  0.107676  0.872746
      ESP Fit Center  208 is at  -1.800097 -2.641216 -1.227254
      ESP Fit Center  209 is at  -0.084132 -0.357443 -1.995907
      ESP Fit Center  210 is at  -1.134132 -0.357443 -1.995907
      ESP Fit Center  211 is at  -2.433838 -0.478082  0.856439
      ESP Fit Center  212 is at  -2.433838  0.325206  0.016439
      ESP Fit Center  213 is at  -3.136368 -0.512037  0.016439
      ESP Fit Center  214 is at  -3.136368 -1.604979  0.016439
      ESP Fit Center  215 is at  -2.433838  0.325206 -1.021859
      ESP Fit Center  216 is at  -3.136368 -0.512037 -1.021859
      ESP Fit Center  217 is at  -3.136368 -1.604979 -1.021859
      ESP Fit Center  218 is at  -2.433838 -2.442222 -1.021859
      ESP Fit Center  219 is at  -1.329803 -0.119359 -1.861859
      ESP Fit Center  220 is at  -2.433838 -0.478082 -1.861859
      ESP Fit Center  221 is at  -2.433838 -1.638934 -1.861859
      ESP Fit Center  222 is at  -1.634951 -1.058508 -2.182710
      ESP Fit Center  223 is at   0.173118 -3.407148 -0.456547
      ESP Fit Center  224 is at  -0.903220 -3.217361 -1.494845
      ESP Fit Center  225 is at   0.173118 -3.407148 -1.494845
      ESP Fit Center  226 is at   1.119634 -2.860677 -1.494845
      ESP Fit Center  227 is at   0.883146 -1.833647 -2.334845
      ESP Fit Center  228 is at   0.200815 -0.894498 -2.334845
      ESP Fit Center  229 is at  -0.903220 -1.253221 -2.334845
      ESP Fit Center  230 is at  -0.903220 -2.414073 -2.334845
      ESP Fit Center  231 is at   0.200815 -2.772796 -2.334845
      ESP Fit Center  232 is at  -0.104333 -1.833647 -2.655696
      ESP Fit Center  233 is at   0.000000  0.000000  1.960000
      ESP Fit Center  234 is at  -1.697410  0.980000  0.000000
      ESP Fit Center  235 is at  -0.524528  1.614333 -0.980000
      ESP Fit Center  236 is at  -1.373233  0.997712 -0.980000
      ESP Fit Center  237 is at   0.490000  0.848705 -1.697410
      ESP Fit Center  238 is at  -0.490000  0.848705 -1.697410
      ESP Fit Center  239 is at   0.000000  0.000000 -1.960000
      ESP Fit Center  240 is at   3.283074 -0.975919  0.000000
      ESP Fit Center  241 is at   2.068543 -2.075605 -0.393651
      ESP Fit Center  242 is at   3.015059 -1.529134 -0.393651
      ESP Fit Center  243 is at   3.388867 -0.502104 -1.431949
      ESP Fit Center  244 is at   2.068543 -2.075605 -1.431949
      ESP Fit Center  245 is at   3.015059 -1.529134 -1.431949
      ESP Fit Center  246 is at   2.778571 -0.502104 -2.271949
      ESP Fit Center  247 is at   2.096240  0.437045 -2.271949
      ESP Fit Center  248 is at   0.992205  0.078322 -2.271949
      ESP Fit Center  249 is at   0.992205 -1.082530 -2.271949
      ESP Fit Center  250 is at   2.096240 -1.441253 -2.271949
      ESP Fit Center  251 is at   1.791092 -0.502104 -2.592800
      ESP Fit Center  252 is at   1.818121 -0.545556  2.543678
      ESP Fit Center  253 is at   2.805600 -0.545556  2.222827
      ESP Fit Center  254 is at   1.019234  0.034870  2.222827
      ESP Fit Center  255 is at   2.123269 -1.484705  2.222827
      ESP Fit Center  256 is at   3.415896 -0.545556  1.382827
      ESP Fit Center  257 is at   3.042088 -1.572586  1.382827
      ESP Fit Center  258 is at   3.042088 -1.572586  0.344529
      ESP Fit Center  259 is at   2.682045  3.022728 -1.346544
      ESP Fit Center  260 is at   1.735529  3.569199 -1.346544
      ESP Fit Center  261 is at   0.659191  3.379412 -1.346544
      ESP Fit Center  262 is at  -0.043339  2.542169 -1.346544
      ESP Fit Center  263 is at  -0.043339  1.449227 -1.346544
      ESP Fit Center  264 is at   2.445557  1.995698 -2.186544
      ESP Fit Center  265 is at   1.763226  2.934847 -2.186544
      ESP Fit Center  266 is at   0.659191  2.576124 -2.186544
      ESP Fit Center  267 is at   0.659191  1.415272 -2.186544
      ESP Fit Center  268 is at   1.763226  1.056549 -2.186544
      ESP Fit Center  269 is at   1.458078  1.995698 -2.507395
      ESP Fit Center  270 is at   3.986435  1.444246  1.202776
      ESP Fit Center  271 is at   4.596731  1.444246  0.362776
      ESP Fit Center  272 is at   4.222923  2.471276  0.362776
      ESP Fit Center  273 is at   4.222923  0.417216  0.362776
      ESP Fit Center  274 is at   4.596731  1.444246 -0.675522
      ESP Fit Center  275 is at   4.222923  2.471276 -0.675522
      ESP Fit Center  276 is at   3.276407  3.017747 -0.675522
      ESP Fit Center  277 is at   4.222923  0.417216 -0.675522
      ESP Fit Center  278 is at   3.986435  1.444246 -1.515522
      ESP Fit Center  279 is at   3.304104  2.383395 -1.515522
      ESP Fit Center  280 is at   3.304104  0.505097 -1.515522
      ESP Fit Center  281 is at   2.998956  1.444246 -1.836373
      ESP Fit Center  282 is at   1.664838  2.373815  4.013599
      ESP Fit Center  283 is at   2.727853  2.373815  3.770973
      ESP Fit Center  284 is at   2.196346  3.294413  3.770973
      ESP Fit Center  285 is at   1.133330  1.453217  3.770973
      ESP Fit Center  286 is at   2.196346  1.453217  3.770973
      ESP Fit Center  287 is at   3.580325  2.373815  3.091149
      ESP Fit Center  288 is at   3.276248  3.409406  3.091149
      ESP Fit Center  289 is at   2.460560  4.116203  3.091149
      ESP Fit Center  290 is at   0.410461  0.926186  3.091149
      ESP Fit Center  291 is at   1.392236  0.477825  3.091149
      ESP Fit Center  292 is at   2.460560  0.631427  3.091149
      ESP Fit Center  293 is at   3.276248  1.338224  3.091149
      ESP Fit Center  294 is at   4.053411  2.373815  2.108775
      ESP Fit Center  295 is at   3.816868  3.410178  2.108775
      ESP Fit Center  296 is at   3.154089  4.241277  2.108775
      ESP Fit Center  297 is at   2.196346  4.702502  2.108775
      ESP Fit Center  298 is at   0.175587  0.506353  2.108775
      ESP Fit Center  299 is at   3.154089  0.506353  2.108775
      ESP Fit Center  300 is at   3.816868  1.337452  2.108775
      ESP Fit Center  301 is at   4.053411  2.373815  1.018423
      ESP Fit Center  302 is at   3.816868  3.410178  1.018423
      ESP Fit Center  303 is at   3.154089  4.241277  1.018423
      ESP Fit Center  304 is at   2.196346  4.702502  1.018423
      ESP Fit Center  305 is at   1.133330  4.702502  1.018423
      ESP Fit Center  306 is at   3.276248  3.409406  0.036049
      ESP Fit Center  307 is at   2.460560  4.116203  0.036049
      ESP Fit Center  308 is at   1.392236  4.269805  0.036049
      ESP Fit Center  309 is at  -0.647779  1.911877 -0.372736
      ESP Fit Center  310 is at   0.003030  4.962351  1.040296
      ESP Fit Center  311 is at   0.949546  4.415880  0.001998
      ESP Fit Center  312 is at   0.003030  4.962351  0.001998
      ESP Fit Center  313 is at  -1.775838  2.842379  0.001998
      ESP Fit Center  314 is at   0.030727  4.327999 -0.838002
      ESP Fit Center  315 is at  -1.073308  3.969276 -0.838002
      ESP Fit Center  316 is at  -1.073308  2.808424 -0.838002
      ESP Fit Center  317 is at  -0.274421  3.388850 -1.158853
      ESP Fit Center  318 is at  -1.516936  1.329063  2.748513
      ESP Fit Center  319 is at  -0.412901  0.970340  2.748513
      ESP Fit Center  320 is at  -2.219466  1.363018  1.908513
      ESP Fit Center  321 is at  -1.516936  0.525775  1.908513
      ESP Fit Center  322 is at  -0.440598  0.335988  1.908513
      ESP Fit Center  323 is at  -2.219466  2.455960  0.870215
      ESP Fit Center  324 is at  -2.219466  1.363018  0.870215
      ESP Fit Center  325 is at  -1.516936  1.329063  0.030215
      ESP Fit Center  326 is at   0.019389  4.562627  4.486654
      ESP Fit Center  327 is at   1.313042  3.653300  3.718001
      ESP Fit Center  328 is at   1.119061  4.538117  4.126516
      ESP Fit Center  329 is at   0.436730  5.477266  4.126516
      ESP Fit Center  330 is at   1.729357  4.538117  3.286516
      ESP Fit Center  331 is at   1.355549  5.565147  3.286516
      ESP Fit Center  332 is at   0.409033  6.111618  3.286516
      ESP Fit Center  333 is at   1.355549  5.565147  2.248218
      ESP Fit Center  334 is at  -0.378807  3.066177  5.263364
      ESP Fit Center  335 is at   0.608672  3.066177  4.942513
      ESP Fit Center  336 is at  -0.073659  4.005326  4.942513
      ESP Fit Center  337 is at  -1.177694  3.646603  4.942513
      ESP Fit Center  338 is at  -1.177694  2.485751  4.942513
      ESP Fit Center  339 is at  -0.073659  2.127028  4.942513
      ESP Fit Center  340 is at   1.218968  3.066177  4.102513
      ESP Fit Center  341 is at  -1.177694  1.682463  4.102513
      ESP Fit Center  342 is at  -0.101356  1.492676  4.102513
      ESP Fit Center  343 is at   0.845160  2.039147  4.102513
      ESP Fit Center  344 is at  -1.177694  1.682463  3.064215
      ESP Fit Center  345 is at  -2.272361  4.158724  5.144001
      ESP Fit Center  346 is at  -1.209346  4.158724  4.901375
      ESP Fit Center  347 is at  -1.740853  5.079322  4.901375
      ESP Fit Center  348 is at  -2.803869  5.079322  4.901375
      ESP Fit Center  349 is at  -3.335376  4.158724  4.901375
      ESP Fit Center  350 is at  -2.803869  3.238126  4.901375
      ESP Fit Center  351 is at  -1.740853  3.238126  4.901375
      ESP Fit Center  352 is at  -0.660951  5.194315  4.221551
      ESP Fit Center  353 is at  -3.526738  5.606353  4.221551
      ESP Fit Center  354 is at  -4.110257  4.698379  4.221551
      ESP Fit Center  355 is at  -4.110257  3.619069  4.221551
      ESP Fit Center  356 is at  -3.526738  2.711095  4.221551
      ESP Fit Center  357 is at  -2.544963  2.262734  4.221551
      ESP Fit Center  358 is at  -4.424391  5.195087  3.239177
      ESP Fit Center  359 is at  -4.660934  4.158724  3.239177
      ESP Fit Center  360 is at  -4.424391  3.122361  3.239177
      ESP Fit Center  361 is at  -3.761612  2.291262  3.239177
      ESP Fit Center  362 is at  -2.803869  1.830037  3.239177
      ESP Fit Center  363 is at  -1.740853  1.830037  3.239177
      ESP Fit Center  364 is at  -4.660934  4.158724  2.148825
      ESP Fit Center  365 is at  -4.424391  3.122361  2.148825
      ESP Fit Center  366 is at  -3.761612  2.291262  2.148825
      ESP Fit Center  367 is at  -2.803869  1.830037  2.148825
      ESP Fit Center  368 is at  -4.110257  3.619069  1.166451
      ESP Fit Center  369 is at  -3.526738  2.711095  1.166451
      ESP Fit Center  370 is at  -2.544963  2.262734  1.166451
      ESP Fit Center  371 is at  -2.803869  3.238126  0.486627
      ESP Fit Center  372 is at  -3.525052  4.065178  0.326810
      ESP Fit Center  373 is at  -2.859087  6.348951 -0.441843
      ESP Fit Center  374 is at  -4.197290  6.262333  2.653489
      ESP Fit Center  375 is at  -4.197290  7.065621  1.813489
      ESP Fit Center  376 is at  -4.899820  6.228378  1.813489
      ESP Fit Center  377 is at  -4.899820  5.135436  1.813489
      ESP Fit Center  378 is at  -4.197290  7.065621  0.775191
      ESP Fit Center  379 is at  -4.899820  6.228378  0.775191
      ESP Fit Center  380 is at  -4.899820  5.135436  0.775191
      ESP Fit Center  381 is at  -4.197290  4.298193  0.775191
      ESP Fit Center  382 is at  -4.197290  6.262333 -0.064809
      ESP Fit Center  383 is at  -4.197290  5.101481 -0.064809
      ESP Fit Center  384 is at  -0.426424  4.997892 -0.096284
      ESP Fit Center  385 is at  -3.525616  4.451421 -0.096284
      ESP Fit Center  386 is at  -2.823086  3.614178 -0.096284
      ESP Fit Center  387 is at  -1.036720  4.997892 -0.936284
      ESP Fit Center  388 is at  -1.719051  5.937041 -0.936284
      ESP Fit Center  389 is at  -2.823086  5.578318 -0.936284
      ESP Fit Center  390 is at  -2.823086  4.417466 -0.936284
      ESP Fit Center  391 is at  -1.719051  4.058743 -0.936284
      ESP Fit Center  392 is at  -2.024199  4.997892 -1.257135
      ESP Fit Center  393 is at   0.004469  7.696550  0.577492
      ESP Fit Center  394 is at  -0.475480  6.713312 -0.191161
      ESP Fit Center  395 is at   0.531972  6.486705  3.038713
      ESP Fit Center  396 is at   1.142268  6.486705  2.198713
      ESP Fit Center  397 is at   1.142268  6.486705  1.160415
      ESP Fit Center  398 is at   0.768460  5.459675  1.160415
      ESP Fit Center  399 is at   0.531972  6.486705  0.320415
      ESP Fit Center  400 is at  -0.150359  5.547556  0.320415
      ESP Fit Center  401 is at  -0.080116  7.389780  0.257423
      ESP Fit Center  402 is at  -0.453924  8.416810  0.257423
      ESP Fit Center  403 is at  -1.400440  8.963281  0.257423
      ESP Fit Center  404 is at  -2.476778  8.773494  0.257423
      ESP Fit Center  405 is at  -3.179308  7.936251  0.257423
      ESP Fit Center  406 is at  -0.690412  7.389780 -0.582577
      ESP Fit Center  407 is at  -1.372743  8.328929 -0.582577
      ESP Fit Center  408 is at  -2.476778  7.970206 -0.582577
      ESP Fit Center  409 is at  -2.476778  6.809354 -0.582577
      ESP Fit Center  410 is at  -1.372743  6.450631 -0.582577
      ESP Fit Center  411 is at  -1.677891  7.389780 -0.903428
      ESP Fit Center  412 is at  -2.066868  7.584692  5.605880
      ESP Fit Center  413 is at  -1.003853  7.584692  5.363254
      ESP Fit Center  414 is at  -1.535360  8.505290  5.363254
      ESP Fit Center  415 is at  -2.598376  8.505290  5.363254
      ESP Fit Center  416 is at  -3.129883  7.584692  5.363254
      ESP Fit Center  417 is at  -2.598376  6.664094  5.363254
      ESP Fit Center  418 is at  -1.535360  6.664094  5.363254
      ESP Fit Center  419 is at  -0.151381  7.584692  4.683430
      ESP Fit Center  420 is at  -3.321245  9.032321  4.683430
      ESP Fit Center  421 is at  -3.904764  8.124347  4.683430
      ESP Fit Center  422 is at  -3.904764  7.045037  4.683430
      ESP Fit Center  423 is at  -3.321245  6.137063  4.683430
      ESP Fit Center  424 is at  -2.339470  5.688702  4.683430
      ESP Fit Center  425 is at  -1.271146  5.842304  4.683430
      ESP Fit Center  426 is at  -0.455458  6.549101  4.683430
      ESP Fit Center  427 is at  -3.556119  9.452154  3.701056
      ESP Fit Center  428 is at  -4.218898  8.621055  3.701056
      ESP Fit Center  429 is at  -4.455441  7.584692  3.701056
      ESP Fit Center  430 is at  -4.218898  6.548329  3.701056
      ESP Fit Center  431 is at   0.085162  6.548329  3.701056
      ESP Fit Center  432 is at  -3.556119  9.452154  2.610704
      ESP Fit Center  433 is at  -4.218898  8.621055  2.610704
      ESP Fit Center  434 is at  -4.455441  7.584692  2.610704
      ESP Fit Center  435 is at  -4.218898  6.548329  2.610704
      ESP Fit Center  436 is at  -3.904764  8.124347  1.628330
      ESP Fit Center  437 is at  -1.199271 11.363145  2.789120
      ESP Fit Center  438 is at  -3.491376  9.781019  2.789120
      ESP Fit Center  439 is at  -2.669593 10.990861  2.349190
      ESP Fit Center  440 is at  -3.372123 10.153618  2.349190
      ESP Fit Center  441 is at  -1.593255 11.180648  1.310892
      ESP Fit Center  442 is at  -2.669593 10.990861  1.310892
      ESP Fit Center  443 is at  -3.372123 10.153618  1.310892
      ESP Fit Center  444 is at  -3.372123  9.060676  1.310892
      ESP Fit Center  445 is at  -0.883227  9.607147  0.470892
      ESP Fit Center  446 is at  -1.565558 10.546296  0.470892
      ESP Fit Center  447 is at  -2.669593 10.187573  0.470892
      ESP Fit Center  448 is at  -2.669593  9.026721  0.470892
      ESP Fit Center  449 is at  -1.870706  9.607147  0.150041
      ESP Fit Center  450 is at  -1.907399  9.902101  5.246347
      ESP Fit Center  451 is at  -0.919920  9.902101  4.925496
      ESP Fit Center  452 is at  -1.602251 10.841250  4.925496
      ESP Fit Center  453 is at  -2.706286 10.482527  4.925496
      ESP Fit Center  454 is at  -2.706286  9.321675  4.925496
      ESP Fit Center  455 is at  -0.683432 10.929131  4.085496
      ESP Fit Center  456 is at  -1.629948 11.475602  4.085496
      ESP Fit Center  457 is at  -2.706286 11.285815  4.085496
      ESP Fit Center  458 is at  -3.408816 10.448572  4.085496
      ESP Fit Center  459 is at  -1.629948 11.475602  3.047198
      ESP Fit Center  460 is at  -2.706286 11.285815  3.047198
      ESP Fit Center  461 is at  -3.408816 10.448572  3.047198
      ESP Fit Center  462 is at  -0.456601 10.342458  4.625277
      ESP Fit Center  463 is at   1.598348 10.416369  3.856624
      ESP Fit Center  464 is at   2.168399  9.433131  2.806624
      ESP Fit Center  465 is at  -0.456601 10.342458  0.987971
      ESP Fit Center  466 is at   2.142690  8.829978  2.545399
      ESP Fit Center  467 is at   0.822366  7.256477  2.545399
      ESP Fit Center  468 is at   1.768882  7.802948  2.545399
      ESP Fit Center  469 is at   2.142690  8.829978  1.507101
      ESP Fit Center  470 is at   1.768882  9.857008  1.507101
      ESP Fit Center  471 is at   1.768882  7.802948  1.507101
      ESP Fit Center  472 is at   1.532394  8.829978  0.667101
      ESP Fit Center  473 is at   0.850063  9.769127  0.667101
      ESP Fit Center  474 is at  -0.253972  9.410404  0.667101
      ESP Fit Center  475 is at   0.850063  7.890829  0.667101
      ESP Fit Center  476 is at   0.544915  8.829978  0.346250
      ESP Fit Center  477 is at   0.651520 11.419471  3.990895
      ESP Fit Center  478 is at   1.944147 10.480322  3.150895
      ESP Fit Center  479 is at   1.570339 11.507352  3.150895
      ESP Fit Center  480 is at   0.623823 12.053823  3.150895
      ESP Fit Center  481 is at  -0.452515 11.864036  3.150895
      ESP Fit Center  482 is at   1.944147 10.480322  2.112597
      ESP Fit Center  483 is at   1.570339 11.507352  2.112597
      ESP Fit Center  484 is at   0.623823 12.053823  2.112597
      ESP Fit Center  485 is at  -0.452515 11.864036  2.112597
      ESP Fit Center  486 is at   1.333851 10.480322  1.272597
      ESP Fit Center  487 is at   0.651520 11.419471  1.272597
      ESP Fit Center  488 is at  -0.452515 11.060748  1.272597
      ESP Fit Center  489 is at   0.346372 10.480322  0.951746
      ESP Fit Center  490 is at   0.481968  9.123532  5.451579
      ESP Fit Center  491 is at   1.469447  9.123532  5.130728
      ESP Fit Center  492 is at   0.787116 10.062681  5.130728
      ESP Fit Center  493 is at  -0.316919  9.703958  5.130728
      ESP Fit Center  494 is at  -0.316919  8.543106  5.130728
      ESP Fit Center  495 is at   0.787116  8.184383  5.130728
      ESP Fit Center  496 is at   2.079743  9.123532  4.290728
      ESP Fit Center  497 is at   1.705935 10.150562  4.290728
      ESP Fit Center  498 is at   0.759419  7.550031  4.290728
      ESP Fit Center  499 is at   1.705935  8.096502  4.290728
      ESP Fit Center  500 is at   1.705935  8.096502  3.252430
      ESP Fit Center  501 is at   1.089329 -8.631888  5.474550
      ESP Fit Center  502 is at   2.027527 -9.559428  2.778175
      ESP Fit Center  503 is at   2.445065 -7.730078  1.815849
      ESP Fit Center  504 is at   2.147193 -6.715622  1.815849
      ESP Fit Center  505 is at  -0.660109 -9.148163  1.815849
      ESP Fit Center  506 is at   0.301630 -9.587375  1.815849
      ESP Fit Center  507 is at   1.348152 -9.436907  1.815849
      ESP Fit Center  508 is at   2.147193 -8.744534  1.815849
      ESP Fit Center  509 is at   2.140221 -7.625337  1.265716
      ESP Fit Center  510 is at  -0.867756 -6.647986  1.265716
      ESP Fit Center  511 is at  -1.185317 -7.625337  1.265716
      ESP Fit Center  512 is at  -0.867756 -8.602688  1.265716
      ESP Fit Center  513 is at  -0.036372 -9.206724  1.265716
      ESP Fit Center  514 is at   0.991276 -9.206724  1.265716
      ESP Fit Center  515 is at   1.822660 -8.602688  1.265716
      ESP Fit Center  516 is at   1.437452 -7.625337  0.562947
      ESP Fit Center  517 is at   0.957452 -6.793953  0.562947
      ESP Fit Center  518 is at  -0.002548 -6.793953  0.562947
      ESP Fit Center  519 is at  -0.482548 -7.625337  0.562947
      ESP Fit Center  520 is at  -0.002548 -8.456721  0.562947
      ESP Fit Center  521 is at   0.957452 -8.456721  0.562947
      ESP Fit Center  522 is at   0.477452 -7.625337  0.305716
      ESP Fit Center  523 is at   1.633619 -7.753920  5.486523
      ESP Fit Center  524 is at   2.593619 -7.753920  5.229292
      ESP Fit Center  525 is at   2.113619 -6.922536  5.229292
      ESP Fit Center  526 is at   2.113619 -8.585304  5.229292
      ESP Fit Center  527 is at   3.296388 -7.753920  4.526523
      ESP Fit Center  528 is at   2.978827 -6.776569  4.526523
      ESP Fit Center  529 is at   2.147443 -9.335307  4.526523
      ESP Fit Center  530 is at   2.978827 -8.731271  4.526523
      ESP Fit Center  531 is at   3.553619 -7.753920  3.566523
      ESP Fit Center  532 is at   3.296388 -6.793920  3.566523
      ESP Fit Center  533 is at   2.593619 -6.091151  3.566523
      ESP Fit Center  534 is at   2.593619 -9.416689  3.566523
      ESP Fit Center  535 is at   3.296388 -8.713920  3.566523
      ESP Fit Center  536 is at   3.296388 -7.753920  2.606523
      ESP Fit Center  537 is at   2.978827 -6.776569  2.606523
      ESP Fit Center  538 is at   2.978827 -8.731271  2.606523
      ESP Fit Center  539 is at   2.593619 -7.753920  1.903754
      ESP Fit Center  540 is at   0.125105 -8.692968  5.511765
      ESP Fit Center  541 is at  -0.834895 -8.692968  5.254534
      ESP Fit Center  542 is at  -0.354895 -9.524352  5.254534
      ESP Fit Center  543 is at   0.605105 -9.524352  5.254534
      ESP Fit Center  544 is at  -1.537664 -8.692968  4.551765
      ESP Fit Center  545 is at  -1.220103 -9.670319  4.551765
      ESP Fit Center  546 is at  -0.388719-10.274355  4.551765
      ESP Fit Center  547 is at   0.638929-10.274355  4.551765
      ESP Fit Center  548 is at   1.470313 -9.670319  4.551765
      ESP Fit Center  549 is at  -1.794895 -8.692968  3.591765
      ESP Fit Center  550 is at  -1.537664 -9.652968  3.591765
      ESP Fit Center  551 is at  -0.834895-10.355737  3.591765
      ESP Fit Center  552 is at   0.125105-10.612968  3.591765
      ESP Fit Center  553 is at   1.085105-10.355737  3.591765
      ESP Fit Center  554 is at  -1.537664 -8.692968  2.631765
      ESP Fit Center  555 is at  -1.220103 -9.670319  2.631765
      ESP Fit Center  556 is at  -0.388719-10.274355  2.631765
      ESP Fit Center  557 is at   0.638929-10.274355  2.631765
      ESP Fit Center  558 is at  -0.354895 -9.524352  1.928996
      ESP Fit Center  559 is at  -1.358942 -5.175947  5.553940
      ESP Fit Center  560 is at  -1.930552 -6.065390  5.553940
      ESP Fit Center  561 is at  -1.930552 -7.122674  5.553940
      ESP Fit Center  562 is at  -1.589022 -4.764682  4.591614
      ESP Fit Center  563 is at  -1.589022 -8.423382  4.591614
      ESP Fit Center  564 is at  -2.160826 -6.563766  5.456993
      ESP Fit Center  565 is at  -2.546034 -5.586415  4.754224
      ESP Fit Center  566 is at  -2.863595 -6.563766  4.754224
      ESP Fit Center  567 is at  -2.546034 -7.541117  4.754224
      ESP Fit Center  568 is at  -2.863595 -5.603766  3.794224
      ESP Fit Center  569 is at  -3.120826 -6.563766  3.794224
      ESP Fit Center  570 is at  -2.863595 -7.523766  3.794224
      ESP Fit Center  571 is at  -2.160826 -8.226535  3.794224
      ESP Fit Center  572 is at  -2.863595 -6.563766  2.834224
      ESP Fit Center  573 is at  -2.546034 -7.541117  2.834224
      ESP Fit Center  574 is at  -2.160826 -6.563766  2.131455
      ESP Fit Center  575 is at  -1.680826 -7.395150  2.131455
      ESP Fit Center  576 is at  -0.060711 -6.758037  7.058263
      ESP Fit Center  577 is at   0.899289 -6.758037  6.801032
      ESP Fit Center  578 is at   0.419289 -5.926653  6.801032
      ESP Fit Center  579 is at  -0.540711 -5.926653  6.801032
      ESP Fit Center  580 is at  -1.020711 -6.758037  6.801032
      ESP Fit Center  581 is at  -0.540711 -7.589421  6.801032
      ESP Fit Center  582 is at   0.419289 -7.589421  6.801032
      ESP Fit Center  583 is at   1.602058 -6.758037  6.098263
      ESP Fit Center  584 is at   1.284497 -5.780686  6.098263
      ESP Fit Center  585 is at   0.453113 -5.176650  6.098263
      ESP Fit Center  586 is at  -0.574535 -5.176650  6.098263
      ESP Fit Center  587 is at  -1.405919 -5.780686  6.098263
      ESP Fit Center  588 is at  -1.723480 -6.758037  6.098263
      ESP Fit Center  589 is at  -1.405919 -7.735388  6.098263
      ESP Fit Center  590 is at  -0.574535 -8.339424  6.098263
      ESP Fit Center  591 is at   0.453113 -8.339424  6.098263
      ESP Fit Center  592 is at   1.284497 -7.735388  6.098263
      ESP Fit Center  593 is at   1.429482 -5.318486  5.855964
      ESP Fit Center  594 is at   0.943532 -4.476796  5.855964
      ESP Fit Center  595 is at  -0.028368 -4.476796  5.855964
      ESP Fit Center  596 is at   2.208885 -5.318486  5.234411
      ESP Fit Center  597 is at   1.874416 -4.289096  5.234411
      ESP Fit Center  598 is at   0.998764 -3.652898  5.234411
      ESP Fit Center  599 is at  -0.083600 -3.652898  5.234411
      ESP Fit Center  600 is at  -0.959252 -4.289096  5.234411
      ESP Fit Center  601 is at   2.641421 -5.318486  4.336241
      ESP Fit Center  602 is at   2.641421 -5.318486  3.339347
      ESP Fit Center  603 is at  -1.040049 -6.166142  1.075176
      ESP Fit Center  604 is at  -0.852592 -4.748057  0.409227
      ESP Fit Center  605 is at  -1.856186 -4.754027  4.033537
      ESP Fit Center  606 is at  -2.241394 -3.776676  3.330768
      ESP Fit Center  607 is at  -2.558955 -4.754027  3.330768
      ESP Fit Center  608 is at  -2.558955 -3.794027  2.370768
      ESP Fit Center  609 is at  -2.816186 -4.754027  2.370768
      ESP Fit Center  610 is at  -2.558955 -5.714027  2.370768
      ESP Fit Center  611 is at  -2.558955 -4.754027  1.410768
      ESP Fit Center  612 is at  -2.241394 -5.731378  1.410768
      ESP Fit Center  613 is at  -1.410010 -6.335414  1.410768
      ESP Fit Center  614 is at  -1.376186 -5.585411  0.707999
      ESP Fit Center  615 is at   2.600578 -5.297136  1.754290
      ESP Fit Center  616 is at   2.343347 -6.257136  1.754290
      ESP Fit Center  617 is at   2.343347 -5.297136  0.794290
      ESP Fit Center  618 is at   2.025786 -4.319785  0.794290
      ESP Fit Center  619 is at  -0.664630 -6.274487  0.794290
      ESP Fit Center  620 is at   2.025786 -6.274487  0.794290
      ESP Fit Center  621 is at   1.640578 -5.297136  0.091521
      ESP Fit Center  622 is at   1.160578 -4.465752  0.091521
      ESP Fit Center  623 is at   0.200578 -4.465752  0.091521
      ESP Fit Center  624 is at  -0.279422 -5.297136  0.091521
      ESP Fit Center  625 is at   0.200578 -6.128520  0.091521
      ESP Fit Center  626 is at   1.160578 -6.128520  0.091521
      ESP Fit Center  627 is at   0.680578 -5.297136 -0.165710
      ESP Fit Center  628 is at   1.772748 -3.318220  4.769997
      ESP Fit Center  629 is at   2.190285 -1.488870  3.141722
      ESP Fit Center  630 is at   1.252087 -1.037057  3.141722
      ESP Fit Center  631 is at   2.309951 -4.332676  1.111296
      ESP Fit Center  632 is at   0.228804 -2.748996  5.323573
      ESP Fit Center  633 is at   1.188804 -2.748996  5.066342
      ESP Fit Center  634 is at   0.708804 -1.917612  5.066342
      ESP Fit Center  635 is at  -0.251196 -1.917612  5.066342
      ESP Fit Center  636 is at  -0.731196 -2.748996  5.066342
      ESP Fit Center  637 is at  -0.251196 -3.580380  5.066342
      ESP Fit Center  638 is at   1.574012 -1.771645  4.363573
      ESP Fit Center  639 is at   0.742628 -1.167609  4.363573
      ESP Fit Center  640 is at  -0.285020 -1.167609  4.363573
      ESP Fit Center  641 is at  -1.116404 -1.771645  4.363573
      ESP Fit Center  642 is at  -1.433965 -2.748996  4.363573
      ESP Fit Center  643 is at  -1.116404 -3.726347  4.363573
      ESP Fit Center  644 is at   1.188804 -1.086227  3.403573
      ESP Fit Center  645 is at   0.228804 -0.828996  3.403573
      ESP Fit Center  646 is at  -1.691196 -2.748996  3.403573
      ESP Fit Center  647 is at   1.799876 -3.352197  4.761329
      ESP Fit Center  648 is at   2.759876 -3.352197  4.504098
      ESP Fit Center  649 is at   2.279876 -2.520813  4.504098
      ESP Fit Center  650 is at   2.279876 -4.183581  4.504098
      ESP Fit Center  651 is at   3.462645 -3.352197  3.801329
      ESP Fit Center  652 is at   3.145084 -2.374846  3.801329
      ESP Fit Center  653 is at   2.313700 -1.770810  3.801329
      ESP Fit Center  654 is at   3.145084 -4.329548  3.801329
      ESP Fit Center  655 is at   3.719876 -3.352197  2.841329
      ESP Fit Center  656 is at   3.462645 -2.392197  2.841329
      ESP Fit Center  657 is at   2.759876 -1.689428  2.841329
      ESP Fit Center  658 is at   2.759876 -5.014966  2.841329
      ESP Fit Center  659 is at   3.462645 -4.312197  2.841329
      ESP Fit Center  660 is at   3.462645 -3.352197  1.881329
      ESP Fit Center  661 is at   3.145084 -2.374846  1.881329
      ESP Fit Center  662 is at   3.145084 -4.329548  1.881329
      ESP Fit Center  663 is at   2.759876 -3.352197  1.178560
      ESP Fit Center  664 is at   2.796548 -2.659757  0.856866
      ESP Fit Center  665 is at   2.546402 -3.674637  0.856866
      ESP Fit Center  666 is at   2.364012 -2.659757 -0.041304
      ESP Fit Center  667 is at   0.071527 -4.325345 -0.041304
      ESP Fit Center  668 is at   1.153891 -4.325345 -0.041304
      ESP Fit Center  669 is at   2.029543 -3.689147 -0.041304
      ESP Fit Center  670 is at   1.098659 -3.501447 -0.662857
      ESP Fit Center  671 is at  -2.473273 -2.651292  2.577597
      ESP Fit Center  672 is at  -0.541432 -0.674643  3.587498
      ESP Fit Center  673 is at  -1.501432 -0.674643  3.587498
      ESP Fit Center  674 is at  -1.981432 -1.506027  3.587498
      ESP Fit Center  675 is at   0.323776 -0.528676  2.884729
      ESP Fit Center  676 is at  -0.507608  0.075360  2.884729
      ESP Fit Center  677 is at  -1.535256  0.075360  2.884729
      ESP Fit Center  678 is at  -2.366640 -0.528676  2.884729
      ESP Fit Center  679 is at  -2.684201 -1.506027  2.884729
      ESP Fit Center  680 is at  -2.366640 -2.483378  2.884729
      ESP Fit Center  681 is at  -1.981432  0.156742  1.924729
      ESP Fit Center  682 is at  -2.684201 -0.546027  1.924729
      ESP Fit Center  683 is at  -2.941432 -1.506027  1.924729
      ESP Fit Center  684 is at  -2.373247 -2.924380  2.583910
      ESP Fit Center  685 is at  -3.076016 -2.924380  1.881141
      ESP Fit Center  686 is at  -2.758455 -3.901731  1.881141
      ESP Fit Center  687 is at  -3.076016 -1.964380  0.921141
      ESP Fit Center  688 is at  -3.333247 -2.924380  0.921141
      ESP Fit Center  689 is at  -3.076016 -3.884380  0.921141
      ESP Fit Center  690 is at  -2.373247 -4.587149  0.921141
      ESP Fit Center  691 is at  -3.076016 -2.924380 -0.038859
      ESP Fit Center  692 is at  -2.758455 -3.901731 -0.038859
      ESP Fit Center  693 is at  -1.927071 -4.505767 -0.038859
      ESP Fit Center  694 is at  -0.899423 -4.505767 -0.038859
      ESP Fit Center  695 is at  -2.373247 -2.924380 -0.741628
      ESP Fit Center  696 is at  -1.893247 -3.755764 -0.741628
      ESP Fit Center  697 is at  -0.933247 -3.755764 -0.741628
      ESP Fit Center  698 is at  -1.837910  0.151315  1.319122
      ESP Fit Center  699 is at  -1.837910 -2.684855 -1.673630
      ESP Fit Center  700 is at  -0.088472 -0.364960 -2.339579
      ESP Fit Center  701 is at  -1.129792 -0.364960 -2.339579
      ESP Fit Center  702 is at  -2.148775  0.522879  0.457290
      ESP Fit Center  703 is at  -2.980159 -0.081157  0.457290
      ESP Fit Center  704 is at  -3.297720 -1.058508  0.457290
      ESP Fit Center  705 is at  -2.594951  0.604261 -0.502710
      ESP Fit Center  706 is at  -3.297720 -0.098508 -0.502710
      ESP Fit Center  707 is at  -3.554951 -1.058508 -0.502710
      ESP Fit Center  708 is at  -3.297720 -2.018508 -0.502710
      ESP Fit Center  709 is at  -2.148775  0.522879 -1.462710
      ESP Fit Center  710 is at  -2.980159 -0.081157 -1.462710
      ESP Fit Center  711 is at  -3.297720 -1.058508 -1.462710
      ESP Fit Center  712 is at  -2.980159 -2.035859 -1.462710
      ESP Fit Center  713 is at  -2.148775 -2.639895 -1.462710
      ESP Fit Center  714 is at  -2.114951 -0.227124 -2.165479
      ESP Fit Center  715 is at  -2.594951 -1.058508 -2.165479
      ESP Fit Center  716 is at  -2.114951 -1.889892 -2.165479
      ESP Fit Center  717 is at  -1.634951 -1.058508 -2.422710
      ESP Fit Center  718 is at  -1.064333 -3.496416 -0.975696
      ESP Fit Center  719 is at  -0.104333 -3.753647 -0.975696
      ESP Fit Center  720 is at   0.855667 -3.496416 -0.975696
      ESP Fit Center  721 is at   1.558436 -2.793647 -0.975696
      ESP Fit Center  722 is at  -1.449541 -2.810998 -1.935696
      ESP Fit Center  723 is at  -0.618157 -3.415034 -1.935696
      ESP Fit Center  724 is at   0.409491 -3.415034 -1.935696
      ESP Fit Center  725 is at   1.240875 -2.810998 -1.935696
      ESP Fit Center  726 is at   0.855667 -1.833647 -2.638465
      ESP Fit Center  727 is at   0.375667 -1.002263 -2.638465
      ESP Fit Center  728 is at  -0.584333 -1.002263 -2.638465
      ESP Fit Center  729 is at  -1.064333 -1.833647 -2.638465
      ESP Fit Center  730 is at  -0.584333 -2.665031 -2.638465
      ESP Fit Center  731 is at   0.375667 -2.665031 -2.638465
      ESP Fit Center  732 is at  -0.104333 -1.833647 -2.895696
      ESP Fit Center  733 is at  -2.120380  0.522627  0.498447
      ESP Fit Center  734 is at  -1.634627  1.448153 -0.498447
      ESP Fit Center  735 is at  -0.541182  1.665588 -1.396617
      ESP Fit Center  736 is at  -1.416834  1.029390 -1.396617
      ESP Fit Center  737 is at  -0.485950  0.841690 -2.018170
      ESP Fit Center  738 is at   0.000000  0.000000 -2.240000
      ESP Fit Center  739 is at   3.711092 -0.502104 -0.912800
      ESP Fit Center  740 is at   1.791092 -2.422104 -0.912800
      ESP Fit Center  741 is at   2.751092 -2.164873 -0.912800
      ESP Fit Center  742 is at   3.453861 -1.462104 -0.912800
      ESP Fit Center  743 is at   3.453861 -0.502104 -1.872800
      ESP Fit Center  744 is at   3.136300  0.475247 -1.872800
      ESP Fit Center  745 is at   2.304916 -2.083491 -1.872800
      ESP Fit Center  746 is at   3.136300 -1.479455 -1.872800
      ESP Fit Center  747 is at   2.751092 -0.502104 -2.575569
      ESP Fit Center  748 is at   2.271092  0.329280 -2.575569
      ESP Fit Center  749 is at   1.311092  0.329280 -2.575569
      ESP Fit Center  750 is at   0.831092 -0.502104 -2.575569
      ESP Fit Center  751 is at   1.311092 -1.333488 -2.575569
      ESP Fit Center  752 is at   2.271092 -1.333488 -2.575569
      ESP Fit Center  753 is at   1.791092 -0.502104 -2.832800
      ESP Fit Center  754 is at   1.818121 -0.545556  2.783678
      ESP Fit Center  755 is at   2.778121 -0.545556  2.526447
      ESP Fit Center  756 is at   0.858121 -0.545556  2.526447
      ESP Fit Center  757 is at   2.298121 -1.376940  2.526447
      ESP Fit Center  758 is at   3.480890 -0.545556  1.823678
      ESP Fit Center  759 is at   3.163329 -1.522907  1.823678
      ESP Fit Center  760 is at   3.738121 -0.545556  0.863678
      ESP Fit Center  761 is at   2.778121 -2.208325  0.863678
      ESP Fit Center  762 is at   3.480890 -1.505556  0.863678
      ESP Fit Center  763 is at   2.955995  1.441066 -2.162325
      ESP Fit Center  764 is at   2.418078  3.658467 -0.827395
      ESP Fit Center  765 is at   1.458078  3.915698 -0.827395
      ESP Fit Center  766 is at   2.803286  2.973049 -1.787395
      ESP Fit Center  767 is at   1.971902  3.577085 -1.787395
      ESP Fit Center  768 is at   0.944254  3.577085 -1.787395
      ESP Fit Center  769 is at   0.112870  2.973049 -1.787395
      ESP Fit Center  770 is at  -0.204691  1.995698 -1.787395
      ESP Fit Center  771 is at   2.418078  1.995698 -2.490164
      ESP Fit Center  772 is at   1.938078  2.827082 -2.490164
      ESP Fit Center  773 is at   0.978078  2.827082 -2.490164
      ESP Fit Center  774 is at   0.498078  1.995698 -2.490164
      ESP Fit Center  775 is at   0.978078  1.164314 -2.490164
      ESP Fit Center  776 is at   1.938078  1.164314 -2.490164
      ESP Fit Center  777 is at   1.458078  1.995698 -2.747395
      ESP Fit Center  778 is at   4.661725  1.444246  0.803627
      ESP Fit Center  779 is at   4.344164  0.466895  0.803627
      ESP Fit Center  780 is at   4.918956  1.444246 -0.156373
      ESP Fit Center  781 is at   4.661725  2.404246 -0.156373
      ESP Fit Center  782 is at   3.958956  3.107015 -0.156373
      ESP Fit Center  783 is at   3.958956 -0.218523 -0.156373
      ESP Fit Center  784 is at   4.661725  0.484246 -0.156373
      ESP Fit Center  785 is at   4.661725  1.444246 -1.116373
      ESP Fit Center  786 is at   4.344164  2.421597 -1.116373
      ESP Fit Center  787 is at   3.512780  3.025633 -1.116373
      ESP Fit Center  788 is at   4.344164  0.466895 -1.116373
      ESP Fit Center  789 is at   3.958956  1.444246 -1.819142
      ESP Fit Center  790 is at   3.478956  2.275630 -1.819142
      ESP Fit Center  791 is at   3.478956  0.612862 -1.819142
      ESP Fit Center  792 is at   1.664838  2.373815  4.363599
      ESP Fit Center  793 is at   2.736352  2.373815  4.150462
      ESP Fit Center  794 is at   2.200595  3.301773  4.150462
      ESP Fit Center  795 is at   1.129081  1.445857  4.150462
      ESP Fit Center  796 is at   2.200595  1.445857  4.150462
      ESP Fit Center  797 is at   3.644737  2.373815  3.543498
      ESP Fit Center  798 is at   3.379481  3.363764  3.543498
      ESP Fit Center  799 is at   2.654787  4.088458  3.543498
      ESP Fit Center  800 is at   0.674889  0.659172  3.543498
      ESP Fit Center  801 is at   1.664838  0.393916  3.543498
      ESP Fit Center  802 is at   2.654787  0.659172  3.543498
      ESP Fit Center  803 is at   3.379481  1.383866  3.543498
      ESP Fit Center  804 is at   4.251701  2.373815  2.635113
      ESP Fit Center  805 is at   4.028055  3.425987  2.635113
      ESP Fit Center  806 is at   3.395787  4.296229  2.635113
      ESP Fit Center  807 is at   2.464223  4.834068  2.635113
      ESP Fit Center  808 is at   0.371407  0.133526  2.635113
      ESP Fit Center  809 is at   2.464223 -0.086438  2.635113
      ESP Fit Center  810 is at   3.395787  0.451401  2.635113
      ESP Fit Center  811 is at   4.028055  1.321643  2.635113
      ESP Fit Center  812 is at   4.464838  2.373815  1.563599
      ESP Fit Center  813 is at   4.275760  3.385292  1.563599
      ESP Fit Center  814 is at   3.734063  4.260163  1.563599
      ESP Fit Center  815 is at   2.912905  4.880272  1.563599
      ESP Fit Center  816 is at   1.923189  5.161871  1.563599
      ESP Fit Center  817 is at   3.734063  0.487467  1.563599
      ESP Fit Center  818 is at   4.275760  1.362338  1.563599
      ESP Fit Center  819 is at   4.028055  3.425987  0.492085
      ESP Fit Center  820 is at   3.395787  4.296229  0.492085
      ESP Fit Center  821 is at   2.464223  4.834068  0.492085
      ESP Fit Center  822 is at   1.394437  4.946507  0.492085
      ESP Fit Center  823 is at   3.379481  3.363764 -0.416300
      ESP Fit Center  824 is at   2.654787  4.088458 -0.416300
      ESP Fit Center  825 is at   1.664838  4.353714 -0.416300
      ESP Fit Center  826 is at   0.685579  5.051619  0.521147
      ESP Fit Center  827 is at   1.070787  4.366201 -0.438853
      ESP Fit Center  828 is at   0.239403  4.970237 -0.438853
      ESP Fit Center  829 is at  -1.619629  2.411499 -0.438853
      ESP Fit Center  830 is at   0.205579  4.220234 -1.141622
      ESP Fit Center  831 is at  -0.754421  4.220234 -1.141622
      ESP Fit Center  832 is at  -1.234421  3.388850 -1.141622
      ESP Fit Center  833 is at  -0.754421  2.557466 -1.141622
      ESP Fit Center  834 is at  -0.274421  3.388850 -1.398853
      ESP Fit Center  835 is at  -1.198049  1.078105  3.052133
      ESP Fit Center  836 is at  -2.063257  0.932138  2.349364
      ESP Fit Center  837 is at  -0.204225  0.328102  2.349364
      ESP Fit Center  838 is at  -2.380818  0.949489  1.389364
      ESP Fit Center  839 is at  -2.380818  1.909489  0.429364
      ESP Fit Center  840 is at  -2.063257  0.932138  0.429364
      ESP Fit Center  841 is at  -1.678049  1.909489 -0.273405
      ESP Fit Center  842 is at   0.015049  4.555110  4.830326
      ESP Fit Center  843 is at   1.370785  3.653300  4.164377
      ESP Fit Center  844 is at   1.091582  4.538117  4.430136
      ESP Fit Center  845 is at   0.611582  5.369501  4.430136
      ESP Fit Center  846 is at  -0.348418  5.369501  4.430136
      ESP Fit Center  847 is at   1.794351  4.538117  3.727367
      ESP Fit Center  848 is at   1.476790  5.515468  3.727367
      ESP Fit Center  849 is at   0.645406  6.119504  3.727367
      ESP Fit Center  850 is at   1.794351  5.498117  2.767367
      ESP Fit Center  851 is at   1.476790  5.515468  1.807367
      ESP Fit Center  852 is at  -0.378807  3.066177  5.503364
      ESP Fit Center  853 is at   0.581193  3.066177  5.246133
      ESP Fit Center  854 is at   0.101193  3.897561  5.246133
      ESP Fit Center  855 is at  -0.858807  3.897561  5.246133
      ESP Fit Center  856 is at  -1.338807  3.066177  5.246133
      ESP Fit Center  857 is at  -0.858807  2.234793  5.246133
      ESP Fit Center  858 is at   0.101193  2.234793  5.246133
      ESP Fit Center  859 is at   1.283962  3.066177  4.543364
      ESP Fit Center  860 is at   0.966401  4.043528  4.543364
      ESP Fit Center  861 is at  -1.724015  2.088826  4.543364
      ESP Fit Center  862 is at  -0.892631  1.484790  4.543364
      ESP Fit Center  863 is at   0.135017  1.484790  4.543364
      ESP Fit Center  864 is at   0.966401  2.088826  4.543364
      ESP Fit Center  865 is at  -1.338807  1.403408  3.583364
      ESP Fit Center  866 is at  -0.378807  1.146177  3.583364
      ESP Fit Center  867 is at  -2.272361  4.158724  5.494001
      ESP Fit Center  868 is at  -1.200847  4.158724  5.280864
      ESP Fit Center  869 is at  -1.736604  5.086682  5.280864
      ESP Fit Center  870 is at  -2.808118  5.086682  5.280864
      ESP Fit Center  871 is at  -3.343875  4.158724  5.280864
      ESP Fit Center  872 is at  -2.808118  3.230766  5.280864
      ESP Fit Center  873 is at  -1.736604  3.230766  5.280864
      ESP Fit Center  874 is at  -0.557718  5.148673  4.673900
      ESP Fit Center  875 is at  -3.987004  5.148673  4.673900
      ESP Fit Center  876 is at  -4.252260  4.158724  4.673900
      ESP Fit Center  877 is at  -3.987004  3.168775  4.673900
      ESP Fit Center  878 is at  -3.262310  2.444081  4.673900
      ESP Fit Center  879 is at  -2.272361  2.178825  4.673900
      ESP Fit Center  880 is at  -4.365177  5.679244  3.765515
      ESP Fit Center  881 is at  -4.802695  4.696563  3.765515
      ESP Fit Center  882 is at  -4.802695  3.620885  3.765515
      ESP Fit Center  883 is at  -4.365177  2.638204  3.765515
      ESP Fit Center  884 is at  -3.565792  1.918435  3.765515
      ESP Fit Center  885 is at  -2.542762  1.586032  3.765515
      ESP Fit Center  886 is at  -5.024686  4.673223  2.694001
      ESP Fit Center  887 is at  -5.024686  3.644225  2.694001
      ESP Fit Center  888 is at  -4.652969  2.684714  2.694001
      ESP Fit Center  889 is at  -3.959738  1.924276  2.694001
      ESP Fit Center  890 is at  -3.038617  1.465612  2.694001
      ESP Fit Center  891 is at  -4.802695  3.620885  1.622487
      ESP Fit Center  892 is at  -4.365177  2.638204  1.622487
      ESP Fit Center  893 is at  -3.565792  1.918435  1.622487
      ESP Fit Center  894 is at  -3.987004  3.168775  0.714102
      ESP Fit Center  895 is at  -3.262310  2.444081  0.714102
      ESP Fit Center  896 is at  -2.808118  3.230766  0.107138
      ESP Fit Center  897 is at  -2.854747  6.341434 -0.785515
      ESP Fit Center  898 is at  -4.743611  6.659258  2.254340
      ESP Fit Center  899 is at  -5.061172  5.681907  2.254340
      ESP Fit Center  900 is at  -4.358403  7.344676  1.294340
      ESP Fit Center  901 is at  -5.061172  6.641907  1.294340
      ESP Fit Center  902 is at  -5.318403  5.681907  1.294340
      ESP Fit Center  903 is at  -5.061172  4.721907  1.294340
      ESP Fit Center  904 is at  -3.912227  7.263294  0.334340
      ESP Fit Center  905 is at  -4.743611  6.659258  0.334340
      ESP Fit Center  906 is at  -5.061172  5.681907  0.334340
      ESP Fit Center  907 is at  -4.743611  4.704556  0.334340
      ESP Fit Center  908 is at  -3.878403  6.513291 -0.368429
      ESP Fit Center  909 is at  -4.358403  5.681907 -0.368429
      ESP Fit Center  910 is at  -3.878403  4.850523 -0.368429
      ESP Fit Center  911 is at  -0.361430  4.997892 -0.537135
      ESP Fit Center  912 is at  -0.678991  5.975243 -0.537135
      ESP Fit Center  913 is at  -3.369407  4.020541 -0.537135
      ESP Fit Center  914 is at  -2.538023  3.416505 -0.537135
      ESP Fit Center  915 is at  -1.064199  4.997892 -1.239904
      ESP Fit Center  916 is at  -1.544199  5.829276 -1.239904
      ESP Fit Center  917 is at  -2.504199  5.829276 -1.239904
      ESP Fit Center  918 is at  -2.984199  4.997892 -1.239904
      ESP Fit Center  919 is at  -2.504199  4.166508 -1.239904
      ESP Fit Center  920 is at  -1.544199  4.166508 -1.239904
      ESP Fit Center  921 is at  -2.024199  4.997892 -1.497135
      ESP Fit Center  922 is at   0.504493  6.486705  3.342333
      ESP Fit Center  923 is at   1.207262  6.486705  2.639564
      ESP Fit Center  924 is at   1.464493  6.486705  1.679564
      ESP Fit Center  925 is at   1.207262  6.486705  0.719564
      ESP Fit Center  926 is at   0.889701  7.464056  0.719564
      ESP Fit Center  927 is at   0.889701  5.509354  0.719564
      ESP Fit Center  928 is at   0.504493  6.486705  0.016795
      ESP Fit Center  929 is at   0.024493  5.655321  0.016795
      ESP Fit Center  930 is at  -3.340660  8.349780  0.776572
      ESP Fit Center  931 is at  -0.015122  7.389780 -0.183428
      ESP Fit Center  932 is at  -0.332683  8.367131 -0.183428
      ESP Fit Center  933 is at  -1.164067  8.971167 -0.183428
      ESP Fit Center  934 is at  -2.191715  8.971167 -0.183428
      ESP Fit Center  935 is at  -3.023099  8.367131 -0.183428
      ESP Fit Center  936 is at  -3.340660  7.389780 -0.183428
      ESP Fit Center  937 is at  -0.717891  7.389780 -0.886197
      ESP Fit Center  938 is at  -1.197891  8.221164 -0.886197
      ESP Fit Center  939 is at  -2.157891  8.221164 -0.886197
      ESP Fit Center  940 is at  -2.637891  7.389780 -0.886197
      ESP Fit Center  941 is at  -2.157891  6.558396 -0.886197
      ESP Fit Center  942 is at  -1.197891  6.558396 -0.886197
      ESP Fit Center  943 is at  -1.677891  7.389780 -1.143428
      ESP Fit Center  944 is at  -2.066868  7.584692  5.955880
      ESP Fit Center  945 is at  -0.995354  7.584692  5.742743
      ESP Fit Center  946 is at  -1.531111  8.512650  5.742743
      ESP Fit Center  947 is at  -2.602625  8.512650  5.742743
      ESP Fit Center  948 is at  -3.138382  7.584692  5.742743
      ESP Fit Center  949 is at  -2.602625  6.656734  5.742743
      ESP Fit Center  950 is at  -1.531111  6.656734  5.742743
      ESP Fit Center  951 is at  -0.086969  7.584692  5.135779
      ESP Fit Center  952 is at  -3.056817  9.299335  5.135779
      ESP Fit Center  953 is at  -3.781511  8.574641  5.135779
      ESP Fit Center  954 is at  -4.046767  7.584692  5.135779
      ESP Fit Center  955 is at  -3.781511  6.594743  5.135779
      ESP Fit Center  956 is at  -3.056817  5.870049  5.135779
      ESP Fit Center  957 is at  -2.066868  5.604793  5.135779
      ESP Fit Center  958 is at  -1.076919  5.870049  5.135779
      ESP Fit Center  959 is at  -0.352225  6.594743  5.135779
      ESP Fit Center  960 is at  -4.159684  9.105212  4.227394
      ESP Fit Center  961 is at  -4.597202  8.122531  4.227394
      ESP Fit Center  962 is at  -4.597202  7.046853  4.227394
      ESP Fit Center  963 is at  -4.159684  6.064172  4.227394
      ESP Fit Center  964 is at   0.296349  6.532520  4.227394
      ESP Fit Center  965 is at  -4.447476  9.058702  3.155880
      ESP Fit Center  966 is at  -4.819193  8.099191  3.155880
      ESP Fit Center  967 is at  -4.819193  7.070193  3.155880
      ESP Fit Center  968 is at  -4.447476  6.110682  3.155880
      ESP Fit Center  969 is at  -4.159684  9.105212  2.084366
      ESP Fit Center  970 is at  -4.597202  8.122531  2.084366
      ESP Fit Center  971 is at  -4.597202  7.046853  2.084366
      ESP Fit Center  972 is at  -3.781511  8.574641  1.175981
      ESP Fit Center  973 is at  -4.046767  7.584692  1.175981
      ESP Fit Center  974 is at  -1.973058 11.559619  2.255070
      ESP Fit Center  975 is at  -1.870706 11.527147  1.830041
      ESP Fit Center  976 is at  -2.830706 11.269916  1.830041
      ESP Fit Center  977 is at  -3.533475 10.567147  1.830041
      ESP Fit Center  978 is at  -3.790706  9.607147  1.830041
      ESP Fit Center  979 is at  -1.356882 11.188534  0.870041
      ESP Fit Center  980 is at  -2.384530 11.188534  0.870041
      ESP Fit Center  981 is at  -3.215914 10.584498  0.870041
      ESP Fit Center  982 is at  -3.533475  9.607147  0.870041
      ESP Fit Center  983 is at  -0.910706  9.607147  0.167272
      ESP Fit Center  984 is at  -1.390706 10.438531  0.167272
      ESP Fit Center  985 is at  -2.350706 10.438531  0.167272
      ESP Fit Center  986 is at  -2.830706  9.607147  0.167272
      ESP Fit Center  987 is at  -1.870706  9.607147 -0.089959
      ESP Fit Center  988 is at  -1.907399  9.902101  5.486347
      ESP Fit Center  989 is at  -0.947399  9.902101  5.229116
      ESP Fit Center  990 is at  -1.427399 10.733485  5.229116
      ESP Fit Center  991 is at  -2.387399 10.733485  5.229116
      ESP Fit Center  992 is at  -2.867399  9.902101  5.229116
      ESP Fit Center  993 is at  -1.393575 11.483488  4.526347
      ESP Fit Center  994 is at  -2.421223 11.483488  4.526347
      ESP Fit Center  995 is at  -3.252607 10.879452  4.526347
      ESP Fit Center  996 is at  -3.570168  9.902101  4.526347
      ESP Fit Center  997 is at  -0.947399 11.564870  3.566347
      ESP Fit Center  998 is at  -1.907399 11.822101  3.566347
      ESP Fit Center  999 is at  -2.867399 11.564870  3.566347
      ESP Fit Center 1000 is at  -3.570168 10.862101  3.566347
      ESP Fit Center 1001 is at  -3.827399  9.902101  3.566347
      ESP Fit Center 1002 is at  -2.421223 11.483488  2.606347
      ESP Fit Center 1003 is at  -3.252607 10.879452  2.606347
      ESP Fit Center 1004 is at  -0.452261 10.334941  4.968949
      ESP Fit Center 1005 is at  -0.198640 11.290428  4.303000
      ESP Fit Center 1006 is at   2.408226  9.433131  3.340674
      ESP Fit Center 1007 is at   2.176510 10.448344  3.340674
      ESP Fit Center 1008 is at   2.408226  9.433131  2.272574
      ESP Fit Center 1009 is at   0.589059 10.334941  0.644299
      ESP Fit Center 1010 is at  -0.452261 10.334941  0.644299
      ESP Fit Center 1011 is at   1.058739  7.248591  2.986250
      ESP Fit Center 1012 is at   1.890123  7.852627  2.986250
      ESP Fit Center 1013 is at   2.464915  8.829978  2.026250
      ESP Fit Center 1014 is at   1.504915  7.167209  2.026250
      ESP Fit Center 1015 is at   2.207684  7.869978  2.026250
      ESP Fit Center 1016 is at   2.207684  8.829978  1.066250
      ESP Fit Center 1017 is at   1.890123  9.807329  1.066250
      ESP Fit Center 1018 is at   1.890123  7.852627  1.066250
      ESP Fit Center 1019 is at   1.504915  8.829978  0.363481
      ESP Fit Center 1020 is at   1.024915  9.661362  0.363481
      ESP Fit Center 1021 is at   0.064915  9.661362  0.363481
      ESP Fit Center 1022 is at  -0.415085  8.829978  0.363481
      ESP Fit Center 1023 is at   1.024915  7.998594  0.363481
      ESP Fit Center 1024 is at   0.544915  8.829978  0.106250
      ESP Fit Center 1025 is at   0.826372 11.311706  4.294515
      ESP Fit Center 1026 is at  -0.133628 11.311706  4.294515
      ESP Fit Center 1027 is at   1.691580 11.457673  3.591746
      ESP Fit Center 1028 is at   0.860196 12.061709  3.591746
      ESP Fit Center 1029 is at  -0.167452 12.061709  3.591746
      ESP Fit Center 1030 is at   2.266372 10.480322  2.631746
      ESP Fit Center 1031 is at   2.009141 11.440322  2.631746
      ESP Fit Center 1032 is at   1.306372 12.143091  2.631746
      ESP Fit Center 1033 is at   0.346372 12.400322  2.631746
      ESP Fit Center 1034 is at  -0.613628 12.143091  2.631746
      ESP Fit Center 1035 is at   2.009141 10.480322  1.671746
      ESP Fit Center 1036 is at   1.691580 11.457673  1.671746
      ESP Fit Center 1037 is at   0.860196 12.061709  1.671746
      ESP Fit Center 1038 is at  -0.167452 12.061709  1.671746
      ESP Fit Center 1039 is at  -0.998836 11.457673  1.671746
      ESP Fit Center 1040 is at   1.306372 10.480322  0.968977
      ESP Fit Center 1041 is at   0.826372 11.311706  0.968977
      ESP Fit Center 1042 is at  -0.133628 11.311706  0.968977
      ESP Fit Center 1043 is at   0.481968  9.123532  5.691579
      ESP Fit Center 1044 is at   1.441968  9.123532  5.434348
      ESP Fit Center 1045 is at   0.961968  9.954916  5.434348
      ESP Fit Center 1046 is at   0.001968  9.954916  5.434348
      ESP Fit Center 1047 is at  -0.478032  9.123532  5.434348
[...]
 1358 Fit      -0.000764
 1359 Fit       0.010001
 1360 Fit       0.012619
 1361 Fit       0.006831
 1362 Fit      -0.001137
 1363 Fit       0.008443
 1364 Fit      -0.003258
 1365 Fit      -0.003269
 1366 Fit      -0.004520
 1367 Fit      -0.009588
 1368 Fit      -0.010404
 1369 Fit      -0.011669
 1370 Fit      -0.007323
 1371 Fit      -0.010961
 1372 Fit      -0.009409
 1373 Fit      -0.005330
 1374 Fit      -0.007688
 1375 Fit      -0.005356
 1376 Fit      -0.003049
 1377 Fit      -0.005476
 1378 Fit      -0.005413
 1379 Fit      -0.008154
 1380 Fit      -0.003351
 1381 Fit      -0.003764
 1382 Fit      -0.009530
 1383 Fit      -0.003415
 1384 Fit      -0.002751
 1385 Fit      -0.007122
 1386 Fit      -0.011106
 1387 Fit      -0.002842
 1388 Fit      -0.022473
 1389 Fit      -0.017217
 1390 Fit      -0.028832
 1391 Fit      -0.030508
 1392 Fit      -0.024415
 1393 Fit      -0.017795
 1394 Fit      -0.012615
 1395 Fit      -0.022006
 1396 Fit      -0.028222
 1397 Fit      -0.023306
 1398 Fit      -0.019780
 1399 Fit      -0.015275
 1400 Fit      -0.009216
 1401 Fit      -0.022538
 1402 Fit      -0.019871
 1403 Fit      -0.019132
 1404 Fit      -0.017455
 1405 Fit      -0.013387
 1406 Fit      -0.007335
 1407 Fit      -0.014598
 1408 Fit      -0.015057
 1409 Fit      -0.017246
 1410 Fit      -0.018181
 1411 Fit      -0.016100
 1412 Fit      -0.010894
 1413 Fit      -0.004704
 1414 Fit      -0.009698
 1415 Fit      -0.014855
 1416 Fit      -0.017814
 1417 Fit      -0.016980
 1418 Fit      -0.012125
 1419 Fit      -0.004626
 1420 Fit      -0.012236
 1421 Fit      -0.016085
 1422 Fit      -0.015442
 1423 Fit      -0.008965
 1424 Fit      -0.011969
 1425 Fit       0.009863
 1426 Fit       0.011396
 1427 Fit      -0.008982
 1428 Fit      -0.003572
 1429 Fit      -0.000525
 1430 Fit      -0.000617
 1431 Fit       0.004233
 1432 Fit       0.004069
 1433 Fit       0.002956
 1434 Fit      -0.000269
 1435 Fit       0.008394
 1436 Fit       0.006115
 1437 Fit       0.001280
 1438 Fit       0.001670
 1439 Fit       0.012887
 1440 Fit       0.013015
 1441 Fit       0.011094
 1442 Fit       0.008197
 1443 Fit       0.007361
 1444 Fit       0.010570
 1445 Fit       0.010758
 1446 Fit       0.012737
 1447 Fit       0.001351
 1448 Fit       0.003686
 1449 Fit       0.006181
 1450 Fit       0.003248
 1451 Fit       0.009727
 1452 Fit       0.011979
 1453 Fit       0.012884
 1454 Fit       0.013512
 1455 Fit       0.010756
 1456 Fit       0.008831
 1457 Fit       0.012148
 1458 Fit       0.012412
 1459 Fit       0.012140
 1460 Fit       0.011769
 1461 Fit       0.014130
 1462 Fit       0.012606
 1463 Fit      -0.020385
 1464 Fit      -0.020492
 1465 Fit      -0.013209
 1466 Fit      -0.013317
 1467 Fit      -0.020105
 1468 Fit      -0.025910
 1469 Fit      -0.026249
 1470 Fit      -0.018163
 1471 Fit      -0.004286
 1472 Fit      -0.006408
 1473 Fit      -0.014252
 1474 Fit      -0.020826
 1475 Fit      -0.025919
 1476 Fit      -0.031503
 1477 Fit      -0.033740
 1478 Fit      -0.029275
 1479 Fit      -0.024587
 1480 Fit      -0.008235
 1481 Fit      -0.016717
 1482 Fit      -0.022082
 1483 Fit      -0.025447
 1484 Fit      -0.021685
 1485 Fit      -0.018623
 1486 Fit      -0.010858
 1487 Fit      -0.018372
 1488 Fit      -0.022043
 1489 Fit      -0.022630
 1490 Fit      -0.008344
 1491 Fit      -0.010360
 1492 Fit      -0.016825
 1493 Fit      -0.018487
 1494 Fit      -0.014696
 1495 Fit      -0.010603
 1496 Fit      -0.010264
 1497 Fit       0.000110
 1498 Fit       0.006744
 1499 Fit      -0.002930
 1500 Fit       0.005354
 1501 Fit       0.003091
 1502 Fit      -0.001417
 1503 Fit       0.008197
 1504 Fit       0.007445
 1505 Fit       0.006292
 1506 Fit       0.004363
 1507 Fit       0.002348
 1508 Fit       0.011436
 1509 Fit       0.009644
 1510 Fit       0.009058
 1511 Fit       0.009273
 1512 Fit       0.012001
 1513 Fit      -0.000840
 1514 Fit       0.000072
 1515 Fit       0.003122
 1516 Fit       0.002774
 1517 Fit      -0.001577
 1518 Fit       0.005243
 1519 Fit       0.005206
 1520 Fit       0.003547
 1521 Fit      -0.000509
 1522 Fit       0.006246
 1523 Fit       0.005060
 1524 Fit       0.002726
 1525 Fit      -0.002222
 1526 Fit       0.001159
 1527 Fit       0.003041
 1528 Fit       0.000140
 1529 Fit      -0.000280
 1530 Fit       0.000797
 1531 Fit      -0.000706
 1532 Fit       0.003769
 1533 Fit       0.005966
 1534 Fit       0.008775
 1535 Fit       0.001256
 1536 Fit       0.003617
 1537 Fit       0.001543
 1538 Fit       0.004157
 1539 Fit       0.003522
 1540 Fit       0.005344
 1541 Fit       0.006881
 1542 Fit       0.006181
 1543 Fit       0.009610
 1544 Fit       0.009562
 1545 Fit       0.001752
 1546 Fit       0.002160
 1547 Fit       0.003938
 1548 Fit       0.005006
 1549 Fit       0.006445
 1550 Fit       0.003124
 1551 Fit       0.004940
 1552 Fit       0.006036
 1553 Fit       0.006557
 1554 Fit       0.004304
 1555 Fit       0.005915
 1556 Fit       0.006785
 1557 Fit       0.007445
 1558 Fit       0.005605
 1559 Fit       0.007048
 1560 Fit      -0.003110
 1561 Fit      -0.001061
 1562 Fit      -0.000025
 1563 Fit      -0.000364
 1564 Fit      -0.005734
 1565 Fit      -0.012210
 1566 Fit      -0.005453
 1567 Fit      -0.000543
 1568 Fit       0.000201
 1569 Fit       0.000597
 1570 Fit      -0.007979
 1571 Fit      -0.002705
 1572 Fit      -0.000887
 1573 Fit      -0.004614
 1574 Fit      -0.002173
 1575 Fit       0.004168
 1576 Fit       0.003326
 1577 Fit       0.002940
 1578 Fit       0.000738
 1579 Fit       0.008268
 1580 Fit       0.006750
 1581 Fit       0.004607
 1582 Fit       0.003278
 1583 Fit       0.002529
 1584 Fit       0.002358
 1585 Fit       0.003914
 1586 Fit       0.009981
 1587 Fit       0.008186
 1588 Fit       0.006650
 1589 Fit       0.005438
 1590 Fit       0.004498
 1591 Fit       0.003970
 1592 Fit       0.006060
 1593 Fit       0.008617
 1594 Fit       0.007130
 1595 Fit       0.006083
 1596 Fit       0.007669
 1597 Fit       0.000926
 1598 Fit       0.002936
 1599 Fit       0.000920
 1600 Fit      -0.003557
 1601 Fit       0.003044
 1602 Fit       0.002549
 1603 Fit       0.001420
 1604 Fit      -0.001968
 1605 Fit       0.002928
 1606 Fit       0.002713
 1607 Fit       0.001701
 1608 Fit      -0.000771
 1609 Fit      -0.005857
 1610 Fit       0.002695
 1611 Fit       0.002654
 1612 Fit       0.001783
 1613 Fit       0.000255
 1614 Fit       0.002385
 1615 Fit       0.007149
 1616 Fit       0.005565
 1617 Fit       0.008486
 1618 Fit       0.007595
 1619 Fit       0.006574
 1620 Fit       0.005101
 1621 Fit       0.008121
 1622 Fit       0.007523
 1623 Fit       0.006713
 1624 Fit       0.005450
 1625 Fit       0.003913
 1626 Fit       0.007622
 1627 Fit       0.007035
 1628 Fit       0.006241
 1629 Fit       0.005000
 1630 Fit       0.006260
 1631 Fit       0.005310
 1632 Fit      -0.003164
 1633 Fit      -0.005459
 1634 Fit      -0.000449
 1635 Fit       0.007190
 1636 Fit       0.008427
 1637 Fit       0.004104
 1638 Fit       0.005815
 1639 Fit       0.003810
 1640 Fit       0.005609
 1641 Fit       0.006580
 1642 Fit       0.007304
 1643 Fit       0.008273
 1644 Fit       0.008375
 1645 Fit       0.008183
 1646 Fit       0.008280
 1647 Fit       0.008655
 1648 Fit       0.010427
 1649 Fit       0.009332
 1650 Fit       0.008999
 1651 Fit       0.002239
 1652 Fit       0.000760
 1653 Fit      -0.002023
 1654 Fit      -0.000283
 1655 Fit       0.003106
 1656 Fit       0.004719
 1657 Fit       0.003851
 1658 Fit      -0.001391
 1659 Fit      -0.006992
 1660 Fit      -0.010350
 1661 Fit      -0.007668
 1662 Fit      -0.002030
 1663 Fit       0.002289
 1664 Fit       0.004888
 1665 Fit       0.006261
 1666 Fit       0.006389
 1667 Fit       0.005132
 1668 Fit       0.002750
 1669 Fit      -0.011377
 1670 Fit      -0.014449
 1671 Fit      -0.012020
 1672 Fit      -0.013572
 1673 Fit      -0.015796
 1674 Fit      -0.015302
 1675 Fit      -0.013366
 1676 Fit      -0.011284
 1677 Fit      -0.008165
 1678 Fit      -0.013199
 1679 Fit      -0.013369
 1680 Fit      -0.003945
 1681 Fit      -0.009895
 1682 Fit       0.009646
 1683 Fit       0.005211
 1684 Fit       0.005380
 1685 Fit       0.008955
 1686 Fit       0.008916
 1687 Fit       0.010996
 1688 Fit       0.010588
 1689 Fit       0.011586
 1690 Fit       0.010575
 1691 Fit       0.000066
 1692 Fit       0.001872
 1693 Fit       0.000025
 1694 Fit       0.003596
 1695 Fit       0.000543
 1696 Fit       0.006332
 1697 Fit       0.006885
 1698 Fit       0.004999
 1699 Fit       0.002701
 1700 Fit      -0.013030
 1701 Fit      -0.007048
 1702 Fit      -0.009193
 1703 Fit      -0.007871
 1704 Fit      -0.009225
 1705 Fit      -0.005283
 1706 Fit      -0.003200
 1707 Fit      -0.004503
 1708 Fit      -0.005841
 1709 Fit      -0.003159
 1710 Fit      -0.000338
 1711 Fit       0.000570
 1712 Fit      -0.001969
 1713 Fit      -0.009276
 1714 Fit       0.005083
 1715 Fit      -0.008097
 1716 Fit      -0.006556
 1717 Fit      -0.004055
 1718 Fit      -0.004204
 1719 Fit      -0.006088
 1720 Fit      -0.007949
 1721 Fit      -0.001680
 1722 Fit      -0.002628
 1723 Fit      -0.005539
 1724 Fit      -0.007232
 1725 Fit      -0.002777
 1726 Fit      -0.001124
 1727 Fit      -0.002486
 1728 Fit      -0.001688
 1729 Fit      -0.000935
 1730 Fit      -0.003268
 1731 Fit      -0.001679
 1732 Fit      -0.008051
 1733 Fit      -0.007861
 1734 Fit      -0.001195
 1735 Fit      -0.005782
 1736 Fit      -0.008183
 1737 Fit       0.008097
 1738 Fit       0.007331
 1739 Fit       0.000338
 1740 Fit       0.003018
 1741 Fit      -0.002711
 1742 Fit      -0.001026
 1743 Fit       0.002195
 1744 Fit       0.005219
 1745 Fit      -0.003326
 1746 Fit       0.001289
 1747 Fit       0.005425
 1748 Fit       0.009682
 1749 Fit       0.009433
 1750 Fit       0.010710
 1751 Fit       0.010670
 1752 Fit       0.010944
 1753 Fit       0.011643
 1754 Fit       0.011549
 1755 Fit       0.011040
 1756 Fit       0.010071
 1757 Fit       0.006606
 1758 Fit       0.011172
 1759 Fit      -0.002195
 1760 Fit       0.010564
 1761 Fit       0.008931
 1762 Fit       0.002547
 1763 Fit       0.002446
 1764 Fit       0.005794
 1765 Fit      -0.002513
 1766 Fit       0.004409
 1767 Fit      -0.003011
 1768 Fit       0.002833
 1769 Fit       0.007160
 1770 Fit       0.010682
 1771 Fit      -0.000102
 1772 Fit       0.004265
 1773 Fit       0.007419
 1774 Fit       0.009816
 1775 Fit       0.011902
 1776 Fit      -0.003136
 1777 Fit       0.002499
 1778 Fit       0.005970
 1779 Fit       0.008259
 1780 Fit       0.009727
 1781 Fit       0.003240
 1782 Fit       0.006449
 1783 Fit       0.007995
 1784 Fit       0.007409
 1785 Fit       0.002945
 1786 Fit      -0.000535
 1787 Fit      -0.000207
 1788 Fit       0.008644
 1789 Fit       0.007140
 1790 Fit       0.005269
 1791 Fit       0.004762
 1792 Fit       0.006482
 1793 Fit       0.005211
 1794 Fit       0.006604
 1795 Fit       0.007210
 1796 Fit       0.006532
 1797 Fit       0.006244
 1798 Fit      -0.007406
 1799 Fit      -0.005482
 1800 Fit      -0.004894
 1801 Fit      -0.003484
 1802 Fit       0.001984
 1803 Fit       0.004644
 1804 Fit       0.002032
 1805 Fit       0.007533
 1806 Fit      -0.000554
 1807 Fit       0.001668
 1808 Fit       0.004405
 1809 Fit       0.007114
 1810 Fit       0.004499
 1811 Fit       0.005447
 1812 Fit       0.006767
 1813 Fit       0.007028
 1814 Fit       0.005208
 1815 Fit       0.004807
 1816 Fit       0.006503
 1817 Fit       0.006124
 1818 Fit       0.006167
 1819 Fit      -0.006130
 1820 Fit      -0.004727
 1821 Fit      -0.000256
 1822 Fit      -0.002264
 1823 Fit      -0.006702
 1824 Fit       0.001718
 1825 Fit       0.005531
 1826 Fit       0.008745
 1827 Fit       0.007032
 1828 Fit       0.001554
 1829 Fit       0.006893
 1830 Fit       0.004804
 1831 Fit       0.004789
 1832 Fit       0.006673
 1833 Fit       0.007246
 1834 Fit       0.003263
 1835 Fit       0.006536
 1836 Fit       0.006209
 1837 Fit       0.006419
 1838 Fit       0.004340
 1839 Fit       0.004428
 1840 Fit       0.006905
 1841 Fit       0.006127
 1842 Fit       0.000509
 1843 Fit       0.003016
 1844 Fit       0.000069
 1845 Fit       0.004683
 1846 Fit       0.004272
 1847 Fit       0.005400
 1848 Fit       0.003334
 1849 Fit      -0.000081
 1850 Fit       0.007075
 1851 Fit       0.006457
 1852 Fit       0.006591
 1853 Fit       0.004863
 1854 Fit       0.002937
 1855 Fit       0.007732
 1856 Fit       0.007114
 1857 Fit      -0.011253
 1858 Fit      -0.014466
 1859 Fit      -0.011669
 1860 Fit      -0.011346
 1861 Fit      -0.015113
 1862 Fit      -0.014927
 1863 Fit      -0.014106
 1864 Fit      -0.011956
 1865 Fit      -0.011637
 1866 Fit      -0.015472
 1867 Fit      -0.016290
 1868 Fit      -0.015621
 1869 Fit      -0.013344
 1870 Fit      -0.014077
 1871 Fit      -0.013764
 1872 Fit      -0.010936
 1873 Fit      -0.007228
 1874 Fit      -0.011453
 1875 Fit      -0.014453
 1876 Fit      -0.014472
 1877 Fit      -0.013577
 1878 Fit      -0.013003
 1879 Fit      -0.010146
 1880 Fit      -0.012446
 1881 Fit      -0.013928
 1882 Fit      -0.012996
 1883 Fit      -0.008167
 1884 Fit      -0.008750
 1885 Fit      -0.008156
 1886 Fit      -0.008486
 1887 Fit      -0.005628
 1888 Fit      -0.009405
 1889 Fit      -0.012366
 1890 Fit      -0.013073
 1891 Fit      -0.010239
 1892 Fit      -0.002451
 1893 Fit      -0.001123
 1894 Fit      -0.002518
 1895 Fit      -0.005893
 1896 Fit      -0.010025
 1897 Fit      -0.010741
 1898 Fit      -0.006915
 1899 Fit      -0.002241
 1900 Fit      -0.006546
 1901 Fit      -0.005995
 1902 Fit      -0.000534
 1903 Fit      -0.001161
 1904 Fit       0.002347
 1905 Fit      -0.004734
 1906 Fit       0.008641
 1907 Fit       0.000471
 1908 Fit       0.009040
 1909 Fit       0.010548
 1910 Fit       0.006050
 1911 Fit       0.000161
 1912 Fit       0.007532
 1913 Fit      -0.003340
 1914 Fit      -0.007088
 1915 Fit      -0.008340
 1916 Fit      -0.012157
 1917 Fit      -0.008485
 1918 Fit      -0.012103
 1919 Fit      -0.006984
 1920 Fit      -0.006686
 1921 Fit      -0.002855
 1922 Fit      -0.006724
 1923 Fit      -0.006307
 1924 Fit      -0.008894
 1925 Fit      -0.004914
 1926 Fit      -0.004932
 1927 Fit      -0.008902
 1928 Fit      -0.004718
 1929 Fit      -0.003724
 1930 Fit      -0.006600
 1931 Fit      -0.009411
 1932 Fit      -0.003637
 1933 Fit      -0.019415
 1934 Fit      -0.015874
 1935 Fit      -0.024279
 1936 Fit      -0.025555
 1937 Fit      -0.020873
 1938 Fit      -0.015847
 1939 Fit      -0.012390
 1940 Fit      -0.020019
 1941 Fit      -0.024571
 1942 Fit      -0.020369
 1943 Fit      -0.017181
 1944 Fit      -0.013574
 1945 Fit      -0.009297
 1946 Fit      -0.021274
 1947 Fit      -0.018240
 1948 Fit      -0.016688
 1949 Fit      -0.014684
 1950 Fit      -0.011312
 1951 Fit      -0.006927
 1952 Fit      -0.018270
 1953 Fit      -0.015187
 1954 Fit      -0.015036
 1955 Fit      -0.015230
 1956 Fit      -0.014213
 1957 Fit      -0.011295
 1958 Fit      -0.007007
 1959 Fit      -0.010043
 1960 Fit      -0.010035
 1961 Fit      -0.011979
 1962 Fit      -0.013813
 1963 Fit      -0.014266
 1964 Fit      -0.012568
 1965 Fit      -0.008764
 1966 Fit      -0.008838
 1967 Fit      -0.012160
 1968 Fit      -0.013183
 1969 Fit      -0.011342
 1970 Fit      -0.008297
 1971 Fit      -0.010935
 1972 Fit      -0.010657
 1973 Fit      -0.005227
 1974 Fit      -0.007522
 1975 Fit      -0.001430
 1976 Fit       0.008785
 1977 Fit       0.004531
 1978 Fit       0.010111
 1979 Fit      -0.006238
 1980 Fit      -0.004010
 1981 Fit      -0.001184
 1982 Fit       0.000144
 1983 Fit       0.000476
 1984 Fit      -0.001075
 1985 Fit       0.004654
 1986 Fit       0.003760
 1987 Fit       0.002666
 1988 Fit       0.000523
 1989 Fit       0.005555
 1990 Fit       0.004249
 1991 Fit       0.002334
 1992 Fit       0.002435
 1993 Fit       0.011054
 1994 Fit       0.011324
 1995 Fit       0.009827
 1996 Fit       0.007445
 1997 Fit       0.006652
 1998 Fit       0.009001
 1999 Fit       0.009370
 2000 Fit       0.009715
 2001 Fit       0.011499
 2002 Fit       0.000760
 2003 Fit       0.002471
 2004 Fit       0.005546
 2005 Fit       0.010652
 2006 Fit       0.011246
 2007 Fit       0.011366
 2008 Fit       0.009649
 2009 Fit       0.008482
 2010 Fit       0.010974
 2011 Fit       0.010937
 2012 Fit       0.010651
 2013 Fit       0.010500
 2014 Fit       0.012519
 2015 Fit       0.011178
 2016 Fit      -0.017324
 2017 Fit      -0.016969
 2018 Fit      -0.011876
 2019 Fit      -0.012245
 2020 Fit      -0.017377
 2021 Fit      -0.021764
 2022 Fit      -0.021589
 2023 Fit      -0.015109
 2024 Fit      -0.005261
 2025 Fit      -0.003853
 2026 Fit      -0.007097
 2027 Fit      -0.012671
 2028 Fit      -0.017780
 2029 Fit      -0.022098
 2030 Fit      -0.026226
 2031 Fit      -0.027343
 2032 Fit      -0.024050
 2033 Fit      -0.020169
 2034 Fit      -0.007546
 2035 Fit      -0.013869
 2036 Fit      -0.018392
 2037 Fit      -0.021931
 2038 Fit      -0.019457
 2039 Fit      -0.016335
 2040 Fit      -0.005803
 2041 Fit      -0.012502
 2042 Fit      -0.016947
 2043 Fit      -0.019385
 2044 Fit      -0.021549
 2045 Fit      -0.010028
 2046 Fit      -0.007405
 2047 Fit      -0.012777
 2048 Fit      -0.015878
 2049 Fit      -0.016508
 2050 Fit      -0.015624
 2051 Fit      -0.004150
 2052 Fit      -0.009620
 2053 Fit      -0.012062
 2054 Fit      -0.010285
 2055 Fit      -0.005206
 2056 Fit      -0.004340
 2057 Fit       0.003186
 2058 Fit       0.006023
 2059 Fit       0.005036
 2060 Fit       0.003372
 2061 Fit       0.000111
 2062 Fit       0.006842
 2063 Fit       0.005600
 2064 Fit       0.004157
 2065 Fit       0.001805
 2066 Fit       0.007572
 2067 Fit       0.006925
 2068 Fit       0.005995
 2069 Fit       0.004770
 2070 Fit       0.004414
 2071 Fit       0.010708
 2072 Fit       0.008851
 2073 Fit       0.008231
 2074 Fit       0.008736
 2075 Fit       0.010866
 2076 Fit      -0.002220
 2077 Fit      -0.001283
 2078 Fit       0.001488
 2079 Fit       0.001019
 2080 Fit      -0.002902
 2081 Fit       0.003675
 2082 Fit       0.003577
 2083 Fit       0.002014
 2084 Fit      -0.001587
 2085 Fit       0.005074
 2086 Fit       0.004328
 2087 Fit       0.002736
 2088 Fit      -0.000427
 2089 Fit       0.004711
 2090 Fit       0.002924
 2091 Fit      -0.000391
 2092 Fit       0.000823
 2093 Fit       0.002161
 2094 Fit       0.000011
 2095 Fit      -0.000668
 2096 Fit       0.000319
 2097 Fit      -0.003526
 2098 Fit      -0.002782
 2099 Fit      -0.001603
 2100 Fit       0.000431
 2101 Fit       0.001241
 2102 Fit       0.002533
 2103 Fit       0.004064
 2104 Fit       0.006124
 2105 Fit       0.008409
 2106 Fit      -0.000173
 2107 Fit      -0.000639
 2108 Fit       0.001903
 2109 Fit       0.003340
 2110 Fit       0.001960
 2111 Fit       0.004173
 2112 Fit       0.003894
 2113 Fit       0.005077
 2114 Fit       0.006444
 2115 Fit       0.006203
 2116 Fit       0.008739
 2117 Fit       0.008931
 2118 Fit       0.001416
 2119 Fit       0.002787
 2120 Fit       0.003804
 2121 Fit       0.002014
 2122 Fit       0.003456
 2123 Fit       0.004466
 2124 Fit       0.005112
 2125 Fit       0.005941
 2126 Fit       0.002908
 2127 Fit       0.004271
 2128 Fit       0.005228
 2129 Fit       0.005793
 2130 Fit       0.006315
 2131 Fit       0.003958
 2132 Fit       0.005142
 2133 Fit       0.005974
 2134 Fit       0.006920
 2135 Fit       0.005220
 2136 Fit       0.006603
 2137 Fit      -0.003873
 2138 Fit      -0.002050
 2139 Fit      -0.000853
 2140 Fit      -0.001322
 2141 Fit      -0.006152
 2142 Fit      -0.005969
 2143 Fit      -0.001214
 2144 Fit      -0.000226
 2145 Fit       0.000321
 2146 Fit      -0.008328
 2147 Fit      -0.003463
 2148 Fit      -0.001071
 2149 Fit      -0.000239
 2150 Fit      -0.005226
 2151 Fit      -0.002572
 Job cpu time:       0 days  0 hours 12 minutes 15.1 seconds.
 Normal termination of Gaussian 16 at Sun Jul  9 10:32:22 2023.
