 Copyright (c) 1988-2019, Gaussian, Inc.  All Rights Reserved.
  
 This is part of the Gaussian(R) 16 program.  It is based on
 the Gaussian(R) 09 system (copyright 2009, Gaussian, Inc.),
 the Gaussian(R) 03 system (copyright 2003, Gaussian, Inc.),
 the Gaussian(R) 98 system (copyright 1998, Gaussian, Inc.),
 the Gaussian(R) 94 system (copyright 1995, Gaussian, Inc.),
 the Gaussian 92(TM) system (copyright 1992, Gaussian, Inc.),
 the Gaussian 90(TM) system (copyright 1990, Gaussian, Inc.),
 the Gaussian 88(TM) system (copyright 1988, Gaussian, Inc.),
 the Gaussian 86(TM) system (copyright 1986, Carnegie Mellon
 University), and the Gaussian 82(TM) system (copyright 1983,
 Carnegie Mellon University). Gaussian is a federally registered
 trademark of Gaussian, Inc.
 Cite this work as:
 Gaussian 16, Revision C.01,
 M. J. Frisch, G. W. Trucks, H. B. Schlegel, G. E. Scuseria, 
 M. A. Robb, J. R. Cheeseman, G. Scalmani, V. Barone, 
 G. A. Petersson, H. Nakatsuji, X. Li, M. Caricato, A. V. Marenich, 
 J. Bloino, B. G. Janesko, R. Gomperts, B. Mennucci, H. P. Hratchian, 
 J. V. Ortiz, A. F. Izmaylov, J. L. Sonnenberg, D. Williams-Young, 
 F. Ding, F. Lipparini, F. Egidi, J. Goings, B. Peng, A. Petrone, 
 T. Henderson, D. Ranasinghe, V. G. Zakrzewski, J. Gao, N. Rega, 
 G. Zheng, W. Liang, M. Hada, M. Ehara, K. Toyota, R. Fukuda, 
 J. Hasegawa, M. Ishida, T. Nakajima, Y. Honda, O. Kitao, H. Nakai, 
 T. Vreven, K. Throssell, J. A. Montgomery, Jr., J. E. Peralta, 
 F. Ogliaro, M. J. Bearpark, J. J. Heyd, E. N. Brothers, K. N. Kudin, 
 V. N. Staroverov, T. A. Keith, R. Kobayashi, J. Normand, 
 K. Raghavachari, A. P. Rendell, J. C. Burant, S. S. Iyengar, 
 J. Tomasi, M. Cossi, J. M. Millam, M. Klene, C. Adamo, R. Cammi, 
 J. W. Ochterski, R. L. Martin, K. Morokuma, O. Farkas, 
 J. B. Foresman, and D. J. Fox, Gaussian, Inc., Wallingford CT, 2019.
 
 ******************************************
 Gaussian 16:  EM64L-G16RevC.01  3-Jul-2019
                 9-Jul-2023 
 ******************************************
 ----------------------------------------------------------------------
 #P B3LYP/6-31G(d) Integral=Ultrafine SCF(Conver=8,XQC,MaxConventionalC
 ycles=64,MaxCycle=128) NoSymm Test Pop=mk IOp(6/33=2) GFInput GFPrint
 ----------------------------------------------------------------------
 1/38=1,172=1/1;
 2/12=2,15=1,17=6,18=5,40=1/2;
 3/5=1,6=6,7=1,11=2,24=110,25=1,30=1,74=-5,75=-5/1,2,3;
 4//1;
 5/5=2,6=8,7=128,8=3,13=1,38=5,85=64/2,8;
 6/7=2,8=2,9=2,10=2,15=8,20=1,28=1,33=2/1,2;
 99/5=1,9=1/99;
 -------------------------------------------------
 MEP step - Input generated by PyRED DVE-DMDS-OPLS
 -------------------------------------------------
 Symbolic Z-matrix:
 Charge =  0 Multiplicity = 1
 C                     7.82328   2.6522   -4.66782 
 H                     8.64525   1.96653  -4.43861 
 H                     6.98128   2.06264  -5.04441 
 H                     8.14936   3.33857  -5.45719 
 C                     7.41456   3.42588  -3.42453 
 H                     8.25916   4.0286   -3.04689 
 H                     6.60001   4.12763  -3.66708 
 O                     7.00891   2.49058  -2.43817 
 C                     6.68694   3.05529  -1.18166 
 H                     7.4348    3.81308  -0.89129 
 H                     6.73404   2.2337   -0.45935 
 C                     5.29917   3.68214  -1.10749 
 H                     5.1978    4.20565  -0.13984 
 H                     5.16655   4.43924  -1.89957 
 O                     4.33017   2.66189  -1.22657 
 C                     3.00477   3.1465   -1.2078 
 H                     2.81567   3.80021  -2.07775 
 H                     2.81252   3.73811  -0.29717 
 C                     2.04686   1.9715   -1.25248 
 H                     2.35059   1.28872  -2.06117 
 H                     1.03636   2.34631  -1.48422 
 O                     2.07821   1.30839   0. 
 C                     1.53411   0.        0. 
 H                     1.90993  -0.47349   0.91239 
 H                     1.90685  -0.58004  -0.85781 
 C                     0.        0.        0. 
 H                    -0.38887   0.42355  -0.93187 
 H                    -0.3783    0.61616   0.82338 
 S                    -0.73422  -1.67973   0.0978 
 C                    -0.48638  -2.06171   1.88643 
 H                     0.57947  -2.07913   2.12889 
 H                    -0.95952  -1.27196   2.48023 
 C                    -1.1085   -3.42256   2.19788 
 H                    -0.59894  -4.21183   1.6366 
 H                    -2.16349  -3.44968   1.90609 
 S                    -0.94815  -3.89943   3.9668 
 C                    -2.33501  -2.95457   4.72904 
 H                    -2.33611  -1.93488   4.33101 
 H                    -2.08757  -2.8817    5.79186 
 C                    -3.69621  -3.62941   4.55174 
 H                    -3.93475  -3.78201   3.49453 
 H                    -3.688    -4.61677   5.02211 
 S                    -5.07257  -2.71113   5.35825 
 C                    -5.41047  -1.38221   4.12847 
 H                    -6.01567  -0.65526   4.68034 
 H                    -4.47048  -0.8798    3.87458 
 C                    -6.14607  -1.84774   2.87257 
 H                    -6.33666  -0.99625   2.20714 
 H                    -5.56165  -2.58208   2.30773 
 H                    -7.1054   -2.3074    3.12922 
 
 ITRead=  0  0  0  0  0  0  0  0  0  0  0  0  0  0  0  0  0  0  0  0
 ITRead=  0  0  0  0  0  0  0  0  0  0  0  0  0  0  0  0  0  0  0  0
 ITRead=  0  0  0  0  0  0  0  0  0  0
 MicOpt= -1 -1 -1 -1 -1 -1 -1 -1 -1 -1 -1 -1 -1 -1 -1 -1 -1 -1 -1 -1
 MicOpt= -1 -1 -1 -1 -1 -1 -1 -1 -1 -1 -1 -1 -1 -1 -1 -1 -1 -1 -1 -1
 MicOpt= -1 -1 -1 -1 -1 -1 -1 -1 -1 -1
 NAtoms=     50 NQM=       50 NQMF=       0 NMMI=      0 NMMIF=      0
                NMic=       0 NMicF=      0.
                          Input orientation:                          
 ---------------------------------------------------------------------
 Center     Atomic      Atomic             Coordinates (Angstroms)
 Number     Number       Type             X           Y           Z
 ---------------------------------------------------------------------
      1          6           0        7.823280    2.652201   -4.667824
      2          1           0        8.645253    1.966527   -4.438611
      3          1           0        6.981284    2.062641   -5.044406
      4          1           0        8.149356    3.338572   -5.457186
      5          6           0        7.414563    3.425876   -3.424533
      6          1           0        8.259158    4.028600   -3.046891
      7          1           0        6.600005    4.127625   -3.667077
      8          8           0        7.008914    2.490584   -2.438171
      9          6           0        6.686943    3.055287   -1.181660
     10          1           0        7.434802    3.813081   -0.891288
     11          1           0        6.734036    2.233702   -0.459350
     12          6           0        5.299174    3.682143   -1.107487
     13          1           0        5.197801    4.205646   -0.139844
     14          1           0        5.166555    4.439241   -1.899573
     15          8           0        4.330174    2.661888   -1.226568
     16          6           0        3.004767    3.146504   -1.207796
     17          1           0        2.815673    3.800214   -2.077747
     18          1           0        2.812519    3.738110   -0.297165
     19          6           0        2.046861    1.971503   -1.252478
     20          1           0        2.350593    1.288719   -2.061169
     21          1           0        1.036362    2.346308   -1.484219
     22          8           0        2.078206    1.308386    0.000000
     23          6           0        1.534109    0.000000    0.000000
     24          1           0        1.909933   -0.473490    0.912388
     25          1           0        1.906845   -0.580041   -0.857809
     26          6           0        0.000000    0.000000    0.000000
     27          1           0       -0.388865    0.423552   -0.931870
     28          1           0       -0.378297    0.616159    0.823378
     29         16           0       -0.734222   -1.679727    0.097801
     30          6           0       -0.486384   -2.061711    1.886425
     31          1           0        0.579474   -2.079134    2.128888
     32          1           0       -0.959518   -1.271963    2.480234
     33          6           0       -1.108500   -3.422556    2.197883
     34          1           0       -0.598941   -4.211828    1.636604
     35          1           0       -2.163487   -3.449681    1.906091
     36         16           0       -0.948149   -3.899434    3.966799
     37          6           0       -2.335008   -2.954574    4.729038
     38          1           0       -2.336115   -1.934884    4.331007
     39          1           0       -2.087571   -2.881701    5.791860
     40          6           0       -3.696213   -3.629412    4.551740
     41          1           0       -3.934745   -3.782008    3.494525
     42          1           0       -3.688004   -4.616772    5.022107
     43         16           0       -5.072567   -2.711125    5.358252
     44          6           0       -5.410471   -1.382212    4.128472
     45          1           0       -6.015668   -0.655263    4.680338
     46          1           0       -4.470482   -0.879798    3.874577
     47          6           0       -6.146074   -1.847741    2.872569
     48          1           0       -6.336660   -0.996251    2.207140
     49          1           0       -5.561651   -2.582081    2.307734
     50          1           0       -7.105401   -2.307402    3.129217
 ---------------------------------------------------------------------
 Stoichiometry    C14H30O3S3
 Framework group  C1[X(C14H30O3S3)]
 Standard basis: 6-31G(d) (6D, 7F)
   372 basis functions,   752 primitive gaussians,   372 cartesian basis functions
    93 alpha electrons       93 beta electrons
 Requested convergence on RMS density matrix=1.00D-08 within  64 cycles.
 Requested convergence on MAX density matrix=1.00D-06.
 Requested convergence on             energy=1.00D-06.
 SCF Done:  E(RB3LYP) =  -1971.75438428     A.U. after   13 cycles
            NFock= 13  Conv=0.34D-08     -V/T= 2.0058
 Mulliken charges:
     1  C   -0.451290
     2  H    0.158585
     3  H    0.160337
     4  H    0.140138
     5  C   -0.011036
     6  H    0.115776
     7  H    0.119308
     8  O   -0.458686
     9  C   -0.032958
    10  H    0.114888
    11  H    0.159842
    12  C   -0.021860
    13  H    0.118299
    14  H    0.119379
    15  O   -0.459429
    16  C   -0.014755
    17  H    0.116479
    18  H    0.131556
    19  C   -0.031021
    20  H    0.140668
    21  H    0.119715
    22  O   -0.468573
    23  C   -0.012134
    24  H    0.151411
    25  H    0.141857
    26  C   -0.440691
    27  H    0.177842
    28  H    0.175059
    29  S    0.076756
    30  C   -0.393296
    31  H    0.188830
    32  H    0.170168
    33  C   -0.437148
    34  H    0.195862
    35  H    0.183206
    36  S    0.093473
    37  C   -0.413592
    38  H    0.174754
    39  H    0.193619
    40  C   -0.412573
    41  H    0.177281
    42  H    0.192129
    43  S    0.083076
    44  C   -0.411349
    45  H    0.178828
    46  H    0.166296
    47  C   -0.433676
    48  H    0.150684
    49  H    0.152140
    50  H    0.165827
 Sum of Mulliken charges =  -0.00000
 Dipole moment (field-independent basis, Debye):
    X=             -0.3390    Y=              3.8748    Z=             -1.7271  Tot=              4.2558
 Quadrupole moment (field-independent basis, Debye-Ang):
   XX=           -148.3154   YY=           -141.9861   ZZ=           -157.9099
   XY=              7.0319   XZ=              3.4073   YZ=              2.3005
 Traceless Quadrupole moment (field-independent basis, Debye-Ang):
   XX=              1.0884   YY=              7.4177   ZZ=             -8.5061
   XY=              7.0319   XZ=              3.4073   YZ=              2.3005
 Octapole moment (field-independent basis, Debye-Ang**2):
  XXX=           -189.8818  YYY=            241.5512  ZZZ=           -562.3354  XYY=              4.9796
  XXY=            167.8071  XXZ=           -201.8998  XZZ=              0.3025  YZZ=            125.9155
  YYZ=           -209.6083  XYZ=            -60.9002
 Hexadecapole moment (field-independent basis, Debye-Ang**3):
 XXXX=         -16225.2651 YYYY=          -6619.4465 ZZZZ=          -9129.8498 XXXY=          -3794.0126
 XXXZ=           4807.2872 YYYX=          -3865.5593 YYYZ=           3186.1792 ZZZX=           5037.4411
 ZZZY=           3359.3385 XXYY=          -3534.7220 XXZZ=          -4455.1127 YYZZ=          -2660.7897
 XXYZ=           1095.3207 YYXZ=           1498.5217 ZZXY=          -1494.6979
 Merz-Kollman atomic radii used.
 Atom Element Radius
    1     6    1.50
    2     1    1.20
    3     1    1.20
    4     1    1.20
    5     6    1.50
    6     1    1.20
    7     1    1.20
    8     8    1.40
    9     6    1.50
   10     1    1.20
   11     1    1.20
   12     6    1.50
   13     1    1.20
   14     1    1.20
   15     8    1.40
   16     6    1.50
   17     1    1.20
   18     1    1.20
   19     6    1.50
   20     1    1.20
   21     1    1.20
   22     8    1.40
   23     6    1.50
   24     1    1.20
   25     1    1.20
   26     6    1.50
   27     1    1.20
   28     1    1.20
   29    16    1.75
   30     6    1.50
   31     1    1.20
   32     1    1.20
   33     6    1.50
   34     1    1.20
   35     1    1.20
   36    16    1.75
   37     6    1.50
   38     1    1.20
   39     1    1.20
   40     6    1.50
   41     1    1.20
   42     1    1.20
   43    16    1.75
   44     6    1.50
   45     1    1.20
   46     1    1.20
   47     6    1.50
   48     1    1.20
   49     1    1.20
   50     1    1.20
 Generate VDW surfaces: Layer= 4 Dens= 1 Start= 1.400 Inc= 0.200
            Electrostatic Properties Using The SCF Density.


       Atomic Center    1 is at   7.823280  2.652201 -4.667824
       Atomic Center    2 is at   8.645253  1.966527 -4.438611
       Atomic Center    3 is at   6.981284  2.062641 -5.044406
       Atomic Center    4 is at   8.149356  3.338572 -5.457186
       Atomic Center    5 is at   7.414563  3.425876 -3.424533
       Atomic Center    6 is at   8.259158  4.028600 -3.046891
       Atomic Center    7 is at   6.600005  4.127625 -3.667077
       Atomic Center    8 is at   7.008914  2.490584 -2.438171
       Atomic Center    9 is at   6.686943  3.055287 -1.181660
       Atomic Center   10 is at   7.434802  3.813081 -0.891288
       Atomic Center   11 is at   6.734036  2.233702 -0.459350
       Atomic Center   12 is at   5.299174  3.682143 -1.107487
       Atomic Center   13 is at   5.197801  4.205646 -0.139844
       Atomic Center   14 is at   5.166555  4.439241 -1.899573
       Atomic Center   15 is at   4.330174  2.661888 -1.226568
       Atomic Center   16 is at   3.004767  3.146504 -1.207796
       Atomic Center   17 is at   2.815673  3.800214 -2.077747
       Atomic Center   18 is at   2.812519  3.738110 -0.297165
       Atomic Center   19 is at   2.046861  1.971503 -1.252478
       Atomic Center   20 is at   2.350593  1.288719 -2.061169
       Atomic Center   21 is at   1.036362  2.346308 -1.484219
       Atomic Center   22 is at   2.078206  1.308386  0.000000
       Atomic Center   23 is at   1.534109  0.000000  0.000000
       Atomic Center   24 is at   1.909933 -0.473490  0.912388
       Atomic Center   25 is at   1.906845 -0.580041 -0.857809
       Atomic Center   26 is at   0.000000  0.000000  0.000000
       Atomic Center   27 is at  -0.388865  0.423552 -0.931870
       Atomic Center   28 is at  -0.378297  0.616159  0.823378
       Atomic Center   29 is at  -0.734222 -1.679727  0.097801
       Atomic Center   30 is at  -0.486384 -2.061711  1.886425
       Atomic Center   31 is at   0.579474 -2.079134  2.128888
       Atomic Center   32 is at  -0.959518 -1.271963  2.480234
       Atomic Center   33 is at  -1.108500 -3.422556  2.197883
       Atomic Center   34 is at  -0.598941 -4.211828  1.636604
       Atomic Center   35 is at  -2.163487 -3.449681  1.906091
       Atomic Center   36 is at  -0.948149 -3.899434  3.966799
       Atomic Center   37 is at  -2.335008 -2.954574  4.729038
       Atomic Center   38 is at  -2.336115 -1.934884  4.331007
       Atomic Center   39 is at  -2.087571 -2.881701  5.791860
       Atomic Center   40 is at  -3.696213 -3.629412  4.551740
       Atomic Center   41 is at  -3.934745 -3.782008  3.494525
       Atomic Center   42 is at  -3.688004 -4.616772  5.022107
       Atomic Center   43 is at  -5.072567 -2.711125  5.358252
       Atomic Center   44 is at  -5.410471 -1.382212  4.128472
       Atomic Center   45 is at  -6.015668 -0.655263  4.680338
       Atomic Center   46 is at  -4.470482 -0.879798  3.874577
       Atomic Center   47 is at  -6.146074 -1.847741  2.872569
       Atomic Center   48 is at  -6.336660 -0.996251  2.207140
       Atomic Center   49 is at  -5.561651 -2.582081  2.307734
       Atomic Center   50 is at  -7.105401 -2.307402  3.129217
      ESP Fit Center   51 is at   7.564459  0.852059 -3.617824
      ESP Fit Center   52 is at   9.682738  3.628120 -4.667824
      ESP Fit Center   53 is at   6.632315  4.026647 -5.717824
      ESP Fit Center   54 is at   8.348280  1.742874 -6.486477
      ESP Fit Center   55 is at   9.632732  1.966527 -3.079462
      ESP Fit Center   56 is at   8.950401  1.027378 -3.079462
      ESP Fit Center   57 is at  10.243028  1.966527 -3.919462
      ESP Fit Center   58 is at   9.869220  2.993557 -3.919462
      ESP Fit Center   59 is at   7.846366  0.582813 -3.919462
      ESP Fit Center   60 is at   8.922704  0.393026 -3.919462
      ESP Fit Center   61 is at   9.869220  0.939497 -3.919462
      ESP Fit Center   62 is at  10.243028  1.966527 -4.957760
      ESP Fit Center   63 is at   8.922704  0.393026 -4.957760
      ESP Fit Center   64 is at   9.869220  0.939497 -4.957760
      ESP Fit Center   65 is at   9.632732  1.966527 -5.797760
      ESP Fit Center   66 is at   8.950401  1.027378 -5.797760
      ESP Fit Center   67 is at   5.479867  2.609112 -4.525257
      ESP Fit Center   68 is at   5.479867  1.516170 -4.525257
      ESP Fit Center   69 is at   6.182397  0.678927 -4.525257
      ESP Fit Center   70 is at   7.258735  0.489140 -4.525257
      ESP Fit Center   71 is at   5.479867  2.609112 -5.563555
      ESP Fit Center   72 is at   5.479867  1.516170 -5.563555
      ESP Fit Center   73 is at   6.182397  0.678927 -5.563555
      ESP Fit Center   74 is at   7.258735  0.489140 -5.563555
      ESP Fit Center   75 is at   6.182397  2.643067 -6.403555
      ESP Fit Center   76 is at   6.182397  1.482215 -6.403555
      ESP Fit Center   77 is at   7.286432  1.123492 -6.403555
      ESP Fit Center   78 is at   6.981284  2.062641 -6.724406
      ESP Fit Center   79 is at   9.373323  4.365602 -4.938037
      ESP Fit Center   80 is at   8.426807  4.912073 -4.938037
      ESP Fit Center   81 is at   9.747131  3.338572 -5.976335
      ESP Fit Center   82 is at   9.373323  4.365602 -5.976335
      ESP Fit Center   83 is at   8.426807  4.912073 -5.976335
      ESP Fit Center   84 is at   7.350469  4.722286 -5.976335
      ESP Fit Center   85 is at   6.647939  3.885043 -5.976335
      ESP Fit Center   86 is at   9.136835  3.338572 -6.816335
      ESP Fit Center   87 is at   8.454504  4.277721 -6.816335
      ESP Fit Center   88 is at   7.350469  3.918998 -6.816335
      ESP Fit Center   89 is at   7.350469  2.758146 -6.816335
      ESP Fit Center   90 is at   8.454504  2.399423 -6.816335
      ESP Fit Center   91 is at   8.149356  3.338572 -7.137186
      ESP Fit Center   92 is at   7.155742  5.226018 -2.374533
      ESP Fit Center   93 is at   8.170059  5.080181 -4.474533
      ESP Fit Center   94 is at   9.246637  4.028600 -1.687742
      ESP Fit Center   95 is at   8.564306  4.967749 -1.687742
      ESP Fit Center   96 is at   9.856933  4.028600 -2.527742
      ESP Fit Center   97 is at   9.483125  5.055630 -2.527742
      ESP Fit Center   98 is at   8.536609  5.602101 -2.527742
      ESP Fit Center   99 is at   7.460271  5.412314 -2.527742
      ESP Fit Center  100 is at   9.483125  3.001570 -2.527742
      ESP Fit Center  101 is at   9.856933  4.028600 -3.566040
      ESP Fit Center  102 is at   9.483125  5.055630 -3.566040
      ESP Fit Center  103 is at   8.536609  5.602101 -3.566040
      ESP Fit Center  104 is at   8.564306  4.967749 -4.406040
      ESP Fit Center  105 is at   6.877456  5.701126 -3.147928
      ESP Fit Center  106 is at   5.801118  5.511339 -3.147928
      ESP Fit Center  107 is at   6.877456  5.701126 -4.186226
      ESP Fit Center  108 is at   5.801118  5.511339 -4.186226
      ESP Fit Center  109 is at   5.098588  4.674096 -4.186226
      ESP Fit Center  110 is at   5.098588  3.581154 -4.186226
      ESP Fit Center  111 is at   6.905153  5.066774 -5.026226
      ESP Fit Center  112 is at   5.801118  4.708051 -5.026226
      ESP Fit Center  113 is at   5.801118  3.547199 -5.026226
      ESP Fit Center  114 is at   8.706324  2.490584 -1.458171
      ESP Fit Center  115 is at   6.484386  0.876251 -1.458171
      ESP Fit Center  116 is at   7.533442  0.876251 -1.458171
      ESP Fit Center  117 is at   8.382147  1.492872 -1.458171
      ESP Fit Center  118 is at   6.028914  0.793174 -2.438171
      ESP Fit Center  119 is at   7.008914  0.530584 -2.438171
      ESP Fit Center  120 is at   7.988914  0.793174 -2.438171
      ESP Fit Center  121 is at   8.706324  1.510584 -2.438171
      ESP Fit Center  122 is at   5.311504  2.490584 -3.418171
      ESP Fit Center  123 is at   5.635681  1.492872 -3.418171
      ESP Fit Center  124 is at   6.484386  0.876251 -3.418171
      ESP Fit Center  125 is at   7.533442  0.876251 -3.418171
      ESP Fit Center  126 is at   7.736943  3.055287  0.636993
      ESP Fit Center  127 is at   8.546401  2.079368 -1.181660
      ESP Fit Center  128 is at   7.434802  3.813081  0.788712
      ESP Fit Center  129 is at   8.422281  3.813081  0.467861
      ESP Fit Center  130 is at   7.739950  4.752230  0.467861
      ESP Fit Center  131 is at   9.032577  3.813081 -0.372139
      ESP Fit Center  132 is at   8.658769  4.840111 -0.372139
      ESP Fit Center  133 is at   7.712253  5.386582 -0.372139
      ESP Fit Center  134 is at   6.635915  5.196795 -0.372139
      ESP Fit Center  135 is at   8.658769  2.786051 -0.372139
      ESP Fit Center  136 is at   9.032577  3.813081 -1.410437
      ESP Fit Center  137 is at   8.658769  4.840111 -1.410437
      ESP Fit Center  138 is at   7.712253  5.386582 -1.410437
      ESP Fit Center  139 is at   6.734036  2.233702  1.220650
      ESP Fit Center  140 is at   7.721515  2.233702  0.899799
      ESP Fit Center  141 is at   7.039184  3.172851  0.899799
      ESP Fit Center  142 is at   5.935149  2.814128  0.899799
      ESP Fit Center  143 is at   5.935149  1.653276  0.899799
      ESP Fit Center  144 is at   7.039184  1.294553  0.899799
      ESP Fit Center  145 is at   8.331811  2.233702  0.059799
      ESP Fit Center  146 is at   5.935149  0.849988  0.059799
      ESP Fit Center  147 is at   7.011487  0.660201  0.059799
      ESP Fit Center  148 is at   7.958003  1.206672  0.059799
      ESP Fit Center  149 is at   5.935149  0.849988 -0.978499
      ESP Fit Center  150 is at   7.011487  0.660201 -0.978499
      ESP Fit Center  151 is at   7.958003  1.206672 -0.978499
      ESP Fit Center  152 is at   4.774174  2.772816  0.711166
      ESP Fit Center  153 is at   6.492110  5.410409 -1.107487
      ESP Fit Center  154 is at   5.197801  4.205646  1.540156
      ESP Fit Center  155 is at   6.185280  4.205646  1.219305
      ESP Fit Center  156 is at   5.502949  5.144795  1.219305
      ESP Fit Center  157 is at   4.398914  4.786072  1.219305
      ESP Fit Center  158 is at   4.398914  3.625220  1.219305
      ESP Fit Center  159 is at   5.502949  3.266497  1.219305
      ESP Fit Center  160 is at   6.421768  5.232676  0.379305
      ESP Fit Center  161 is at   5.475252  5.779147  0.379305
      ESP Fit Center  162 is at   4.398914  5.589360  0.379305
      ESP Fit Center  163 is at   5.475252  5.779147 -0.658993
      ESP Fit Center  164 is at   4.398914  5.589360 -0.658993
      ESP Fit Center  165 is at   6.390522  5.466271 -1.380424
      ESP Fit Center  166 is at   5.444006  6.012742 -1.380424
      ESP Fit Center  167 is at   4.367668  5.822955 -1.380424
      ESP Fit Center  168 is at   6.390522  5.466271 -2.418722
      ESP Fit Center  169 is at   5.444006  6.012742 -2.418722
      ESP Fit Center  170 is at   4.367668  5.822955 -2.418722
      ESP Fit Center  171 is at   5.471703  5.378390 -3.258722
      ESP Fit Center  172 is at   4.367668  5.019667 -3.258722
      ESP Fit Center  173 is at   4.367668  3.858815 -3.258722
      ESP Fit Center  174 is at   4.330174  2.661888  0.733432
      ESP Fit Center  175 is at   4.820174  1.813183  0.470842
      ESP Fit Center  176 is at   4.854702  1.047555 -0.246568
      ESP Fit Center  177 is at   4.330174  0.701888 -1.226568
      ESP Fit Center  178 is at   5.310174  0.964478 -1.226568
      ESP Fit Center  179 is at   4.854702  1.047555 -2.206568
      ESP Fit Center  180 is at   3.840174  1.813183 -2.923978
      ESP Fit Center  181 is at   4.820174  1.813183 -2.923978
      ESP Fit Center  182 is at   4.330174  2.661888 -3.186568
      ESP Fit Center  183 is at   3.257894  5.231193 -1.207796
      ESP Fit Center  184 is at   1.432894  4.539062 -1.207796
      ESP Fit Center  185 is at   3.529767  2.237177 -3.026449
      ESP Fit Center  186 is at   3.093124  5.373715 -1.558598
      ESP Fit Center  187 is at   2.016786  5.183928 -1.558598
      ESP Fit Center  188 is at   1.314256  4.346685 -1.558598
      ESP Fit Center  189 is at   3.093124  5.373715 -2.596896
      ESP Fit Center  190 is at   2.016786  5.183928 -2.596896
      ESP Fit Center  191 is at   1.314256  4.346685 -2.596896
      ESP Fit Center  192 is at   3.803152  3.800214 -3.436896
      ESP Fit Center  193 is at   3.120821  4.739363 -3.436896
      ESP Fit Center  194 is at   2.016786  4.380640 -3.436896
      ESP Fit Center  195 is at   2.016786  3.219788 -3.436896
      ESP Fit Center  196 is at   3.120821  2.861065 -3.436896
      ESP Fit Center  197 is at   2.815673  3.800214 -3.757747
      ESP Fit Center  198 is at   2.812519  3.738110  1.382835
      ESP Fit Center  199 is at   3.799998  3.738110  1.061984
      ESP Fit Center  200 is at   3.117667  4.677259  1.061984
      ESP Fit Center  201 is at   2.013632  4.318536  1.061984
      ESP Fit Center  202 is at   2.013632  3.157684  1.061984
      ESP Fit Center  203 is at   3.117667  2.798961  1.061984
      ESP Fit Center  204 is at   3.089970  5.311611  0.221984
      ESP Fit Center  205 is at   2.013632  5.121824  0.221984
      ESP Fit Center  206 is at   1.311102  4.284581  0.221984
      ESP Fit Center  207 is at   3.089970  5.311611 -0.816314
      ESP Fit Center  208 is at   2.013632  5.121824 -0.816314
      ESP Fit Center  209 is at   1.521861  2.880830 -3.071131
      ESP Fit Center  210 is at   3.574560  0.261689 -1.542020
      ESP Fit Center  211 is at   3.948368  1.288719 -2.580318
      ESP Fit Center  212 is at   0.849176  0.742248 -2.580318
      ESP Fit Center  213 is at   1.551706 -0.094995 -2.580318
      ESP Fit Center  214 is at   2.628044 -0.284782 -2.580318
      ESP Fit Center  215 is at   3.574560  0.261689 -2.580318
      ESP Fit Center  216 is at   3.338072  1.288719 -3.420318
      ESP Fit Center  217 is at   2.655741  2.227868 -3.420318
      ESP Fit Center  218 is at   1.551706  1.869145 -3.420318
      ESP Fit Center  219 is at   1.551706  0.708293 -3.420318
      ESP Fit Center  220 is at   2.655741  0.349570 -3.420318
      ESP Fit Center  221 is at   2.350593  1.288719 -3.741169
      ESP Fit Center  222 is at   0.237475  2.926734 -0.125070
      ESP Fit Center  223 is at   0.237475  3.730022 -0.965070
      ESP Fit Center  224 is at  -0.465055  2.892779 -0.965070
      ESP Fit Center  225 is at   0.237475  3.730022 -2.003368
      ESP Fit Center  226 is at  -0.465055  2.892779 -2.003368
      ESP Fit Center  227 is at  -0.465055  1.799837 -2.003368
      ESP Fit Center  228 is at   1.341510  3.285457 -2.843368
      ESP Fit Center  229 is at   0.237475  2.926734 -2.843368
      ESP Fit Center  230 is at   0.237475  1.765882 -2.843368
      ESP Fit Center  231 is at   1.036362  2.346308 -3.164219
      ESP Fit Center  232 is at   2.078206  1.308386  1.960000
      ESP Fit Center  233 is at   3.058206  1.308386  1.697410
      ESP Fit Center  234 is at   2.568206  2.157091  1.697410
      ESP Fit Center  235 is at   1.588206  2.157091  1.697410
      ESP Fit Center  236 is at   1.098206  1.308386  1.697410
      ESP Fit Center  237 is at   3.775616  1.308386  0.980000
      ESP Fit Center  238 is at   3.451439  2.306098  0.980000
      ESP Fit Center  239 is at   1.553678  2.922719  0.980000
      ESP Fit Center  240 is at   0.704973  2.306098  0.980000
      ESP Fit Center  241 is at   3.451439  0.310674  0.980000
      ESP Fit Center  242 is at   3.775616  0.328386  0.000000
      ESP Fit Center  243 is at   3.451439  0.310674 -0.980000
      ESP Fit Center  244 is at   1.009109  0.909327  1.818653
      ESP Fit Center  245 is at   3.634109  0.000000  0.000000
      ESP Fit Center  246 is at   1.787236 -2.084689  0.000000
      ESP Fit Center  247 is at   3.393567 -0.975919  0.000000
      ESP Fit Center  248 is at   1.909933 -0.473490  2.592388
      ESP Fit Center  249 is at   2.897412 -0.473490  2.271537
      ESP Fit Center  250 is at   2.215081  0.465659  2.271537
      ESP Fit Center  251 is at   1.111046  0.106936  2.271537
      ESP Fit Center  252 is at   2.215081 -1.412639  2.271537
      ESP Fit Center  253 is at   3.507708 -0.473490  1.431537
      ESP Fit Center  254 is at   2.187384 -2.046991  1.431537
      ESP Fit Center  255 is at   3.133900 -1.500520  1.431537
      ESP Fit Center  256 is at   2.187384 -2.046991  0.393239
      ESP Fit Center  257 is at   3.133900 -1.500520  0.393239
      ESP Fit Center  258 is at   2.184296 -2.153542 -0.338660
      ESP Fit Center  259 is at   3.130812 -1.607071 -0.338660
      ESP Fit Center  260 is at   3.504620 -0.580041 -1.376958
      ESP Fit Center  261 is at   2.184296 -2.153542 -1.376958
      ESP Fit Center  262 is at   3.130812 -1.607071 -1.376958
      ESP Fit Center  263 is at   2.894324 -0.580041 -2.216958
      ESP Fit Center  264 is at   1.107958  0.000385 -2.216958
      ESP Fit Center  265 is at   1.107958 -1.160467 -2.216958
      ESP Fit Center  266 is at   2.211993 -1.519190 -2.216958
      ESP Fit Center  267 is at   1.906845 -0.580041 -2.537809
      ESP Fit Center  268 is at   0.253127  2.084689  0.000000
      ESP Fit Center  269 is at  -2.038978  0.502563  0.000000
      ESP Fit Center  270 is at  -1.187752  1.807266 -0.412721
      ESP Fit Center  271 is at  -1.890282  0.970023 -0.412721
      ESP Fit Center  272 is at  -1.187752  1.807266 -1.451019
      ESP Fit Center  273 is at  -1.890282  0.970023 -1.451019
      ESP Fit Center  274 is at  -1.890282 -0.122919 -1.451019
      ESP Fit Center  275 is at   0.598614  0.423552 -2.291019
      ESP Fit Center  276 is at  -0.083717  1.362701 -2.291019
      ESP Fit Center  277 is at  -1.187752  1.003978 -2.291019
      ESP Fit Center  278 is at  -1.187752 -0.156874 -2.291019
      ESP Fit Center  279 is at  -0.083717 -0.515597 -2.291019
      ESP Fit Center  280 is at  -0.388865  0.423552 -2.611870
      ESP Fit Center  281 is at  -0.378297  0.616159  2.503378
      ESP Fit Center  282 is at   0.609182  0.616159  2.182527
      ESP Fit Center  283 is at  -0.073149  1.555308  2.182527
      ESP Fit Center  284 is at  -1.177184  1.196585  2.182527
      ESP Fit Center  285 is at  -0.100846  2.189660  1.342527
      ESP Fit Center  286 is at  -1.177184  1.999873  1.342527
      ESP Fit Center  287 is at  -1.879714  1.162630  1.342527
      ESP Fit Center  288 is at  -0.100846  2.189660  0.304229
      ESP Fit Center  289 is at  -1.177184  1.999873  0.304229
      ESP Fit Center  290 is at  -1.879714  1.162630  0.304229
      ESP Fit Center  291 is at  -1.988599 -0.232098  1.625351
      ESP Fit Center  292 is at  -2.572118 -1.140072  1.625351
      ESP Fit Center  293 is at  -2.223473  0.187735  0.642977
      ESP Fit Center  294 is at  -2.886252 -0.643364  0.642977
      ESP Fit Center  295 is at  -3.122795 -1.679727  0.642977
      ESP Fit Center  296 is at   0.755029 -3.547189  0.642977
      ESP Fit Center  297 is at   1.417808 -2.716090  0.642977
      ESP Fit Center  298 is at  -2.223473  0.187735 -0.447375
      ESP Fit Center  299 is at  -2.886252 -0.643364 -0.447375
      ESP Fit Center  300 is at  -3.122795 -1.679727 -0.447375
      ESP Fit Center  301 is at  -2.886252 -2.716090 -0.447375
      ESP Fit Center  302 is at  -2.223473 -3.547189 -0.447375
      ESP Fit Center  303 is at  -1.265730 -4.008414 -0.447375
      ESP Fit Center  304 is at  -0.202714 -4.008414 -0.447375
      ESP Fit Center  305 is at   0.755029 -3.547189 -0.447375
      ESP Fit Center  306 is at   1.417808 -2.716090 -0.447375
      ESP Fit Center  307 is at  -1.988599 -0.232098 -1.429749
      ESP Fit Center  308 is at  -2.572118 -1.140072 -1.429749
      ESP Fit Center  309 is at  -2.572118 -2.219382 -1.429749
      ESP Fit Center  310 is at  -1.988599 -3.127356 -1.429749
      ESP Fit Center  311 is at  -1.006824 -3.575717 -1.429749
      ESP Fit Center  312 is at   0.061500 -3.422115 -1.429749
      ESP Fit Center  313 is at   0.877188 -2.715318 -1.429749
      ESP Fit Center  314 is at   0.328793 -1.679727 -2.109573
      ESP Fit Center  315 is at  -1.265730 -0.759129 -2.109573
      ESP Fit Center  316 is at  -1.797237 -1.679727 -2.109573
      ESP Fit Center  317 is at  -1.265730 -2.600325 -2.109573
      ESP Fit Center  318 is at  -0.202714 -2.600325 -2.109573
      ESP Fit Center  319 is at  -0.734222 -1.679727 -2.352199
      ESP Fit Center  320 is at  -2.525362 -1.559148  1.886425
      ESP Fit Center  321 is at   1.566953 -2.079134  3.488037
      ESP Fit Center  322 is at   0.884622 -1.139985  3.488037
      ESP Fit Center  323 is at   2.177249 -2.079134  2.648037
      ESP Fit Center  324 is at   1.803441 -1.052104  2.648037
      ESP Fit Center  325 is at   0.856925 -0.505633  2.648037
      ESP Fit Center  326 is at   1.803441 -3.106164  2.648037
      ESP Fit Center  327 is at   2.177249 -2.079134  1.609739
      ESP Fit Center  328 is at   1.803441 -3.106164  1.609739
      ESP Fit Center  329 is at   0.027961 -1.271963  3.839383
      ESP Fit Center  330 is at  -0.654370 -0.332814  3.839383
      ESP Fit Center  331 is at   0.264449 -0.244933  2.999383
      ESP Fit Center  332 is at  -0.682067  0.301538  2.999383
      ESP Fit Center  333 is at  -1.758405  0.111751  2.999383
      ESP Fit Center  334 is at  -2.460935 -0.725492  2.999383
      ESP Fit Center  335 is at  -1.758405  0.111751  1.961085
      ESP Fit Center  336 is at  -2.460935 -0.725492  1.961085
      ESP Fit Center  337 is at  -1.853170 -5.386090  2.197883
      ESP Fit Center  338 is at   0.998834 -4.211828  2.155753
      ESP Fit Center  339 is at  -1.397828 -5.595542  2.155753
      ESP Fit Center  340 is at  -0.321490 -5.785329  2.155753
      ESP Fit Center  341 is at   0.625026 -5.238858  2.155753
      ESP Fit Center  342 is at   0.998834 -4.211828  1.117455
      ESP Fit Center  343 is at  -1.397828 -5.595542  1.117455
      ESP Fit Center  344 is at  -0.321490 -5.785329  1.117455
      ESP Fit Center  345 is at   0.625026 -5.238858  1.117455
      ESP Fit Center  346 is at   0.388538 -4.211828  0.277455
      ESP Fit Center  347 is at  -1.397828 -4.792254  0.277455
      ESP Fit Center  348 is at  -0.293793 -5.150977  0.277455
      ESP Fit Center  349 is at  -0.598941 -4.211828 -0.043396
      ESP Fit Center  350 is at  -2.962374 -2.065967  2.425240
      ESP Fit Center  351 is at  -2.962374 -4.833395  2.425240
      ESP Fit Center  352 is at  -2.962374 -2.065967  1.386942
      ESP Fit Center  353 is at  -3.664904 -2.903210  1.386942
      ESP Fit Center  354 is at  -3.664904 -3.996152  1.386942
      ESP Fit Center  355 is at  -2.962374 -4.833395  1.386942
      ESP Fit Center  356 is at  -2.962374 -2.869255  0.546942
      ESP Fit Center  357 is at  -2.962374 -4.030107  0.546942
      ESP Fit Center  358 is at   0.114866 -3.899434  6.174173
      ESP Fit Center  359 is at  -0.416641 -2.978836  6.174173
      ESP Fit Center  360 is at  -1.479657 -4.820032  6.174173
      ESP Fit Center  361 is at  -0.416641 -4.820032  6.174173
      ESP Fit Center  362 is at   0.967338 -3.899434  5.494349
      ESP Fit Center  363 is at   0.663261 -2.863843  5.494349
      ESP Fit Center  364 is at  -0.152427 -2.157046  5.494349
      ESP Fit Center  365 is at  -2.202526 -5.347063  5.494349
      ESP Fit Center  366 is at  -1.220751 -5.795424  5.494349
      ESP Fit Center  367 is at  -0.152427 -5.641822  5.494349
      ESP Fit Center  368 is at   0.663261 -4.935025  5.494349
      ESP Fit Center  369 is at   1.440424 -3.899434  4.511975
      ESP Fit Center  370 is at   1.203881 -2.863071  4.511975
      ESP Fit Center  371 is at   0.541102 -2.031972  4.511975
      ESP Fit Center  372 is at  -0.416641 -1.570747  4.511975
      ESP Fit Center  373 is at  -2.437400 -5.766896  4.511975
      ESP Fit Center  374 is at  -1.479657 -6.228121  4.511975
      ESP Fit Center  375 is at  -0.416641 -6.228121  4.511975
      ESP Fit Center  376 is at   0.541102 -5.766896  4.511975
      ESP Fit Center  377 is at   1.203881 -4.935797  4.511975
      ESP Fit Center  378 is at   1.440424 -3.899434  3.421623
      ESP Fit Center  379 is at  -2.437400 -5.766896  3.421623
      ESP Fit Center  380 is at  -1.479657 -6.228121  3.421623
      ESP Fit Center  381 is at  -0.416641 -6.228121  3.421623
      ESP Fit Center  382 is at   0.541102 -5.766896  3.421623
      ESP Fit Center  383 is at   1.203881 -4.935797  3.421623
      ESP Fit Center  384 is at   0.967338 -3.899434  2.439249
      ESP Fit Center  385 is at  -2.202526 -5.347063  2.439249
      ESP Fit Center  386 is at  -1.220751 -5.795424  2.439249
      ESP Fit Center  387 is at  -0.152427 -5.641822  2.439249
      ESP Fit Center  388 is at  -2.030967 -0.995735  5.690156
      ESP Fit Center  389 is at  -1.112148 -0.907854  4.850156
      ESP Fit Center  390 is at  -2.058664 -0.361383  4.850156
      ESP Fit Center  391 is at  -3.135002 -0.551170  4.850156
      ESP Fit Center  392 is at  -2.058664 -0.361383  3.811858
      ESP Fit Center  393 is at  -3.135002 -1.354458  2.971858
      ESP Fit Center  394 is at  -2.087571 -2.881701  7.471860
      ESP Fit Center  395 is at  -1.100092 -2.881701  7.151009
      ESP Fit Center  396 is at  -1.782423 -1.942552  7.151009
      ESP Fit Center  397 is at  -2.886458 -2.301275  7.151009
      ESP Fit Center  398 is at  -2.886458 -3.462127  7.151009
      ESP Fit Center  399 is at  -1.782423 -3.820850  7.151009
      ESP Fit Center  400 is at  -0.489796 -2.881701  6.311009
      ESP Fit Center  401 is at  -0.863604 -1.854671  6.311009
      ESP Fit Center  402 is at  -1.810120 -1.308200  6.311009
      ESP Fit Center  403 is at  -2.886458 -1.497987  6.311009
      ESP Fit Center  404 is at  -1.810120 -4.455202  6.311009
      ESP Fit Center  405 is at  -5.268086 -5.021970  4.551740
      ESP Fit Center  406 is at  -2.940717 -5.283717  3.501740
      ESP Fit Center  407 is at  -3.657294 -2.208507  2.975376
      ESP Fit Center  408 is at  -5.436162 -4.328479  2.975376
      ESP Fit Center  409 is at  -4.733632 -5.165722  2.975376
      ESP Fit Center  410 is at  -3.657294 -5.355509  2.975376
      ESP Fit Center  411 is at  -4.733632 -4.362434  2.135376
      ESP Fit Center  412 is at  -3.629597 -4.721157  2.135376
      ESP Fit Center  413 is at  -3.934745 -3.782008  1.814525
      ESP Fit Center  414 is at  -3.688004 -4.616772  6.702107
      ESP Fit Center  415 is at  -2.700525 -4.616772  6.381256
      ESP Fit Center  416 is at  -4.486891 -5.197198  6.381256
      ESP Fit Center  417 is at  -3.382856 -5.555921  6.381256
      ESP Fit Center  418 is at  -5.189421 -5.163243  5.541256
      ESP Fit Center  419 is at  -4.486891 -6.000486  5.541256
      ESP Fit Center  420 is at  -3.410553 -6.190273  5.541256
      ESP Fit Center  421 is at  -2.464037 -5.643802  5.541256
      ESP Fit Center  422 is at  -5.189421 -5.163243  4.502958
      ESP Fit Center  423 is at  -4.486891 -6.000486  4.502958
      ESP Fit Center  424 is at  -3.410553 -6.190273  4.502958
      ESP Fit Center  425 is at  -3.382856 -5.555921  3.662958
      ESP Fit Center  426 is at  -5.072567 -2.711125  7.808252
      ESP Fit Center  427 is at  -4.009552 -2.711125  7.565626
      ESP Fit Center  428 is at  -4.541059 -1.790527  7.565626
      ESP Fit Center  429 is at  -5.604075 -1.790527  7.565626
      ESP Fit Center  430 is at  -6.135582 -2.711125  7.565626
      ESP Fit Center  431 is at  -5.604075 -3.631723  7.565626
      ESP Fit Center  432 is at  -4.541059 -3.631723  7.565626
      ESP Fit Center  433 is at  -3.461157 -1.675534  6.885802
      ESP Fit Center  434 is at  -4.276845 -0.968737  6.885802
      ESP Fit Center  435 is at  -5.345169 -0.815135  6.885802
      ESP Fit Center  436 is at  -6.326944 -1.263496  6.885802
      ESP Fit Center  437 is at  -6.910463 -2.171470  6.885802
      ESP Fit Center  438 is at  -6.910463 -3.250780  6.885802
      ESP Fit Center  439 is at  -6.326944 -4.158754  6.885802
      ESP Fit Center  440 is at  -5.345169 -4.607115  6.885802
      ESP Fit Center  441 is at  -4.276845 -4.453513  6.885802
      ESP Fit Center  442 is at  -3.461157 -3.746716  6.885802
      ESP Fit Center  443 is at  -3.583316 -0.843663  5.903428
      ESP Fit Center  444 is at  -4.541059 -0.382438  5.903428
      ESP Fit Center  445 is at  -7.224597 -1.674762  5.903428
      ESP Fit Center  446 is at  -7.461140 -2.711125  5.903428
      ESP Fit Center  447 is at  -7.224597 -3.747488  5.903428
      ESP Fit Center  448 is at  -6.561818 -4.578587  5.903428
      ESP Fit Center  449 is at  -5.604075 -5.039812  5.903428
      ESP Fit Center  450 is at  -7.461140 -2.711125  4.813076
      ESP Fit Center  451 is at  -7.224597 -3.747488  4.813076
      ESP Fit Center  452 is at  -6.561818 -4.578587  4.813076
      ESP Fit Center  453 is at  -5.604075 -5.039812  4.813076
      ESP Fit Center  454 is at  -6.326944 -4.158754  3.830702
      ESP Fit Center  455 is at  -4.654975  0.272093  5.178472
      ESP Fit Center  456 is at  -5.157344  0.702477  4.128472
      ESP Fit Center  457 is at  -5.669292  0.417930  3.078472
      ESP Fit Center  458 is at  -6.015668 -0.655263  6.360338
      ESP Fit Center  459 is at  -5.710520  0.283886  6.039487
      ESP Fit Center  460 is at  -6.814555 -0.074837  6.039487
      ESP Fit Center  461 is at  -4.791701  0.371767  5.199487
      ESP Fit Center  462 is at  -5.738217  0.918238  5.199487
      ESP Fit Center  463 is at  -6.814555  0.728451  5.199487
      ESP Fit Center  464 is at  -7.517085 -0.108792  5.199487
      ESP Fit Center  465 is at  -7.517085 -1.201734  5.199487
      ESP Fit Center  466 is at  -5.738217  0.918238  4.161189
      ESP Fit Center  467 is at  -6.814555  0.728451  4.161189
      ESP Fit Center  468 is at  -7.517085 -0.108792  4.161189
      ESP Fit Center  469 is at  -4.165334  0.059351  5.233726
      ESP Fit Center  470 is at  -3.246515  0.147232  4.393726
      ESP Fit Center  471 is at  -4.193031  0.693703  4.393726
      ESP Fit Center  472 is at  -3.246515  0.147232  3.355428
      ESP Fit Center  473 is at  -4.193031  0.693703  3.355428
      ESP Fit Center  474 is at  -3.483003 -0.879798  2.515428
      ESP Fit Center  475 is at  -4.165334  0.059351  2.515428
      ESP Fit Center  476 is at  -4.616125 -0.864503  1.822569
      ESP Fit Center  477 is at  -6.671074 -2.757068  1.053916
      ESP Fit Center  478 is at  -6.059209  0.577250  2.726289
      ESP Fit Center  479 is at  -7.135547  0.387463  2.726289
      ESP Fit Center  480 is at  -7.838077 -0.449780  2.726289
      ESP Fit Center  481 is at  -5.112693  0.030779  1.687991
      ESP Fit Center  482 is at  -6.059209  0.577250  1.687991
      ESP Fit Center  483 is at  -7.135547  0.387463  1.687991
      ESP Fit Center  484 is at  -7.838077 -0.449780  1.687991
      ESP Fit Center  485 is at  -5.349181 -0.996251  0.847991
      ESP Fit Center  486 is at  -6.031512 -0.057102  0.847991
      ESP Fit Center  487 is at  -7.135547 -0.415825  0.847991
      ESP Fit Center  488 is at  -7.135547 -1.576677  0.847991
      ESP Fit Center  489 is at  -6.336660 -0.996251  0.527140
      ESP Fit Center  490 is at  -6.360538 -3.965795  2.826883
      ESP Fit Center  491 is at  -3.963876 -2.582081  1.788585
      ESP Fit Center  492 is at  -4.337684 -1.555051  1.788585
      ESP Fit Center  493 is at  -6.360538 -3.965795  1.788585
      ESP Fit Center  494 is at  -5.284200 -4.155582  1.788585
      ESP Fit Center  495 is at  -4.337684 -3.609111  1.788585
      ESP Fit Center  496 is at  -4.574172 -2.582081  0.948585
      ESP Fit Center  497 is at  -5.256503 -1.642932  0.948585
      ESP Fit Center  498 is at  -6.360538 -3.162507  0.948585
      ESP Fit Center  499 is at  -5.256503 -3.521230  0.948585
      ESP Fit Center  500 is at  -5.561651 -2.582081  0.627734
      ESP Fit Center  501 is at  -7.904288 -1.726976  4.488366
      ESP Fit Center  502 is at  -7.904288 -2.887828  4.488366
      ESP Fit Center  503 is at  -7.904288 -0.923688  3.648366
      ESP Fit Center  504 is at  -8.606818 -1.760931  3.648366
      ESP Fit Center  505 is at  -8.606818 -2.853873  3.648366
      ESP Fit Center  506 is at  -7.904288 -3.691116  3.648366
      ESP Fit Center  507 is at  -6.827950 -3.880903  3.648366
      ESP Fit Center  508 is at  -8.606818 -1.760931  2.610068
      ESP Fit Center  509 is at  -8.606818 -2.853873  2.610068
      ESP Fit Center  510 is at  -7.904288 -3.691116  2.610068
      ESP Fit Center  511 is at  -6.827950 -3.880903  2.610068
      ESP Fit Center  512 is at  -7.904288 -2.887828  1.770068
      ESP Fit Center  513 is at   9.931391  3.667414 -4.133774
      ESP Fit Center  514 is at   7.302620  0.371038 -4.133774
      ESP Fit Center  515 is at   8.602763  0.945372 -6.164200
      ESP Fit Center  516 is at   8.343940  1.750391 -6.830149
      ESP Fit Center  517 is at   9.605253  1.966527 -2.775842
      ESP Fit Center  518 is at   9.125253  1.135143 -2.775842
      ESP Fit Center  519 is at  10.308022  1.966527 -3.478611
      ESP Fit Center  520 is at   9.990461  2.943878 -3.478611
      ESP Fit Center  521 is at   8.131429  0.385140 -3.478611
      ESP Fit Center  522 is at   9.159077  0.385140 -3.478611
      ESP Fit Center  523 is at   9.990461  0.989176 -3.478611
      ESP Fit Center  524 is at  10.565253  1.966527 -4.438611
      ESP Fit Center  525 is at  10.308022  2.926527 -4.438611
      ESP Fit Center  526 is at   8.645253  0.046527 -4.438611
      ESP Fit Center  527 is at   9.605253  0.303758 -4.438611
      ESP Fit Center  528 is at  10.308022  1.006527 -4.438611
      ESP Fit Center  529 is at  10.308022  1.966527 -5.398611
      ESP Fit Center  530 is at   8.131429  0.385140 -5.398611
      ESP Fit Center  531 is at   9.159077  0.385140 -5.398611
      ESP Fit Center  532 is at   9.990461  0.989176 -5.398611
      ESP Fit Center  533 is at   9.125253  1.135143 -6.101380
      ESP Fit Center  534 is at   5.318515  2.062641 -4.084406
      ESP Fit Center  535 is at   5.636076  1.085290 -4.084406
      ESP Fit Center  536 is at   6.467460  0.481254 -4.084406
      ESP Fit Center  537 is at   5.318515  3.022641 -5.044406
      ESP Fit Center  538 is at   5.061284  2.062641 -5.044406
      ESP Fit Center  539 is at   5.318515  1.102641 -5.044406
      ESP Fit Center  540 is at   6.021284  0.399872 -5.044406
      ESP Fit Center  541 is at   6.981284  0.142641 -5.044406
      ESP Fit Center  542 is at   5.636076  3.039992 -6.004406
      ESP Fit Center  543 is at   5.318515  2.062641 -6.004406
      ESP Fit Center  544 is at   5.636076  1.085290 -6.004406
      ESP Fit Center  545 is at   6.467460  0.481254 -6.004406
      ESP Fit Center  546 is at   7.495108  0.481254 -6.004406
      ESP Fit Center  547 is at   6.501284  2.894025 -6.707175
      ESP Fit Center  548 is at   6.021284  2.062641 -6.707175
      ESP Fit Center  549 is at   6.501284  1.231257 -6.707175
      ESP Fit Center  550 is at   7.461284  1.231257 -6.707175
      ESP Fit Center  551 is at   6.981284  2.062641 -6.964406
      ESP Fit Center  552 is at  10.069356  3.338572 -5.457186
      ESP Fit Center  553 is at   9.812125  4.298572 -5.457186
      ESP Fit Center  554 is at   9.109356  5.001341 -5.457186
      ESP Fit Center  555 is at   8.149356  5.258572 -5.457186
      ESP Fit Center  556 is at   7.189356  5.001341 -5.457186
      ESP Fit Center  557 is at   9.812125  3.338572 -6.417186
      ESP Fit Center  558 is at   9.494564  4.315923 -6.417186
      ESP Fit Center  559 is at   8.663180  4.919959 -6.417186
      ESP Fit Center  560 is at   7.635532  4.919959 -6.417186
      ESP Fit Center  561 is at   6.804148  4.315923 -6.417186
      ESP Fit Center  562 is at   9.494564  2.361221 -6.417186
      ESP Fit Center  563 is at   9.109356  3.338572 -7.119955
      ESP Fit Center  564 is at   8.629356  4.169956 -7.119955
      ESP Fit Center  565 is at   7.669356  4.169956 -7.119955
      ESP Fit Center  566 is at   7.189356  3.338572 -7.119955
      ESP Fit Center  567 is at   7.669356  2.507188 -7.119955
      ESP Fit Center  568 is at   8.629356  2.507188 -7.119955
      ESP Fit Center  569 is at   8.149356  3.338572 -7.377186
      ESP Fit Center  570 is at   7.935223  5.707039 -3.958583
      ESP Fit Center  571 is at   5.306452  2.410663 -3.958583
      ESP Fit Center  572 is at   9.921927  4.028600 -2.086891
      ESP Fit Center  573 is at   9.604366  5.005951 -2.086891
      ESP Fit Center  574 is at   8.772982  5.609987 -2.086891
      ESP Fit Center  575 is at   7.745334  5.609987 -2.086891
      ESP Fit Center  576 is at   9.604366  3.051249 -2.086891
      ESP Fit Center  577 is at  10.179158  4.028600 -3.046891
      ESP Fit Center  578 is at   9.921927  4.988600 -3.046891
      ESP Fit Center  579 is at   9.219158  5.691369 -3.046891
      ESP Fit Center  580 is at   8.259158  5.948600 -3.046891
      ESP Fit Center  581 is at   9.921927  3.068600 -3.046891
      ESP Fit Center  582 is at   9.921927  4.028600 -4.006891
      ESP Fit Center  583 is at   9.604366  5.005951 -4.006891
      ESP Fit Center  584 is at   8.772982  5.609987 -4.006891
      ESP Fit Center  585 is at   7.113829  5.709012 -2.707077
      ESP Fit Center  586 is at   6.600005  6.047625 -3.667077
      ESP Fit Center  587 is at   5.640005  5.790394 -3.667077
      ESP Fit Center  588 is at   4.937236  3.167625 -3.667077
      ESP Fit Center  589 is at   7.113829  5.709012 -4.627077
      ESP Fit Center  590 is at   6.086181  5.709012 -4.627077
      ESP Fit Center  591 is at   5.254797  5.104976 -4.627077
      ESP Fit Center  592 is at   4.937236  4.127625 -4.627077
      ESP Fit Center  593 is at   5.254797  3.150274 -4.627077
      ESP Fit Center  594 is at   7.080005  4.959009 -5.329846
      ESP Fit Center  595 is at   6.120005  4.959009 -5.329846
      ESP Fit Center  596 is at   5.640005  4.127625 -5.329846
      ESP Fit Center  597 is at   9.192753  2.490584 -1.939724
      ESP Fit Center  598 is at   6.234514  0.448660 -1.939724
      ESP Fit Center  599 is at   7.272147  0.322668 -1.939724
      ESP Fit Center  600 is at   8.249476  0.693320 -1.939724
      ESP Fit Center  601 is at   8.942607  1.475704 -1.939724
      ESP Fit Center  602 is at   5.374287  1.042431 -2.936618
      ESP Fit Center  603 is at   6.234514  0.448660 -2.936618
      ESP Fit Center  604 is at   7.272147  0.322668 -2.936618
      ESP Fit Center  605 is at   8.249476  0.693320 -2.936618
      ESP Fit Center  606 is at   5.592080  1.461194 -3.834788
      ESP Fit Center  607 is at   7.728264  3.055287  0.980665
      ESP Fit Center  608 is at   8.795054  2.040074 -0.647610
      ESP Fit Center  609 is at   7.434802  3.813081  1.028712
      ESP Fit Center  610 is at   8.394802  3.813081  0.771481
      ESP Fit Center  611 is at   7.914802  4.644465  0.771481
      ESP Fit Center  612 is at   6.954802  4.644465  0.771481
      ESP Fit Center  613 is at   9.097571  3.813081  0.068712
      ESP Fit Center  614 is at   8.780010  4.790432  0.068712
      ESP Fit Center  615 is at   7.948626  5.394468  0.068712
      ESP Fit Center  616 is at   6.920978  5.394468  0.068712
      ESP Fit Center  617 is at   8.780010  2.835730  0.068712
      ESP Fit Center  618 is at   9.354802  3.813081 -0.891288
      ESP Fit Center  619 is at   9.097571  4.773081 -0.891288
      ESP Fit Center  620 is at   8.394802  5.475850 -0.891288
      ESP Fit Center  621 is at   7.434802  5.733081 -0.891288
      ESP Fit Center  622 is at   9.097571  2.853081 -0.891288
      ESP Fit Center  623 is at   6.920978  5.394468 -1.851288
      ESP Fit Center  624 is at   6.734036  2.233702  1.460650
      ESP Fit Center  625 is at   7.694036  2.233702  1.203419
      ESP Fit Center  626 is at   7.214036  3.065086  1.203419
      ESP Fit Center  627 is at   6.254036  3.065086  1.203419
      ESP Fit Center  628 is at   5.774036  2.233702  1.203419
      ESP Fit Center  629 is at   6.254036  1.402318  1.203419
      ESP Fit Center  630 is at   7.214036  1.402318  1.203419
      ESP Fit Center  631 is at   8.396805  2.233702  0.500650
      ESP Fit Center  632 is at   5.388828  1.256351  0.500650
      ESP Fit Center  633 is at   6.220212  0.652315  0.500650
      ESP Fit Center  634 is at   7.247860  0.652315  0.500650
      ESP Fit Center  635 is at   8.079244  1.256351  0.500650
      ESP Fit Center  636 is at   5.774036  0.570933 -0.459350
      ESP Fit Center  637 is at   6.734036  0.313702 -0.459350
      ESP Fit Center  638 is at   7.694036  0.570933 -0.459350
      ESP Fit Center  639 is at   8.396805  1.273702 -0.459350
      ESP Fit Center  640 is at   6.220212  0.652315 -1.419350
      ESP Fit Center  641 is at   3.840316  5.511493 -0.573437
      ESP Fit Center  642 is at   6.758032  5.511493 -1.641537
      ESP Fit Center  643 is at   5.197801  4.205646  1.780156
      ESP Fit Center  644 is at   6.157801  4.205646  1.522925
      ESP Fit Center  645 is at   5.677801  5.037030  1.522925
      ESP Fit Center  646 is at   4.717801  5.037030  1.522925
      ESP Fit Center  647 is at   4.237801  4.205646  1.522925
      ESP Fit Center  648 is at   4.717801  3.374262  1.522925
      ESP Fit Center  649 is at   5.677801  3.374262  1.522925
      ESP Fit Center  650 is at   6.543009  5.182997  0.820156
      ESP Fit Center  651 is at   5.711625  5.787033  0.820156
      ESP Fit Center  652 is at   4.683977  5.787033  0.820156
      ESP Fit Center  653 is at   3.852593  5.182997  0.820156
      ESP Fit Center  654 is at   6.157801  5.868415 -0.139844
      ESP Fit Center  655 is at   5.197801  6.125646 -0.139844
      ESP Fit Center  656 is at   4.237801  5.868415 -0.139844
      ESP Fit Center  657 is at   4.652731  6.020628 -0.939573
      ESP Fit Center  658 is at   6.829324  5.399241 -1.899573
      ESP Fit Center  659 is at   6.126555  6.102010 -1.899573
      ESP Fit Center  660 is at   5.166555  6.359241 -1.899573
      ESP Fit Center  661 is at   4.206555  6.102010 -1.899573
      ESP Fit Center  662 is at   5.680379  6.020628 -2.859573
      ESP Fit Center  663 is at   4.652731  6.020628 -2.859573
      ESP Fit Center  664 is at   3.821347  5.416592 -2.859573
      ESP Fit Center  665 is at   4.686555  5.270625 -3.562342
      ESP Fit Center  666 is at   4.206555  4.439241 -3.562342
      ESP Fit Center  667 is at   4.686555  3.607857 -3.562342
      ESP Fit Center  668 is at   4.330174  2.661888  1.013432
      ESP Fit Center  669 is at   4.816124  1.820198  0.791602
      ESP Fit Center  670 is at   4.871356  0.996300  0.170049
      ESP Fit Center  671 is at   4.593407  0.493972 -0.728121
      ESP Fit Center  672 is at   4.593407  0.493972 -1.725015
      ESP Fit Center  673 is at   5.570736  0.864624 -1.725015
      ESP Fit Center  674 is at   4.871356  0.996300 -2.623185
      ESP Fit Center  675 is at   3.844224  1.820198 -3.244738
      ESP Fit Center  676 is at   4.816124  1.820198 -3.244738
      ESP Fit Center  677 is at   4.330174  2.661888 -3.466568
      ESP Fit Center  678 is at   0.896656  4.161717 -0.673746
      ESP Fit Center  679 is at   3.525427  2.244694 -3.370121
      ESP Fit Center  680 is at   2.815673  5.720214 -2.077747
      ESP Fit Center  681 is at   1.855673  5.462983 -2.077747
      ESP Fit Center  682 is at   1.152904  4.760214 -2.077747
      ESP Fit Center  683 is at   3.329497  5.381601 -3.037747
      ESP Fit Center  684 is at   2.301849  5.381601 -3.037747
      ESP Fit Center  685 is at   1.470465  4.777565 -3.037747
      ESP Fit Center  686 is at   1.152904  3.800214 -3.037747
      ESP Fit Center  687 is at   3.775673  3.800214 -3.740516
      ESP Fit Center  688 is at   3.295673  4.631598 -3.740516
      ESP Fit Center  689 is at   2.335673  4.631598 -3.740516
      ESP Fit Center  690 is at   1.855673  3.800214 -3.740516
      ESP Fit Center  691 is at   2.335673  2.968830 -3.740516
      ESP Fit Center  692 is at   3.295673  2.968830 -3.740516
      ESP Fit Center  693 is at   2.815673  3.800214 -3.997747
      ESP Fit Center  694 is at   2.812519  3.738110  1.622835
      ESP Fit Center  695 is at   3.772519  3.738110  1.365604
      ESP Fit Center  696 is at   3.292519  4.569494  1.365604
      ESP Fit Center  697 is at   2.332519  4.569494  1.365604
      ESP Fit Center  698 is at   1.852519  3.738110  1.365604
      ESP Fit Center  699 is at   3.292519  2.906726  1.365604
      ESP Fit Center  700 is at   3.326343  5.319497  0.662835
      ESP Fit Center  701 is at   2.298695  5.319497  0.662835
      ESP Fit Center  702 is at   1.467311  4.715461  0.662835
      ESP Fit Center  703 is at   1.149750  3.738110  0.662835
      ESP Fit Center  704 is at   2.812519  5.658110 -0.297165
      ESP Fit Center  705 is at   1.852519  5.400879 -0.297165
      ESP Fit Center  706 is at   1.149750  4.698110 -0.297165
      ESP Fit Center  707 is at   0.818083  3.389588  0.243898
      ESP Fit Center  708 is at   1.526201  2.873313 -3.414803
      ESP Fit Center  709 is at   1.005540  1.971503 -3.414803
      ESP Fit Center  710 is at   4.013362  0.328719 -2.061169
      ESP Fit Center  711 is at   4.013362  1.288719 -3.021169
      ESP Fit Center  712 is at   1.005385  0.311368 -3.021169
      ESP Fit Center  713 is at   1.836769 -0.292668 -3.021169
      ESP Fit Center  714 is at   2.864417 -0.292668 -3.021169
      ESP Fit Center  715 is at   3.695801  0.311368 -3.021169
      ESP Fit Center  716 is at   3.310593  1.288719 -3.723938
      ESP Fit Center  717 is at   2.830593  2.120103 -3.723938
      ESP Fit Center  718 is at   1.870593  2.120103 -3.723938
      ESP Fit Center  719 is at   1.390593  1.288719 -3.723938
      ESP Fit Center  720 is at   1.870593  0.457335 -3.723938
      ESP Fit Center  721 is at   2.830593  0.457335 -3.723938
      ESP Fit Center  722 is at   2.350593  1.288719 -3.981169
      ESP Fit Center  723 is at   0.522538  3.927695 -0.524219
      ESP Fit Center  724 is at  -0.308846  3.323659 -0.524219
      ESP Fit Center  725 is at  -0.626407  2.346308 -0.524219
      ESP Fit Center  726 is at   0.076362  4.009077 -1.484219
      ESP Fit Center  727 is at  -0.626407  3.306308 -1.484219
      ESP Fit Center  728 is at  -0.883638  2.346308 -1.484219
      ESP Fit Center  729 is at   0.522538  3.927695 -2.444219
      ESP Fit Center  730 is at  -0.308846  3.323659 -2.444219
      ESP Fit Center  731 is at  -0.626407  2.346308 -2.444219
      ESP Fit Center  732 is at   0.556362  3.177692 -3.146988
      ESP Fit Center  733 is at   0.076362  2.346308 -3.146988
      ESP Fit Center  734 is at   0.556362  1.514924 -3.146988
      ESP Fit Center  735 is at   1.036362  2.346308 -3.404219
      ESP Fit Center  736 is at   2.078206  1.308386  2.240000
      ESP Fit Center  737 is at   3.050106  1.308386  2.018170
      ESP Fit Center  738 is at   2.564156  2.150076  2.018170
      ESP Fit Center  739 is at   1.592256  2.150076  2.018170
      ESP Fit Center  740 is at   1.106306  1.308386  2.018170
      ESP Fit Center  741 is at   3.829509  1.308386  1.396617
      ESP Fit Center  742 is at   3.495040  2.337776  1.396617
      ESP Fit Center  743 is at   1.537024  2.973974  1.396617
      ESP Fit Center  744 is at   0.661372  2.337776  1.396617
      ESP Fit Center  745 is at   0.443579  2.756539  0.498447
      ESP Fit Center  746 is at   4.011899  0.293506  0.498447
      ESP Fit Center  747 is at   4.011899  0.293506 -0.498447
      ESP Fit Center  748 is at   1.013449  0.901810  2.162325
      ESP Fit Center  749 is at   3.873936  0.000000  0.534050
      ESP Fit Center  750 is at   3.873936  0.000000 -0.534050
      ESP Fit Center  751 is at   1.909933 -0.473490  2.832388
      ESP Fit Center  752 is at   2.869933 -0.473490  2.575157
      ESP Fit Center  753 is at   2.389933  0.357894  2.575157
      ESP Fit Center  754 is at   1.429933  0.357894  2.575157
      ESP Fit Center  755 is at   2.389933 -1.304874  2.575157
      ESP Fit Center  756 is at   3.572702 -0.473490  1.872388
      ESP Fit Center  757 is at   3.255141  0.503861  1.872388
      ESP Fit Center  758 is at   3.255141 -1.450841  1.872388
      ESP Fit Center  759 is at   3.829933 -0.473490  0.912388
      ESP Fit Center  760 is at   2.869933 -2.136259  0.912388
      ESP Fit Center  761 is at   3.572702 -1.433490  0.912388
      ESP Fit Center  762 is at   3.826845 -0.580041 -0.857809
      ESP Fit Center  763 is at   1.906845 -2.500041 -0.857809
      ESP Fit Center  764 is at   2.866845 -2.242810 -0.857809
      ESP Fit Center  765 is at   3.569614 -1.540041 -0.857809
      ESP Fit Center  766 is at   3.569614 -0.580041 -1.817809
      ESP Fit Center  767 is at   1.393021 -2.161428 -1.817809
      ESP Fit Center  768 is at   2.420669 -2.161428 -1.817809
      ESP Fit Center  769 is at   3.252053 -1.557392 -1.817809
      ESP Fit Center  770 is at   2.866845 -0.580041 -2.520578
      ESP Fit Center  771 is at   0.946845 -0.580041 -2.520578
      ESP Fit Center  772 is at   1.426845 -1.411425 -2.520578
      ESP Fit Center  773 is at   2.386845 -1.411425 -2.520578
      ESP Fit Center  774 is at   1.906845 -0.580041 -2.777809
      ESP Fit Center  775 is at  -1.348865  2.086321 -0.931870
      ESP Fit Center  776 is at  -2.051634  1.383552 -0.931870
      ESP Fit Center  777 is at  -2.308865  0.423552 -0.931870
      ESP Fit Center  778 is at  -0.902689  2.004939 -1.891870
      ESP Fit Center  779 is at  -1.734073  1.400903 -1.891870
      ESP Fit Center  780 is at  -2.051634  0.423552 -1.891870
      ESP Fit Center  781 is at   0.571135  0.423552 -2.594639
      ESP Fit Center  782 is at  -0.868865  1.254936 -2.594639
      ESP Fit Center  783 is at  -1.348865  0.423552 -2.594639
      ESP Fit Center  784 is at  -0.868865 -0.407832 -2.594639
      ESP Fit Center  785 is at   0.091135 -0.407832 -2.594639
      ESP Fit Center  786 is at  -0.388865  0.423552 -2.851870
      ESP Fit Center  787 is at  -0.378297  0.616159  2.743378
      ESP Fit Center  788 is at   0.581703  0.616159  2.486147
      ESP Fit Center  789 is at   0.101703  1.447543  2.486147
      ESP Fit Center  790 is at  -0.858297  1.447543  2.486147
      ESP Fit Center  791 is at  -1.338297  0.616159  2.486147
      ESP Fit Center  792 is at   0.135527  2.197546  1.783378
      ESP Fit Center  793 is at  -0.892121  2.197546  1.783378
      ESP Fit Center  794 is at  -1.723505  1.593510  1.783378
      ESP Fit Center  795 is at  -2.041066  0.616159  1.783378
      ESP Fit Center  796 is at  -0.378297  2.536159  0.823378
      ESP Fit Center  797 is at  -1.338297  2.278928  0.823378
      ESP Fit Center  798 is at  -2.041066  1.576159  0.823378
      ESP Fit Center  799 is at  -2.298297  0.616159  0.823378
      ESP Fit Center  800 is at  -2.827038 -0.159207  1.169315
      ESP Fit Center  801 is at  -3.264556 -1.141888  1.169315
      ESP Fit Center  802 is at  -2.421599  0.554721  0.097801
      ESP Fit Center  803 is at  -3.114830 -0.205717  0.097801
      ESP Fit Center  804 is at  -3.486547 -1.165228  0.097801
      ESP Fit Center  805 is at  -3.486547 -2.194226  0.097801
      ESP Fit Center  806 is at  -3.114830 -3.153737  0.097801
      ESP Fit Center  807 is at   1.335003 -3.566075  0.097801
      ESP Fit Center  808 is at   1.876700 -2.691204  0.097801
      ESP Fit Center  809 is at  -2.827038 -0.159207 -0.973713
      ESP Fit Center  810 is at  -3.264556 -1.141888 -0.973713
      ESP Fit Center  811 is at  -3.264556 -2.217566 -0.973713
      ESP Fit Center  812 is at  -2.827038 -3.200247 -0.973713
      ESP Fit Center  813 is at  -2.027653 -3.920016 -0.973713
      ESP Fit Center  814 is at  -1.004623 -4.252419 -0.973713
      ESP Fit Center  815 is at   0.065163 -4.139980 -0.973713
      ESP Fit Center  816 is at   0.996727 -3.602141 -0.973713
      ESP Fit Center  817 is at   1.628995 -2.731899 -0.973713
      ESP Fit Center  818 is at  -2.448865 -0.689778 -1.882098
      ESP Fit Center  819 is at  -2.714121 -1.679727 -1.882098
      ESP Fit Center  820 is at  -2.448865 -2.669676 -1.882098
      ESP Fit Center  821 is at  -1.724171 -3.394370 -1.882098
      ESP Fit Center  822 is at  -0.734222 -3.659626 -1.882098
      ESP Fit Center  823 is at   0.255727 -3.394370 -1.882098
      ESP Fit Center  824 is at   0.980421 -2.669676 -1.882098
      ESP Fit Center  825 is at   0.337292 -1.679727 -2.489062
      ESP Fit Center  826 is at  -0.198465 -0.751769 -2.489062
      ESP Fit Center  827 is at  -1.269979 -0.751769 -2.489062
      ESP Fit Center  828 is at  -1.805736 -1.679727 -2.489062
      ESP Fit Center  829 is at  -1.269979 -2.607685 -2.489062
      ESP Fit Center  830 is at  -0.198465 -2.607685 -2.489062
      ESP Fit Center  831 is at  -0.734222 -1.679727 -2.702199
      ESP Fit Center  832 is at   1.539474 -2.079134  3.791657
      ESP Fit Center  833 is at   1.059474 -1.247750  3.791657
      ESP Fit Center  834 is at   2.242243 -2.079134  3.088888
      ESP Fit Center  835 is at   1.924682 -1.101783  3.088888
      ESP Fit Center  836 is at   1.093298 -0.497747  3.088888
      ESP Fit Center  837 is at   1.924682 -3.056485  3.088888
      ESP Fit Center  838 is at   2.499474 -2.079134  2.128888
      ESP Fit Center  839 is at   1.539474 -3.741903  2.128888
      ESP Fit Center  840 is at   2.242243 -3.039134  2.128888
      ESP Fit Center  841 is at   1.924682 -3.056485  1.168888
      ESP Fit Center  842 is at  -0.479518 -0.440579  4.143003
      ESP Fit Center  843 is at   0.385690 -0.294612  3.440234
      ESP Fit Center  844 is at  -0.445694  0.309424  3.440234
      ESP Fit Center  845 is at  -1.473342  0.309424  3.440234
      ESP Fit Center  846 is at  -1.919518  0.390806  2.480234
      ESP Fit Center  847 is at  -2.622287 -0.311963  2.480234
      ESP Fit Center  848 is at  -2.879518 -1.271963  2.480234
      ESP Fit Center  849 is at   1.321059 -4.211828  1.636604
      ESP Fit Center  850 is at  -1.558941 -5.874597  1.636604
      ESP Fit Center  851 is at  -0.598941 -6.131828  1.636604
      ESP Fit Center  852 is at   0.361059 -5.874597  1.636604
      ESP Fit Center  853 is at   1.063828 -5.171828  1.636604
      ESP Fit Center  854 is at   1.063828 -4.211828  0.676604
      ESP Fit Center  855 is at  -1.944149 -5.189179  0.676604
      ESP Fit Center  856 is at  -1.112765 -5.793215  0.676604
      ESP Fit Center  857 is at  -0.085117 -5.793215  0.676604
      ESP Fit Center  858 is at   0.746267 -5.189179  0.676604
      ESP Fit Center  859 is at  -1.078941 -5.043212 -0.026165
      ESP Fit Center  860 is at  -0.118941 -5.043212 -0.026165
      ESP Fit Center  861 is at  -3.123487 -1.786912  1.906091
      ESP Fit Center  862 is at  -3.123487 -5.112450  1.906091
      ESP Fit Center  863 is at  -3.508695 -2.472330  0.946091
      ESP Fit Center  864 is at  -3.826256 -3.449681  0.946091
      ESP Fit Center  865 is at  -3.508695 -4.427032  0.946091
      ESP Fit Center  866 is at  -2.677311 -5.031068  0.946091
      ESP Fit Center  867 is at  -3.123487 -3.449681  0.243322
      ESP Fit Center  868 is at  -2.643487 -4.281065  0.243322
      ESP Fit Center  869 is at   0.123365 -3.899434  6.553662
      ESP Fit Center  870 is at  -1.483906 -4.827392  6.553662
      ESP Fit Center  871 is at  -0.412392 -4.827392  6.553662
      ESP Fit Center  872 is at   1.031750 -3.899434  5.946698
      ESP Fit Center  873 is at   0.766494 -2.909485  5.946698
      ESP Fit Center  874 is at   0.041800 -2.184791  5.946698
      ESP Fit Center  875 is at  -1.938098 -5.614077  5.946698
      ESP Fit Center  876 is at  -0.948149 -5.879333  5.946698
      ESP Fit Center  877 is at   0.041800 -5.614077  5.946698
      ESP Fit Center  878 is at   0.766494 -4.889383  5.946698
      ESP Fit Center  879 is at   1.638714 -3.899434  5.038313
      ESP Fit Center  880 is at   1.415068 -2.847262  5.038313
      ESP Fit Center  881 is at   0.782800 -1.977020  5.038313
      ESP Fit Center  882 is at  -0.148764 -1.439181  5.038313
      ESP Fit Center  883 is at  -2.241580 -6.139723  5.038313
      ESP Fit Center  884 is at  -1.218550 -6.472126  5.038313
      ESP Fit Center  885 is at  -0.148764 -6.359687  5.038313
      ESP Fit Center  886 is at   0.782800 -5.821848  5.038313
      ESP Fit Center  887 is at   1.415068 -4.951606  5.038313
      ESP Fit Center  888 is at   1.851851 -3.899434  3.966799
      ESP Fit Center  889 is at   1.662773 -2.887957  3.966799
      ESP Fit Center  890 is at  -2.635526 -6.133882  3.966799
      ESP Fit Center  891 is at  -1.714405 -6.592546  3.966799
      ESP Fit Center  892 is at  -0.689798 -6.687490  3.966799
      ESP Fit Center  893 is at   0.299918 -6.405891  3.966799
      ESP Fit Center  894 is at   1.121076 -5.785782  3.966799
      ESP Fit Center  895 is at   1.662773 -4.910911  3.966799
      ESP Fit Center  896 is at   1.638714 -3.899434  2.895285
      ESP Fit Center  897 is at  -3.040965 -5.419954  2.895285
      ESP Fit Center  898 is at  -2.241580 -6.139723  2.895285
      ESP Fit Center  899 is at  -1.218550 -6.472126  2.895285
      ESP Fit Center  900 is at  -0.148764 -6.359687  2.895285
      ESP Fit Center  901 is at   0.782800 -5.821848  2.895285
      ESP Fit Center  902 is at   1.415068 -4.951606  2.895285
      ESP Fit Center  903 is at  -0.990907 -0.957533  5.291007
      ESP Fit Center  904 is at  -1.822291 -0.353497  5.291007
      ESP Fit Center  905 is at  -2.849939 -0.353497  5.291007
      ESP Fit Center  906 is at  -1.376115 -0.272115  4.331007
      ESP Fit Center  907 is at  -2.336115 -0.014884  4.331007
      ESP Fit Center  908 is at  -3.296115 -1.934884  2.668238
      ESP Fit Center  909 is at  -2.087571 -2.881701  7.711860
      ESP Fit Center  910 is at  -1.127571 -2.881701  7.454629
      ESP Fit Center  911 is at  -1.607571 -2.050317  7.454629
      ESP Fit Center  912 is at  -2.567571 -2.050317  7.454629
      ESP Fit Center  913 is at  -3.047571 -2.881701  7.454629
      ESP Fit Center  914 is at  -2.567571 -3.713085  7.454629
      ESP Fit Center  915 is at  -1.607571 -3.713085  7.454629
      ESP Fit Center  916 is at  -0.424802 -2.881701  6.751860
      ESP Fit Center  917 is at  -0.742363 -1.904350  6.751860
      ESP Fit Center  918 is at  -1.573747 -1.300314  6.751860
      ESP Fit Center  919 is at  -2.601395 -1.300314  6.751860
      ESP Fit Center  920 is at  -2.601395 -4.463088  6.751860
      ESP Fit Center  921 is at  -1.573747 -4.463088  6.751860
      ESP Fit Center  922 is at  -5.155071 -5.458762  4.017690
      ESP Fit Center  923 is at  -5.597514 -4.742008  3.494525
      ESP Fit Center  924 is at  -4.894745 -5.444777  3.494525
      ESP Fit Center  925 is at  -5.279953 -4.759359  2.534525
      ESP Fit Center  926 is at  -4.448569 -5.363395  2.534525
      ESP Fit Center  927 is at  -3.420921 -5.363395  2.534525
      ESP Fit Center  928 is at  -4.414745 -4.613392  1.831756
      ESP Fit Center  929 is at  -3.688004 -4.616772  6.942107
      ESP Fit Center  930 is at  -2.728004 -4.616772  6.684876
      ESP Fit Center  931 is at  -4.168004 -5.448156  6.684876
      ESP Fit Center  932 is at  -3.208004 -5.448156  6.684876
      ESP Fit Center  933 is at  -5.033212 -5.594123  5.982107
      ESP Fit Center  934 is at  -4.201828 -6.198159  5.982107
      ESP Fit Center  935 is at  -3.174180 -6.198159  5.982107
      ESP Fit Center  936 is at  -2.342796 -5.594123  5.982107
      ESP Fit Center  937 is at  -5.350773 -5.576772  5.022107
      ESP Fit Center  938 is at  -4.648004 -6.279541  5.022107
      ESP Fit Center  939 is at  -3.688004 -6.536772  5.022107
      ESP Fit Center  940 is at  -2.728004 -6.279541  5.022107
      ESP Fit Center  941 is at  -5.033212 -5.594123  4.062107
      ESP Fit Center  942 is at  -4.201828 -6.198159  4.062107
      ESP Fit Center  943 is at  -3.174180 -6.198159  4.062107
      ESP Fit Center  944 is at  -5.072567 -2.711125  8.158252
      ESP Fit Center  945 is at  -4.001053 -2.711125  7.945115
      ESP Fit Center  946 is at  -4.536810 -1.783167  7.945115
      ESP Fit Center  947 is at  -5.608324 -1.783167  7.945115
      ESP Fit Center  948 is at  -6.144081 -2.711125  7.945115
      ESP Fit Center  949 is at  -5.608324 -3.639083  7.945115
      ESP Fit Center  950 is at  -4.536810 -3.639083  7.945115
      ESP Fit Center  951 is at  -3.357924 -1.721176  7.338151
      ESP Fit Center  952 is at  -4.082618 -0.996482  7.338151
      ESP Fit Center  953 is at  -5.072567 -0.731226  7.338151
      ESP Fit Center  954 is at  -6.062516 -0.996482  7.338151
      ESP Fit Center  955 is at  -6.787210 -1.721176  7.338151
      ESP Fit Center  956 is at  -7.052466 -2.711125  7.338151
      ESP Fit Center  957 is at  -6.787210 -3.701074  7.338151
      ESP Fit Center  958 is at  -6.062516 -4.425768  7.338151
      ESP Fit Center  959 is at  -5.072567 -4.691024  7.338151
      ESP Fit Center  960 is at  -4.082618 -4.425768  7.338151
      ESP Fit Center  961 is at  -3.357924 -3.701074  7.338151
      ESP Fit Center  962 is at  -3.341618 -0.788711  6.429766
      ESP Fit Center  963 is at  -4.273182 -0.250872  6.429766
      ESP Fit Center  964 is at  -5.342968 -0.138433  6.429766
      ESP Fit Center  965 is at  -7.165383 -1.190605  6.429766
      ESP Fit Center  966 is at  -7.602901 -2.173286  6.429766
      ESP Fit Center  967 is at  -7.602901 -3.248964  6.429766
      ESP Fit Center  968 is at  -7.165383 -4.231645  6.429766
      ESP Fit Center  969 is at  -6.365998 -4.951414  6.429766
      ESP Fit Center  970 is at  -5.342968 -5.283817  6.429766
      ESP Fit Center  971 is at  -7.824892 -2.196626  5.358252
      ESP Fit Center  972 is at  -7.824892 -3.225624  5.358252
      ESP Fit Center  973 is at  -7.453175 -4.185135  5.358252
      ESP Fit Center  974 is at  -6.759944 -4.945573  5.358252
      ESP Fit Center  975 is at  -5.838823 -5.404237  5.358252
      ESP Fit Center  976 is at  -7.165383 -4.231645  4.286738
      ESP Fit Center  977 is at  -6.365998 -4.951414  4.286738
      ESP Fit Center  978 is at  -6.062516 -4.425768  3.378353
      ESP Fit Center  979 is at  -4.630988  0.324617  5.624848
      ESP Fit Center  980 is at  -5.535668  0.176121  6.343107
      ESP Fit Center  981 is at  -6.495668  0.176121  6.343107
      ESP Fit Center  982 is at  -6.975668 -0.655263  6.343107
      ESP Fit Center  983 is at  -5.501844  0.926124  5.640338
      ESP Fit Center  984 is at  -6.529492  0.926124  5.640338
      ESP Fit Center  985 is at  -7.360876  0.322088  5.640338
      ESP Fit Center  986 is at  -7.678437 -0.655263  5.640338
      ESP Fit Center  987 is at  -5.055668  1.007506  4.680338
      ESP Fit Center  988 is at  -6.015668  1.264737  4.680338
      ESP Fit Center  989 is at  -6.975668  1.007506  4.680338
      ESP Fit Center  990 is at  -7.678437  0.304737  4.680338
      ESP Fit Center  991 is at  -7.935668 -0.655263  4.680338
      ESP Fit Center  992 is at  -6.529492  0.926124  3.720338
      ESP Fit Center  993 is at  -7.360876  0.322088  3.720338
      ESP Fit Center  994 is at  -3.990482 -0.048414  5.537346
      ESP Fit Center  995 is at  -3.125274  0.097553  4.834577
      ESP Fit Center  996 is at  -3.956658  0.701589  4.834577
      ESP Fit Center  997 is at  -2.807713  0.080202  3.874577
      ESP Fit Center  998 is at  -3.510482  0.782971  3.874577
      ESP Fit Center  999 is at  -4.470482  1.040202  3.874577
      ESP Fit Center 1000 is at  -3.125274  0.097553  2.914577
      ESP Fit Center 1001 is at  -3.956658  0.701589  2.914577
      ESP Fit Center 1002 is at  -4.984306  0.701589  2.914577
      ESP Fit Center 1003 is at  -3.510482 -0.879798  2.211808
      ESP Fit Center 1004 is at  -3.990482 -0.048414  2.211808
      ESP Fit Center 1005 is at  -7.604932 -0.018391  3.406619
      ESP Fit Center 1006 is at  -8.254185 -0.832528  2.338519
      ESP Fit Center 1007 is at  -4.567550 -0.833285  1.376193
      ESP Fit Center 1008 is at  -7.946462 -2.376383  1.376193
      ESP Fit Center 1009 is at  -7.374852 -3.265826  1.376193
      ESP Fit Center 1010 is at  -7.187395 -1.847741  0.710244
      ESP Fit Center 1011 is at  -6.666734 -2.749551  0.710244
      ESP Fit Center 1012 is at  -6.146074 -1.847741  0.472569
      ESP Fit Center 1013 is at  -6.850484  0.585136  3.167140
      ESP Fit Center 1014 is at  -7.681868 -0.018900  3.167140
      ESP Fit Center 1015 is at  -5.376660  0.666518  2.207140
      ESP Fit Center 1016 is at  -6.336660  0.923749  2.207140
      ESP Fit Center 1017 is at  -7.296660  0.666518  2.207140
      ESP Fit Center 1018 is at  -7.999429 -0.036251  2.207140
      ESP Fit Center 1019 is at  -4.991452 -0.018900  1.247140
      ESP Fit Center 1020 is at  -5.822836  0.585136  1.247140
      ESP Fit Center 1021 is at  -6.850484  0.585136  1.247140
      ESP Fit Center 1022 is at  -7.681868 -0.018900  1.247140
      ESP Fit Center 1023 is at  -7.999429 -0.996251  1.247140
      ESP Fit Center 1024 is at  -5.376660 -0.996251  0.544371
      ESP Fit Center 1025 is at  -5.856660 -0.164867  0.544371
      ESP Fit Center 1026 is at  -6.816660 -0.164867  0.544371
      ESP Fit Center 1027 is at  -7.296660 -0.996251  0.544371
      ESP Fit Center 1028 is at  -6.816660 -1.827635  0.544371
      ESP Fit Center 1029 is at  -6.336660 -0.996251  0.287140
      ESP Fit Center 1030 is at  -6.521651 -4.244850  2.307734
      ESP Fit Center 1031 is at  -5.561651 -4.502081  2.307734
      ESP Fit Center 1032 is at  -3.898882 -2.582081  1.347734
      ESP Fit Center 1033 is at  -4.216443 -1.604730  1.347734
      ESP Fit Center 1034 is at  -6.906859 -3.559432  1.347734
      ESP Fit Center 1035 is at  -6.075475 -4.163468  1.347734
      ESP Fit Center 1036 is at  -5.047827 -4.163468  1.347734
      ESP Fit Center 1037 is at  -4.216443 -3.559432  1.347734
      ESP Fit Center 1038 is at  -4.601651 -2.582081  0.644965
      ESP Fit Center 1039 is at  -5.081651 -1.750697  0.644965
      ESP Fit Center 1040 is at  -6.041651 -3.413465  0.644965
      ESP Fit Center 1041 is at  -5.081651 -3.413465  0.644965
      ESP Fit Center 1042 is at  -5.561651 -2.582081  0.387734
      ESP Fit Center 1043 is at  -8.065401 -2.307402  4.791986
      ESP Fit Center 1044 is at  -8.450609 -1.330051  4.089217
      ESP Fit Center 1045 is at  -8.768170 -2.307402  4.089217
      ESP Fit Center 1046 is at  -8.450609 -3.284753  4.089217
      ESP Fit Center 1047 is at  -7.619225 -3.888789  4.089217
[...]
 1387 Fit       0.000310
 1388 Fit       0.001472
 1389 Fit       0.002925
 1390 Fit       0.003601
 1391 Fit      -0.000105
 1392 Fit       0.003926
 1393 Fit       0.003665
 1394 Fit       0.003812
 1395 Fit       0.002868
 1396 Fit       0.001259
 1397 Fit       0.000354
 1398 Fit       0.004123
 1399 Fit       0.008958
 1400 Fit       0.010686
 1401 Fit       0.007658
 1402 Fit       0.002731
 1403 Fit      -0.004975
 1404 Fit       0.001398
 1405 Fit      -0.004259
 1406 Fit      -0.011492
 1407 Fit      -0.009752
 1408 Fit      -0.003954
 1409 Fit      -0.001664
 1410 Fit      -0.007697
 1411 Fit      -0.009933
 1412 Fit      -0.010992
 1413 Fit      -0.014538
 1414 Fit      -0.014095
 1415 Fit      -0.010765
 1416 Fit      -0.004020
 1417 Fit      -0.008322
 1418 Fit      -0.012651
 1419 Fit      -0.013328
 1420 Fit      -0.013191
 1421 Fit      -0.013698
 1422 Fit      -0.012884
 1423 Fit      -0.012312
 1424 Fit      -0.009381
 1425 Fit      -0.003743
 1426 Fit      -0.009575
 1427 Fit      -0.014440
 1428 Fit      -0.014766
 1429 Fit      -0.013294
 1430 Fit      -0.012162
 1431 Fit      -0.012262
 1432 Fit      -0.006556
 1433 Fit      -0.010351
 1434 Fit      -0.013192
 1435 Fit      -0.012194
 1436 Fit      -0.009645
 1437 Fit      -0.007681
 1438 Fit      -0.007068
 1439 Fit       0.002413
 1440 Fit      -0.001403
 1441 Fit      -0.006577
 1442 Fit      -0.006427
 1443 Fit      -0.003480
 1444 Fit      -0.000740
 1445 Fit       0.000446
 1446 Fit       0.003233
 1447 Fit       0.008030
 1448 Fit       0.007750
 1449 Fit       0.013927
 1450 Fit       0.015645
 1451 Fit       0.001814
 1452 Fit       0.003244
 1453 Fit       0.002491
 1454 Fit      -0.003424
 1455 Fit       0.002008
 1456 Fit       0.003560
 1457 Fit      -0.000596
 1458 Fit       0.001662
 1459 Fit       0.002904
 1460 Fit      -0.001090
 1461 Fit       0.005334
 1462 Fit       0.000392
 1463 Fit       0.005877
 1464 Fit       0.005216
 1465 Fit       0.011276
 1466 Fit       0.001389
 1467 Fit       0.003173
 1468 Fit      -0.000196
 1469 Fit       0.002325
 1470 Fit       0.000922
 1471 Fit      -0.001956
 1472 Fit       0.001402
 1473 Fit      -0.000094
 1474 Fit       0.000702
 1475 Fit       0.000236
 1476 Fit      -0.014681
 1477 Fit      -0.012651
 1478 Fit      -0.015489
 1479 Fit      -0.014382
 1480 Fit      -0.014357
 1481 Fit      -0.013361
 1482 Fit      -0.010859
 1483 Fit      -0.005712
 1484 Fit      -0.011707
 1485 Fit      -0.014100
 1486 Fit      -0.012149
 1487 Fit      -0.009689
 1488 Fit      -0.010212
 1489 Fit      -0.013045
 1490 Fit      -0.014770
 1491 Fit      -0.012834
 1492 Fit      -0.008135
 1493 Fit      -0.004282
 1494 Fit      -0.003314
 1495 Fit      -0.008572
 1496 Fit      -0.008863
 1497 Fit      -0.005454
 1498 Fit      -0.001567
 1499 Fit      -0.001757
 1500 Fit      -0.005925
 1501 Fit      -0.011369
 1502 Fit      -0.015397
 1503 Fit      -0.015652
 1504 Fit      -0.011488
 1505 Fit      -0.004357
 1506 Fit      -0.000457
 1507 Fit      -0.001567
 1508 Fit      -0.009020
 1509 Fit      -0.014903
 1510 Fit      -0.016907
 1511 Fit      -0.013849
 1512 Fit      -0.006229
 1513 Fit      -0.011865
 1514 Fit      -0.015346
 1515 Fit      -0.012828
 1516 Fit      -0.005225
 1517 Fit      -0.010413
 1518 Fit      -0.006886
 1519 Fit       0.000605
 1520 Fit       0.011378
 1521 Fit       0.000526
 1522 Fit       0.004201
 1523 Fit       0.005991
 1524 Fit       0.007794
 1525 Fit       0.008068
 1526 Fit       0.006583
 1527 Fit       0.002867
 1528 Fit       0.009415
 1529 Fit       0.009825
 1530 Fit       0.009446
 1531 Fit       0.008044
 1532 Fit       0.005930
 1533 Fit       0.010920
 1534 Fit       0.010446
 1535 Fit       0.011517
 1536 Fit       0.008769
 1537 Fit       0.013805
 1538 Fit       0.011177
 1539 Fit       0.018267
 1540 Fit       0.013651
 1541 Fit       0.011953
 1542 Fit       0.012558
 1543 Fit       0.011695
 1544 Fit       0.004402
 1545 Fit       0.002724
 1546 Fit       0.002382
 1547 Fit       0.003510
 1548 Fit       0.003200
 1549 Fit       0.003479
 1550 Fit       0.009341
 1551 Fit       0.011404
 1552 Fit       0.010458
 1553 Fit       0.009316
 1554 Fit       0.007470
 1555 Fit       0.005267
 1556 Fit       0.007357
 1557 Fit       0.008974
 1558 Fit       0.008971
 1559 Fit       0.007735
 1560 Fit       0.005687
 1561 Fit       0.003720
 1562 Fit       0.006532
 1563 Fit       0.006958
 1564 Fit       0.005040
 1565 Fit       0.004762
 1566 Fit       0.001763
 1567 Fit       0.005217
 1568 Fit       0.003072
 1569 Fit       0.005967
 1570 Fit       0.010869
 1571 Fit       0.004413
 1572 Fit       0.004586
 1573 Fit       0.006752
 1574 Fit       0.003888
 1575 Fit      -0.002272
 1576 Fit       0.006297
 1577 Fit       0.003389
 1578 Fit       0.000638
 1579 Fit      -0.004417
 1580 Fit       0.004984
 1581 Fit       0.004221
 1582 Fit       0.003225
 1583 Fit       0.001164
 1584 Fit      -0.001988
 1585 Fit      -0.004775
 1586 Fit       0.003889
 1587 Fit       0.003399
 1588 Fit       0.002129
 1589 Fit       0.000923
 1590 Fit       0.002588
 1591 Fit      -0.015275
 1592 Fit       0.002418
 1593 Fit      -0.006527
 1594 Fit       0.000879
 1595 Fit       0.003979
 1596 Fit      -0.003279
 1597 Fit       0.001891
 1598 Fit      -0.001854
 1599 Fit      -0.000667
 1600 Fit       0.001045
 1601 Fit      -0.000255
 1602 Fit      -0.000420
 1603 Fit      -0.002226
 1604 Fit      -0.009814
 1605 Fit      -0.004949
 1606 Fit       0.000026
 1607 Fit       0.001211
 1608 Fit      -0.012492
 1609 Fit      -0.007105
 1610 Fit      -0.003498
 1611 Fit      -0.001284
 1612 Fit       0.000523
 1613 Fit      -0.004261
 1614 Fit      -0.001840
 1615 Fit      -0.000304
 1616 Fit       0.000189
 1617 Fit      -0.002208
 1618 Fit      -0.000677
 1619 Fit      -0.008229
 1620 Fit      -0.010783
 1621 Fit      -0.011747
 1622 Fit      -0.012007
 1623 Fit       0.001333
 1624 Fit      -0.000951
 1625 Fit      -0.002807
 1626 Fit      -0.004278
 1627 Fit      -0.005323
 1628 Fit      -0.005736
 1629 Fit       0.001474
 1630 Fit       0.000316
 1631 Fit      -0.001008
 1632 Fit      -0.002222
 1633 Fit       0.000915
 1634 Fit      -0.000219
 1635 Fit       0.006200
 1636 Fit       0.002014
 1637 Fit       0.004005
 1638 Fit       0.005670
 1639 Fit       0.006721
 1640 Fit       0.007062
 1641 Fit       0.006572
 1642 Fit       0.002599
 1643 Fit       0.004458
 1644 Fit       0.005664
 1645 Fit       0.005896
 1646 Fit       0.005001
 1647 Fit       0.002934
 1648 Fit       0.004485
 1649 Fit       0.004251
 1650 Fit       0.002375
 1651 Fit       0.001039
 1652 Fit       0.002823
 1653 Fit       0.011661
 1654 Fit      -0.006263
 1655 Fit       0.008895
 1656 Fit       0.008173
 1657 Fit       0.007778
 1658 Fit       0.003208
 1659 Fit       0.005971
 1660 Fit       0.008034
 1661 Fit      -0.001659
 1662 Fit       0.003017
 1663 Fit       0.005112
 1664 Fit       0.006564
 1665 Fit       0.007741
 1666 Fit       0.009219
 1667 Fit      -0.000212
 1668 Fit       0.003308
 1669 Fit       0.005097
 1670 Fit       0.006381
 1671 Fit       0.007363
 1672 Fit       0.005833
 1673 Fit       0.007218
 1674 Fit       0.009355
 1675 Fit       0.010637
 1676 Fit       0.008339
 1677 Fit       0.008869
 1678 Fit       0.009400
 1679 Fit       0.008875
 1680 Fit       0.005200
 1681 Fit      -0.003539
 1682 Fit       0.007688
 1683 Fit       0.007432
 1684 Fit       0.005977
 1685 Fit       0.002513
 1686 Fit       0.006232
 1687 Fit      -0.021992
 1688 Fit      -0.019171
 1689 Fit      -0.016360
 1690 Fit      -0.011995
 1691 Fit      -0.030822
 1692 Fit      -0.026248
 1693 Fit      -0.023552
 1694 Fit      -0.020569
 1695 Fit      -0.016165
 1696 Fit      -0.025362
 1697 Fit      -0.024298
 1698 Fit      -0.022743
 1699 Fit       0.003063
 1700 Fit       0.003484
 1701 Fit       0.005964
 1702 Fit       0.002754
 1703 Fit      -0.001942
 1704 Fit      -0.010253
 1705 Fit      -0.005794
 1706 Fit       0.004640
 1707 Fit       0.006899
 1708 Fit       0.003771
 1709 Fit       0.006147
 1710 Fit       0.008009
 1711 Fit       0.009916
 1712 Fit       0.003085
 1713 Fit       0.005896
 1714 Fit       0.007811
 1715 Fit       0.009378
 1716 Fit       0.009949
 1717 Fit       0.000154
 1718 Fit       0.001352
 1719 Fit      -0.004673
 1720 Fit      -0.004763
 1721 Fit      -0.001337
 1722 Fit       0.000609
 1723 Fit      -0.013852
 1724 Fit      -0.007157
 1725 Fit      -0.003859
 1726 Fit      -0.001747
 1727 Fit      -0.012936
 1728 Fit      -0.009041
 1729 Fit      -0.006998
 1730 Fit      -0.005029
 1731 Fit      -0.020586
 1732 Fit      -0.017090
 1733 Fit      -0.015682
 1734 Fit      -0.000708
 1735 Fit       0.011073
 1736 Fit       0.010202
 1737 Fit       0.009731
 1738 Fit       0.010098
 1739 Fit       0.002928
 1740 Fit       0.005108
 1741 Fit       0.006130
 1742 Fit       0.005173
 1743 Fit       0.001324
 1744 Fit      -0.003221
 1745 Fit       0.000976
 1746 Fit       0.008399
 1747 Fit       0.008073
 1748 Fit       0.007555
 1749 Fit       0.006886
 1750 Fit       0.010211
 1751 Fit       0.009254
 1752 Fit       0.008735
 1753 Fit       0.008780
 1754 Fit       0.010558
 1755 Fit       0.010057
 1756 Fit       0.010413
 1757 Fit       0.011244
 1758 Fit       0.010551
 1759 Fit       0.010235
 1760 Fit       0.010606
 1761 Fit       0.010431
 1762 Fit       0.010357
 1763 Fit       0.007134
 1764 Fit      -0.013376
 1765 Fit      -0.017923
 1766 Fit      -0.023842
 1767 Fit      -0.023481
 1768 Fit      -0.027271
 1769 Fit      -0.029360
 1770 Fit      -0.008401
 1771 Fit       0.009947
 1772 Fit       0.009793
 1773 Fit       0.010368
 1774 Fit       0.012219
 1775 Fit      -0.003085
 1776 Fit       0.010084
 1777 Fit       0.010676
 1778 Fit       0.010107
 1779 Fit       0.010492
 1780 Fit       0.011792
 1781 Fit       0.010169
 1782 Fit       0.009839
 1783 Fit       0.010176
 1784 Fit       0.011112
 1785 Fit       0.004010
 1786 Fit       0.008105
 1787 Fit       0.009017
 1788 Fit       0.009259
 1789 Fit       0.007293
 1790 Fit       0.001736
 1791 Fit       0.006730
 1792 Fit      -0.004025
 1793 Fit      -0.002400
 1794 Fit       0.002724
 1795 Fit       0.002214
 1796 Fit      -0.003677
 1797 Fit       0.007057
 1798 Fit       0.006350
 1799 Fit       0.005396
 1800 Fit       0.002664
 1801 Fit       0.008839
 1802 Fit       0.008199
 1803 Fit       0.007940
 1804 Fit       0.007505
 1805 Fit       0.010886
 1806 Fit       0.009702
 1807 Fit       0.009175
 1808 Fit      -0.008321
 1809 Fit       0.009747
 1810 Fit       0.006510
 1811 Fit       0.002984
 1812 Fit      -0.001816
 1813 Fit      -0.009570
 1814 Fit      -0.002810
 1815 Fit       0.002792
 1816 Fit       0.007367
 1817 Fit       0.004588
 1818 Fit       0.000310
 1819 Fit       0.003809
 1820 Fit       0.007498
 1821 Fit       0.010213
 1822 Fit       0.010534
 1823 Fit       0.012582
 1824 Fit       0.011304
 1825 Fit       0.011360
 1826 Fit       0.011508
 1827 Fit       0.011458
 1828 Fit       0.012665
 1829 Fit       0.011333
 1830 Fit       0.010820
 1831 Fit      -0.007840
 1832 Fit      -0.013264
 1833 Fit      -0.013352
 1834 Fit      -0.008959
 1835 Fit      -0.018256
 1836 Fit      -0.017082
 1837 Fit      -0.012291
 1838 Fit      -0.009131
 1839 Fit      -0.006964
 1840 Fit      -0.001362
 1841 Fit      -0.019175
 1842 Fit       0.002910
 1843 Fit      -0.008923
 1844 Fit      -0.011047
 1845 Fit      -0.000050
 1846 Fit      -0.002268
 1847 Fit       0.003214
 1848 Fit      -0.004184
 1849 Fit      -0.010309
 1850 Fit       0.000492
 1851 Fit      -0.009427
 1852 Fit       0.000732
 1853 Fit      -0.003184
 1854 Fit      -0.003650
 1855 Fit      -0.014877
 1856 Fit      -0.006251
 1857 Fit      -0.004291
 1858 Fit      -0.007073
 1859 Fit      -0.003180
 1860 Fit      -0.004170
 1861 Fit       0.006470
 1862 Fit       0.000446
 1863 Fit      -0.000316
 1864 Fit       0.009677
 1865 Fit       0.006586
 1866 Fit       0.010652
 1867 Fit       0.007303
 1868 Fit       0.011323
 1869 Fit       0.007727
 1870 Fit       0.011713
 1871 Fit       0.008182
 1872 Fit       0.006919
 1873 Fit       0.009799
 1874 Fit       0.007057
 1875 Fit       0.006076
 1876 Fit       0.010947
 1877 Fit      -0.000145
 1878 Fit       0.006771
 1879 Fit       0.010502
 1880 Fit       0.013321
 1881 Fit      -0.000181
 1882 Fit       0.006770
 1883 Fit       0.009125
 1884 Fit       0.009444
 1885 Fit       0.008071
 1886 Fit       0.008820
 1887 Fit       0.013316
 1888 Fit       0.006264
 1889 Fit       0.003967
 1890 Fit       0.001301
 1891 Fit      -0.001856
 1892 Fit      -0.002921
 1893 Fit      -0.001254
 1894 Fit       0.001829
 1895 Fit      -0.003373
 1896 Fit      -0.004910
 1897 Fit       0.001919
 1898 Fit      -0.003231
 1899 Fit      -0.005825
 1900 Fit      -0.005941
 1901 Fit      -0.004643
 1902 Fit      -0.003581
 1903 Fit      -0.003456
 1904 Fit      -0.004122
 1905 Fit      -0.005993
 1906 Fit      -0.008434
 1907 Fit      -0.009154
 1908 Fit       0.002243
 1909 Fit      -0.003685
 1910 Fit      -0.006562
 1911 Fit      -0.007196
 1912 Fit      -0.007043
 1913 Fit      -0.007386
 1914 Fit      -0.008635
 1915 Fit      -0.010276
 1916 Fit      -0.010668
 1917 Fit      -0.007562
 1918 Fit      -0.000727
 1919 Fit      -0.005101
 1920 Fit      -0.007065
 1921 Fit      -0.008133
 1922 Fit      -0.009287
 1923 Fit      -0.009807
 1924 Fit      -0.007587
 1925 Fit      -0.001733
 1926 Fit       0.004382
 1927 Fit       0.002532
 1928 Fit      -0.003275
 1929 Fit      -0.006356
 1930 Fit      -0.006562
 1931 Fit      -0.002114
 1932 Fit       0.005145
 1933 Fit      -0.001041
 1934 Fit       0.001720
 1935 Fit       0.003859
 1936 Fit       0.002919
 1937 Fit       0.000718
 1938 Fit       0.002384
 1939 Fit       0.002187
 1940 Fit       0.007035
 1941 Fit       0.008722
 1942 Fit       0.012875
 1943 Fit       0.014586
 1944 Fit       0.016694
 1945 Fit       0.002545
 1946 Fit       0.003301
 1947 Fit       0.001724
 1948 Fit       0.001766
 1949 Fit       0.001204
 1950 Fit       0.001628
 1951 Fit       0.002014
 1952 Fit       0.001878
 1953 Fit       0.002384
 1954 Fit       0.002052
 1955 Fit       0.001720
 1956 Fit       0.000220
 1957 Fit      -0.001030
 1958 Fit      -0.002181
 1959 Fit       0.007009
 1960 Fit       0.006597
 1961 Fit       0.005134
 1962 Fit      -0.003774
 1963 Fit       0.000657
 1964 Fit      -0.003444
 1965 Fit      -0.008462
 1966 Fit      -0.006725
 1967 Fit      -0.002239
 1968 Fit      -0.001054
 1969 Fit      -0.005590
 1970 Fit      -0.007593
 1971 Fit      -0.008434
 1972 Fit      -0.011175
 1973 Fit      -0.010350
 1974 Fit      -0.007483
 1975 Fit      -0.002371
 1976 Fit      -0.005213
 1977 Fit      -0.009065
 1978 Fit      -0.010234
 1979 Fit      -0.010544
 1980 Fit      -0.010916
 1981 Fit      -0.011127
 1982 Fit      -0.010494
 1983 Fit      -0.008272
 1984 Fit      -0.004115
 1985 Fit       0.002227
 1986 Fit      -0.007680
 1987 Fit      -0.010997
 1988 Fit      -0.011581
 1989 Fit      -0.011117
 1990 Fit      -0.010757
 1991 Fit      -0.010906
 1992 Fit      -0.008025
 1993 Fit      -0.006526
 1994 Fit      -0.007526
 1995 Fit      -0.010678
 1996 Fit      -0.011248
 1997 Fit      -0.010384
 1998 Fit      -0.009220
 1999 Fit      -0.008508
 2000 Fit      -0.008329
 2001 Fit      -0.002437
 2002 Fit      -0.003053
 2003 Fit      -0.007340
 2004 Fit      -0.008502
 2005 Fit      -0.007512
 2006 Fit      -0.005801
 2007 Fit      -0.004520
 2008 Fit      -0.003831
 2009 Fit       0.001265
 2010 Fit      -0.002716
 2011 Fit      -0.002739
 2012 Fit      -0.000782
 2013 Fit       0.001629
 2014 Fit       0.001710
 2015 Fit       0.003595
 2016 Fit       0.000553
 2017 Fit       0.005347
 2018 Fit       0.003976
 2019 Fit       0.008486
 2020 Fit       0.010640
 2021 Fit       0.000295
 2022 Fit       0.001749
 2023 Fit       0.001015
 2024 Fit      -0.003680
 2025 Fit       0.000242
 2026 Fit       0.001851
 2027 Fit      -0.000379
 2028 Fit       0.001084
 2029 Fit       0.001570
 2030 Fit      -0.002123
 2031 Fit       0.002923
 2032 Fit       0.001758
 2033 Fit      -0.002103
 2034 Fit       0.000641
 2035 Fit       0.001535
 2036 Fit       0.002029
 2037 Fit       0.005966
 2038 Fit       0.005244
 2039 Fit       0.009962
 2040 Fit       0.001633
 2041 Fit      -0.001528
 2042 Fit       0.000889
 2043 Fit       0.000334
 2044 Fit      -0.001376
 2045 Fit       0.000461
 2046 Fit      -0.001100
 2047 Fit      -0.000916
 2048 Fit      -0.000109
 2049 Fit      -0.003393
 2050 Fit      -0.000364
 2051 Fit      -0.011684
 2052 Fit      -0.010061
 2053 Fit      -0.011896
 2054 Fit      -0.011543
 2055 Fit      -0.011696
 2056 Fit      -0.011021
 2057 Fit      -0.009233
 2058 Fit      -0.005447
 2059 Fit      -0.009055
 2060 Fit      -0.010774
 2061 Fit      -0.009864
 2062 Fit      -0.008600
 2063 Fit      -0.009073
 2064 Fit      -0.010876
 2065 Fit      -0.011907
 2066 Fit      -0.010617
 2067 Fit      -0.007570
 2068 Fit      -0.004946
 2069 Fit      -0.004048
 2070 Fit      -0.006941
 2071 Fit      -0.007431
 2072 Fit      -0.005493
 2073 Fit      -0.003345
 2074 Fit      -0.003504
 2075 Fit      -0.006131
 2076 Fit      -0.009629
 2077 Fit      -0.012170
 2078 Fit      -0.012252
 2079 Fit      -0.009494
 2080 Fit      -0.004925
 2081 Fit      -0.000642
 2082 Fit       0.001762
 2083 Fit      -0.001972
 2084 Fit      -0.001191
 2085 Fit      -0.000625
 2086 Fit      -0.005562
 2087 Fit      -0.010029
 2088 Fit      -0.012772
 2089 Fit      -0.012682
 2090 Fit      -0.009537
 2091 Fit      -0.003953
 2092 Fit      -0.002477
 2093 Fit      -0.007587
 2094 Fit      -0.011393
 2095 Fit      -0.012508
 2096 Fit      -0.010481
 2097 Fit      -0.005668
 2098 Fit      -0.008407
 2099 Fit      -0.009956
 2100 Fit      -0.007280
 2101 Fit      -0.005523
 2102 Fit      -0.003199
 2103 Fit       0.005084
 2104 Fit       0.009756
 2105 Fit       0.001843
 2106 Fit       0.003760
 2107 Fit       0.005515
 2108 Fit       0.005703
 2109 Fit       0.004253
 2110 Fit       0.007347
 2111 Fit       0.007811
 2112 Fit       0.007708
 2113 Fit       0.006775
 2114 Fit       0.004870
 2115 Fit       0.009217
 2116 Fit       0.009062
 2117 Fit       0.008731
 2118 Fit       0.007783
 2119 Fit       0.006035
 2120 Fit       0.011422
 2121 Fit       0.009374
 2122 Fit       0.013989
 2123 Fit       0.011177
 2124 Fit       0.012018
 2125 Fit       0.011066
 2126 Fit       0.009341
 2127 Fit       0.007902
 2128 Fit       0.005473
 2129 Fit       0.005062
 2130 Fit      -0.000276
 2131 Fit       0.003674
 2132 Fit       0.001701
 2133 Fit       0.002174
 2134 Fit       0.002618
 2135 Fit       0.002343
 2136 Fit       0.002105
 2137 Fit       0.003240
 2138 Fit       0.002870
 2139 Fit       0.002996
 2140 Fit       0.010365
 2141 Fit       0.009212
 2142 Fit       0.007710
 2143 Fit       0.009466
 2144 Fit       0.009077
 2145 Fit       0.008354
 2146 Fit       0.007156
 2147 Fit       0.005583
 2148 Fit       0.005308
 2149 Fit       0.007321
 2150 Fit       0.007488
 2151 Fit       0.006573
 2152 Fit       0.005056
 2153 Fit       0.002876
 2154 Fit       0.005258
 2155 Fit       0.005745
 2156 Fit       0.004400
 2157 Fit       0.004022
 2158 Fit       0.003557
 2159 Fit       0.002971
 2160 Fit       0.004925
 2161 Fit       0.008068
 2162 Fit       0.002280
 2163 Fit       0.003730
 2164 Fit       0.004777
 2165 Fit       0.003000
 2166 Fit       0.001957
 2167 Fit      -0.001468
 2168 Fit       0.003848
 2169 Fit       0.002505
 2170 Fit       0.000657
 2171 Fit      -0.002256
 2172 Fit      -0.006379
 2173 Fit       0.003896
 2174 Fit       0.003198
 2175 Fit       0.002165
 2176 Fit       0.000588
 2177 Fit      -0.001029
 2178 Fit       0.003378
 2179 Fit       0.002737
 2180 Fit       0.001852
 Job cpu time:       0 days  0 hours 11 minutes 28.0 seconds.
 Normal termination of Gaussian 16 at Sun Jul  9 10:27:50 2023.
