 Copyright (c) 1988-2019, Gaussian, Inc.  All Rights Reserved.
  
 This is part of the Gaussian(R) 16 program.  It is based on
 the Gaussian(R) 09 system (copyright 2009, Gaussian, Inc.),
 the Gaussian(R) 03 system (copyright 2003, Gaussian, Inc.),
 the Gaussian(R) 98 system (copyright 1998, Gaussian, Inc.),
 the Gaussian(R) 94 system (copyright 1995, Gaussian, Inc.),
 the Gaussian 92(TM) system (copyright 1992, Gaussian, Inc.),
 the Gaussian 90(TM) system (copyright 1990, Gaussian, Inc.),
 the Gaussian 88(TM) system (copyright 1988, Gaussian, Inc.),
 the Gaussian 86(TM) system (copyright 1986, Carnegie Mellon
 University), and the Gaussian 82(TM) system (copyright 1983,
 Carnegie Mellon University). Gaussian is a federally registered
 trademark of Gaussian, Inc.
 Cite this work as:
 Gaussian 16, Revision C.01,
 M. J. Frisch, G. W. Trucks, H. B. Schlegel, G. E. Scuseria, 
 M. A. Robb, J. R. Cheeseman, G. Scalmani, V. Barone, 
 G. A. Petersson, H. Nakatsuji, X. Li, M. Caricato, A. V. Marenich, 
 J. Bloino, B. G. Janesko, R. Gomperts, B. Mennucci, H. P. Hratchian, 
 J. V. Ortiz, A. F. Izmaylov, J. L. Sonnenberg, D. Williams-Young, 
 F. Ding, F. Lipparini, F. Egidi, J. Goings, B. Peng, A. Petrone, 
 T. Henderson, D. Ranasinghe, V. G. Zakrzewski, J. Gao, N. Rega, 
 G. Zheng, W. Liang, M. Hada, M. Ehara, K. Toyota, R. Fukuda, 
 J. Hasegawa, M. Ishida, T. Nakajima, Y. Honda, O. Kitao, H. Nakai, 
 T. Vreven, K. Throssell, J. A. Montgomery, Jr., J. E. Peralta, 
 F. Ogliaro, M. J. Bearpark, J. J. Heyd, E. N. Brothers, K. N. Kudin, 
 V. N. Staroverov, T. A. Keith, R. Kobayashi, J. Normand, 
 K. Raghavachari, A. P. Rendell, J. C. Burant, S. S. Iyengar, 
 J. Tomasi, M. Cossi, J. M. Millam, M. Klene, C. Adamo, R. Cammi, 
 J. W. Ochterski, R. L. Martin, K. Morokuma, O. Farkas, 
 J. B. Foresman, and D. J. Fox, Gaussian, Inc., Wallingford CT, 2019.
 
 ******************************************
 Gaussian 16:  EM64L-G16RevC.01  3-Jul-2019
                 9-Jul-2023 
 ******************************************
 ----------------------------------------------------------------------
 #P B3LYP/6-31G(d) Integral=Ultrafine SCF(Conver=8,XQC,MaxConventionalC
 ycles=64,MaxCycle=128) NoSymm Test Pop=mk IOp(6/33=2) GFInput GFPrint
 ----------------------------------------------------------------------
 1/38=1,172=1/1;
 2/12=2,15=1,17=6,18=5,40=1/2;
 3/5=1,6=6,7=1,11=2,24=110,25=1,30=1,74=-5,75=-5/1,2,3;
 4//1;
 5/5=2,6=8,7=128,8=3,13=1,38=5,85=64/2,8;
 6/7=2,8=2,9=2,10=2,15=8,20=1,28=1,33=2/1,2;
 99/5=1,9=1/99;
 -------------------------------------------------
 MEP step - Input generated by PyRED DVE-DMDS-OPLS
 -------------------------------------------------
 Symbolic Z-matrix:
 Charge =  0 Multiplicity = 1
 C                    -2.48798  -5.24994  -7.11552 
 H                    -1.73877  -5.75607  -7.73426 
 H                    -2.86819  -5.96299  -6.37688 
 H                    -3.32125  -4.94364  -7.75599 
 C                    -1.87768  -4.04139  -6.42484 
 H                    -1.03037  -4.35205  -5.79273 
 H                    -1.48386  -3.32759  -7.16773 
 O                    -2.8929   -3.41735  -5.64929 
 C                    -2.49073  -2.22912  -4.99194 
 H                    -3.39664  -1.63844  -4.82034 
 H                    -1.81398  -1.63168  -5.622 
 C                    -1.82142  -2.51369  -3.64655 
 H                    -2.51357  -3.08101  -3.00399 
 H                    -0.91507  -3.12751  -3.78004 
 O                    -1.49236  -1.266    -3.06365 
 C                    -0.88163  -1.37856  -1.79316 
 H                     0.05814  -1.95316  -1.86031 
 H                    -1.53778  -1.90262  -1.07996 
 C                    -0.60379   0.03541  -1.28645 
 H                    -1.54825   0.58037  -1.18836 
 H                     0.01693   0.57307  -2.01688 
 O                     0.        0.        0. 
 C                     1.42242   0.        0. 
 H                     1.82715  -0.55884  -0.85523 
 H                     1.72915  -0.52488   0.91088 
 C                     1.97511   1.42889   0. 
 H                     1.54323   1.99839   0.82888 
 H                     1.7       1.94696  -0.92456 
 S                     3.81046   1.49235   0.06939 
 C                     4.12122   1.25441   1.87055 
 H                     3.50789   0.43225   2.25022 
 H                     5.16501   0.93155   1.93166 
 C                     3.89626   2.52375   2.69333 
 H                     2.85217   2.84555   2.63146 
 H                     4.50751   3.34687   2.31175 
 S                     4.20632   2.28946   4.49417 
 C                     6.04803   2.3218    4.56642 
 H                     6.46071   1.69068   3.77362 
 H                     6.30272   1.84346   5.51583 
 C                     6.63166   3.73485   4.4948 
 H                     6.34155   4.2199    3.5579 
 H                     6.24869   4.35669   5.3101 
 S                     8.47567   3.77614   4.52764 
 C                     8.83225   4.09259   6.30549 
 H                     9.90046   4.33557   6.31299 
 H                     8.29726   5.00008   6.60762 
 C                     8.54448   2.93933   7.26552 
 H                     7.4737    2.71653   7.32079 
 H                     9.06697   2.02875   6.95589 
 H                     8.87761   3.20074   8.27806 
 
 ITRead=  0  0  0  0  0  0  0  0  0  0  0  0  0  0  0  0  0  0  0  0
 ITRead=  0  0  0  0  0  0  0  0  0  0  0  0  0  0  0  0  0  0  0  0
 ITRead=  0  0  0  0  0  0  0  0  0  0
 MicOpt= -1 -1 -1 -1 -1 -1 -1 -1 -1 -1 -1 -1 -1 -1 -1 -1 -1 -1 -1 -1
 MicOpt= -1 -1 -1 -1 -1 -1 -1 -1 -1 -1 -1 -1 -1 -1 -1 -1 -1 -1 -1 -1
 MicOpt= -1 -1 -1 -1 -1 -1 -1 -1 -1 -1
 NAtoms=     50 NQM=       50 NQMF=       0 NMMI=      0 NMMIF=      0
                NMic=       0 NMicF=      0.
                          Input orientation:                          
 ---------------------------------------------------------------------
 Center     Atomic      Atomic             Coordinates (Angstroms)
 Number     Number       Type             X           Y           Z
 ---------------------------------------------------------------------
      1          6           0       -2.487978   -5.249939   -7.115519
      2          1           0       -1.738770   -5.756070   -7.734257
      3          1           0       -2.868188   -5.962990   -6.376879
      4          1           0       -3.321251   -4.943638   -7.755987
      5          6           0       -1.877681   -4.041391   -6.424836
      6          1           0       -1.030366   -4.352051   -5.792727
      7          1           0       -1.483864   -3.327588   -7.167731
      8          8           0       -2.892903   -3.417349   -5.649293
      9          6           0       -2.490734   -2.229115   -4.991941
     10          1           0       -3.396640   -1.638442   -4.820341
     11          1           0       -1.813978   -1.631682   -5.621997
     12          6           0       -1.821416   -2.513686   -3.646550
     13          1           0       -2.513568   -3.081009   -3.003985
     14          1           0       -0.915074   -3.127511   -3.780037
     15          8           0       -1.492357   -1.266000   -3.063646
     16          6           0       -0.881633   -1.378556   -1.793157
     17          1           0        0.058140   -1.953160   -1.860314
     18          1           0       -1.537775   -1.902622   -1.079957
     19          6           0       -0.603785    0.035409   -1.286453
     20          1           0       -1.548247    0.580372   -1.188363
     21          1           0        0.016931    0.573072   -2.016875
     22          8           0        0.000000    0.000000    0.000000
     23          6           0        1.422422    0.000000    0.000000
     24          1           0        1.827154   -0.558841   -0.855230
     25          1           0        1.729153   -0.524880    0.910879
     26          6           0        1.975113    1.428893    0.000000
     27          1           0        1.543226    1.998389    0.828880
     28          1           0        1.699997    1.946958   -0.924557
     29         16           0        3.810457    1.492350    0.069387
     30          6           0        4.121222    1.254407    1.870554
     31          1           0        3.507893    0.432249    2.250217
     32          1           0        5.165013    0.931549    1.931657
     33          6           0        3.896259    2.523745    2.693331
     34          1           0        2.852172    2.845546    2.631462
     35          1           0        4.507513    3.346874    2.311750
     36         16           0        4.206322    2.289465    4.494168
     37          6           0        6.048031    2.321803    4.566421
     38          1           0        6.460711    1.690676    3.773615
     39          1           0        6.302720    1.843464    5.515832
     40          6           0        6.631665    3.734847    4.494804
     41          1           0        6.341546    4.219896    3.557896
     42          1           0        6.248693    4.356691    5.310101
     43         16           0        8.475669    3.776141    4.527635
     44          6           0        8.832245    4.092589    6.305492
     45          1           0        9.900455    4.335572    6.312987
     46          1           0        8.297263    5.000076    6.607621
     47          6           0        8.544479    2.939325    7.265519
     48          1           0        7.473705    2.716532    7.320792
     49          1           0        9.066966    2.028751    6.955889
     50          1           0        8.877613    3.200736    8.278055
 ---------------------------------------------------------------------
 Stoichiometry    C14H30O3S3
 Framework group  C1[X(C14H30O3S3)]
 Standard basis: 6-31G(d) (6D, 7F)
   372 basis functions,   752 primitive gaussians,   372 cartesian basis functions
    93 alpha electrons       93 beta electrons
 Requested convergence on RMS density matrix=1.00D-08 within  64 cycles.
 Requested convergence on MAX density matrix=1.00D-06.
 Requested convergence on             energy=1.00D-06.
 SCF Done:  E(RB3LYP) =  -1971.75434362     A.U. after   13 cycles
            NFock= 13  Conv=0.34D-08     -V/T= 2.0058
 Mulliken charges:
     1  C   -0.452024
     2  H    0.142965
     3  H    0.158135
     4  H    0.159726
     5  C   -0.013458
     6  H    0.121159
     7  H    0.122564
     8  O   -0.472728
     9  C   -0.036765
    10  H    0.154244
    11  H    0.130466
    12  C   -0.023416
    13  H    0.133304
    14  H    0.121858
    15  O   -0.486318
    16  C   -0.016607
    17  H    0.121688
    18  H    0.134268
    19  C   -0.052196
    20  H    0.157952
    21  H    0.135925
    22  O   -0.474689
    23  C   -0.025868
    24  H    0.141635
    25  H    0.151725
    26  C   -0.434391
    27  H    0.180670
    28  H    0.180443
    29  S    0.082212
    30  C   -0.415029
    31  H    0.188383
    32  H    0.183435
    33  C   -0.413755
    34  H    0.183965
    35  H    0.186445
    36  S    0.079460
    37  C   -0.412065
    38  H    0.183437
    39  H    0.187160
    40  C   -0.411876
    41  H    0.182538
    42  H    0.182214
    43  S    0.079338
    44  C   -0.407539
    45  H    0.178507
    46  H    0.171165
    47  C   -0.437055
    48  H    0.153088
    49  H    0.164231
    50  H    0.151476
 Sum of Mulliken charges =  -0.00000
 Dipole moment (field-independent basis, Debye):
    X=              0.9883    Y=             -0.4366    Z=              0.7116  Tot=              1.2937
 Quadrupole moment (field-independent basis, Debye-Ang):
   XX=           -155.8552   YY=           -143.5949   ZZ=           -132.3688
   XY=             -3.6074   XZ=             11.0227   YZ=              9.8566
 Traceless Quadrupole moment (field-independent basis, Debye-Ang):
   XX=            -11.9156   YY=              0.3448   ZZ=             11.5708
   XY=             -3.6074   XZ=             11.0227   YZ=              9.8566
 Octapole moment (field-independent basis, Debye-Ang**2):
  XXX=          -1218.4220  YYY=           -287.3934  ZZZ=           -192.8564  XYY=           -392.7078
  XXY=            -76.6788  XXZ=             88.4275  XZZ=           -226.7967  YZZ=            -56.0077
  YYZ=            -77.5235  XYZ=             82.4022
 Hexadecapole moment (field-independent basis, Debye-Ang**3):
 XXXX=         -20746.7977 YYYY=          -6909.0565 ZZZZ=         -14895.0895 XXXY=          -5207.5263
 XXXZ=          -6483.3640 YYYX=          -5106.0336 YYYZ=          -4690.3270 ZZZX=          -6453.7270
 ZZZY=          -4151.3730 XXYY=          -4675.7843 XXZZ=          -4876.8228 YYZZ=          -3432.2677
 XXYZ=          -1203.0720 YYXZ=          -2322.8270 ZZXY=          -1144.6429
 Merz-Kollman atomic radii used.
 Atom Element Radius
    1     6    1.50
    2     1    1.20
    3     1    1.20
    4     1    1.20
    5     6    1.50
    6     1    1.20
    7     1    1.20
    8     8    1.40
    9     6    1.50
   10     1    1.20
   11     1    1.20
   12     6    1.50
   13     1    1.20
   14     1    1.20
   15     8    1.40
   16     6    1.50
   17     1    1.20
   18     1    1.20
   19     6    1.50
   20     1    1.20
   21     1    1.20
   22     8    1.40
   23     6    1.50
   24     1    1.20
   25     1    1.20
   26     6    1.50
   27     1    1.20
   28     1    1.20
   29    16    1.75
   30     6    1.50
   31     1    1.20
   32     1    1.20
   33     6    1.50
   34     1    1.20
   35     1    1.20
   36    16    1.75
   37     6    1.50
   38     1    1.20
   39     1    1.20
   40     6    1.50
   41     1    1.20
   42     1    1.20
   43    16    1.75
   44     6    1.50
   45     1    1.20
   46     1    1.20
   47     6    1.50
   48     1    1.20
   49     1    1.20
   50     1    1.20
 Generate VDW surfaces: Layer= 4 Dens= 1 Start= 1.400 Inc= 0.200
            Electrostatic Properties Using The SCF Density.


       Atomic Center    1 is at  -2.487978 -5.249939 -7.115519
       Atomic Center    2 is at  -1.738770 -5.756070 -7.734257
       Atomic Center    3 is at  -2.868188 -5.962990 -6.376879
       Atomic Center    4 is at  -3.321251 -4.943638 -7.755987
       Atomic Center    5 is at  -1.877681 -4.041391 -6.424836
       Atomic Center    6 is at  -1.030366 -4.352051 -5.792727
       Atomic Center    7 is at  -1.483864 -3.327588 -7.167731
       Atomic Center    8 is at  -2.892903 -3.417349 -5.649293
       Atomic Center    9 is at  -2.490734 -2.229115 -4.991941
       Atomic Center   10 is at  -3.396640 -1.638442 -4.820341
       Atomic Center   11 is at  -1.813978 -1.631682 -5.621997
       Atomic Center   12 is at  -1.821416 -2.513686 -3.646550
       Atomic Center   13 is at  -2.513568 -3.081009 -3.003985
       Atomic Center   14 is at  -0.915074 -3.127511 -3.780037
       Atomic Center   15 is at  -1.492357 -1.266000 -3.063646
       Atomic Center   16 is at  -0.881633 -1.378556 -1.793157
       Atomic Center   17 is at   0.058140 -1.953160 -1.860314
       Atomic Center   18 is at  -1.537775 -1.902622 -1.079957
       Atomic Center   19 is at  -0.603785  0.035409 -1.286453
       Atomic Center   20 is at  -1.548247  0.580372 -1.188363
       Atomic Center   21 is at   0.016931  0.573072 -2.016875
       Atomic Center   22 is at   0.000000  0.000000  0.000000
       Atomic Center   23 is at   1.422422  0.000000  0.000000
       Atomic Center   24 is at   1.827154 -0.558841 -0.855230
       Atomic Center   25 is at   1.729153 -0.524880  0.910879
       Atomic Center   26 is at   1.975113  1.428893  0.000000
       Atomic Center   27 is at   1.543226  1.998389  0.828880
       Atomic Center   28 is at   1.699997  1.946958 -0.924557
       Atomic Center   29 is at   3.810457  1.492350  0.069387
       Atomic Center   30 is at   4.121222  1.254407  1.870554
       Atomic Center   31 is at   3.507893  0.432249  2.250217
       Atomic Center   32 is at   5.165013  0.931549  1.931657
       Atomic Center   33 is at   3.896259  2.523745  2.693331
       Atomic Center   34 is at   2.852172  2.845546  2.631462
       Atomic Center   35 is at   4.507513  3.346874  2.311750
       Atomic Center   36 is at   4.206322  2.289465  4.494168
       Atomic Center   37 is at   6.048031  2.321803  4.566421
       Atomic Center   38 is at   6.460711  1.690676  3.773615
       Atomic Center   39 is at   6.302720  1.843464  5.515832
       Atomic Center   40 is at   6.631665  3.734847  4.494804
       Atomic Center   41 is at   6.341546  4.219896  3.557896
       Atomic Center   42 is at   6.248693  4.356691  5.310101
       Atomic Center   43 is at   8.475669  3.776141  4.527635
       Atomic Center   44 is at   8.832245  4.092589  6.305492
       Atomic Center   45 is at   9.900455  4.335572  6.312987
       Atomic Center   46 is at   8.297263  5.000076  6.607621
       Atomic Center   47 is at   8.544479  2.939325  7.265519
       Atomic Center   48 is at   7.473705  2.716532  7.320792
       Atomic Center   49 is at   9.066966  2.028751  6.955889
       Atomic Center   50 is at   8.877613  3.200736  8.278055
      ESP Fit Center   51 is at  -0.958029 -6.233177 -6.065519
      ESP Fit Center   52 is at  -2.234851 -7.334628 -7.115519
      ESP Fit Center   53 is at  -3.678943 -6.624385 -8.165519
      ESP Fit Center   54 is at  -2.746799 -7.050081 -8.165519
      ESP Fit Center   55 is at  -1.962978 -4.340612 -8.934172
      ESP Fit Center   56 is at  -3.012978 -6.159266 -8.934172
      ESP Fit Center   57 is at  -2.487978 -5.249939 -9.215519
      ESP Fit Center   58 is at  -0.140995 -5.756070 -7.215108
      ESP Fit Center   59 is at  -1.461319 -7.329571 -7.215108
      ESP Fit Center   60 is at  -0.514803 -6.783100 -7.215108
      ESP Fit Center   61 is at  -0.140995 -5.756070 -8.253406
      ESP Fit Center   62 is at  -0.514803 -4.729040 -8.253406
      ESP Fit Center   63 is at  -2.537657 -7.139784 -8.253406
      ESP Fit Center   64 is at  -1.461319 -7.329571 -8.253406
      ESP Fit Center   65 is at  -0.514803 -6.783100 -8.253406
      ESP Fit Center   66 is at  -0.751291 -5.756070 -9.093406
      ESP Fit Center   67 is at  -1.433622 -4.816921 -9.093406
      ESP Fit Center   68 is at  -2.537657 -6.336496 -9.093406
      ESP Fit Center   69 is at  -1.433622 -6.695219 -9.093406
      ESP Fit Center   70 is at  -1.738770 -5.756070 -9.414257
      ESP Fit Center   71 is at  -2.868188 -5.962990 -4.696879
      ESP Fit Center   72 is at  -1.880709 -5.962990 -5.017730
      ESP Fit Center   73 is at  -3.667075 -5.382564 -5.017730
      ESP Fit Center   74 is at  -3.667075 -6.543416 -5.017730
      ESP Fit Center   75 is at  -2.563040 -6.902139 -5.017730
      ESP Fit Center   76 is at  -4.369605 -5.416519 -5.857730
      ESP Fit Center   77 is at  -4.369605 -6.509461 -5.857730
      ESP Fit Center   78 is at  -3.667075 -7.346704 -5.857730
      ESP Fit Center   79 is at  -2.590737 -7.536491 -5.857730
      ESP Fit Center   80 is at  -1.644221 -6.990020 -5.857730
      ESP Fit Center   81 is at  -4.369605 -6.509461 -6.896028
      ESP Fit Center   82 is at  -3.667075 -7.346704 -6.896028
      ESP Fit Center   83 is at  -2.590737 -7.536491 -6.896028
      ESP Fit Center   84 is at  -4.120138 -3.559924 -7.236838
      ESP Fit Center   85 is at  -4.822668 -4.397167 -7.236838
      ESP Fit Center   86 is at  -4.822668 -5.490109 -7.236838
      ESP Fit Center   87 is at  -3.043800 -3.370137 -8.275136
      ESP Fit Center   88 is at  -4.120138 -3.559924 -8.275136
      ESP Fit Center   89 is at  -4.822668 -4.397167 -8.275136
      ESP Fit Center   90 is at  -4.822668 -5.490109 -8.275136
      ESP Fit Center   91 is at  -4.120138 -6.327352 -8.275136
      ESP Fit Center   92 is at  -3.016103 -4.004489 -9.115136
      ESP Fit Center   93 is at  -4.120138 -4.363212 -9.115136
      ESP Fit Center   94 is at  -4.120138 -5.524064 -9.115136
      ESP Fit Center   95 is at  -3.016103 -5.882787 -9.115136
      ESP Fit Center   96 is at  -3.321251 -4.943638 -9.435987
      ESP Fit Center   97 is at  -3.068646 -2.666945 -7.474836
      ESP Fit Center   98 is at  -1.829253 -4.932477 -4.433578
      ESP Fit Center   99 is at  -0.725218 -5.291200 -4.433578
      ESP Fit Center  100 is at   0.567409 -4.352051 -5.273578
      ESP Fit Center  101 is at   0.193601 -3.325021 -5.273578
      ESP Fit Center  102 is at  -0.752915 -5.925552 -5.273578
      ESP Fit Center  103 is at   0.193601 -5.379081 -5.273578
      ESP Fit Center  104 is at   0.567409 -4.352051 -6.311876
      ESP Fit Center  105 is at   0.193601 -3.325021 -6.311876
      ESP Fit Center  106 is at   0.193601 -5.379081 -6.311876
      ESP Fit Center  107 is at   0.113911 -3.327588 -6.648582
      ESP Fit Center  108 is at  -0.259897 -2.300558 -6.648582
      ESP Fit Center  109 is at   0.113911 -3.327588 -7.686880
      ESP Fit Center  110 is at  -0.259897 -2.300558 -7.686880
      ESP Fit Center  111 is at  -1.206413 -1.754087 -7.686880
      ESP Fit Center  112 is at  -2.282751 -1.943874 -7.686880
      ESP Fit Center  113 is at  -0.496385 -3.327588 -8.526880
      ESP Fit Center  114 is at  -1.178716 -2.388439 -8.526880
      ESP Fit Center  115 is at  -2.282751 -2.747162 -8.526880
      ESP Fit Center  116 is at  -1.178716 -4.266737 -8.526880
      ESP Fit Center  117 is at  -1.483864 -3.327588 -8.847731
      ESP Fit Center  118 is at  -3.382903 -4.266054 -3.951883
      ESP Fit Center  119 is at  -4.590313 -3.417349 -4.669293
      ESP Fit Center  120 is at  -4.266136 -4.415061 -4.669293
      ESP Fit Center  121 is at  -3.417431 -5.031682 -4.669293
      ESP Fit Center  122 is at  -4.852903 -3.417349 -5.649293
      ESP Fit Center  123 is at  -4.590313 -4.397349 -5.649293
      ESP Fit Center  124 is at  -4.266136 -2.419637 -6.629293
      ESP Fit Center  125 is at  -4.590313 -3.417349 -6.629293
      ESP Fit Center  126 is at  -3.382903 -2.568644 -7.346703
      ESP Fit Center  127 is at  -3.015734 -1.319788 -6.810594
      ESP Fit Center  128 is at  -4.195527 -1.058016 -3.461192
      ESP Fit Center  129 is at  -4.195527 -2.218868 -3.461192
      ESP Fit Center  130 is at  -3.119189 -0.064941 -4.301192
      ESP Fit Center  131 is at  -4.195527 -0.254728 -4.301192
      ESP Fit Center  132 is at  -4.898057 -1.091971 -4.301192
      ESP Fit Center  133 is at  -4.898057 -2.184913 -4.301192
      ESP Fit Center  134 is at  -3.119189 -0.064941 -5.339490
      ESP Fit Center  135 is at  -4.195527 -0.254728 -5.339490
      ESP Fit Center  136 is at  -4.898057 -1.091971 -5.339490
      ESP Fit Center  137 is at  -4.898057 -2.184913 -5.339490
      ESP Fit Center  138 is at  -4.195527 -1.058016 -6.179490
      ESP Fit Center  139 is at  -0.216203 -1.631682 -5.102848
      ESP Fit Center  140 is at  -0.590011 -0.604652 -5.102848
      ESP Fit Center  141 is at  -1.536527 -0.058181 -5.102848
      ESP Fit Center  142 is at  -0.216203 -1.631682 -6.141146
      ESP Fit Center  143 is at  -0.590011 -0.604652 -6.141146
      ESP Fit Center  144 is at  -1.536527 -0.058181 -6.141146
      ESP Fit Center  145 is at  -2.612865 -0.247968 -6.141146
      ESP Fit Center  146 is at  -0.826499 -1.631682 -6.981146
      ESP Fit Center  147 is at  -1.508830 -0.692533 -6.981146
      ESP Fit Center  148 is at  -2.612865 -1.051256 -6.981146
      ESP Fit Center  149 is at  -1.813978 -1.631682 -7.301997
      ESP Fit Center  150 is at  -0.291467 -1.530448 -4.696550
      ESP Fit Center  151 is at  -3.312455 -2.500583 -1.644836
      ESP Fit Center  152 is at  -3.312455 -3.661435 -1.644836
      ESP Fit Center  153 is at  -2.208420 -4.020158 -1.644836
      ESP Fit Center  154 is at  -4.014985 -2.534538 -2.484836
      ESP Fit Center  155 is at  -4.014985 -3.627480 -2.484836
      ESP Fit Center  156 is at  -3.312455 -4.464723 -2.484836
      ESP Fit Center  157 is at  -2.236117 -4.654510 -2.484836
      ESP Fit Center  158 is at  -4.014985 -2.534538 -3.523134
      ESP Fit Center  159 is at  -4.014985 -3.627480 -3.523134
      ESP Fit Center  160 is at  -3.312455 -4.464723 -3.523134
      ESP Fit Center  161 is at  -2.236117 -4.654510 -3.523134
      ESP Fit Center  162 is at  -0.609926 -4.066660 -2.420888
      ESP Fit Center  163 is at   0.682701 -3.127511 -3.260888
      ESP Fit Center  164 is at  -0.637623 -4.701012 -3.260888
      ESP Fit Center  165 is at   0.308893 -4.154541 -3.260888
      ESP Fit Center  166 is at   0.682701 -3.127511 -4.299186
      ESP Fit Center  167 is at   0.308893 -2.100481 -4.299186
      ESP Fit Center  168 is at   0.308893 -4.154541 -4.299186
      ESP Fit Center  169 is at   0.072405 -3.127511 -5.139186
      ESP Fit Center  170 is at  -2.865590 -0.268288 -2.083646
      ESP Fit Center  171 is at  -3.189767 -1.266000 -2.083646
      ESP Fit Center  172 is at  -2.472357  0.431410 -3.063646
      ESP Fit Center  173 is at  -3.189767 -0.286000 -3.063646
      ESP Fit Center  174 is at  -3.452357 -1.266000 -3.063646
      ESP Fit Center  175 is at   0.205053 -1.266000 -4.043646
      ESP Fit Center  176 is at  -0.119124 -0.268288 -4.043646
      ESP Fit Center  177 is at  -0.967829  0.348333 -4.043646
      ESP Fit Center  178 is at  -2.016885  0.348333 -4.043646
      ESP Fit Center  179 is at  -1.002357 -0.417295 -4.761056
      ESP Fit Center  180 is at   0.363288 -2.892309 -0.501165
      ESP Fit Center  181 is at   0.335591 -3.526661 -1.341165
      ESP Fit Center  182 is at   1.282107 -2.980190 -1.341165
      ESP Fit Center  183 is at   1.655915 -1.953160 -2.379463
      ESP Fit Center  184 is at   0.335591 -3.526661 -2.379463
      ESP Fit Center  185 is at   1.282107 -2.980190 -2.379463
      ESP Fit Center  186 is at   1.045619 -1.953160 -3.219463
      ESP Fit Center  187 is at  -1.537775 -1.902622  0.600043
      ESP Fit Center  188 is at  -0.550296 -1.902622  0.279192
      ESP Fit Center  189 is at  -2.336662 -1.322196  0.279192
      ESP Fit Center  190 is at  -2.336662 -2.483048  0.279192
      ESP Fit Center  191 is at  -1.232627 -2.841771  0.279192
      ESP Fit Center  192 is at  -3.039192 -1.356151 -0.560808
      ESP Fit Center  193 is at  -3.039192 -2.449093 -0.560808
      ESP Fit Center  194 is at  -2.336662 -3.286336 -0.560808
      ESP Fit Center  195 is at  -1.260324 -3.476123 -0.560808
      ESP Fit Center  196 is at  -3.039192 -1.356151 -1.599106
      ESP Fit Center  197 is at  -1.260324 -3.476123 -1.599106
      ESP Fit Center  198 is at  -0.862606  1.835551 -0.236453
      ESP Fit Center  199 is at  -0.350658  2.120098 -1.286453
      ESP Fit Center  200 is at  -1.243099  1.519521  0.170786
      ESP Fit Center  201 is at  -2.347134  1.160798  0.170786
      ESP Fit Center  202 is at  -2.347134 -0.000054  0.170786
      ESP Fit Center  203 is at  -1.270796  2.153873 -0.669214
      ESP Fit Center  204 is at  -2.347134  1.964086 -0.669214
      ESP Fit Center  205 is at  -3.049664  1.126843 -0.669214
      ESP Fit Center  206 is at  -3.049664  0.033901 -0.669214
      ESP Fit Center  207 is at  -1.270796  2.153873 -1.707512
      ESP Fit Center  208 is at  -2.347134  1.964086 -1.707512
      ESP Fit Center  209 is at  -3.049664  1.126843 -1.707512
      ESP Fit Center  210 is at  -3.049664  0.033901 -1.707512
      ESP Fit Center  211 is at  -2.347134  1.160798 -2.547512
      ESP Fit Center  212 is at   1.614706  0.573072 -2.536024
      ESP Fit Center  213 is at   1.240898  1.600102 -2.536024
      ESP Fit Center  214 is at   0.294382  2.146573 -2.536024
      ESP Fit Center  215 is at  -0.781956  1.956786 -2.536024
      ESP Fit Center  216 is at   1.240898 -0.453958 -2.536024
      ESP Fit Center  217 is at   1.004410  0.573072 -3.376024
      ESP Fit Center  218 is at   0.322079  1.512221 -3.376024
      ESP Fit Center  219 is at  -0.781956  1.153498 -3.376024
      ESP Fit Center  220 is at   0.322079 -0.366077 -3.376024
      ESP Fit Center  221 is at   0.016931  0.573072 -3.696875
      ESP Fit Center  222 is at   0.000000  0.000000  1.960000
      ESP Fit Center  223 is at   0.490000  0.848705  1.697410
      ESP Fit Center  224 is at  -0.490000  0.848705  1.697410
      ESP Fit Center  225 is at  -0.980000  0.000000  1.697410
      ESP Fit Center  226 is at  -0.490000 -0.848705  1.697410
      ESP Fit Center  227 is at  -0.524528  1.614333  0.980000
      ESP Fit Center  228 is at  -1.373233  0.997712  0.980000
      ESP Fit Center  229 is at  -1.697410  0.000000  0.980000
      ESP Fit Center  230 is at  -1.373233 -0.997712  0.980000
      ESP Fit Center  231 is at  -0.524528 -1.614333  0.980000
      ESP Fit Center  232 is at  -0.980000  1.697410  0.000000
      ESP Fit Center  233 is at   0.677752 -1.963534  0.000000
      ESP Fit Center  234 is at   1.675549 -2.084689  0.000000
      ESP Fit Center  235 is at   3.281880 -0.975919  0.000000
      ESP Fit Center  236 is at   2.104605 -2.132342 -0.336081
      ESP Fit Center  237 is at   3.051121 -1.585871 -0.336081
      ESP Fit Center  238 is at   3.424929 -0.558841 -1.374379
      ESP Fit Center  239 is at   2.104605 -2.132342 -1.374379
      ESP Fit Center  240 is at   3.051121 -1.585871 -1.374379
      ESP Fit Center  241 is at   2.814633 -0.558841 -2.214379
      ESP Fit Center  242 is at   2.132302  0.380308 -2.214379
      ESP Fit Center  243 is at   2.132302 -1.497990 -2.214379
      ESP Fit Center  244 is at   1.827154 -0.558841 -2.535230
      ESP Fit Center  245 is at   1.729153 -0.524880  2.590879
      ESP Fit Center  246 is at   0.930266  0.055546  2.270028
      ESP Fit Center  247 is at   0.930266 -1.105306  2.270028
      ESP Fit Center  248 is at   2.034301 -1.464029  2.270028
      ESP Fit Center  249 is at   0.930266 -1.908594  1.430028
      ESP Fit Center  250 is at   2.006604 -2.098381  1.430028
      ESP Fit Center  251 is at   2.953120 -1.551910  1.430028
      ESP Fit Center  252 is at   2.006604 -2.098381  0.391730
      ESP Fit Center  253 is at   2.953120 -1.551910  0.391730
      ESP Fit Center  254 is at   2.228240  3.513582  0.000000
      ESP Fit Center  255 is at   0.744339  2.578815  2.188029
      ESP Fit Center  256 is at   0.744339  1.417963  2.188029
      ESP Fit Center  257 is at   1.848374  1.059240  2.188029
      ESP Fit Center  258 is at   1.820677  3.571890  1.348029
      ESP Fit Center  259 is at   0.744339  3.382103  1.348029
      ESP Fit Center  260 is at   0.041809  2.544860  1.348029
      ESP Fit Center  261 is at   0.041809  1.451918  1.348029
      ESP Fit Center  262 is at   1.820677  3.571890  0.309731
      ESP Fit Center  263 is at   0.744339  3.382103  0.309731
      ESP Fit Center  264 is at   0.041809  2.544860  0.309731
      ESP Fit Center  265 is at   1.977448  3.520459 -0.405408
      ESP Fit Center  266 is at   0.901110  3.330672 -0.405408
      ESP Fit Center  267 is at   0.198580  2.493429 -0.405408
      ESP Fit Center  268 is at   1.977448  3.520459 -1.443706
      ESP Fit Center  269 is at   0.901110  3.330672 -1.443706
      ESP Fit Center  270 is at   0.198580  2.493429 -1.443706
      ESP Fit Center  271 is at   2.687476  1.946958 -2.283706
      ESP Fit Center  272 is at   2.005145  2.886107 -2.283706
      ESP Fit Center  273 is at   0.901110  2.527384 -2.283706
      ESP Fit Center  274 is at   2.005145  1.007809 -2.283706
      ESP Fit Center  275 is at   1.699997  1.946958 -2.604557
      ESP Fit Center  276 is at   6.199030  1.492350  0.614563
      ESP Fit Center  277 is at   5.962487  2.528713  0.614563
      ESP Fit Center  278 is at   5.299708  3.359812  0.614563
      ESP Fit Center  279 is at   4.341965  3.821037  0.614563
      ESP Fit Center  280 is at   3.278949  3.821037  0.614563
      ESP Fit Center  281 is at   4.341965 -0.836337  0.614563
      ESP Fit Center  282 is at   5.299708 -0.375112  0.614563
      ESP Fit Center  283 is at   6.199030  1.492350 -0.475789
      ESP Fit Center  284 is at   5.962487  2.528713 -0.475789
      ESP Fit Center  285 is at   5.299708  3.359812 -0.475789
      ESP Fit Center  286 is at   4.341965  3.821037 -0.475789
      ESP Fit Center  287 is at   3.278949  3.821037 -0.475789
      ESP Fit Center  288 is at   4.341965 -0.836337 -0.475789
      ESP Fit Center  289 is at   5.299708 -0.375112 -0.475789
      ESP Fit Center  290 is at   5.962487  0.455987 -0.475789
      ESP Fit Center  291 is at   5.725944  1.492350 -1.458163
      ESP Fit Center  292 is at   5.421867  2.527941 -1.458163
      ESP Fit Center  293 is at   4.606179  3.234738 -1.458163
      ESP Fit Center  294 is at   3.537855  3.388340 -1.458163
      ESP Fit Center  295 is at   3.537855 -0.403640 -1.458163
      ESP Fit Center  296 is at   4.606179 -0.250038 -1.458163
      ESP Fit Center  297 is at   5.421867  0.456759 -1.458163
      ESP Fit Center  298 is at   4.873472  1.492350 -2.137987
      ESP Fit Center  299 is at   4.341965  2.412948 -2.137987
      ESP Fit Center  300 is at   3.278949  2.412948 -2.137987
      ESP Fit Center  301 is at   3.278949  0.571752 -2.137987
      ESP Fit Center  302 is at   4.341965  0.571752 -2.137987
      ESP Fit Center  303 is at   3.810457  1.492350 -2.380613
      ESP Fit Center  304 is at   4.876718 -0.399898  2.920554
      ESP Fit Center  305 is at   2.709006 -0.148177  3.609366
      ESP Fit Center  306 is at   3.813041 -0.506900  3.609366
      ESP Fit Center  307 is at   2.006476  0.978720  2.769366
      ESP Fit Center  308 is at   2.006476 -0.114222  2.769366
      ESP Fit Center  309 is at   2.709006 -0.951465  2.769366
      ESP Fit Center  310 is at   3.785344 -1.141252  2.769366
      ESP Fit Center  311 is at   4.731860 -0.594781  2.769366
      ESP Fit Center  312 is at   3.785344 -1.141252  1.731068
      ESP Fit Center  313 is at   5.470161 -0.007600  3.290806
      ESP Fit Center  314 is at   5.442464 -0.641952  2.450806
      ESP Fit Center  315 is at   6.388980 -0.095481  2.450806
      ESP Fit Center  316 is at   6.762788  0.931549  1.412508
      ESP Fit Center  317 is at   6.388980  1.958579  1.412508
      ESP Fit Center  318 is at   5.442464 -0.641952  1.412508
      ESP Fit Center  319 is at   6.388980 -0.095481  1.412508
      ESP Fit Center  320 is at   6.152492  0.931549  0.572508
      ESP Fit Center  321 is at   2.053285  3.425972  3.990611
      ESP Fit Center  322 is at   2.053285  4.229260  3.150611
      ESP Fit Center  323 is at   1.350755  3.392017  3.150611
      ESP Fit Center  324 is at   1.350755  2.299075  3.150611
      ESP Fit Center  325 is at   2.053285  1.461832  3.150611
      ESP Fit Center  326 is at   3.129623  4.419047  2.112313
      ESP Fit Center  327 is at   2.053285  4.229260  2.112313
      ESP Fit Center  328 is at   1.350755  3.392017  2.112313
      ESP Fit Center  329 is at   4.784964  4.920375  2.830899
      ESP Fit Center  330 is at   3.708626  4.730588  2.830899
      ESP Fit Center  331 is at   6.105288  3.346874  1.792601
      ESP Fit Center  332 is at   5.731480  4.373904  1.792601
      ESP Fit Center  333 is at   4.784964  4.920375  1.792601
      ESP Fit Center  334 is at   3.708626  4.730588  1.792601
      ESP Fit Center  335 is at   5.494992  3.346874  0.952601
      ESP Fit Center  336 is at   4.812661  4.286023  0.952601
      ESP Fit Center  337 is at   3.708626  3.927300  0.952601
      ESP Fit Center  338 is at   4.206322  2.289465  6.944168
      ESP Fit Center  339 is at   4.737830  3.210063  6.701542
      ESP Fit Center  340 is at   3.674814  3.210063  6.701542
      ESP Fit Center  341 is at   3.143307  2.289465  6.701542
      ESP Fit Center  342 is at   3.674814  1.368867  6.701542
      ESP Fit Center  343 is at   4.737830  1.368867  6.701542
      ESP Fit Center  344 is at   3.933720  4.185455  6.021718
      ESP Fit Center  345 is at   2.951945  3.737094  6.021718
      ESP Fit Center  346 is at   2.368426  2.829120  6.021718
      ESP Fit Center  347 is at   2.368426  1.749810  6.021718
      ESP Fit Center  348 is at   2.951945  0.841836  6.021718
      ESP Fit Center  349 is at   3.933720  0.393475  6.021718
      ESP Fit Center  350 is at   5.002044  0.547077  6.021718
      ESP Fit Center  351 is at   3.674814  4.618152  5.039344
      ESP Fit Center  352 is at   2.717071  4.156927  5.039344
      ESP Fit Center  353 is at   2.054292  3.325828  5.039344
      ESP Fit Center  354 is at   1.817749  2.289465  5.039344
      ESP Fit Center  355 is at   2.054292  1.253102  5.039344
      ESP Fit Center  356 is at   2.717071  0.422003  5.039344
      ESP Fit Center  357 is at   3.674814 -0.039222  5.039344
      ESP Fit Center  358 is at   4.737830 -0.039222  5.039344
      ESP Fit Center  359 is at   4.737830  4.618152  3.948992
      ESP Fit Center  360 is at   3.674814  4.618152  3.948992
      ESP Fit Center  361 is at   2.717071  4.156927  3.948992
      ESP Fit Center  362 is at   1.817749  2.289465  3.948992
      ESP Fit Center  363 is at   2.054292  1.253102  3.948992
      ESP Fit Center  364 is at   2.717071  0.422003  3.948992
      ESP Fit Center  365 is at   3.674814 -0.039222  3.948992
      ESP Fit Center  366 is at   4.737830 -0.039222  3.948992
      ESP Fit Center  367 is at   5.523031  3.231130  6.385074
      ESP Fit Center  368 is at   7.907489  1.345884  4.566421
      ESP Fit Center  369 is at   6.738162  0.117175  4.292764
      ESP Fit Center  370 is at   7.684678  0.663646  4.292764
      ESP Fit Center  371 is at   8.058486  1.690676  3.254466
      ESP Fit Center  372 is at   6.738162  0.117175  3.254466
      ESP Fit Center  373 is at   7.684678  0.663646  3.254466
      ESP Fit Center  374 is at   7.448190  1.690676  2.414466
      ESP Fit Center  375 is at   6.765859  2.629825  2.414466
      ESP Fit Center  376 is at   6.765859  0.751527  2.414466
      ESP Fit Center  377 is at   5.503833  2.423890  6.874981
      ESP Fit Center  378 is at   5.503833  1.263038  6.874981
      ESP Fit Center  379 is at   6.607868  0.904315  6.874981
      ESP Fit Center  380 is at   5.503833  0.459750  6.034981
      ESP Fit Center  381 is at   6.580171  0.269963  6.034981
      ESP Fit Center  382 is at   7.526687  0.816434  6.034981
      ESP Fit Center  383 is at   6.580171  0.269963  4.996683
      ESP Fit Center  384 is at   7.526687  0.816434  4.996683
      ESP Fit Center  385 is at   6.884792  5.819536  4.494804
      ESP Fit Center  386 is at   7.156665  2.825520  2.676151
      ESP Fit Center  387 is at   6.618997  5.793397  4.077045
      ESP Fit Center  388 is at   5.542659  5.603610  4.077045
      ESP Fit Center  389 is at   4.840129  4.766367  4.077045
      ESP Fit Center  390 is at   6.618997  5.793397  3.038747
      ESP Fit Center  391 is at   5.542659  5.603610  3.038747
      ESP Fit Center  392 is at   7.329025  4.219896  2.198747
      ESP Fit Center  393 is at   6.646694  5.159045  2.198747
      ESP Fit Center  394 is at   5.542659  4.800322  2.198747
      ESP Fit Center  395 is at   6.646694  3.280747  2.198747
      ESP Fit Center  396 is at   6.341546  4.219896  1.877896
      ESP Fit Center  397 is at   6.248693  4.356691  6.990101
      ESP Fit Center  398 is at   6.553841  5.295840  6.669250
      ESP Fit Center  399 is at   5.449806  4.937117  6.669250
      ESP Fit Center  400 is at   5.449806  3.776265  6.669250
      ESP Fit Center  401 is at   6.526144  5.930192  5.829250
      ESP Fit Center  402 is at   5.449806  5.740405  5.829250
      ESP Fit Center  403 is at   4.747276  4.903162  5.829250
      ESP Fit Center  404 is at   6.526144  5.930192  4.790952
      ESP Fit Center  405 is at   5.449806  5.740405  4.790952
      ESP Fit Center  406 is at   4.747276  4.903162  4.790952
      ESP Fit Center  407 is at   9.964920  5.643603  5.072811
      ESP Fit Center  408 is at   9.007177  6.104828  5.072811
      ESP Fit Center  409 is at   7.944161  6.104828  5.072811
      ESP Fit Center  410 is at   7.944161  1.447454  5.072811
      ESP Fit Center  411 is at   9.007177  1.447454  5.072811
      ESP Fit Center  412 is at   9.964920  1.908679  5.072811
      ESP Fit Center  413 is at  10.627699  2.739778  5.072811
      ESP Fit Center  414 is at  10.864242  3.776141  3.982459
      ESP Fit Center  415 is at  10.627699  4.812504  3.982459
      ESP Fit Center  416 is at   9.964920  5.643603  3.982459
      ESP Fit Center  417 is at   9.007177  6.104828  3.982459
      ESP Fit Center  418 is at   7.944161  6.104828  3.982459
      ESP Fit Center  419 is at   9.007177  1.447454  3.982459
      ESP Fit Center  420 is at   9.964920  1.908679  3.982459
      ESP Fit Center  421 is at  10.627699  2.739778  3.982459
      ESP Fit Center  422 is at  10.391156  3.776141  3.000085
      ESP Fit Center  423 is at  10.087079  4.811732  3.000085
      ESP Fit Center  424 is at   9.271391  5.518529  3.000085
      ESP Fit Center  425 is at   8.203067  5.672131  3.000085
      ESP Fit Center  426 is at   8.203067  1.880151  3.000085
      ESP Fit Center  427 is at   9.271391  2.033753  3.000085
      ESP Fit Center  428 is at  10.087079  2.740550  3.000085
      ESP Fit Center  429 is at   9.538684  3.776141  2.320261
      ESP Fit Center  430 is at   9.007177  4.696739  2.320261
      ESP Fit Center  431 is at   7.944161  4.696739  2.320261
      ESP Fit Center  432 is at   7.412654  3.776141  2.320261
      ESP Fit Center  433 is at   7.944161  2.855543  2.320261
      ESP Fit Center  434 is at   9.007177  2.855543  2.320261
      ESP Fit Center  435 is at   8.475669  3.776141  2.077635
      ESP Fit Center  436 is at   9.357245  5.001916  8.124145
      ESP Fit Center  437 is at  10.887934  4.335572  7.672136
      ESP Fit Center  438 is at  10.205603  5.274721  7.672136
      ESP Fit Center  439 is at  11.498230  4.335572  6.832136
      ESP Fit Center  440 is at  11.124422  5.362602  6.832136
      ESP Fit Center  441 is at  10.177906  5.909073  6.832136
      ESP Fit Center  442 is at  11.124422  3.308542  6.832136
      ESP Fit Center  443 is at  11.498230  4.335572  5.793838
      ESP Fit Center  444 is at  11.124422  5.362602  5.793838
      ESP Fit Center  445 is at  10.177906  5.909073  5.793838
      ESP Fit Center  446 is at  11.124422  3.308542  5.793838
      ESP Fit Center  447 is at  10.887934  4.335572  4.953838
      ESP Fit Center  448 is at   8.297263  5.000076  8.287621
      ESP Fit Center  449 is at   8.602411  5.939225  7.966770
      ESP Fit Center  450 is at   7.498376  5.580502  7.966770
      ESP Fit Center  451 is at   9.521230  6.027106  7.126770
      ESP Fit Center  452 is at   8.574714  6.573577  7.126770
      ESP Fit Center  453 is at   7.498376  6.383790  7.126770
      ESP Fit Center  454 is at   6.795846  5.546547  7.126770
      ESP Fit Center  455 is at   6.795846  4.453605  7.126770
      ESP Fit Center  456 is at   8.574714  6.573577  6.088472
      ESP Fit Center  457 is at   7.498376  6.383790  6.088472
      ESP Fit Center  458 is at   7.353514  4.313771  8.315519
      ESP Fit Center  459 is at   8.285658  1.139183  8.315519
      ESP Fit Center  460 is at  10.074428  1.956087  8.315519
      ESP Fit Center  461 is at  10.644479  2.939325  7.265519
      ESP Fit Center  462 is at   6.674818  3.296958  8.679941
      ESP Fit Center  463 is at   6.674818  2.136106  8.679941
      ESP Fit Center  464 is at   6.674818  4.100246  7.839941
      ESP Fit Center  465 is at   5.972288  3.263003  7.839941
      ESP Fit Center  466 is at   5.972288  2.170061  7.839941
      ESP Fit Center  467 is at   6.674818  1.332818  7.839941
      ESP Fit Center  468 is at   5.972288  3.263003  6.801643
      ESP Fit Center  469 is at   9.372114  1.089602  8.315038
      ESP Fit Center  470 is at  10.664741  2.028751  7.475038
      ESP Fit Center  471 is at   8.268079  0.645037  7.475038
      ESP Fit Center  472 is at   9.344417  0.455250  7.475038
      ESP Fit Center  473 is at  10.290933  1.001721  7.475038
      ESP Fit Center  474 is at  10.664741  2.028751  6.436740
      ESP Fit Center  475 is at   8.268079  0.645037  6.436740
      ESP Fit Center  476 is at   9.344417  0.455250  6.436740
      ESP Fit Center  477 is at  10.290933  1.001721  6.436740
      ESP Fit Center  478 is at  10.054445  2.028751  5.596740
      ESP Fit Center  479 is at   8.268079  1.448325  5.596740
      ESP Fit Center  480 is at   9.372114  1.089602  5.596740
      ESP Fit Center  481 is at   8.877613  3.200736  9.958055
      ESP Fit Center  482 is at   9.865092  3.200736  9.637204
      ESP Fit Center  483 is at   9.182761  4.139885  9.637204
      ESP Fit Center  484 is at   8.078726  3.781162  9.637204
      ESP Fit Center  485 is at   8.078726  2.620310  9.637204
      ESP Fit Center  486 is at   9.182761  2.261587  9.637204
      ESP Fit Center  487 is at  10.475388  3.200736  8.797204
      ESP Fit Center  488 is at  10.101580  4.227766  8.797204
      ESP Fit Center  489 is at   9.155064  4.774237  8.797204
      ESP Fit Center  490 is at   8.078726  4.584450  8.797204
      ESP Fit Center  491 is at   9.155064  1.627235  8.797204
      ESP Fit Center  492 is at  10.101580  2.173706  8.797204
      ESP Fit Center  493 is at  -0.909454 -6.264395 -5.619143
      ESP Fit Center  494 is at  -4.827805 -5.249939 -6.581469
      ESP Fit Center  495 is at  -3.946836 -7.079289 -7.649569
      ESP Fit Center  496 is at  -3.008638 -7.531102 -7.649569
      ESP Fit Center  497 is at  -3.716756 -6.668024 -8.611895
      ESP Fit Center  498 is at  -1.967318 -4.348129 -9.277844
      ESP Fit Center  499 is at  -3.008638 -6.151749 -9.277844
      ESP Fit Center  500 is at  -2.487978 -5.249939 -9.515519
      ESP Fit Center  501 is at  -0.076001 -5.756070 -6.774257
      ESP Fit Center  502 is at  -1.224946 -7.337457 -6.774257
      ESP Fit Center  503 is at  -0.393562 -6.733421 -6.774257
      ESP Fit Center  504 is at   0.181230 -5.756070 -7.734257
      ESP Fit Center  505 is at  -1.738770 -7.676070 -7.734257
      ESP Fit Center  506 is at  -0.778770 -7.418839 -7.734257
      ESP Fit Center  507 is at  -0.076001 -6.716070 -7.734257
      ESP Fit Center  508 is at  -0.076001 -5.756070 -8.694257
      ESP Fit Center  509 is at  -0.393562 -4.778719 -8.694257
      ESP Fit Center  510 is at  -2.252594 -7.337457 -8.694257
      ESP Fit Center  511 is at  -1.224946 -7.337457 -8.694257
      ESP Fit Center  512 is at  -0.393562 -6.733421 -8.694257
      ESP Fit Center  513 is at  -0.778770 -5.756070 -9.397026
      ESP Fit Center  514 is at  -1.258770 -4.924686 -9.397026
      ESP Fit Center  515 is at  -2.218770 -6.587454 -9.397026
      ESP Fit Center  516 is at  -1.258770 -6.587454 -9.397026
      ESP Fit Center  517 is at  -1.738770 -5.756070 -9.654257
      ESP Fit Center  518 is at  -2.868188 -5.962990 -4.456879
      ESP Fit Center  519 is at  -1.908188 -5.962990 -4.714110
      ESP Fit Center  520 is at  -3.828188 -5.962990 -4.714110
      ESP Fit Center  521 is at  -3.348188 -6.794374 -4.714110
      ESP Fit Center  522 is at  -2.388188 -6.794374 -4.714110
      ESP Fit Center  523 is at  -4.530957 -5.962990 -5.416879
      ESP Fit Center  524 is at  -4.213396 -6.940341 -5.416879
      ESP Fit Center  525 is at  -3.382012 -7.544377 -5.416879
      ESP Fit Center  526 is at  -2.354364 -7.544377 -5.416879
      ESP Fit Center  527 is at  -1.522980 -6.940341 -5.416879
      ESP Fit Center  528 is at  -4.788188 -5.962990 -6.376879
      ESP Fit Center  529 is at  -4.530957 -6.922990 -6.376879
      ESP Fit Center  530 is at  -3.828188 -7.625759 -6.376879
      ESP Fit Center  531 is at  -2.868188 -7.882990 -6.376879
      ESP Fit Center  532 is at  -1.908188 -7.625759 -6.376879
      ESP Fit Center  533 is at  -4.213396 -6.940341 -7.336879
      ESP Fit Center  534 is at  -3.382012 -7.544377 -7.336879
      ESP Fit Center  535 is at  -4.984020 -4.943638 -6.795987
      ESP Fit Center  536 is at  -4.281251 -3.280869 -7.755987
      ESP Fit Center  537 is at  -4.984020 -3.983638 -7.755987
      ESP Fit Center  538 is at  -5.241251 -4.943638 -7.755987
      ESP Fit Center  539 is at  -4.984020 -5.903638 -7.755987
      ESP Fit Center  540 is at  -2.807427 -3.362251 -8.715987
      ESP Fit Center  541 is at  -3.835075 -3.362251 -8.715987
      ESP Fit Center  542 is at  -4.666459 -3.966287 -8.715987
      ESP Fit Center  543 is at  -4.984020 -4.943638 -8.715987
      ESP Fit Center  544 is at  -4.666459 -5.920989 -8.715987
      ESP Fit Center  545 is at  -3.835075 -6.525025 -8.715987
      ESP Fit Center  546 is at  -2.841251 -4.112254 -9.418756
      ESP Fit Center  547 is at  -3.801251 -4.112254 -9.418756
      ESP Fit Center  548 is at  -4.281251 -4.943638 -9.418756
      ESP Fit Center  549 is at  -3.801251 -5.775022 -9.418756
      ESP Fit Center  550 is at  -3.321251 -4.943638 -9.675987
      ESP Fit Center  551 is at  -3.106459 -2.623306 -7.921212
      ESP Fit Center  552 is at  -1.510366 -5.183435 -4.129958
      ESP Fit Center  553 is at  -0.550366 -5.183435 -4.129958
      ESP Fit Center  554 is at   0.632403 -4.352051 -4.832727
      ESP Fit Center  555 is at  -1.544190 -5.933438 -4.832727
      ESP Fit Center  556 is at  -0.516542 -5.933438 -4.832727
      ESP Fit Center  557 is at   0.314842 -5.329402 -4.832727
      ESP Fit Center  558 is at   0.889634 -4.352051 -5.792727
      ESP Fit Center  559 is at   0.632403 -3.392051 -5.792727
      ESP Fit Center  560 is at  -0.070366 -6.014820 -5.792727
      ESP Fit Center  561 is at   0.632403 -5.312051 -5.792727
      ESP Fit Center  562 is at   0.632403 -4.352051 -6.752727
      ESP Fit Center  563 is at   0.314842 -5.329402 -6.752727
      ESP Fit Center  564 is at   0.436136 -3.327588 -7.167731
      ESP Fit Center  565 is at   0.178905 -2.367588 -7.167731
      ESP Fit Center  566 is at  -0.523864 -1.664819 -7.167731
      ESP Fit Center  567 is at   0.178905 -3.327588 -8.127731
      ESP Fit Center  568 is at  -0.138656 -2.350237 -8.127731
      ESP Fit Center  569 is at  -0.970040 -1.746201 -8.127731
      ESP Fit Center  570 is at  -1.997688 -1.746201 -8.127731
      ESP Fit Center  571 is at  -2.829072 -2.350237 -8.127731
      ESP Fit Center  572 is at  -0.138656 -4.304939 -8.127731
      ESP Fit Center  573 is at  -0.523864 -3.327588 -8.830500
      ESP Fit Center  574 is at  -1.003864 -2.496204 -8.830500
      ESP Fit Center  575 is at  -1.963864 -2.496204 -8.830500
      ESP Fit Center  576 is at  -2.443864 -3.327588 -8.830500
      ESP Fit Center  577 is at  -1.003864 -4.158972 -8.830500
      ESP Fit Center  578 is at  -1.483864 -3.327588 -9.087731
      ESP Fit Center  579 is at  -4.644206 -3.417349 -4.252676
      ESP Fit Center  580 is at  -4.309737 -4.446739 -4.252676
      ESP Fit Center  581 is at  -3.434085 -5.082937 -4.252676
      ESP Fit Center  582 is at  -2.351721 -5.082937 -4.252676
      ESP Fit Center  583 is at  -5.013283 -2.894722 -5.150846
      ESP Fit Center  584 is at  -5.013283 -3.939976 -5.150846
      ESP Fit Center  585 is at  -4.527530 -4.865502 -5.150846
      ESP Fit Center  586 is at  -5.013283 -2.894722 -6.147740
      ESP Fit Center  587 is at  -5.013283 -3.939976 -6.147740
      ESP Fit Center  588 is at  -4.309737 -2.387959 -7.045910
      ESP Fit Center  589 is at  -4.644206 -3.417349 -7.045910
      ESP Fit Center  590 is at  -3.378853 -2.575659 -7.667463
      ESP Fit Center  591 is at  -3.011394 -1.327305 -7.154266
      ESP Fit Center  592 is at  -3.876640 -0.807058 -3.157572
      ESP Fit Center  593 is at  -4.356640 -1.638442 -3.157572
      ESP Fit Center  594 is at  -3.910464 -0.057055 -3.860341
      ESP Fit Center  595 is at  -4.741848 -0.661091 -3.860341
      ESP Fit Center  596 is at  -5.059409 -1.638442 -3.860341
      ESP Fit Center  597 is at  -4.741848 -2.615793 -3.860341
      ESP Fit Center  598 is at  -3.396640  0.281558 -4.820341
      ESP Fit Center  599 is at  -4.356640  0.024327 -4.820341
      ESP Fit Center  600 is at  -5.059409 -0.678442 -4.820341
      ESP Fit Center  601 is at  -5.316640 -1.638442 -4.820341
      ESP Fit Center  602 is at  -5.059409 -2.598442 -4.820341
      ESP Fit Center  603 is at  -3.910464 -0.057055 -5.780341
      ESP Fit Center  604 is at  -4.741848 -0.661091 -5.780341
      ESP Fit Center  605 is at  -5.059409 -1.638442 -5.780341
      ESP Fit Center  606 is at  -3.876640 -0.807058 -6.483110
      ESP Fit Center  607 is at  -4.356640 -1.638442 -6.483110
      ESP Fit Center  608 is at   0.106022 -1.631682 -5.621997
      ESP Fit Center  609 is at  -0.151209 -0.671682 -5.621997
      ESP Fit Center  610 is at  -0.853978  0.031087 -5.621997
      ESP Fit Center  611 is at  -1.813978  0.288318 -5.621997
      ESP Fit Center  612 is at  -0.151209 -1.631682 -6.581997
      ESP Fit Center  613 is at  -0.468770 -0.654331 -6.581997
      ESP Fit Center  614 is at  -1.300154 -0.050295 -6.581997
      ESP Fit Center  615 is at  -2.327802 -0.050295 -6.581997
      ESP Fit Center  616 is at  -1.333978 -0.800298 -7.284766
      ESP Fit Center  617 is at  -2.293978 -0.800298 -7.284766
      ESP Fit Center  618 is at  -1.041933 -4.220515 -2.150174
      ESP Fit Center  619 is at  -3.473568 -3.081009 -1.341216
      ESP Fit Center  620 is at  -2.993568 -3.912393 -1.341216
      ESP Fit Center  621 is at  -2.033568 -3.912393 -1.341216
      ESP Fit Center  622 is at  -3.858776 -2.103658 -2.043985
      ESP Fit Center  623 is at  -4.176337 -3.081009 -2.043985
      ESP Fit Center  624 is at  -3.858776 -4.058360 -2.043985
      ESP Fit Center  625 is at  -3.027392 -4.662396 -2.043985
      ESP Fit Center  626 is at  -1.999744 -4.662396 -2.043985
      ESP Fit Center  627 is at  -4.176337 -2.121009 -3.003985
      ESP Fit Center  628 is at  -4.433568 -3.081009 -3.003985
      ESP Fit Center  629 is at  -4.176337 -4.041009 -3.003985
      ESP Fit Center  630 is at  -3.473568 -4.743778 -3.003985
      ESP Fit Center  631 is at  -2.513568 -5.001009 -3.003985
      ESP Fit Center  632 is at  -0.435074 -3.958895 -2.117268
      ESP Fit Center  633 is at  -0.401250 -4.708898 -2.820037
      ESP Fit Center  634 is at   0.430134 -4.104862 -2.820037
      ESP Fit Center  635 is at   1.004926 -3.127511 -3.780037
      ESP Fit Center  636 is at   0.747695 -2.167511 -3.780037
      ESP Fit Center  637 is at  -0.915074 -5.047511 -3.780037
      ESP Fit Center  638 is at   0.044926 -4.790280 -3.780037
      ESP Fit Center  639 is at   0.747695 -4.087511 -3.780037
      ESP Fit Center  640 is at   0.747695 -3.127511 -4.740037
      ESP Fit Center  641 is at   0.430134 -2.150160 -4.740037
      ESP Fit Center  642 is at  -3.126984  0.182153 -2.565199
      ESP Fit Center  643 is at  -3.612737 -0.743373 -2.565199
      ESP Fit Center  644 is at  -1.229124  0.901916 -3.562093
      ESP Fit Center  645 is at  -2.266757  0.775924 -3.562093
      ESP Fit Center  646 is at  -3.126984  0.182153 -3.562093
      ESP Fit Center  647 is at   0.258946 -1.266000 -4.460263
      ESP Fit Center  648 is at  -0.075523 -0.236610 -4.460263
      ESP Fit Center  649 is at  -0.951175  0.399588 -4.460263
      ESP Fit Center  650 is at  -2.033539  0.399588 -4.460263
      ESP Fit Center  651 is at  -0.102150 -3.085385 -0.296781
      ESP Fit Center  652 is at   0.538140 -2.784544 -0.197545
      ESP Fit Center  653 is at   0.571964 -3.534547 -0.900314
      ESP Fit Center  654 is at   1.403348 -2.930511 -0.900314
      ESP Fit Center  655 is at   0.058140 -3.873160 -1.860314
      ESP Fit Center  656 is at   1.018140 -3.615929 -1.860314
      ESP Fit Center  657 is at   1.720909 -2.913160 -1.860314
      ESP Fit Center  658 is at   1.720909 -1.953160 -2.820314
      ESP Fit Center  659 is at   1.403348 -0.975809 -2.820314
      ESP Fit Center  660 is at   1.403348 -2.930511 -2.820314
      ESP Fit Center  661 is at   1.018140 -1.953160 -3.523083
      ESP Fit Center  662 is at  -1.537775 -1.902622  0.840043
      ESP Fit Center  663 is at  -2.017775 -1.071238  0.582812
      ESP Fit Center  664 is at  -2.497775 -1.902622  0.582812
      ESP Fit Center  665 is at  -2.017775 -2.734006  0.582812
      ESP Fit Center  666 is at  -1.057775 -2.734006  0.582812
      ESP Fit Center  667 is at  -2.882983 -0.925271 -0.119957
      ESP Fit Center  668 is at  -3.200544 -1.902622 -0.119957
      ESP Fit Center  669 is at  -2.882983 -2.879973 -0.119957
      ESP Fit Center  670 is at  -2.051599 -3.484009 -0.119957
      ESP Fit Center  671 is at  -1.023951 -3.484009 -0.119957
      ESP Fit Center  672 is at  -3.200544 -0.942622 -1.079957
      ESP Fit Center  673 is at  -3.457775 -1.902622 -1.079957
      ESP Fit Center  674 is at  -3.200544 -2.862622 -1.079957
      ESP Fit Center  675 is at  -2.497775 -3.565391 -1.079957
      ESP Fit Center  676 is at  -1.537775 -3.822622 -1.079957
      ESP Fit Center  677 is at  -2.404173 -0.493233  0.209923
      ESP Fit Center  678 is at  -2.028247  1.411756  0.474406
      ESP Fit Center  679 is at  -2.508247  0.580372  0.474406
      ESP Fit Center  680 is at  -1.034423  2.161759 -0.228363
      ESP Fit Center  681 is at  -2.062071  2.161759 -0.228363
      ESP Fit Center  682 is at  -2.893455  1.557723 -0.228363
      ESP Fit Center  683 is at  -3.211016  0.580372 -0.228363
      ESP Fit Center  684 is at  -2.893455 -0.396979 -0.228363
      ESP Fit Center  685 is at  -1.548247  2.500372 -1.188363
      ESP Fit Center  686 is at  -2.508247  2.243141 -1.188363
      ESP Fit Center  687 is at  -3.211016  1.540372 -1.188363
      ESP Fit Center  688 is at  -3.468247  0.580372 -1.188363
      ESP Fit Center  689 is at  -3.211016 -0.379628 -1.188363
      ESP Fit Center  690 is at  -2.062071  2.161759 -2.148363
      ESP Fit Center  691 is at  -2.893455  1.557723 -2.148363
      ESP Fit Center  692 is at  -3.211016  0.580372 -2.148363
      ESP Fit Center  693 is at  -2.028247  1.411756 -2.851132
      ESP Fit Center  694 is at   0.016931  2.493072 -2.016875
      ESP Fit Center  695 is at   1.679700  0.573072 -2.976875
      ESP Fit Center  696 is at   1.362139  1.550423 -2.976875
      ESP Fit Center  697 is at   0.530755  2.154459 -2.976875
      ESP Fit Center  698 is at  -0.496893  2.154459 -2.976875
      ESP Fit Center  699 is at   1.362139 -0.404279 -2.976875
      ESP Fit Center  700 is at   0.976931  0.573072 -3.679644
      ESP Fit Center  701 is at   0.496931  1.404456 -3.679644
      ESP Fit Center  702 is at  -0.463069  1.404456 -3.679644
      ESP Fit Center  703 is at   0.496931 -0.258312 -3.679644
      ESP Fit Center  704 is at   0.016931  0.573072 -3.936875
      ESP Fit Center  705 is at   0.000000  0.000000  2.240000
      ESP Fit Center  706 is at  -0.485950  0.841690  2.018170
      ESP Fit Center  707 is at  -0.971900  0.000000  2.018170
      ESP Fit Center  708 is at  -0.485950 -0.841690  2.018170
      ESP Fit Center  709 is at  -0.541182  1.665588  1.396617
      ESP Fit Center  710 is at  -1.416834  1.029390  1.396617
      ESP Fit Center  711 is at  -1.751303  0.000000  1.396617
      ESP Fit Center  712 is at  -1.416834 -1.029390  1.396617
      ESP Fit Center  713 is at  -0.541182 -1.665588  1.396617
      ESP Fit Center  714 is at  -0.774400  2.041924  0.498447
      ESP Fit Center  715 is at  -2.120380 -0.522627  0.498447
      ESP Fit Center  716 is at   0.263233 -2.167916  0.498447
      ESP Fit Center  717 is at   0.901762 -2.281163  0.534050
      ESP Fit Center  718 is at   1.827154 -2.478841 -0.855230
      ESP Fit Center  719 is at   2.787154 -2.221610 -0.855230
      ESP Fit Center  720 is at   3.489923 -1.518841 -0.855230
      ESP Fit Center  721 is at   3.489923 -0.558841 -1.815230
      ESP Fit Center  722 is at   2.340978 -2.140228 -1.815230
      ESP Fit Center  723 is at   3.172362 -1.536192 -1.815230
      ESP Fit Center  724 is at   2.787154 -0.558841 -2.517999
      ESP Fit Center  725 is at   2.307154  0.272543 -2.517999
      ESP Fit Center  726 is at   2.307154 -1.390225 -2.517999
      ESP Fit Center  727 is at   1.827154 -0.558841 -2.775230
      ESP Fit Center  728 is at   1.729153 -0.524880  2.830879
      ESP Fit Center  729 is at   1.249153  0.306504  2.573648
      ESP Fit Center  730 is at   0.769153 -0.524880  2.573648
      ESP Fit Center  731 is at   1.249153 -1.356264  2.573648
      ESP Fit Center  732 is at   2.209153 -1.356264  2.573648
      ESP Fit Center  733 is at   0.383945 -1.502231  1.870879
      ESP Fit Center  734 is at   1.215329 -2.106267  1.870879
      ESP Fit Center  735 is at   2.242977 -2.106267  1.870879
      ESP Fit Center  736 is at   3.074361 -1.502231  1.870879
      ESP Fit Center  737 is at   0.769153 -2.187649  0.910879
      ESP Fit Center  738 is at   1.729153 -2.444880  0.910879
      ESP Fit Center  739 is at   2.689153 -2.187649  0.910879
      ESP Fit Center  740 is at   3.391922 -1.484880  0.910879
      ESP Fit Center  741 is at  -0.132998  2.444106 -0.534050
      ESP Fit Center  742 is at   0.583226  1.998389  2.491649
      ESP Fit Center  743 is at   1.063226  1.167005  2.491649
      ESP Fit Center  744 is at   1.029402  3.579776  1.788880
      ESP Fit Center  745 is at   0.198018  2.975740  1.788880
      ESP Fit Center  746 is at  -0.119543  1.998389  1.788880
      ESP Fit Center  747 is at   1.543226  3.918389  0.828880
      ESP Fit Center  748 is at   0.583226  3.661158  0.828880
      ESP Fit Center  749 is at  -0.119543  2.958389  0.828880
      ESP Fit Center  750 is at   1.699997  3.866958 -0.924557
      ESP Fit Center  751 is at   0.739997  3.609727 -0.924557
      ESP Fit Center  752 is at   0.037228  2.906958 -0.924557
      ESP Fit Center  753 is at   2.213821  3.528345 -1.884557
      ESP Fit Center  754 is at   1.186173  3.528345 -1.884557
      ESP Fit Center  755 is at   0.354789  2.924309 -1.884557
      ESP Fit Center  756 is at   2.659997  1.946958 -2.587326
      ESP Fit Center  757 is at   2.179997  2.778342 -2.587326
      ESP Fit Center  758 is at   1.219997  2.778342 -2.587326
      ESP Fit Center  759 is at   2.179997  1.115574 -2.587326
      ESP Fit Center  760 is at   1.699997  1.946958 -2.844557
      ESP Fit Center  761 is at   6.173674  2.544522  1.140901
      ESP Fit Center  762 is at   6.610457  1.492350  0.069387
      ESP Fit Center  763 is at   6.421379  2.503827  0.069387
      ESP Fit Center  764 is at   5.879682  3.378698  0.069387
      ESP Fit Center  765 is at   5.058524  3.998807  0.069387
      ESP Fit Center  766 is at   4.068808  4.280406  0.069387
      ESP Fit Center  767 is at   3.044201  4.185462  0.069387
      ESP Fit Center  768 is at   4.068808 -1.295706  0.069387
      ESP Fit Center  769 is at   5.058524 -1.014107  0.069387
      ESP Fit Center  770 is at   5.879682 -0.393998  0.069387
      ESP Fit Center  771 is at   6.421379  0.480873  0.069387
      ESP Fit Center  772 is at   6.397320  1.492350 -1.002127
      ESP Fit Center  773 is at   6.173674  2.544522 -1.002127
      ESP Fit Center  774 is at   5.541406  3.414764 -1.002127
      ESP Fit Center  775 is at   4.609842  3.952603 -1.002127
      ESP Fit Center  776 is at   3.540056  4.065042 -1.002127
      ESP Fit Center  777 is at   2.517026  3.732639 -1.002127
      ESP Fit Center  778 is at   4.609842 -0.967903 -1.002127
      ESP Fit Center  779 is at   5.541406 -0.430064 -1.002127
      ESP Fit Center  780 is at   6.173674  0.440178 -1.002127
      ESP Fit Center  781 is at   5.790356  1.492350 -1.910512
      ESP Fit Center  782 is at   5.525100  2.482299 -1.910512
      ESP Fit Center  783 is at   4.800406  3.206993 -1.910512
      ESP Fit Center  784 is at   3.810457  3.472249 -1.910512
      ESP Fit Center  785 is at   2.820508  3.206993 -1.910512
      ESP Fit Center  786 is at   3.810457 -0.487549 -1.910512
      ESP Fit Center  787 is at   4.800406 -0.222293 -1.910512
      ESP Fit Center  788 is at   5.525100  0.502401 -1.910512
      ESP Fit Center  789 is at   4.881971  1.492350 -2.517476
      ESP Fit Center  790 is at   4.346214  2.420308 -2.517476
      ESP Fit Center  791 is at   3.274700  2.420308 -2.517476
      ESP Fit Center  792 is at   2.738943  1.492350 -2.517476
      ESP Fit Center  793 is at   3.274700  0.564392 -2.517476
      ESP Fit Center  794 is at   4.346214  0.564392 -2.517476
      ESP Fit Center  795 is at   3.810457  1.492350 -2.730613
      ESP Fit Center  796 is at   4.900705 -0.452422  3.366930
      ESP Fit Center  797 is at   4.641882 -1.026756  1.336504
      ESP Fit Center  798 is at   3.027893 -0.399135  3.912986
      ESP Fit Center  799 is at   1.845124  0.432249  3.210217
      ESP Fit Center  800 is at   2.162685 -0.545102  3.210217
      ESP Fit Center  801 is at   2.994069 -1.149138  3.210217
      ESP Fit Center  802 is at   4.021717 -1.149138  3.210217
      ESP Fit Center  803 is at   3.507893 -1.487751  2.250217
      ESP Fit Center  804 is at   4.467893 -1.230520  2.250217
      ESP Fit Center  805 is at   4.021717 -1.149138  1.290217
      ESP Fit Center  806 is at   5.678837 -0.649838  2.891657
      ESP Fit Center  807 is at   6.510221 -0.045802  2.891657
      ESP Fit Center  808 is at   7.085013  0.931549  1.931657
      ESP Fit Center  809 is at   5.165013 -0.988451  1.931657
      ESP Fit Center  810 is at   6.125013 -0.731220  1.931657
      ESP Fit Center  811 is at   6.827782 -0.028451  1.931657
      ESP Fit Center  812 is at   6.827782  0.931549  0.971657
      ESP Fit Center  813 is at   6.510221  1.908900  0.971657
      ESP Fit Center  814 is at   5.678837 -0.649838  0.971657
      ESP Fit Center  815 is at   6.510221 -0.045802  0.971657
      ESP Fit Center  816 is at   3.375599  4.804908  3.227381
      ESP Fit Center  817 is at   2.338348  4.426933  3.591462
      ESP Fit Center  818 is at   1.506964  3.822897  3.591462
      ESP Fit Center  819 is at   1.189403  2.845546  3.591462
      ESP Fit Center  820 is at   1.506964  1.868195  3.591462
      ESP Fit Center  821 is at   2.852172  4.765546  2.631462
      ESP Fit Center  822 is at   1.892172  4.508315  2.631462
      ESP Fit Center  823 is at   1.189403  3.805546  2.631462
      ESP Fit Center  824 is at   0.932172  2.845546  2.631462
      ESP Fit Center  825 is at   2.338348  4.426933  1.671462
      ESP Fit Center  826 is at   1.506964  3.822897  1.671462
      ESP Fit Center  827 is at   3.993689  4.928261  3.271750
      ESP Fit Center  828 is at   4.507513  5.266874  2.311750
      ESP Fit Center  829 is at   3.547513  5.009643  2.311750
      ESP Fit Center  830 is at   6.170282  3.346874  1.351750
      ESP Fit Center  831 is at   5.852721  4.324225  1.351750
      ESP Fit Center  832 is at   5.021337  4.928261  1.351750
      ESP Fit Center  833 is at   3.993689  4.928261  1.351750
      ESP Fit Center  834 is at   4.987513  4.178258  0.648981
      ESP Fit Center  835 is at   4.206322  2.289465  7.294168
      ESP Fit Center  836 is at   5.277836  2.289465  7.081031
      ESP Fit Center  837 is at   4.742079  3.217423  7.081031
      ESP Fit Center  838 is at   3.670565  3.217423  7.081031
      ESP Fit Center  839 is at   3.134808  2.289465  7.081031
      ESP Fit Center  840 is at   3.670565  1.361507  7.081031
      ESP Fit Center  841 is at   4.742079  1.361507  7.081031
      ESP Fit Center  842 is at   4.206322  4.269364  6.474067
      ESP Fit Center  843 is at   3.216373  4.004108  6.474067
      ESP Fit Center  844 is at   2.491679  3.279414  6.474067
      ESP Fit Center  845 is at   2.226423  2.289465  6.474067
      ESP Fit Center  846 is at   2.491679  1.299516  6.474067
      ESP Fit Center  847 is at   3.216373  0.574822  6.474067
      ESP Fit Center  848 is at   4.206322  0.309566  6.474067
      ESP Fit Center  849 is at   5.196271  0.574822  6.474067
      ESP Fit Center  850 is at   3.935921  4.862157  5.565682
      ESP Fit Center  851 is at   2.912891  4.529754  5.565682
      ESP Fit Center  852 is at   2.113506  3.809985  5.565682
      ESP Fit Center  853 is at   1.675988  2.827304  5.565682
      ESP Fit Center  854 is at   1.675988  1.751626  5.565682
      ESP Fit Center  855 is at   2.113506  0.768945  5.565682
      ESP Fit Center  856 is at   2.912891  0.049176  5.565682
      ESP Fit Center  857 is at   3.935921 -0.283227  5.565682
      ESP Fit Center  858 is at   5.005707 -0.170788  5.565682
      ESP Fit Center  859 is at   4.464673  5.077521  4.494168
      ESP Fit Center  860 is at   3.440066  4.982577  4.494168
      ESP Fit Center  861 is at   2.518945  4.523913  4.494168
      ESP Fit Center  862 is at   1.825714  3.763475  4.494168
      ESP Fit Center  863 is at   1.453997  2.803964  4.494168
      ESP Fit Center  864 is at   1.453997  1.774966  4.494168
      ESP Fit Center  865 is at   1.825714  0.815455  4.494168
      ESP Fit Center  866 is at   2.518945  0.055017  4.494168
      ESP Fit Center  867 is at   3.440066 -0.403647  4.494168
      ESP Fit Center  868 is at   4.464673 -0.498591  4.494168
      ESP Fit Center  869 is at   5.454389 -0.216992  4.494168
      ESP Fit Center  870 is at   3.935921  4.862157  3.422654
      ESP Fit Center  871 is at   6.974535  0.109289  4.733615
      ESP Fit Center  872 is at   6.460711 -0.229324  3.773615
      ESP Fit Center  873 is at   7.420711  0.027907  3.773615
      ESP Fit Center  874 is at   8.123480  0.730676  3.773615
      ESP Fit Center  875 is at   6.974535  0.109289  2.813615
      ESP Fit Center  876 is at   7.805919  0.713325  2.813615
      ESP Fit Center  877 is at   7.420711  1.690676  2.110846
      ESP Fit Center  878 is at   6.940711  2.522060  2.110846
      ESP Fit Center  879 is at   5.342720  1.843464  7.178601
      ESP Fit Center  880 is at   5.822720  1.012080  7.178601
      ESP Fit Center  881 is at   5.788896  0.262077  6.475832
      ESP Fit Center  882 is at   6.816544  0.262077  6.475832
      ESP Fit Center  883 is at   6.302720 -0.076536  5.515832
      ESP Fit Center  884 is at   7.262720  0.180695  5.515832
      ESP Fit Center  885 is at   7.965489  0.883464  5.515832
      ESP Fit Center  886 is at   6.341546  6.139896  3.557896
      ESP Fit Center  887 is at   5.381546  5.882665  3.557896
      ESP Fit Center  888 is at   4.678777  5.179896  3.557896
      ESP Fit Center  889 is at   6.855370  5.801283  2.597896
      ESP Fit Center  890 is at   5.827722  5.801283  2.597896
      ESP Fit Center  891 is at   4.996338  5.197247  2.597896
      ESP Fit Center  892 is at   7.301546  4.219896  1.895127
      ESP Fit Center  893 is at   6.821546  5.051280  1.895127
      ESP Fit Center  894 is at   5.861546  5.051280  1.895127
      ESP Fit Center  895 is at   6.821546  3.388512  1.895127
      ESP Fit Center  896 is at   6.341546  4.219896  1.637896
      ESP Fit Center  897 is at   6.248693  4.356691  7.230101
      ESP Fit Center  898 is at   5.768693  5.188075  6.972870
      ESP Fit Center  899 is at   5.288693  4.356691  6.972870
      ESP Fit Center  900 is at   5.734869  5.938078  6.270101
      ESP Fit Center  901 is at   4.903485  5.334042  6.270101
      ESP Fit Center  902 is at   6.248693  6.276691  5.310101
      ESP Fit Center  903 is at   5.288693  6.019460  5.310101
      ESP Fit Center  904 is at   4.585924  5.316691  5.310101
      ESP Fit Center  905 is at  10.838886  2.723969  5.599149
      ESP Fit Center  906 is at  11.275669  3.776141  4.527635
      ESP Fit Center  907 is at  11.086591  4.787618  4.527635
      ESP Fit Center  908 is at  10.544894  5.662489  4.527635
      ESP Fit Center  909 is at   9.723736  6.282598  4.527635
      ESP Fit Center  910 is at   8.734020  6.564197  4.527635
      ESP Fit Center  911 is at   7.709413  6.469253  4.527635
      ESP Fit Center  912 is at   8.734020  0.988085  4.527635
      ESP Fit Center  913 is at   9.723736  1.269684  4.527635
      ESP Fit Center  914 is at  10.544894  1.889793  4.527635
      ESP Fit Center  915 is at  11.086591  2.764664  4.527635
      ESP Fit Center  916 is at  11.062532  3.776141  3.456121
      ESP Fit Center  917 is at  10.838886  4.828313  3.456121
      ESP Fit Center  918 is at  10.206618  5.698555  3.456121
      ESP Fit Center  919 is at   9.275054  6.236394  3.456121
      ESP Fit Center  920 is at   8.205268  6.348833  3.456121
      ESP Fit Center  921 is at   7.182238  6.016430  3.456121
      ESP Fit Center  922 is at   9.275054  1.315888  3.456121
      ESP Fit Center  923 is at  10.206618  1.853727  3.456121
      ESP Fit Center  924 is at  10.838886  2.723969  3.456121
      ESP Fit Center  925 is at  10.455568  3.776141  2.547736
      ESP Fit Center  926 is at  10.190312  4.766090  2.547736
      ESP Fit Center  927 is at   9.465618  5.490784  2.547736
      ESP Fit Center  928 is at   8.475669  5.756040  2.547736
      ESP Fit Center  929 is at   7.485720  5.490784  2.547736
      ESP Fit Center  930 is at   8.475669  1.796242  2.547736
      ESP Fit Center  931 is at   9.465618  2.061498  2.547736
      ESP Fit Center  932 is at  10.190312  2.786192  2.547736
      ESP Fit Center  933 is at   9.547183  3.776141  1.940772
      ESP Fit Center  934 is at   9.011426  4.704099  1.940772
      ESP Fit Center  935 is at   7.939912  4.704099  1.940772
      ESP Fit Center  936 is at   7.404155  3.776141  1.940772
      ESP Fit Center  937 is at   7.939912  2.848183  1.940772
      ESP Fit Center  938 is at   9.011426  2.848183  1.940772
      ESP Fit Center  939 is at   8.475669  3.776141  1.727635
      ESP Fit Center  940 is at   9.611728  5.799418  7.801868
      ESP Fit Center  941 is at   9.352905  6.373752  5.771442
      ESP Fit Center  942 is at  10.860455  4.335572  7.975756
      ESP Fit Center  943 is at  10.380455  5.166956  7.975756
      ESP Fit Center  944 is at  11.563224  4.335572  7.272987
      ESP Fit Center  945 is at  11.245663  5.312923  7.272987
      ESP Fit Center  946 is at  10.414279  5.916959  7.272987
      ESP Fit Center  947 is at  11.245663  3.358221  7.272987
      ESP Fit Center  948 is at  11.820455  4.335572  6.312987
      ESP Fit Center  949 is at  11.563224  5.295572  6.312987
      ESP Fit Center  950 is at  10.860455  5.998341  6.312987
      ESP Fit Center  951 is at   9.900455  6.255572  6.312987
      ESP Fit Center  952 is at  10.860455  2.672803  6.312987
      ESP Fit Center  953 is at  11.563224  3.375572  6.312987
      ESP Fit Center  954 is at  11.563224  4.335572  5.352987
      ESP Fit Center  955 is at  11.245663  5.312923  5.352987
      ESP Fit Center  956 is at  10.414279  5.916959  5.352987
      ESP Fit Center  957 is at  11.245663  3.358221  5.352987
      ESP Fit Center  958 is at   8.777263  5.831460  8.270390
      ESP Fit Center  959 is at   7.817263  5.831460  8.270390
      ESP Fit Center  960 is at   7.337263  5.000076  8.270390
      ESP Fit Center  961 is at   9.642471  5.977427  7.567621
      ESP Fit Center  962 is at   8.811087  6.581463  7.567621
      ESP Fit Center  963 is at   7.783439  6.581463  7.567621
      ESP Fit Center  964 is at   6.952055  5.977427  7.567621
      ESP Fit Center  965 is at   6.634494  5.000076  7.567621
      ESP Fit Center  966 is at   9.257263  6.662845  6.607621
      ESP Fit Center  967 is at   8.297263  6.920076  6.607621
      ESP Fit Center  968 is at   7.337263  6.662845  6.607621
      ESP Fit Center  969 is at   6.634494  5.960076  6.607621
      ESP Fit Center  970 is at   8.811087  6.581463  5.647621
      ESP Fit Center  971 is at   7.783439  6.581463  5.647621
      ESP Fit Center  972 is at   7.315701  4.357410  8.761895
      ESP Fit Center  973 is at   8.277440  1.082028  8.761895
      ESP Fit Center  974 is at   9.323962  1.232496  8.761895
      ESP Fit Center  975 is at  10.884306  2.939325  7.799569
      ESP Fit Center  976 is at   6.513705  2.716532  8.983561
      ESP Fit Center  977 is at   6.993705  1.885148  8.983561
      ESP Fit Center  978 is at   6.128497  3.693883  8.280792
      ESP Fit Center  979 is at   5.810936  2.716532  8.280792
      ESP Fit Center  980 is at   6.128497  1.739181  8.280792
      ESP Fit Center  981 is at   6.959881  1.135145  8.280792
      ESP Fit Center  982 is at   6.513705  4.379301  7.320792
      ESP Fit Center  983 is at   5.810936  3.676532  7.320792
      ESP Fit Center  984 is at   5.553705  2.716532  7.320792
      ESP Fit Center  985 is at   6.513705  1.053763  7.320792
      ESP Fit Center  986 is at   9.546966  1.197367  8.618658
      ESP Fit Center  987 is at  10.729735  2.028751  7.915889
      ESP Fit Center  988 is at   8.553142  0.447364  7.915889
      ESP Fit Center  989 is at   9.580790  0.447364  7.915889
      ESP Fit Center  990 is at  10.412174  1.051400  7.915889
      ESP Fit Center  991 is at  10.986966  2.028751  6.955889
      ESP Fit Center  992 is at   8.106966  0.365982  6.955889
      ESP Fit Center  993 is at   9.066966  0.108751  6.955889
      ESP Fit Center  994 is at  10.026966  0.365982  6.955889
      ESP Fit Center  995 is at  10.729735  1.068751  6.955889
      ESP Fit Center  996 is at  10.729735  2.028751  5.995889
      ESP Fit Center  997 is at   8.553142  0.447364  5.995889
      ESP Fit Center  998 is at   9.580790  0.447364  5.995889
      ESP Fit Center  999 is at  10.412174  1.051400  5.995889
      ESP Fit Center 1000 is at   9.546966  1.197367  5.293120
      ESP Fit Center 1001 is at   8.877613  3.200736 10.198055
      ESP Fit Center 1002 is at   9.837613  3.200736  9.940824
      ESP Fit Center 1003 is at   9.357613  4.032120  9.940824
      ESP Fit Center 1004 is at   8.397613  4.032120  9.940824
      ESP Fit Center 1005 is at   7.917613  3.200736  9.940824
      ESP Fit Center 1006 is at   8.397613  2.369352  9.940824
      ESP Fit Center 1007 is at   9.357613  2.369352  9.940824
      ESP Fit Center 1008 is at  10.540382  3.200736  9.238055
      ESP Fit Center 1009 is at  10.222821  4.178087  9.238055
      ESP Fit Center 1010 is at   9.391437  4.782123  9.238055
      ESP Fit Center 1011 is at   8.363789  4.782123  9.238055
      ESP Fit Center 1012 is at   7.532405  4.178087  9.238055
      ESP Fit Center 1013 is at   9.391437  1.619349  9.238055
      ESP Fit Center 1014 is at  10.222821  2.223385  9.238055
      ESP Fit Center 1015 is at  10.797613  3.200736  8.278055
      ESP Fit Center 1016 is at  10.540382  4.160736  8.278055
      ESP Fit Center 1017 is at  -4.982453 -5.249939 -6.082274
      ESP Fit Center 1018 is at  -0.932698 -7.200198 -6.082274
      ESP Fit Center 1019 is at  -4.982453 -6.283184 -7.115519
      ESP Fit Center 1020 is at  -4.043258 -7.200198 -8.148764
      ESP Fit Center 1021 is at  -3.043051 -7.681872 -8.148764
      ESP Fit Center 1022 is at  -3.738230 -6.692807 -9.024707
      ESP Fit Center 1023 is at  -1.971355 -4.355122 -9.609994
      ESP Fit Center 1024 is at  -3.004601 -6.144756 -9.609994
      ESP Fit Center 1025 is at  -2.487978 -5.249939 -9.815519
      ESP Fit Center 1026 is at  -0.961688 -7.457641 -6.654257
      ESP Fit Center 1027 is at  -0.165109 -6.767401 -6.654257
      ESP Fit Center 1028 is at   0.421230 -5.756070 -7.734257
      ESP Fit Center 1029 is at  -1.478411 -7.900321 -7.734257
      ESP Fit Center 1030 is at  -0.511750 -7.533715 -7.734257
      ESP Fit Center 1031 is at   0.173815 -6.759872 -7.734257
      ESP Fit Center 1032 is at   0.131845 -5.756070 -8.814257
      ESP Fit Center 1033 is at  -0.165109 -4.744739 -8.814257
      ESP Fit Center 1034 is at  -2.004986 -7.607645 -8.814257
      ESP Fit Center 1035 is at  -0.961688 -7.457641 -8.814257
      ESP Fit Center 1036 is at  -0.165109 -6.767401 -8.814257
      ESP Fit Center 1037 is at  -0.658770 -5.756070 -9.604872
      ESP Fit Center 1038 is at  -1.198770 -4.820763 -9.604872
      ESP Fit Center 1039 is at  -2.278770 -6.691377 -9.604872
      ESP Fit Center 1040 is at  -1.198770 -6.691377 -9.604872
      ESP Fit Center 1041 is at  -1.738770 -5.756070 -9.894257
      ESP Fit Center 1042 is at  -2.868188 -5.962990 -4.216879
      ESP Fit Center 1043 is at  -1.788188 -5.962990 -4.506264
      ESP Fit Center 1044 is at  -3.948188 -5.962990 -4.506264
      ESP Fit Center 1045 is at  -3.408188 -6.898297 -4.506264
      ESP Fit Center 1046 is at  -2.328188 -6.898297 -4.506264
      ESP Fit Center 1047 is at  -4.663030 -5.435977 -5.296879
[...]
 1353 Fit       0.003300
 1354 Fit       0.001957
 1355 Fit      -0.001654
 1356 Fit       0.009294
 1357 Fit       0.002449
 1358 Fit      -0.006473
 1359 Fit      -0.008522
 1360 Fit      -0.006199
 1361 Fit       0.001868
 1362 Fit      -0.004538
 1363 Fit      -0.010777
 1364 Fit      -0.011833
 1365 Fit      -0.011409
 1366 Fit      -0.011413
 1367 Fit      -0.010585
 1368 Fit      -0.006331
 1369 Fit       0.002898
 1370 Fit      -0.005564
 1371 Fit      -0.011908
 1372 Fit      -0.012465
 1373 Fit      -0.010890
 1374 Fit      -0.010073
 1375 Fit      -0.011008
 1376 Fit      -0.012618
 1377 Fit      -0.012834
 1378 Fit      -0.009751
 1379 Fit      -0.002457
 1380 Fit      -0.008596
 1381 Fit      -0.010259
 1382 Fit      -0.008124
 1383 Fit      -0.005455
 1384 Fit      -0.004852
 1385 Fit      -0.006612
 1386 Fit      -0.009278
 1387 Fit      -0.011283
 1388 Fit      -0.011258
 1389 Fit      -0.007778
 1390 Fit      -0.000781
 1391 Fit      -0.003619
 1392 Fit      -0.003684
 1393 Fit       0.000498
 1394 Fit       0.004167
 1395 Fit       0.001269
 1396 Fit      -0.000915
 1397 Fit      -0.003314
 1398 Fit       0.002755
 1399 Fit       0.001942
 1400 Fit       0.006281
 1401 Fit       0.003641
 1402 Fit      -0.005289
 1403 Fit       0.009351
 1404 Fit       0.002803
 1405 Fit       0.007483
 1406 Fit       0.011952
 1407 Fit       0.008425
 1408 Fit       0.005263
 1409 Fit       0.007224
 1410 Fit       0.004144
 1411 Fit       0.004061
 1412 Fit       0.001418
 1413 Fit       0.000470
 1414 Fit       0.004439
 1415 Fit       0.004144
 1416 Fit      -0.001191
 1417 Fit       0.004948
 1418 Fit       0.008490
 1419 Fit       0.003764
 1420 Fit       0.008958
 1421 Fit       0.010098
 1422 Fit       0.008897
 1423 Fit       0.010858
 1424 Fit       0.007005
 1425 Fit       0.009937
 1426 Fit       0.005782
 1427 Fit      -0.001921
 1428 Fit       0.005799
 1429 Fit       0.005383
 1430 Fit       0.000868
 1431 Fit      -0.005065
 1432 Fit      -0.005963
 1433 Fit      -0.002866
 1434 Fit       0.002964
 1435 Fit      -0.007148
 1436 Fit      -0.007919
 1437 Fit      -0.005758
 1438 Fit      -0.001614
 1439 Fit      -0.006135
 1440 Fit      -0.006604
 1441 Fit      -0.009597
 1442 Fit      -0.012686
 1443 Fit      -0.013089
 1444 Fit      -0.009482
 1445 Fit      -0.002301
 1446 Fit      -0.010631
 1447 Fit      -0.013224
 1448 Fit      -0.011603
 1449 Fit      -0.008387
 1450 Fit      -0.011765
 1451 Fit      -0.012796
 1452 Fit      -0.015152
 1453 Fit      -0.016354
 1454 Fit      -0.013881
 1455 Fit      -0.006530
 1456 Fit      -0.005106
 1457 Fit      -0.012678
 1458 Fit      -0.014021
 1459 Fit      -0.012714
 1460 Fit      -0.013840
 1461 Fit      -0.014985
 1462 Fit      -0.015470
 1463 Fit      -0.012130
 1464 Fit      -0.002939
 1465 Fit      -0.004136
 1466 Fit      -0.011305
 1467 Fit      -0.013320
 1468 Fit      -0.011870
 1469 Fit      -0.011464
 1470 Fit      -0.004291
 1471 Fit       0.003595
 1472 Fit       0.000045
 1473 Fit      -0.008358
 1474 Fit      -0.006041
 1475 Fit       0.009701
 1476 Fit       0.004030
 1477 Fit       0.010698
 1478 Fit       0.010364
 1479 Fit       0.009450
 1480 Fit       0.009100
 1481 Fit       0.008221
 1482 Fit       0.008941
 1483 Fit       0.007694
 1484 Fit       0.007319
 1485 Fit       0.005912
 1486 Fit       0.004439
 1487 Fit       0.005757
 1488 Fit       0.006932
 1489 Fit       0.003923
 1490 Fit       0.002892
 1491 Fit      -0.000534
 1492 Fit       0.010197
 1493 Fit       0.010656
 1494 Fit       0.011190
 1495 Fit       0.008373
 1496 Fit       0.009383
 1497 Fit       0.010721
 1498 Fit       0.012150
 1499 Fit       0.005223
 1500 Fit       0.006106
 1501 Fit       0.008074
 1502 Fit       0.010857
 1503 Fit       0.001203
 1504 Fit       0.006233
 1505 Fit       0.008670
 1506 Fit       0.005442
 1507 Fit       0.004548
 1508 Fit       0.004820
 1509 Fit       0.007658
 1510 Fit       0.004756
 1511 Fit       0.005529
 1512 Fit       0.006479
 1513 Fit       0.006909
 1514 Fit       0.006024
 1515 Fit       0.009462
 1516 Fit       0.008245
 1517 Fit       0.007966
 1518 Fit       0.007495
 1519 Fit       0.005929
 1520 Fit       0.009782
 1521 Fit       0.009557
 1522 Fit       0.004892
 1523 Fit       0.005164
 1524 Fit       0.005233
 1525 Fit       0.005450
 1526 Fit       0.004906
 1527 Fit       0.004711
 1528 Fit       0.004724
 1529 Fit       0.004639
 1530 Fit       0.001481
 1531 Fit       0.001756
 1532 Fit       0.001322
 1533 Fit       0.000878
 1534 Fit       0.008245
 1535 Fit       0.008556
 1536 Fit       0.009412
 1537 Fit       0.008753
 1538 Fit       0.007284
 1539 Fit       0.006545
 1540 Fit       0.007108
 1541 Fit       0.008229
 1542 Fit       0.009669
 1543 Fit       0.010223
 1544 Fit       0.010094
 1545 Fit       0.009046
 1546 Fit       0.005397
 1547 Fit       0.006549
 1548 Fit       0.008433
 1549 Fit       0.011160
 1550 Fit       0.004249
 1551 Fit      -0.007213
 1552 Fit       0.003108
 1553 Fit      -0.002241
 1554 Fit      -0.000796
 1555 Fit       0.000452
 1556 Fit       0.001778
 1557 Fit      -0.000163
 1558 Fit       0.001226
 1559 Fit       0.005618
 1560 Fit       0.000415
 1561 Fit       0.001554
 1562 Fit       0.002972
 1563 Fit       0.001420
 1564 Fit       0.002129
 1565 Fit       0.007901
 1566 Fit       0.003211
 1567 Fit       0.004830
 1568 Fit       0.006334
 1569 Fit       0.007209
 1570 Fit       0.001975
 1571 Fit       0.003746
 1572 Fit       0.005251
 1573 Fit       0.006377
 1574 Fit       0.006388
 1575 Fit       0.006475
 1576 Fit       0.002892
 1577 Fit       0.004624
 1578 Fit       0.005825
 1579 Fit       0.005108
 1580 Fit       0.004317
 1581 Fit       0.002578
 1582 Fit       0.004350
 1583 Fit       0.003378
 1584 Fit      -0.002977
 1585 Fit      -0.006884
 1586 Fit      -0.000592
 1587 Fit       0.001717
 1588 Fit      -0.004622
 1589 Fit      -0.000305
 1590 Fit       0.001769
 1591 Fit       0.002803
 1592 Fit       0.003909
 1593 Fit      -0.007848
 1594 Fit      -0.002702
 1595 Fit       0.000088
 1596 Fit       0.001594
 1597 Fit       0.002382
 1598 Fit       0.003074
 1599 Fit      -0.002495
 1600 Fit      -0.000365
 1601 Fit       0.000912
 1602 Fit       0.001751
 1603 Fit      -0.011855
 1604 Fit      -0.007420
 1605 Fit      -0.004725
 1606 Fit      -0.005785
 1607 Fit      -0.006116
 1608 Fit      -0.004409
 1609 Fit      -0.002782
 1610 Fit      -0.001785
 1611 Fit      -0.000125
 1612 Fit      -0.000881
 1613 Fit      -0.000418
 1614 Fit       0.000038
 1615 Fit       0.000135
 1616 Fit       0.002053
 1617 Fit       0.001214
 1618 Fit       0.001127
 1619 Fit       0.001097
 1620 Fit       0.001657
 1621 Fit       0.007632
 1622 Fit       0.007470
 1623 Fit      -0.003855
 1624 Fit       0.004199
 1625 Fit       0.006523
 1626 Fit       0.008414
 1627 Fit       0.008426
 1628 Fit       0.008742
 1629 Fit       0.005549
 1630 Fit       0.006908
 1631 Fit       0.007826
 1632 Fit       0.007657
 1633 Fit       0.007594
 1634 Fit       0.007210
 1635 Fit       0.007597
 1636 Fit       0.006852
 1637 Fit       0.006915
 1638 Fit       0.006181
 1639 Fit       0.005697
 1640 Fit       0.006413
 1641 Fit       0.005702
 1642 Fit       0.004823
 1643 Fit       0.003133
 1644 Fit       0.000355
 1645 Fit       0.005638
 1646 Fit       0.004681
 1647 Fit       0.003027
 1648 Fit       0.004296
 1649 Fit      -0.011727
 1650 Fit      -0.010147
 1651 Fit      -0.005130
 1652 Fit      -0.015531
 1653 Fit      -0.015774
 1654 Fit      -0.014835
 1655 Fit      -0.017470
 1656 Fit      -0.016770
 1657 Fit      -0.011529
 1658 Fit      -0.015512
 1659 Fit      -0.016164
 1660 Fit      -0.007755
 1661 Fit      -0.011745
 1662 Fit      -0.003386
 1663 Fit      -0.001987
 1664 Fit      -0.003264
 1665 Fit      -0.001664
 1666 Fit      -0.002511
 1667 Fit      -0.004304
 1668 Fit      -0.001631
 1669 Fit      -0.001350
 1670 Fit      -0.003194
 1671 Fit      -0.007697
 1672 Fit      -0.002036
 1673 Fit      -0.001216
 1674 Fit      -0.002111
 1675 Fit      -0.005446
 1676 Fit      -0.001431
 1677 Fit      -0.002187
 1678 Fit      -0.005146
 1679 Fit       0.005451
 1680 Fit       0.002618
 1681 Fit       0.000461
 1682 Fit      -0.000964
 1683 Fit      -0.001553
 1684 Fit       0.004129
 1685 Fit       0.002305
 1686 Fit       0.000819
 1687 Fit       0.003733
 1688 Fit       0.001223
 1689 Fit       0.005772
 1690 Fit       0.003831
 1691 Fit       0.002336
 1692 Fit       0.003940
 1693 Fit       0.000799
 1694 Fit       0.001245
 1695 Fit       0.001852
 1696 Fit       0.003089
 1697 Fit       0.004859
 1698 Fit      -0.001091
 1699 Fit      -0.001379
 1700 Fit      -0.001996
 1701 Fit      -0.001417
 1702 Fit       0.000529
 1703 Fit       0.003204
 1704 Fit      -0.010041
 1705 Fit      -0.009767
 1706 Fit      -0.005038
 1707 Fit       0.007174
 1708 Fit       0.006912
 1709 Fit       0.008232
 1710 Fit       0.008842
 1711 Fit       0.008063
 1712 Fit       0.005558
 1713 Fit       0.009232
 1714 Fit      -0.005101
 1715 Fit      -0.008563
 1716 Fit      -0.008226
 1717 Fit       0.001924
 1718 Fit      -0.000619
 1719 Fit      -0.009338
 1720 Fit      -0.010114
 1721 Fit      -0.003946
 1722 Fit      -0.006847
 1723 Fit      -0.008409
 1724 Fit       0.000476
 1725 Fit       0.004451
 1726 Fit      -0.001932
 1727 Fit       0.006308
 1728 Fit       0.005362
 1729 Fit       0.006861
 1730 Fit       0.007262
 1731 Fit       0.007975
 1732 Fit       0.008391
 1733 Fit       0.008133
 1734 Fit       0.007329
 1735 Fit       0.008522
 1736 Fit      -0.003167
 1737 Fit      -0.001121
 1738 Fit      -0.003147
 1739 Fit      -0.000857
 1740 Fit       0.000903
 1741 Fit       0.002041
 1742 Fit       0.002368
 1743 Fit       0.001909
 1744 Fit      -0.000025
 1745 Fit       0.000902
 1746 Fit       0.002583
 1747 Fit       0.003839
 1748 Fit       0.004387
 1749 Fit       0.004746
 1750 Fit       0.006524
 1751 Fit      -0.007331
 1752 Fit      -0.008012
 1753 Fit      -0.002796
 1754 Fit      -0.001465
 1755 Fit      -0.001329
 1756 Fit      -0.001822
 1757 Fit       0.001284
 1758 Fit       0.001146
 1759 Fit       0.000737
 1760 Fit       0.000010
 1761 Fit      -0.000189
 1762 Fit       0.002154
 1763 Fit       0.001200
 1764 Fit      -0.000038
 1765 Fit      -0.002069
 1766 Fit       0.000883
 1767 Fit      -0.001414
 1768 Fit      -0.005182
 1769 Fit       0.005101
 1770 Fit       0.006892
 1771 Fit       0.007756
 1772 Fit       0.006679
 1773 Fit       0.003416
 1774 Fit      -0.001373
 1775 Fit       0.006117
 1776 Fit       0.002457
 1777 Fit       0.002467
 1778 Fit      -0.002691
 1779 Fit      -0.007264
 1780 Fit      -0.009490
 1781 Fit      -0.013421
 1782 Fit      -0.011222
 1783 Fit      -0.009604
 1784 Fit      -0.013034
 1785 Fit      -0.013798
 1786 Fit      -0.013381
 1787 Fit      -0.011572
 1788 Fit      -0.007009
 1789 Fit      -0.007457
 1790 Fit      -0.008983
 1791 Fit      -0.008977
 1792 Fit      -0.008813
 1793 Fit      -0.005278
 1794 Fit       0.001166
 1795 Fit       0.004626
 1796 Fit       0.001775
 1797 Fit       0.005887
 1798 Fit       0.002696
 1799 Fit       0.007686
 1800 Fit       0.003432
 1801 Fit       0.007365
 1802 Fit       0.002197
 1803 Fit       0.004283
 1804 Fit       0.007632
 1805 Fit       0.007374
 1806 Fit       0.007745
 1807 Fit       0.005072
 1808 Fit      -0.000681
 1809 Fit       0.002183
 1810 Fit      -0.002131
 1811 Fit       0.003153
 1812 Fit       0.006091
 1813 Fit       0.002363
 1814 Fit       0.004909
 1815 Fit       0.005529
 1816 Fit       0.004110
 1817 Fit       0.004927
 1818 Fit       0.002740
 1819 Fit       0.005586
 1820 Fit       0.006359
 1821 Fit       0.007312
 1822 Fit       0.001720
 1823 Fit       0.007320
 1824 Fit       0.005285
 1825 Fit       0.000761
 1826 Fit       0.004908
 1827 Fit       0.004386
 1828 Fit       0.000583
 1829 Fit       0.000814
 1830 Fit       0.004611
 1831 Fit       0.005862
 1832 Fit       0.002302
 1833 Fit       0.005584
 1834 Fit       0.007245
 1835 Fit       0.005489
 1836 Fit       0.007811
 1837 Fit       0.008509
 1838 Fit       0.008443
 1839 Fit       0.006187
 1840 Fit       0.000974
 1841 Fit       0.001480
 1842 Fit      -0.000954
 1843 Fit      -0.002066
 1844 Fit      -0.003290
 1845 Fit      -0.004327
 1846 Fit      -0.005261
 1847 Fit      -0.005415
 1848 Fit      -0.003442
 1849 Fit       0.000861
 1850 Fit      -0.001857
 1851 Fit      -0.004417
 1852 Fit      -0.004079
 1853 Fit      -0.002267
 1854 Fit      -0.000870
 1855 Fit      -0.006119
 1856 Fit      -0.006963
 1857 Fit      -0.008299
 1858 Fit      -0.009301
 1859 Fit      -0.009094
 1860 Fit      -0.006777
 1861 Fit      -0.001914
 1862 Fit      -0.006234
 1863 Fit      -0.008042
 1864 Fit      -0.007459
 1865 Fit      -0.006365
 1866 Fit      -0.008863
 1867 Fit      -0.009319
 1868 Fit      -0.009951
 1869 Fit      -0.009545
 1870 Fit      -0.006884
 1871 Fit      -0.001208
 1872 Fit      -0.002434
 1873 Fit      -0.007948
 1874 Fit      -0.009431
 1875 Fit      -0.009131
 1876 Fit      -0.009100
 1877 Fit      -0.009006
 1878 Fit      -0.008057
 1879 Fit      -0.004784
 1880 Fit       0.001632
 1881 Fit      -0.002611
 1882 Fit      -0.007468
 1883 Fit      -0.008974
 1884 Fit      -0.006787
 1885 Fit      -0.005200
 1886 Fit       0.000182
 1887 Fit       0.004476
 1888 Fit       0.000856
 1889 Fit      -0.004965
 1890 Fit      -0.002195
 1891 Fit       0.002305
 1892 Fit       0.002181
 1893 Fit       0.001309
 1894 Fit       0.001877
 1895 Fit       0.001269
 1896 Fit      -0.000185
 1897 Fit       0.006470
 1898 Fit       0.004563
 1899 Fit       0.004802
 1900 Fit       0.005272
 1901 Fit       0.005000
 1902 Fit       0.006620
 1903 Fit       0.006173
 1904 Fit       0.007243
 1905 Fit       0.002727
 1906 Fit       0.004380
 1907 Fit       0.005636
 1908 Fit       0.001127
 1909 Fit       0.003861
 1910 Fit       0.003031
 1911 Fit       0.002378
 1912 Fit       0.004397
 1913 Fit       0.006032
 1914 Fit       0.006547
 1915 Fit       0.006294
 1916 Fit       0.004681
 1917 Fit       0.006674
 1918 Fit       0.003960
 1919 Fit       0.006083
 1920 Fit       0.004016
 1921 Fit       0.002584
 1922 Fit       0.001818
 1923 Fit       0.000237
 1924 Fit      -0.000682
 1925 Fit       0.002929
 1926 Fit      -0.004019
 1927 Fit      -0.006033
 1928 Fit      -0.004229
 1929 Fit       0.001898
 1930 Fit      -0.001844
 1931 Fit      -0.007084
 1932 Fit      -0.008626
 1933 Fit      -0.008716
 1934 Fit      -0.008555
 1935 Fit      -0.007457
 1936 Fit      -0.003928
 1937 Fit       0.002902
 1938 Fit      -0.002345
 1939 Fit      -0.008001
 1940 Fit      -0.009381
 1941 Fit      -0.008972
 1942 Fit      -0.008662
 1943 Fit      -0.009111
 1944 Fit      -0.009687
 1945 Fit      -0.009147
 1946 Fit      -0.006327
 1947 Fit      -0.000588
 1948 Fit      -0.004399
 1949 Fit      -0.007921
 1950 Fit      -0.008053
 1951 Fit      -0.006807
 1952 Fit      -0.005970
 1953 Fit      -0.006379
 1954 Fit      -0.007653
 1955 Fit      -0.008872
 1956 Fit      -0.009215
 1957 Fit      -0.007883
 1958 Fit      -0.004246
 1959 Fit      -0.004328
 1960 Fit      -0.004952
 1961 Fit      -0.003352
 1962 Fit      -0.001326
 1963 Fit      -0.000638
 1964 Fit      -0.001668
 1965 Fit      -0.003294
 1966 Fit      -0.004389
 1967 Fit      -0.005018
 1968 Fit      -0.005363
 1969 Fit      -0.004392
 1970 Fit      -0.001148
 1971 Fit       0.001390
 1972 Fit       0.000129
 1973 Fit       0.004007
 1974 Fit       0.002101
 1975 Fit       0.003197
 1976 Fit       0.003864
 1977 Fit       0.001231
 1978 Fit       0.006407
 1979 Fit       0.002944
 1980 Fit       0.003024
 1981 Fit       0.006643
 1982 Fit       0.007397
 1983 Fit       0.004848
 1984 Fit       0.006584
 1985 Fit       0.001107
 1986 Fit       0.004251
 1987 Fit       0.004293
 1988 Fit       0.002780
 1989 Fit       0.002645
 1990 Fit      -0.001435
 1991 Fit       0.003199
 1992 Fit       0.004838
 1993 Fit      -0.000973
 1994 Fit       0.003868
 1995 Fit       0.002496
 1996 Fit       0.007366
 1997 Fit       0.009736
 1998 Fit       0.006812
 1999 Fit       0.009417
 2000 Fit       0.005455
 2001 Fit       0.006004
 2002 Fit       0.003050
 2003 Fit       0.003676
 2004 Fit       0.001829
 2005 Fit      -0.000797
 2006 Fit      -0.000751
 2007 Fit       0.001917
 2008 Fit      -0.001807
 2009 Fit      -0.001581
 2010 Fit      -0.003284
 2011 Fit      -0.005747
 2012 Fit      -0.007204
 2013 Fit      -0.006593
 2014 Fit      -0.003822
 2015 Fit       0.000491
 2016 Fit      -0.004721
 2017 Fit      -0.007460
 2018 Fit      -0.007554
 2019 Fit      -0.005947
 2020 Fit      -0.003636
 2021 Fit      -0.007110
 2022 Fit      -0.007489
 2023 Fit      -0.009160
 2024 Fit      -0.010883
 2025 Fit      -0.011085
 2026 Fit      -0.008760
 2027 Fit      -0.003772
 2028 Fit      -0.007954
 2029 Fit      -0.010211
 2030 Fit      -0.009701
 2031 Fit      -0.008159
 2032 Fit      -0.010339
 2033 Fit      -0.011033
 2034 Fit      -0.012279
 2035 Fit      -0.012550
 2036 Fit      -0.010250
 2037 Fit      -0.004498
 2038 Fit      -0.002175
 2039 Fit      -0.008805
 2040 Fit      -0.010749
 2041 Fit      -0.010592
 2042 Fit      -0.011145
 2043 Fit      -0.011817
 2044 Fit      -0.011701
 2045 Fit      -0.008929
 2046 Fit      -0.002356
 2047 Fit      -0.002539
 2048 Fit      -0.008311
 2049 Fit      -0.010418
 2050 Fit      -0.009382
 2051 Fit      -0.008905
 2052 Fit      -0.003789
 2053 Fit       0.001610
 2054 Fit      -0.000534
 2055 Fit      -0.006612
 2056 Fit      -0.005189
 2057 Fit       0.009646
 2058 Fit       0.008984
 2059 Fit       0.005216
 2060 Fit       0.000849
 2061 Fit       0.008402
 2062 Fit       0.008171
 2063 Fit       0.007812
 2064 Fit       0.008165
 2065 Fit       0.007093
 2066 Fit       0.006884
 2067 Fit       0.006133
 2068 Fit       0.005483
 2069 Fit       0.006693
 2070 Fit       0.004816
 2071 Fit       0.004486
 2072 Fit       0.003186
 2073 Fit       0.001360
 2074 Fit       0.004070
 2075 Fit       0.009439
 2076 Fit       0.009477
 2077 Fit       0.007898
 2078 Fit       0.008396
 2079 Fit       0.009259
 2080 Fit       0.010172
 2081 Fit       0.006029
 2082 Fit       0.006134
 2083 Fit       0.007207
 2084 Fit       0.008670
 2085 Fit       0.010723
 2086 Fit       0.002626
 2087 Fit       0.004419
 2088 Fit       0.007127
 2089 Fit       0.006504
 2090 Fit       0.004937
 2091 Fit       0.004459
 2092 Fit       0.004798
 2093 Fit       0.009844
 2094 Fit       0.008370
 2095 Fit       0.004911
 2096 Fit       0.004201
 2097 Fit       0.004379
 2098 Fit       0.004693
 2099 Fit       0.005362
 2100 Fit       0.007100
 2101 Fit       0.004846
 2102 Fit       0.006045
 2103 Fit       0.007866
 2104 Fit       0.006637
 2105 Fit       0.006189
 2106 Fit       0.005904
 2107 Fit       0.010679
 2108 Fit       0.007573
 2109 Fit       0.006393
 2110 Fit       0.007150
 2111 Fit       0.007349
 2112 Fit       0.006185
 2113 Fit       0.004338
 2114 Fit       0.004481
 2115 Fit       0.004718
 2116 Fit       0.005321
 2117 Fit       0.004344
 2118 Fit       0.004269
 2119 Fit       0.004296
 2120 Fit       0.004410
 2121 Fit       0.003765
 2122 Fit       0.003438
 2123 Fit       0.002956
 2124 Fit       0.002745
 2125 Fit       0.002707
 2126 Fit      -0.000591
 2127 Fit      -0.001435
 2128 Fit      -0.002152
 2129 Fit       0.007181
 2130 Fit       0.007443
 2131 Fit       0.008090
 2132 Fit       0.007656
 2133 Fit       0.006601
 2134 Fit       0.006025
 2135 Fit       0.006406
 2136 Fit       0.007350
 2137 Fit       0.008380
 2138 Fit       0.008822
 2139 Fit       0.008715
 2140 Fit       0.007942
 2141 Fit       0.006801
 2142 Fit       0.005281
 2143 Fit       0.006151
 2144 Fit       0.007373
 2145 Fit       0.008967
 2146 Fit       0.009716
 Job cpu time:       0 days  0 hours 10 minutes 54.7 seconds.
 Normal termination of Gaussian 16 at Sun Jul  9 10:26:23 2023.
