 Copyright (c) 1988-2019, Gaussian, Inc.  All Rights Reserved.
  
 This is part of the Gaussian(R) 16 program.  It is based on
 the Gaussian(R) 09 system (copyright 2009, Gaussian, Inc.),
 the Gaussian(R) 03 system (copyright 2003, Gaussian, Inc.),
 the Gaussian(R) 98 system (copyright 1998, Gaussian, Inc.),
 the Gaussian(R) 94 system (copyright 1995, Gaussian, Inc.),
 the Gaussian 92(TM) system (copyright 1992, Gaussian, Inc.),
 the Gaussian 90(TM) system (copyright 1990, Gaussian, Inc.),
 the Gaussian 88(TM) system (copyright 1988, Gaussian, Inc.),
 the Gaussian 86(TM) system (copyright 1986, Carnegie Mellon
 University), and the Gaussian 82(TM) system (copyright 1983,
 Carnegie Mellon University). Gaussian is a federally registered
 trademark of Gaussian, Inc.
 Cite this work as:
 Gaussian 16, Revision C.01,
 M. J. Frisch, G. W. Trucks, H. B. Schlegel, G. E. Scuseria, 
 M. A. Robb, J. R. Cheeseman, G. Scalmani, V. Barone, 
 G. A. Petersson, H. Nakatsuji, X. Li, M. Caricato, A. V. Marenich, 
 J. Bloino, B. G. Janesko, R. Gomperts, B. Mennucci, H. P. Hratchian, 
 J. V. Ortiz, A. F. Izmaylov, J. L. Sonnenberg, D. Williams-Young, 
 F. Ding, F. Lipparini, F. Egidi, J. Goings, B. Peng, A. Petrone, 
 T. Henderson, D. Ranasinghe, V. G. Zakrzewski, J. Gao, N. Rega, 
 G. Zheng, W. Liang, M. Hada, M. Ehara, K. Toyota, R. Fukuda, 
 J. Hasegawa, M. Ishida, T. Nakajima, Y. Honda, O. Kitao, H. Nakai, 
 T. Vreven, K. Throssell, J. A. Montgomery, Jr., J. E. Peralta, 
 F. Ogliaro, M. J. Bearpark, J. J. Heyd, E. N. Brothers, K. N. Kudin, 
 V. N. Staroverov, T. A. Keith, R. Kobayashi, J. Normand, 
 K. Raghavachari, A. P. Rendell, J. C. Burant, S. S. Iyengar, 
 J. Tomasi, M. Cossi, J. M. Millam, M. Klene, C. Adamo, R. Cammi, 
 J. W. Ochterski, R. L. Martin, K. Morokuma, O. Farkas, 
 J. B. Foresman, and D. J. Fox, Gaussian, Inc., Wallingford CT, 2019.
 
 ******************************************
 Gaussian 16:  EM64L-G16RevC.01  3-Jul-2019
                 9-Jul-2023 
 ******************************************
 ----------------------------------------------------------------------
 #P B3LYP/6-31G(d) Integral=Ultrafine SCF(Conver=8,XQC,MaxConventionalC
 ycles=64,MaxCycle=128) NoSymm Test Pop=mk IOp(6/33=2) GFInput GFPrint
 ----------------------------------------------------------------------
 1/38=1,172=1/1;
 2/12=2,15=1,17=6,18=5,40=1/2;
 3/5=1,6=6,7=1,11=2,24=110,25=1,30=1,74=-5,75=-5/1,2,3;
 4//1;
 5/5=2,6=8,7=128,8=3,13=1,38=5,85=64/2,8;
 6/7=2,8=2,9=2,10=2,15=8,20=1,28=1,33=2/1,2;
 99/5=1,9=1/99;
 -------------------------------------------------
 MEP step - Input generated by PyRED DVE-DMDS-OPLS
 -------------------------------------------------
 Symbolic Z-matrix:
 Charge =  0 Multiplicity = 1
 C                     7.10868  -1.26153  -3.77165 
 H                     7.44872  -0.36963  -4.30846 
 H                     7.15369  -1.05227  -2.69782 
 H                     7.81125  -2.07293  -3.99538 
 C                     5.69243  -1.66779  -4.17497 
 H                     5.64426  -1.88219  -5.25533 
 H                     5.40055  -2.58116  -3.64546 
 O                     4.70342  -0.70325  -3.83113 
 C                     4.63573   0.41141  -4.70564 
 H                     4.39592   0.07386  -5.73005 
 H                     5.59017   0.95664  -4.7443 
 C                     3.54895   1.36401  -4.2251 
 H                     3.34657   2.08911  -5.0223 
 H                     2.6252    0.79459  -4.0432 
 O                     3.92769   2.125    -3.08871 
 C                     3.69719   1.50612  -1.82461 
 H                     4.45455   1.89761  -1.1375 
 H                     3.8284    0.42078  -1.8868 
 C                     2.30732   1.87098  -1.29147 
 H                     1.52647   1.55485  -1.99977 
 H                     2.23373   2.95825  -1.18631 
 O                     2.09254   1.30949   0. 
 C                     1.53115   0.        0. 
 H                     1.90153  -0.49669   0.90221 
 H                     1.89002  -0.57004  -0.87174 
 C                     0.        0.        0. 
 H                    -0.35523  -1.02283  -0.17297 
 H                    -0.38673   0.61055  -0.8246 
 S                    -0.80648   0.48655   1.57814 
 C                    -0.5064    2.30023   1.63565 
 H                    -0.63827   2.5734    2.68756 
 H                     0.54032   2.47663   1.37414 
 C                    -1.42123   3.14262   0.74111 
 H                    -1.4229    2.75709  -0.28328 
 H                    -1.03925   4.16964   0.68839 
 S                    -3.18995   3.19736   1.24242 
 C                    -3.13495   4.45896   2.579 
 H                    -2.26862   4.26771   3.22164 
 H                    -4.0283    4.28108   3.18522 
 C                    -3.12679   5.89542   2.05641 
 H                    -2.26551   6.06107   1.40163 
 H                    -4.03692   6.08746   1.47877 
 S                    -3.05728   7.06189   3.48271 
 C                    -3.30894   8.669     2.62467 
 H                    -4.23187   8.60739   2.0364 
 H                    -3.49372   9.38105   3.43613 
 C                    -2.13557   9.1338    1.7627 
 H                    -1.22023   9.21481   2.3573 
 H                    -1.94237   8.44216   0.93583 
 H                    -2.35226   10.11737   1.32688 
 
 ITRead=  0  0  0  0  0  0  0  0  0  0  0  0  0  0  0  0  0  0  0  0
 ITRead=  0  0  0  0  0  0  0  0  0  0  0  0  0  0  0  0  0  0  0  0
 ITRead=  0  0  0  0  0  0  0  0  0  0
 MicOpt= -1 -1 -1 -1 -1 -1 -1 -1 -1 -1 -1 -1 -1 -1 -1 -1 -1 -1 -1 -1
 MicOpt= -1 -1 -1 -1 -1 -1 -1 -1 -1 -1 -1 -1 -1 -1 -1 -1 -1 -1 -1 -1
 MicOpt= -1 -1 -1 -1 -1 -1 -1 -1 -1 -1
 NAtoms=     50 NQM=       50 NQMF=       0 NMMI=      0 NMMIF=      0
                NMic=       0 NMicF=      0.
                          Input orientation:                          
 ---------------------------------------------------------------------
 Center     Atomic      Atomic             Coordinates (Angstroms)
 Number     Number       Type             X           Y           Z
 ---------------------------------------------------------------------
      1          6           0        7.108677   -1.261530   -3.771649
      2          1           0        7.448721   -0.369627   -4.308455
      3          1           0        7.153694   -1.052267   -2.697822
      4          1           0        7.811250   -2.072929   -3.995380
      5          6           0        5.692427   -1.667793   -4.174973
      6          1           0        5.644265   -1.882192   -5.255325
      7          1           0        5.400551   -2.581159   -3.645459
      8          8           0        4.703423   -0.703252   -3.831131
      9          6           0        4.635729    0.411414   -4.705639
     10          1           0        4.395924    0.073862   -5.730052
     11          1           0        5.590167    0.956638   -4.744295
     12          6           0        3.548947    1.364010   -4.225099
     13          1           0        3.346566    2.089112   -5.022298
     14          1           0        2.625204    0.794589   -4.043201
     15          8           0        3.927690    2.124997   -3.088706
     16          6           0        3.697187    1.506123   -1.824613
     17          1           0        4.454554    1.897605   -1.137504
     18          1           0        3.828402    0.420784   -1.886803
     19          6           0        2.307318    1.870975   -1.291465
     20          1           0        1.526466    1.554854   -1.999771
     21          1           0        2.233727    2.958249   -1.186309
     22          8           0        2.092540    1.309493    0.000000
     23          6           0        1.531154    0.000000    0.000000
     24          1           0        1.901527   -0.496691    0.902213
     25          1           0        1.890017   -0.570037   -0.871735
     26          6           0        0.000000    0.000000    0.000000
     27          1           0       -0.355227   -1.022831   -0.172971
     28          1           0       -0.386729    0.610548   -0.824599
     29         16           0       -0.806477    0.486546    1.578143
     30          6           0       -0.506397    2.300227    1.635647
     31          1           0       -0.638274    2.573395    2.687559
     32          1           0        0.540321    2.476628    1.374140
     33          6           0       -1.421234    3.142621    0.741111
     34          1           0       -1.422902    2.757088   -0.283280
     35          1           0       -1.039248    4.169638    0.688392
     36         16           0       -3.189949    3.197359    1.242424
     37          6           0       -3.134953    4.458957    2.578996
     38          1           0       -2.268615    4.267715    3.221635
     39          1           0       -4.028297    4.281077    3.185224
     40          6           0       -3.126792    5.895421    2.056410
     41          1           0       -2.265508    6.061066    1.401634
     42          1           0       -4.036921    6.087462    1.478774
     43         16           0       -3.057284    7.061888    3.482705
     44          6           0       -3.308937    8.669001    2.624673
     45          1           0       -4.231873    8.607385    2.036397
     46          1           0       -3.493715    9.381054    3.436127
     47          6           0       -2.135567    9.133804    1.762701
     48          1           0       -1.220229    9.214807    2.357298
     49          1           0       -1.942370    8.442159    0.935833
     50          1           0       -2.352261   10.117372    1.326878
 ---------------------------------------------------------------------
 Stoichiometry    C14H30O3S3
 Framework group  C1[X(C14H30O3S3)]
 Standard basis: 6-31G(d) (6D, 7F)
   372 basis functions,   752 primitive gaussians,   372 cartesian basis functions
    93 alpha electrons       93 beta electrons
 Requested convergence on RMS density matrix=1.00D-08 within  64 cycles.
 Requested convergence on MAX density matrix=1.00D-06.
 Requested convergence on             energy=1.00D-06.
 SCF Done:  E(RB3LYP) =  -1971.75015374     A.U. after   13 cycles
            NFock= 13  Conv=0.43D-08     -V/T= 2.0058
 Mulliken charges:
     1  C   -0.458285
     2  H    0.153064
     3  H    0.160533
     4  H    0.145725
     5  C   -0.016089
     6  H    0.121035
     7  H    0.146066
     8  O   -0.471725
     9  C   -0.019919
    10  H    0.114875
    11  H    0.137424
    12  C   -0.047521
    13  H    0.145060
    14  H    0.131562
    15  O   -0.475430
    16  C   -0.057312
    17  H    0.151011
    18  H    0.162592
    19  C   -0.053374
    20  H    0.122790
    21  H    0.150944
    22  O   -0.467830
    23  C   -0.025091
    24  H    0.165008
    25  H    0.132586
    26  C   -0.435169
    27  H    0.174598
    28  H    0.169372
    29  S    0.097568
    30  C   -0.421042
    31  H    0.177920
    32  H    0.208573
    33  C   -0.414304
    34  H    0.178132
    35  H    0.170145
    36  S    0.107665
    37  C   -0.437887
    38  H    0.183253
    39  H    0.194220
    40  C   -0.390482
    41  H    0.171949
    42  H    0.178094
    43  S    0.073557
    44  C   -0.407361
    45  H    0.168618
    46  H    0.176214
    47  C   -0.436479
    48  H    0.163650
    49  H    0.152236
    50  H    0.149260
 Sum of Mulliken charges =  -0.00000
 Dipole moment (field-independent basis, Debye):
    X=              2.5931    Y=              0.0539    Z=             -4.3358  Tot=              5.0523
 Quadrupole moment (field-independent basis, Debye-Ang):
   XX=           -146.3912   YY=           -130.0090   ZZ=           -144.2200
   XY=             -9.8878   XZ=             -5.0826   YZ=             -1.6914
 Traceless Quadrupole moment (field-independent basis, Debye-Ang):
   XX=             -6.1845   YY=             10.1978   ZZ=             -4.0133
   XY=             -9.8878   XZ=             -5.0826   YZ=             -1.6914
 Octapole moment (field-independent basis, Debye-Ang**2):
  XXX=           -111.0617  YYY=           -998.1766  ZZZ=            -65.2872  XYY=           -125.2610
  XXY=           -434.8042  XXZ=            -55.5290  XZZ=             13.4010  YZZ=           -441.6047
  YYZ=              2.4355  XYZ=             33.7348
 Hexadecapole moment (field-independent basis, Debye-Ang**3):
 XXXX=          -9863.4863 YYYY=         -12917.1328 ZZZZ=          -6079.6373 XXXY=           2693.4167
 XXXZ=           3301.6498 YYYX=           2191.1133 YYYZ=          -2301.2491 ZZZX=           3382.8412
 ZZZY=          -2675.5059 XXYY=          -4051.6863 XXZZ=          -2507.3923 YYZZ=          -3831.5684
 XXYZ=           -717.9914 YYXZ=           1245.1382 ZZXY=           1044.8358
 Merz-Kollman atomic radii used.
 Atom Element Radius
    1     6    1.50
    2     1    1.20
    3     1    1.20
    4     1    1.20
    5     6    1.50
    6     1    1.20
    7     1    1.20
    8     8    1.40
    9     6    1.50
   10     1    1.20
   11     1    1.20
   12     6    1.50
   13     1    1.20
   14     1    1.20
   15     8    1.40
   16     6    1.50
   17     1    1.20
   18     1    1.20
   19     6    1.50
   20     1    1.20
   21     1    1.20
   22     8    1.40
   23     6    1.50
   24     1    1.20
   25     1    1.20
   26     6    1.50
   27     1    1.20
   28     1    1.20
   29    16    1.75
   30     6    1.50
   31     1    1.20
   32     1    1.20
   33     6    1.50
   34     1    1.20
   35     1    1.20
   36    16    1.75
   37     6    1.50
   38     1    1.20
   39     1    1.20
   40     6    1.50
   41     1    1.20
   42     1    1.20
   43    16    1.75
   44     6    1.50
   45     1    1.20
   46     1    1.20
   47     6    1.50
   48     1    1.20
   49     1    1.20
   50     1    1.20
 Generate VDW surfaces: Layer= 4 Dens= 1 Start= 1.400 Inc= 0.200
            Electrostatic Properties Using The SCF Density.


       Atomic Center    1 is at   7.108677 -1.261530 -3.771649
       Atomic Center    2 is at   7.448721 -0.369627 -4.308455
       Atomic Center    3 is at   7.153694 -1.052267 -2.697822
       Atomic Center    4 is at   7.811250 -2.072929 -3.995380
       Atomic Center    5 is at   5.692427 -1.667793 -4.174973
       Atomic Center    6 is at   5.644265 -1.882192 -5.255325
       Atomic Center    7 is at   5.400551 -2.581159 -3.645459
       Atomic Center    8 is at   4.703423 -0.703252 -3.831131
       Atomic Center    9 is at   4.635729  0.411414 -4.705639
       Atomic Center   10 is at   4.395924  0.073862 -5.730052
       Atomic Center   11 is at   5.590167  0.956638 -4.744295
       Atomic Center   12 is at   3.548947  1.364010 -4.225099
       Atomic Center   13 is at   3.346566  2.089112 -5.022298
       Atomic Center   14 is at   2.625204  0.794589 -4.043201
       Atomic Center   15 is at   3.927690  2.124997 -3.088706
       Atomic Center   16 is at   3.697187  1.506123 -1.824613
       Atomic Center   17 is at   4.454554  1.897605 -1.137504
       Atomic Center   18 is at   3.828402  0.420784 -1.886803
       Atomic Center   19 is at   2.307318  1.870975 -1.291465
       Atomic Center   20 is at   1.526466  1.554854 -1.999771
       Atomic Center   21 is at   2.233727  2.958249 -1.186309
       Atomic Center   22 is at   2.092540  1.309493  0.000000
       Atomic Center   23 is at   1.531154  0.000000  0.000000
       Atomic Center   24 is at   1.901527 -0.496691  0.902213
       Atomic Center   25 is at   1.890017 -0.570037 -0.871735
       Atomic Center   26 is at   0.000000  0.000000  0.000000
       Atomic Center   27 is at  -0.355227 -1.022831 -0.172971
       Atomic Center   28 is at  -0.386729  0.610548 -0.824599
       Atomic Center   29 is at  -0.806477  0.486546  1.578143
       Atomic Center   30 is at  -0.506397  2.300227  1.635647
       Atomic Center   31 is at  -0.638274  2.573395  2.687559
       Atomic Center   32 is at   0.540321  2.476628  1.374140
       Atomic Center   33 is at  -1.421234  3.142621  0.741111
       Atomic Center   34 is at  -1.422902  2.757088 -0.283280
       Atomic Center   35 is at  -1.039248  4.169638  0.688392
       Atomic Center   36 is at  -3.189949  3.197359  1.242424
       Atomic Center   37 is at  -3.134953  4.458957  2.578996
       Atomic Center   38 is at  -2.268615  4.267715  3.221635
       Atomic Center   39 is at  -4.028297  4.281077  3.185224
       Atomic Center   40 is at  -3.126792  5.895421  2.056410
       Atomic Center   41 is at  -2.265508  6.061066  1.401634
       Atomic Center   42 is at  -4.036921  6.087462  1.478774
       Atomic Center   43 is at  -3.057284  7.061888  3.482705
       Atomic Center   44 is at  -3.308937  8.669001  2.624673
       Atomic Center   45 is at  -4.231873  8.607385  2.036397
       Atomic Center   46 is at  -3.493715  9.381054  3.436127
       Atomic Center   47 is at  -2.135567  9.133804  1.762701
       Atomic Center   48 is at  -1.220229  9.214807  2.357298
       Atomic Center   49 is at  -1.942370  8.442159  0.935833
       Atomic Center   50 is at  -2.352261 10.117372  1.326878
      ESP Fit Center   51 is at   8.927330 -1.261530 -2.721649
      ESP Fit Center   52 is at   6.849856 -3.061672 -2.721649
      ESP Fit Center   53 is at   8.158677 -1.261530 -5.590302
      ESP Fit Center   54 is at   7.108677 -1.261530 -5.871649
      ESP Fit Center   55 is at   7.753869  0.569522 -2.949306
      ESP Fit Center   56 is at   9.046496 -0.369627 -3.789306
      ESP Fit Center   57 is at   8.672688  0.657403 -3.789306
      ESP Fit Center   58 is at   7.726172  1.203874 -3.789306
      ESP Fit Center   59 is at   9.046496 -0.369627 -4.827604
      ESP Fit Center   60 is at   8.672688  0.657403 -4.827604
      ESP Fit Center   61 is at   7.726172  1.203874 -4.827604
      ESP Fit Center   62 is at   8.436200 -0.369627 -5.667604
      ESP Fit Center   63 is at   7.753869  0.569522 -5.667604
      ESP Fit Center   64 is at   7.448721 -0.369627 -5.988455
      ESP Fit Center   65 is at   7.153694 -1.052267 -1.017822
      ESP Fit Center   66 is at   8.141173 -1.052267 -1.338673
      ESP Fit Center   67 is at   7.458842 -0.113118 -1.338673
      ESP Fit Center   68 is at   6.354807 -0.471841 -1.338673
      ESP Fit Center   69 is at   6.354807 -1.632693 -1.338673
      ESP Fit Center   70 is at   7.458842 -1.991416 -1.338673
      ESP Fit Center   71 is at   8.751469 -1.052267 -2.178673
      ESP Fit Center   72 is at   8.377661 -0.025237 -2.178673
      ESP Fit Center   73 is at   7.431145  0.521234 -2.178673
      ESP Fit Center   74 is at   6.354807  0.331447 -2.178673
      ESP Fit Center   75 is at   6.354807 -2.435981 -2.178673
      ESP Fit Center   76 is at   7.431145 -2.625768 -2.178673
      ESP Fit Center   77 is at   8.377661 -2.079297 -2.178673
      ESP Fit Center   78 is at   8.798729 -2.072929 -2.636231
      ESP Fit Center   79 is at   8.116398 -3.012078 -2.636231
      ESP Fit Center   80 is at   9.409025 -2.072929 -3.476231
      ESP Fit Center   81 is at   7.012363 -3.456643 -3.476231
      ESP Fit Center   82 is at   8.088701 -3.646430 -3.476231
      ESP Fit Center   83 is at   9.035217 -3.099959 -3.476231
      ESP Fit Center   84 is at   9.409025 -2.072929 -4.514529
      ESP Fit Center   85 is at   7.012363 -3.456643 -4.514529
      ESP Fit Center   86 is at   8.088701 -3.646430 -4.514529
      ESP Fit Center   87 is at   9.035217 -3.099959 -4.514529
      ESP Fit Center   88 is at   8.798729 -2.072929 -5.354529
      ESP Fit Center   89 is at   8.116398 -3.012078 -5.354529
      ESP Fit Center   90 is at   7.811250 -2.072929 -5.675380
      ESP Fit Center   91 is at   5.692427 -1.667793 -2.074973
      ESP Fit Center   92 is at   3.947442 -2.180167 -5.224973
      ESP Fit Center   93 is at   7.242040 -1.882192 -5.774474
      ESP Fit Center   94 is at   4.142848 -2.428663 -5.774474
      ESP Fit Center   95 is at   4.845378 -3.265906 -5.774474
      ESP Fit Center   96 is at   5.921716 -3.455693 -5.774474
      ESP Fit Center   97 is at   6.868232 -2.909222 -5.774474
      ESP Fit Center   98 is at   6.631744 -1.882192 -6.614474
      ESP Fit Center   99 is at   5.949413 -0.943043 -6.614474
      ESP Fit Center  100 is at   4.845378 -1.301766 -6.614474
      ESP Fit Center  101 is at   4.845378 -2.462618 -6.614474
      ESP Fit Center  102 is at   5.949413 -2.821341 -6.614474
      ESP Fit Center  103 is at   5.644265 -1.882192 -6.935325
      ESP Fit Center  104 is at   5.400551 -2.581159 -1.965459
      ESP Fit Center  105 is at   6.388030 -2.581159 -2.286310
      ESP Fit Center  106 is at   4.601664 -2.000733 -2.286310
      ESP Fit Center  107 is at   4.601664 -3.161585 -2.286310
      ESP Fit Center  108 is at   5.705699 -3.520308 -2.286310
      ESP Fit Center  109 is at   3.899134 -3.127630 -3.126310
      ESP Fit Center  110 is at   4.601664 -3.964873 -3.126310
      ESP Fit Center  111 is at   5.678002 -4.154660 -3.126310
      ESP Fit Center  112 is at   6.624518 -3.608189 -3.126310
      ESP Fit Center  113 is at   3.899134 -3.127630 -4.164608
      ESP Fit Center  114 is at   4.601664 -3.964873 -4.164608
      ESP Fit Center  115 is at   5.678002 -4.154660 -4.164608
      ESP Fit Center  116 is at   6.624518 -3.608189 -4.164608
      ESP Fit Center  117 is at   4.213423 -1.551957 -2.133721
      ESP Fit Center  118 is at   5.193423 -1.551957 -2.133721
      ESP Fit Center  119 is at   3.006013 -0.703252 -2.851131
      ESP Fit Center  120 is at   3.330190 -1.700964 -2.851131
      ESP Fit Center  121 is at   3.006013 -1.683252 -3.831131
      ESP Fit Center  122 is at   3.723423 -2.400662 -3.831131
      ESP Fit Center  123 is at   3.330190 -1.700964 -4.811131
      ESP Fit Center  124 is at   2.894507  0.620333 -6.249201
      ESP Fit Center  125 is at   2.894507 -0.472609 -6.249201
      ESP Fit Center  126 is at   3.597037 -1.309852 -6.249201
      ESP Fit Center  127 is at   5.383403  0.073862 -7.089201
      ESP Fit Center  128 is at   4.701072  1.013011 -7.089201
      ESP Fit Center  129 is at   3.597037  0.654288 -7.089201
      ESP Fit Center  130 is at   3.597037 -0.506564 -7.089201
      ESP Fit Center  131 is at   4.701072 -0.865287 -7.089201
      ESP Fit Center  132 is at   4.395924  0.073862 -7.410052
      ESP Fit Center  133 is at   6.577646  0.956638 -3.385146
      ESP Fit Center  134 is at   5.895315  1.895787 -3.385146
      ESP Fit Center  135 is at   6.814134  1.983668 -4.225146
      ESP Fit Center  136 is at   5.867618  2.530139 -4.225146
      ESP Fit Center  137 is at   6.814134  1.983668 -5.263444
      ESP Fit Center  138 is at   5.867618  2.530139 -5.263444
      ESP Fit Center  139 is at   6.577646  0.956638 -6.103444
      ESP Fit Center  140 is at   5.895315  1.895787 -6.103444
      ESP Fit Center  141 is at   1.977074  2.756568 -4.225099
      ESP Fit Center  142 is at   3.624017  3.662613 -4.503149
      ESP Fit Center  143 is at   2.547679  3.472826 -4.503149
      ESP Fit Center  144 is at   1.845149  2.635583 -4.503149
      ESP Fit Center  145 is at   4.570533  3.116142 -5.541447
      ESP Fit Center  146 is at   3.624017  3.662613 -5.541447
      ESP Fit Center  147 is at   2.547679  3.472826 -5.541447
      ESP Fit Center  148 is at   1.845149  2.635583 -5.541447
      ESP Fit Center  149 is at   1.845149  1.542641 -5.541447
      ESP Fit Center  150 is at   4.334045  2.089112 -6.381447
      ESP Fit Center  151 is at   3.651714  3.028261 -6.381447
      ESP Fit Center  152 is at   2.547679  2.669538 -6.381447
      ESP Fit Center  153 is at   2.547679  1.508686 -6.381447
      ESP Fit Center  154 is at   3.346566  2.089112 -6.702298
      ESP Fit Center  155 is at   1.123787  0.248118 -3.524052
      ESP Fit Center  156 is at   1.826317 -0.589125 -3.524052
      ESP Fit Center  157 is at   1.123787  1.341060 -4.562350
      ESP Fit Center  158 is at   1.123787  0.248118 -4.562350
      ESP Fit Center  159 is at   1.826317 -0.589125 -4.562350
      ESP Fit Center  160 is at   1.826317  0.214163 -5.402350
      ESP Fit Center  161 is at   5.300923  3.122709 -2.108706
      ESP Fit Center  162 is at   4.452218  3.739330 -2.108706
      ESP Fit Center  163 is at   3.403162  3.739330 -2.108706
      ESP Fit Center  164 is at   5.887690  2.124997 -3.088706
      ESP Fit Center  165 is at   5.625100  3.104997 -3.088706
      ESP Fit Center  166 is at   4.907690  3.822407 -3.088706
      ESP Fit Center  167 is at   3.927690  4.084997 -3.088706
      ESP Fit Center  168 is at   2.947690  3.822407 -3.088706
      ESP Fit Center  169 is at   2.230280  3.104997 -3.088706
      ESP Fit Center  170 is at   5.300923  3.122709 -4.068706
      ESP Fit Center  171 is at   4.452218  3.739330 -4.068706
      ESP Fit Center  172 is at   3.403162  3.739330 -4.068706
      ESP Fit Center  173 is at   4.222187  0.596796 -0.005960
      ESP Fit Center  174 is at   5.556645  0.530204 -1.824613
      ESP Fit Center  175 is at   4.454554  1.897605  0.542496
      ESP Fit Center  176 is at   5.442033  1.897605  0.221645
      ESP Fit Center  177 is at   4.759702  2.836754  0.221645
      ESP Fit Center  178 is at   3.655667  2.478031  0.221645
      ESP Fit Center  179 is at   4.759702  0.958456  0.221645
      ESP Fit Center  180 is at   6.052329  1.897605 -0.618355
      ESP Fit Center  181 is at   5.678521  2.924635 -0.618355
      ESP Fit Center  182 is at   4.732005  3.471106 -0.618355
      ESP Fit Center  183 is at   5.678521  0.870575 -0.618355
      ESP Fit Center  184 is at   6.052329  1.897605 -1.656653
      ESP Fit Center  185 is at   5.678521  2.924635 -1.656653
      ESP Fit Center  186 is at   4.732005  3.471106 -1.656653
      ESP Fit Center  187 is at   4.133550 -0.518365 -0.527654
      ESP Fit Center  188 is at   4.105853 -1.152717 -1.367654
      ESP Fit Center  189 is at   5.052369 -0.606246 -1.367654
      ESP Fit Center  190 is at   3.029515 -0.962930 -2.405952
      ESP Fit Center  191 is at   0.727579  2.938568 -2.518920
      ESP Fit Center  192 is at   0.025049  2.101325 -2.518920
      ESP Fit Center  193 is at   0.025049  1.008383 -2.518920
      ESP Fit Center  194 is at   0.727579  0.171140 -2.518920
      ESP Fit Center  195 is at   1.803917 -0.018647 -2.518920
      ESP Fit Center  196 is at   1.831614  2.494003 -3.358920
      ESP Fit Center  197 is at   0.727579  2.135280 -3.358920
      ESP Fit Center  198 is at   0.727579  0.974428 -3.358920
      ESP Fit Center  199 is at   2.538875  3.897398  0.172840
      ESP Fit Center  200 is at   1.434840  3.538675  0.172840
      ESP Fit Center  201 is at   3.457694  3.985279 -0.667160
      ESP Fit Center  202 is at   2.511178  4.531750 -0.667160
      ESP Fit Center  203 is at   1.434840  4.341963 -0.667160
      ESP Fit Center  204 is at   0.732310  3.504720 -0.667160
      ESP Fit Center  205 is at   3.457694  3.985279 -1.705458
      ESP Fit Center  206 is at   2.511178  4.531750 -1.705458
      ESP Fit Center  207 is at   1.434840  4.341963 -1.705458
      ESP Fit Center  208 is at   0.732310  3.504720 -1.705458
      ESP Fit Center  209 is at   2.538875  3.897398 -2.545458
      ESP Fit Center  210 is at   1.434840  3.538675 -2.545458
      ESP Fit Center  211 is at   2.092540  1.309493  1.960000
      ESP Fit Center  212 is at   3.072540  1.309493  1.697410
      ESP Fit Center  213 is at   2.582540  2.158198  1.697410
      ESP Fit Center  214 is at   3.789950  1.309493  0.980000
      ESP Fit Center  215 is at   3.465773  2.307205  0.980000
      ESP Fit Center  216 is at   2.617068  2.923826  0.980000
      ESP Fit Center  217 is at   3.465773  0.311781  0.980000
      ESP Fit Center  218 is at   3.789950  0.329493  0.000000
      ESP Fit Center  219 is at   3.631154  0.000000  0.000000
      ESP Fit Center  220 is at   1.784281 -2.084689  0.000000
      ESP Fit Center  221 is at   3.390612 -0.975919  0.000000
      ESP Fit Center  222 is at   1.901527 -0.496691  2.582213
      ESP Fit Center  223 is at   2.889006 -0.496691  2.261362
      ESP Fit Center  224 is at   2.206675  0.442458  2.261362
      ESP Fit Center  225 is at   1.102640 -1.077117  2.261362
      ESP Fit Center  226 is at   2.206675 -1.435840  2.261362
      ESP Fit Center  227 is at   3.499302 -0.496691  1.421362
      ESP Fit Center  228 is at   1.102640 -1.880405  1.421362
      ESP Fit Center  229 is at   2.178978 -2.070192  1.421362
      ESP Fit Center  230 is at   3.125494 -1.523721  1.421362
      ESP Fit Center  231 is at   2.178978 -2.070192  0.383064
      ESP Fit Center  232 is at   3.125494 -1.523721  0.383064
      ESP Fit Center  233 is at   2.167468 -2.143538 -0.352586
      ESP Fit Center  234 is at   3.113984 -1.597067 -0.352586
      ESP Fit Center  235 is at   1.091130 -1.953751 -1.390884
      ESP Fit Center  236 is at   2.167468 -2.143538 -1.390884
      ESP Fit Center  237 is at   3.113984 -1.597067 -1.390884
      ESP Fit Center  238 is at   1.091130 -1.150463 -2.230884
      ESP Fit Center  239 is at   2.195165 -1.509186 -2.230884
      ESP Fit Center  240 is at   1.890017 -0.570037 -2.551735
      ESP Fit Center  241 is at  -1.744985 -0.512374 -1.050000
      ESP Fit Center  242 is at   0.525000 -0.909327 -1.818653
      ESP Fit Center  243 is at  -0.050079 -1.961980  1.186178
      ESP Fit Center  244 is at  -1.856644 -1.569302  0.346178
      ESP Fit Center  245 is at  -1.154114 -2.406545  0.346178
      ESP Fit Center  246 is at  -0.077776 -2.596332  0.346178
      ESP Fit Center  247 is at   0.868740 -2.049861  0.346178
      ESP Fit Center  248 is at  -1.856644 -1.569302 -0.692120
      ESP Fit Center  249 is at  -1.154114 -2.406545 -0.692120
      ESP Fit Center  250 is at  -0.077776 -2.596332 -0.692120
      ESP Fit Center  251 is at   0.868740 -2.049861 -0.692120
      ESP Fit Center  252 is at  -1.154114 -1.603257 -1.532120
      ESP Fit Center  253 is at  -0.050079 -1.961980 -1.532120
      ESP Fit Center  254 is at  -0.355227 -1.022831 -1.852971
      ESP Fit Center  255 is at  -0.109278  2.184049 -1.343748
      ESP Fit Center  256 is at  -1.888146  1.157019 -1.343748
      ESP Fit Center  257 is at  -1.888146  0.064077 -1.343748
      ESP Fit Center  258 is at  -1.185616  1.190974 -2.183748
      ESP Fit Center  259 is at  -1.185616  0.030122 -2.183748
      ESP Fit Center  260 is at  -0.081581 -0.328601 -2.183748
      ESP Fit Center  261 is at  -0.386729  0.610548 -2.504599
      ESP Fit Center  262 is at  -0.806477  0.486546  4.028143
      ESP Fit Center  263 is at   0.256538  0.486546  3.785517
      ESP Fit Center  264 is at  -1.337985  1.407144  3.785517
      ESP Fit Center  265 is at  -1.869492  0.486546  3.785517
      ESP Fit Center  266 is at  -1.337985 -0.434052  3.785517
      ESP Fit Center  267 is at  -0.274969 -0.434052  3.785517
      ESP Fit Center  268 is at   1.109010  0.486546  3.105693
      ESP Fit Center  269 is at   0.804933  1.522137  3.105693
      ESP Fit Center  270 is at  -2.644373  1.026201  3.105693
      ESP Fit Center  271 is at  -2.644373 -0.053109  3.105693
      ESP Fit Center  272 is at  -2.060854 -0.961083  3.105693
      ESP Fit Center  273 is at  -1.079079 -1.409444  3.105693
      ESP Fit Center  274 is at  -0.010755 -1.255842  3.105693
      ESP Fit Center  275 is at   0.804933 -0.549045  3.105693
      ESP Fit Center  276 is at  -3.195050  0.486546  2.123319
      ESP Fit Center  277 is at  -2.958507 -0.549817  2.123319
      ESP Fit Center  278 is at  -2.295728 -1.380916  2.123319
      ESP Fit Center  279 is at  -1.337985 -1.842141  2.123319
      ESP Fit Center  280 is at  -0.274969 -1.842141  2.123319
      ESP Fit Center  281 is at   0.682774 -1.380916  2.123319
      ESP Fit Center  282 is at  -3.195050  0.486546  1.032967
      ESP Fit Center  283 is at  -2.958507 -0.549817  1.032967
      ESP Fit Center  284 is at  -2.295728 -1.380916  1.032967
      ESP Fit Center  285 is at  -1.337985 -1.842141  1.032967
      ESP Fit Center  286 is at  -2.644373  1.026201  0.050593
      ESP Fit Center  287 is at  -2.644373 -0.053109  0.050593
      ESP Fit Center  288 is at  -2.060854 -0.961083  0.050593
      ESP Fit Center  289 is at  -0.638274  2.573395  4.367559
      ESP Fit Center  290 is at   0.349205  2.573395  4.046708
      ESP Fit Center  291 is at  -0.333126  3.512544  4.046708
      ESP Fit Center  292 is at  -1.437161  1.992969  4.046708
      ESP Fit Center  293 is at  -0.333126  1.634246  4.046708
      ESP Fit Center  294 is at   0.959501  2.573395  3.206708
      ESP Fit Center  295 is at   0.585693  3.600425  3.206708
      ESP Fit Center  296 is at  -0.360823  4.146896  3.206708
      ESP Fit Center  297 is at  -2.139691  2.026924  3.206708
      ESP Fit Center  298 is at   1.527800  2.476628  2.733289
      ESP Fit Center  299 is at   2.138096  2.476628  1.893289
      ESP Fit Center  300 is at   1.764288  3.503658  1.893289
      ESP Fit Center  301 is at   0.817772  4.050129  1.893289
      ESP Fit Center  302 is at   1.764288  3.503658  0.854991
      ESP Fit Center  303 is at   0.817772  4.050129  0.854991
      ESP Fit Center  304 is at   0.845469  3.415777  0.014991
      ESP Fit Center  305 is at   0.540321  2.476628 -0.305860
      ESP Fit Center  306 is at   0.397419  3.142621 -0.308889
      ESP Fit Center  307 is at   0.174873  2.757088 -0.802429
      ESP Fit Center  308 is at  -2.221789  1.373374 -0.802429
      ESP Fit Center  309 is at  -0.435423  2.757088 -1.642429
      ESP Fit Center  310 is at  -1.117754  3.696237 -1.642429
      ESP Fit Center  311 is at  -2.221789  3.337514 -1.642429
      ESP Fit Center  312 is at  -2.221789  2.176662 -1.642429
      ESP Fit Center  313 is at  -1.422902  2.757088 -1.963280
      ESP Fit Center  314 is at  -0.734100  5.108787  2.047541
      ESP Fit Center  315 is at   0.558527  4.169638  1.207541
      ESP Fit Center  316 is at   0.184719  5.196668  1.207541
      ESP Fit Center  317 is at   0.558527  4.169638  0.169243
      ESP Fit Center  318 is at   0.184719  5.196668  0.169243
      ESP Fit Center  319 is at  -0.761797  5.743139  0.169243
      ESP Fit Center  320 is at  -0.051769  4.169638 -0.670757
      ESP Fit Center  321 is at  -0.734100  5.108787 -0.670757
      ESP Fit Center  322 is at  -1.838135  4.750064 -0.670757
      ESP Fit Center  323 is at  -3.721457  2.276761  3.449798
      ESP Fit Center  324 is at  -2.658441  2.276761  3.449798
      ESP Fit Center  325 is at  -5.027845  2.657704  2.769974
      ESP Fit Center  326 is at  -4.444326  1.749730  2.769974
      ESP Fit Center  327 is at  -3.462551  1.301369  2.769974
      ESP Fit Center  328 is at  -5.341979  4.233722  1.787600
      ESP Fit Center  329 is at  -5.578522  3.197359  1.787600
      ESP Fit Center  330 is at  -5.341979  2.160996  1.787600
      ESP Fit Center  331 is at  -4.679200  1.329897  1.787600
      ESP Fit Center  332 is at  -3.721457  0.868672  1.787600
      ESP Fit Center  333 is at  -5.341979  4.233722  0.697248
      ESP Fit Center  334 is at  -5.578522  3.197359  0.697248
      ESP Fit Center  335 is at  -5.341979  2.160996  0.697248
      ESP Fit Center  336 is at  -4.679200  1.329897  0.697248
      ESP Fit Center  337 is at  -3.721457  0.868672  0.697248
      ESP Fit Center  338 is at  -2.394227  4.939747 -0.285126
      ESP Fit Center  339 is at  -3.462551  5.093349 -0.285126
      ESP Fit Center  340 is at  -4.444326  4.644988 -0.285126
      ESP Fit Center  341 is at  -5.027845  3.737014 -0.285126
      ESP Fit Center  342 is at  -5.027845  2.657704 -0.285126
      ESP Fit Center  343 is at  -4.444326  1.749730 -0.285126
      ESP Fit Center  344 is at  -3.462551  1.301369 -0.285126
      ESP Fit Center  345 is at  -2.658441  4.117957 -0.964950
      ESP Fit Center  346 is at  -3.721457  4.117957 -0.964950
      ESP Fit Center  347 is at  -4.252964  3.197359 -0.964950
      ESP Fit Center  348 is at  -3.721457  2.276761 -0.964950
      ESP Fit Center  349 is at  -3.189949  3.197359 -1.207576
      ESP Fit Center  350 is at  -3.134953  4.458957  4.678996
      ESP Fit Center  351 is at  -3.393774  2.658815  3.628996
      ESP Fit Center  352 is at  -2.268615  4.267715  4.901635
      ESP Fit Center  353 is at  -1.281136  4.267715  4.580784
      ESP Fit Center  354 is at  -3.067502  3.687289  4.580784
      ESP Fit Center  355 is at  -1.963467  3.328566  4.580784
      ESP Fit Center  356 is at  -0.670840  4.267715  3.740784
      ESP Fit Center  357 is at  -1.044648  5.294745  3.740784
      ESP Fit Center  358 is at  -1.991164  2.694214  3.740784
      ESP Fit Center  359 is at  -0.670840  4.267715  2.702486
      ESP Fit Center  360 is at  -1.044648  5.294745  2.702486
      ESP Fit Center  361 is at  -4.028297  4.281077  4.865224
      ESP Fit Center  362 is at  -4.827184  4.861503  4.544373
      ESP Fit Center  363 is at  -4.827184  3.700651  4.544373
      ESP Fit Center  364 is at  -3.723149  3.341928  4.544373
      ESP Fit Center  365 is at  -5.529714  4.827548  3.704373
      ESP Fit Center  366 is at  -5.529714  3.734606  3.704373
      ESP Fit Center  367 is at  -4.827184  2.897363  3.704373
      ESP Fit Center  368 is at  -3.750846  2.707576  3.704373
      ESP Fit Center  369 is at  -5.529714  4.827548  2.666075
      ESP Fit Center  370 is at  -5.529714  3.734606  2.666075
      ESP Fit Center  371 is at  -3.126792  5.895421 -0.043590
      ESP Fit Center  372 is at  -0.667733  6.061066  1.920783
      ESP Fit Center  373 is at  -1.041541  7.088096  1.920783
      ESP Fit Center  374 is at  -0.667733  6.061066  0.882485
      ESP Fit Center  375 is at  -1.278029  6.061066  0.042485
      ESP Fit Center  376 is at  -1.960360  7.000215  0.042485
      ESP Fit Center  377 is at  -3.064395  6.641492  0.042485
      ESP Fit Center  378 is at  -2.265508  6.061066 -0.278366
      ESP Fit Center  379 is at  -5.538338  6.633933  1.997923
      ESP Fit Center  380 is at  -5.538338  5.540991  1.997923
      ESP Fit Center  381 is at  -5.538338  6.633933  0.959625
      ESP Fit Center  382 is at  -5.538338  5.540991  0.959625
      ESP Fit Center  383 is at  -3.731773  7.026611  0.119625
      ESP Fit Center  384 is at  -4.835808  6.667888  0.119625
      ESP Fit Center  385 is at  -4.835808  5.507036  0.119625
      ESP Fit Center  386 is at  -4.036921  6.087462 -0.201226
      ESP Fit Center  387 is at  -3.057284  7.061888  5.932705
      ESP Fit Center  388 is at  -1.994269  7.061888  5.690079
      ESP Fit Center  389 is at  -2.525776  7.982486  5.690079
      ESP Fit Center  390 is at  -3.588792  7.982486  5.690079
      ESP Fit Center  391 is at  -4.120299  7.061888  5.690079
      ESP Fit Center  392 is at  -3.588792  6.141290  5.690079
      ESP Fit Center  393 is at  -2.525776  6.141290  5.690079
      ESP Fit Center  394 is at  -1.141797  7.061888  5.010255
      ESP Fit Center  395 is at  -1.445874  8.097479  5.010255
      ESP Fit Center  396 is at  -2.261562  8.804276  5.010255
      ESP Fit Center  397 is at  -4.311661  8.509517  5.010255
      ESP Fit Center  398 is at  -4.895180  7.601543  5.010255
      ESP Fit Center  399 is at  -4.895180  6.522233  5.010255
      ESP Fit Center  400 is at  -4.311661  5.614259  5.010255
      ESP Fit Center  401 is at  -3.329886  5.165898  5.010255
      ESP Fit Center  402 is at  -2.261562  5.319500  5.010255
      ESP Fit Center  403 is at  -1.445874  6.026297  5.010255
      ESP Fit Center  404 is at  -0.668711  7.061888  4.027881
      ESP Fit Center  405 is at  -0.905254  8.098251  4.027881
      ESP Fit Center  406 is at  -1.568033  8.929350  4.027881
      ESP Fit Center  407 is at  -5.209314  8.098251  4.027881
      ESP Fit Center  408 is at  -5.445857  7.061888  4.027881
      ESP Fit Center  409 is at  -5.209314  6.025525  4.027881
      ESP Fit Center  410 is at  -0.905254  6.025525  4.027881
      ESP Fit Center  411 is at  -0.668711  7.061888  2.937529
      ESP Fit Center  412 is at  -5.445857  7.061888  2.937529
      ESP Fit Center  413 is at  -5.209314  6.025525  2.937529
      ESP Fit Center  414 is at  -0.905254  6.025525  2.937529
      ESP Fit Center  415 is at  -4.880810 10.061559  2.624673
      ESP Fit Center  416 is at  -5.030760  9.991099  2.555546
      ESP Fit Center  417 is at  -5.733290  9.153856  2.555546
      ESP Fit Center  418 is at  -5.733290  8.060914  2.555546
      ESP Fit Center  419 is at  -5.030760  9.991099  1.517248
      ESP Fit Center  420 is at  -5.733290  9.153856  1.517248
      ESP Fit Center  421 is at  -5.733290  8.060914  1.517248
      ESP Fit Center  422 is at  -3.926725  9.546534  0.677248
      ESP Fit Center  423 is at  -5.030760  9.187811  0.677248
      ESP Fit Center  424 is at  -5.030760  8.026959  0.677248
      ESP Fit Center  425 is at  -3.926725  7.668236  0.677248
      ESP Fit Center  426 is at  -4.231873  8.607385  0.356397
      ESP Fit Center  427 is at  -3.493715  9.381054  5.116127
      ESP Fit Center  428 is at  -2.506236  9.381054  4.795276
      ESP Fit Center  429 is at  -3.188567 10.320203  4.795276
      ESP Fit Center  430 is at  -4.292602  9.961480  4.795276
      ESP Fit Center  431 is at  -4.292602  8.800628  4.795276
      ESP Fit Center  432 is at  -2.269748 10.408084  3.955276
      ESP Fit Center  433 is at  -3.216264 10.954555  3.955276
      ESP Fit Center  434 is at  -4.292602 10.764768  3.955276
      ESP Fit Center  435 is at  -4.995132  9.927525  3.955276
      ESP Fit Center  436 is at  -4.995132  8.834583  3.955276
      ESP Fit Center  437 is at  -3.216264 10.954555  2.916978
      ESP Fit Center  438 is at  -4.292602 10.764768  2.916978
      ESP Fit Center  439 is at  -4.995132  9.927525  2.916978
      ESP Fit Center  440 is at  -2.394388 10.933946  2.812701
      ESP Fit Center  441 is at  -0.316914  9.133804  0.712701
      ESP Fit Center  442 is at  -0.605618 10.117042  0.712701
      ESP Fit Center  443 is at  -3.880552  9.646178  0.712701
      ESP Fit Center  444 is at  -3.185567  9.133804 -0.055952
      ESP Fit Center  445 is at  -1.220229  9.214807  4.037298
      ESP Fit Center  446 is at  -0.232750  9.214807  3.716447
      ESP Fit Center  447 is at  -0.915081 10.153956  3.716447
      ESP Fit Center  448 is at  -0.915081  8.275658  3.716447
      ESP Fit Center  449 is at   0.377546  9.214807  2.876447
      ESP Fit Center  450 is at   0.003738 10.241837  2.876447
      ESP Fit Center  451 is at  -0.942778 10.788308  2.876447
      ESP Fit Center  452 is at   0.003738  8.187777  2.876447
      ESP Fit Center  453 is at   0.377546  9.214807  1.838149
      ESP Fit Center  454 is at   0.003738 10.241837  1.838149
      ESP Fit Center  455 is at   0.003738  8.187777  1.838149
      ESP Fit Center  456 is at  -0.718403  7.415129  1.454982
      ESP Fit Center  457 is at  -0.344595  8.442159  0.416684
      ESP Fit Center  458 is at  -3.443787  7.895688  0.416684
      ESP Fit Center  459 is at  -0.718403  7.415129  0.416684
      ESP Fit Center  460 is at  -0.954891  8.442159 -0.423316
      ESP Fit Center  461 is at  -1.637222  9.381308 -0.423316
      ESP Fit Center  462 is at  -2.741257  9.022585 -0.423316
      ESP Fit Center  463 is at  -2.741257  7.861733 -0.423316
      ESP Fit Center  464 is at  -1.637222  7.503010 -0.423316
      ESP Fit Center  465 is at  -1.942370  8.442159 -0.744167
      ESP Fit Center  466 is at  -2.047113 11.056521  2.686027
      ESP Fit Center  467 is at  -1.128294 11.144402  1.846027
      ESP Fit Center  468 is at  -2.074810 11.690873  1.846027
      ESP Fit Center  469 is at  -3.151148 11.501086  1.846027
      ESP Fit Center  470 is at  -3.853678 10.663843  1.846027
      ESP Fit Center  471 is at  -1.128294 11.144402  0.807729
      ESP Fit Center  472 is at  -2.074810 11.690873  0.807729
      ESP Fit Center  473 is at  -3.151148 11.501086  0.807729
      ESP Fit Center  474 is at  -3.853678 10.663843  0.807729
      ESP Fit Center  475 is at  -1.364782 10.117372 -0.032271
      ESP Fit Center  476 is at  -2.047113 11.056521 -0.032271
      ESP Fit Center  477 is at  -3.151148 10.697798 -0.032271
      ESP Fit Center  478 is at  -3.151148  9.536946 -0.032271
      ESP Fit Center  479 is at  -2.352261 10.117372 -0.353122
      ESP Fit Center  480 is at   6.841638 -3.118827 -2.275273
      ESP Fit Center  481 is at   7.888160 -2.968359 -2.275273
      ESP Fit Center  482 is at   8.687201 -2.275986 -2.275273
      ESP Fit Center  483 is at   9.448504 -1.261530 -3.237599
      ESP Fit Center  484 is at   9.216788 -0.246317 -3.237599
      ESP Fit Center  485 is at   8.149998 -1.261530 -5.933974
      ESP Fit Center  486 is at   7.629337 -2.163340 -5.933974
      ESP Fit Center  487 is at   8.793929  0.607724 -3.348455
      ESP Fit Center  488 is at   7.962545  1.211760 -3.348455
      ESP Fit Center  489 is at   6.934897  1.211760 -3.348455
      ESP Fit Center  490 is at   9.368721 -0.369627 -4.308455
      ESP Fit Center  491 is at   9.111490  0.590373 -4.308455
      ESP Fit Center  492 is at   8.408721  1.293142 -4.308455
      ESP Fit Center  493 is at   7.448721  1.550373 -4.308455
      ESP Fit Center  494 is at   9.111490 -0.369627 -5.268455
      ESP Fit Center  495 is at   8.793929  0.607724 -5.268455
      ESP Fit Center  496 is at   7.962545  1.211760 -5.268455
      ESP Fit Center  497 is at   8.408721 -0.369627 -5.971224
      ESP Fit Center  498 is at   7.928721  0.461757 -5.971224
      ESP Fit Center  499 is at   7.448721 -0.369627 -6.228455
      ESP Fit Center  500 is at   7.153694 -1.052267 -0.777822
      ESP Fit Center  501 is at   8.113694 -1.052267 -1.035053
      ESP Fit Center  502 is at   7.633694 -0.220883 -1.035053
      ESP Fit Center  503 is at   6.673694 -0.220883 -1.035053
      ESP Fit Center  504 is at   6.193694 -1.052267 -1.035053
      ESP Fit Center  505 is at   6.673694 -1.883651 -1.035053
      ESP Fit Center  506 is at   7.633694 -1.883651 -1.035053
      ESP Fit Center  507 is at   8.816463 -1.052267 -1.737822
      ESP Fit Center  508 is at   8.498902 -0.074916 -1.737822
      ESP Fit Center  509 is at   7.667518  0.529120 -1.737822
      ESP Fit Center  510 is at   6.639870  0.529120 -1.737822
      ESP Fit Center  511 is at   5.808486 -0.074916 -1.737822
      ESP Fit Center  512 is at   5.490925 -1.052267 -1.737822
      ESP Fit Center  513 is at   5.808486 -2.029618 -1.737822
      ESP Fit Center  514 is at   6.639870 -2.633654 -1.737822
      ESP Fit Center  515 is at   7.667518 -2.633654 -1.737822
      ESP Fit Center  516 is at   8.498902 -2.029618 -1.737822
      ESP Fit Center  517 is at   8.291250 -2.904313 -2.332611
      ESP Fit Center  518 is at   9.474019 -2.072929 -3.035380
      ESP Fit Center  519 is at   7.297426 -3.654316 -3.035380
      ESP Fit Center  520 is at   8.325074 -3.654316 -3.035380
      ESP Fit Center  521 is at   9.156458 -3.050280 -3.035380
      ESP Fit Center  522 is at   9.731250 -2.072929 -3.995380
      ESP Fit Center  523 is at   7.811250 -3.992929 -3.995380
      ESP Fit Center  524 is at   8.771250 -3.735698 -3.995380
      ESP Fit Center  525 is at   9.474019 -3.032929 -3.995380
      ESP Fit Center  526 is at   9.474019 -2.072929 -4.955380
      ESP Fit Center  527 is at   7.297426 -3.654316 -4.955380
      ESP Fit Center  528 is at   8.325074 -3.654316 -4.955380
      ESP Fit Center  529 is at   9.156458 -3.050280 -4.955380
      ESP Fit Center  530 is at   8.771250 -2.072929 -5.658149
      ESP Fit Center  531 is at   7.331250 -2.904313 -5.658149
      ESP Fit Center  532 is at   8.291250 -2.904313 -5.658149
      ESP Fit Center  533 is at   3.584316 -2.683006 -4.709023
      ESP Fit Center  534 is at   7.307034 -1.882192 -6.215325
      ESP Fit Center  535 is at   6.989473 -0.904841 -6.215325
      ESP Fit Center  536 is at   3.981496 -1.882192 -6.215325
      ESP Fit Center  537 is at   4.299057 -2.859543 -6.215325
      ESP Fit Center  538 is at   5.130441 -3.463579 -6.215325
      ESP Fit Center  539 is at   6.158089 -3.463579 -6.215325
      ESP Fit Center  540 is at   6.989473 -2.859543 -6.215325
      ESP Fit Center  541 is at   6.604265 -1.882192 -6.918094
      ESP Fit Center  542 is at   6.124265 -1.050808 -6.918094
      ESP Fit Center  543 is at   4.684265 -1.882192 -6.918094
      ESP Fit Center  544 is at   5.164265 -2.713576 -6.918094
      ESP Fit Center  545 is at   6.124265 -2.713576 -6.918094
      ESP Fit Center  546 is at   5.644265 -1.882192 -7.175325
      ESP Fit Center  547 is at   5.400551 -2.581159 -1.725459
      ESP Fit Center  548 is at   4.440551 -2.581159 -1.982690
      ESP Fit Center  549 is at   4.920551 -3.412543 -1.982690
      ESP Fit Center  550 is at   5.880551 -3.412543 -1.982690
      ESP Fit Center  551 is at   3.737782 -2.581159 -2.685459
      ESP Fit Center  552 is at   4.055343 -3.558510 -2.685459
      ESP Fit Center  553 is at   4.886727 -4.162546 -2.685459
      ESP Fit Center  554 is at   5.914375 -4.162546 -2.685459
      ESP Fit Center  555 is at   6.745759 -3.558510 -2.685459
      ESP Fit Center  556 is at   3.480551 -2.581159 -3.645459
      ESP Fit Center  557 is at   3.737782 -3.541159 -3.645459
      ESP Fit Center  558 is at   4.440551 -4.243928 -3.645459
      ESP Fit Center  559 is at   5.400551 -4.501159 -3.645459
      ESP Fit Center  560 is at   6.360551 -4.243928 -3.645459
      ESP Fit Center  561 is at   4.055343 -3.558510 -4.605459
      ESP Fit Center  562 is at   4.886727 -4.162546 -4.605459
      ESP Fit Center  563 is at   5.914375 -4.162546 -4.605459
      ESP Fit Center  564 is at   4.217473 -1.544942 -1.812961
      ESP Fit Center  565 is at   5.189373 -1.544942 -1.812961
      ESP Fit Center  566 is at   3.286589 -1.732642 -2.434514
      ESP Fit Center  567 is at   2.583043 -1.225879 -3.332684
      ESP Fit Center  568 is at   3.068796 -2.151405 -3.332684
      ESP Fit Center  569 is at   2.583043 -1.225879 -4.329578
      ESP Fit Center  570 is at   3.068796 -2.151405 -4.329578
      ESP Fit Center  571 is at   3.286589 -1.732642 -5.227748
      ESP Fit Center  572 is at   2.733155 -0.886138 -5.730052
      ESP Fit Center  573 is at   3.435924 -1.588907 -5.730052
      ESP Fit Center  574 is at   6.058693  0.073862 -6.690052
      ESP Fit Center  575 is at   3.050716  1.051213 -6.690052
      ESP Fit Center  576 is at   2.733155  0.073862 -6.690052
      ESP Fit Center  577 is at   3.050716 -0.903489 -6.690052
      ESP Fit Center  578 is at   3.882100 -1.507525 -6.690052
      ESP Fit Center  579 is at   5.355924  0.073862 -7.392821
      ESP Fit Center  580 is at   4.875924  0.905246 -7.392821
      ESP Fit Center  581 is at   3.915924  0.905246 -7.392821
      ESP Fit Center  582 is at   3.435924  0.073862 -7.392821
      ESP Fit Center  583 is at   3.915924 -0.757522 -7.392821
      ESP Fit Center  584 is at   4.875924 -0.757522 -7.392821
      ESP Fit Center  585 is at   4.395924  0.073862 -7.650052
      ESP Fit Center  586 is at   6.935375  1.933989 -3.784295
      ESP Fit Center  587 is at   6.103991  2.538025 -3.784295
      ESP Fit Center  588 is at   7.252936  1.916638 -4.744295
      ESP Fit Center  589 is at   6.550167  2.619407 -4.744295
      ESP Fit Center  590 is at   5.590167  2.876638 -4.744295
      ESP Fit Center  591 is at   7.252936  0.956638 -5.704295
      ESP Fit Center  592 is at   6.935375  1.933989 -5.704295
      ESP Fit Center  593 is at   6.103991  2.538025 -5.704295
      ESP Fit Center  594 is at   6.550167  0.956638 -6.407064
      ESP Fit Center  595 is at   6.070167  1.788022 -6.407064
      ESP Fit Center  596 is at   5.007805  3.193360 -4.759149
      ESP Fit Center  597 is at   1.440836  2.379223 -4.759149
      ESP Fit Center  598 is at   4.306566  3.751881 -5.022298
      ESP Fit Center  599 is at   3.346566  4.009112 -5.022298
      ESP Fit Center  600 is at   2.386566  3.751881 -5.022298
      ESP Fit Center  601 is at   1.683797  3.049112 -5.022298
      ESP Fit Center  602 is at   4.691774  3.066463 -5.982298
      ESP Fit Center  603 is at   3.860390  3.670499 -5.982298
      ESP Fit Center  604 is at   2.832742  3.670499 -5.982298
      ESP Fit Center  605 is at   2.001358  3.066463 -5.982298
      ESP Fit Center  606 is at   1.683797  2.089112 -5.982298
      ESP Fit Center  607 is at   4.306566  2.089112 -6.685067
      ESP Fit Center  608 is at   3.826566  2.920496 -6.685067
      ESP Fit Center  609 is at   2.866566  2.920496 -6.685067
      ESP Fit Center  610 is at   2.386566  2.089112 -6.685067
      ESP Fit Center  611 is at   2.866566  1.257728 -6.685067
      ESP Fit Center  612 is at   3.346566  2.089112 -6.942298
      ESP Fit Center  613 is at   1.279996 -0.182762 -3.083201
      ESP Fit Center  614 is at   2.111380 -0.786798 -3.083201
      ESP Fit Center  615 is at   0.962435  1.754589 -4.043201
      ESP Fit Center  616 is at   0.705204  0.794589 -4.043201
      ESP Fit Center  617 is at   0.962435 -0.165411 -4.043201
      ESP Fit Center  618 is at   1.665204 -0.868180 -4.043201
      ESP Fit Center  619 is at   1.279996  1.771940 -5.003201
      ESP Fit Center  620 is at   0.962435  0.794589 -5.003201
      ESP Fit Center  621 is at   1.279996 -0.182762 -5.003201
      ESP Fit Center  622 is at   2.111380 -0.786798 -5.003201
      ESP Fit Center  623 is at   1.665204  0.794589 -5.705970
      ESP Fit Center  624 is at   2.145204 -0.036795 -5.705970
      ESP Fit Center  625 is at   4.468872  3.790585 -1.692089
      ESP Fit Center  626 is at   6.111529  2.124997 -2.590259
      ESP Fit Center  627 is at   5.861383  3.139877 -2.590259
      ESP Fit Center  628 is at   5.168252  3.922261 -2.590259
      ESP Fit Center  629 is at   4.190923  4.292913 -2.590259
      ESP Fit Center  630 is at   3.153290  4.166921 -2.590259
      ESP Fit Center  631 is at   5.861383  3.139877 -3.587153
      ESP Fit Center  632 is at   5.168252  3.922261 -3.587153
      ESP Fit Center  633 is at   4.190923  4.292913 -3.587153
      ESP Fit Center  634 is at   3.153290  4.166921 -3.587153
      ESP Fit Center  635 is at   2.293063  3.573150 -3.587153
      ESP Fit Center  636 is at   5.344524  3.154387 -4.485323
      ESP Fit Center  637 is at   4.468872  3.790585 -4.485323
      ESP Fit Center  638 is at   4.217847  0.604313  0.337712
      ESP Fit Center  639 is at   5.805298  0.490910 -1.290563
      ESP Fit Center  640 is at   6.037014  1.506123 -2.358663
      ESP Fit Center  641 is at   4.454554  1.897605  0.782496
      ESP Fit Center  642 is at   5.414554  1.897605  0.525265
      ESP Fit Center  643 is at   4.934554  2.728989  0.525265
      ESP Fit Center  644 is at   3.974554  2.728989  0.525265
      ESP Fit Center  645 is at   4.934554  1.066221  0.525265
      ESP Fit Center  646 is at   6.117323  1.897605 -0.177504
      ESP Fit Center  647 is at   5.799762  2.874956 -0.177504
      ESP Fit Center  648 is at   4.968378  3.478992 -0.177504
      ESP Fit Center  649 is at   3.940730  3.478992 -0.177504
      ESP Fit Center  650 is at   5.799762  0.920254 -0.177504
      ESP Fit Center  651 is at   6.374554  1.897605 -1.137504
      ESP Fit Center  652 is at   6.117323  2.857605 -1.137504
      ESP Fit Center  653 is at   5.414554  3.560374 -1.137504
      ESP Fit Center  654 is at   4.454554  3.817605 -1.137504
      ESP Fit Center  655 is at   6.117323  0.937605 -1.137504
      ESP Fit Center  656 is at   6.117323  1.897605 -2.097504
      ESP Fit Center  657 is at   5.799762  2.874956 -2.097504
      ESP Fit Center  658 is at   4.308402 -0.410600 -0.224034
      ESP Fit Center  659 is at   4.342226 -1.160603 -0.926803
      ESP Fit Center  660 is at   5.173610 -0.556567 -0.926803
      ESP Fit Center  661 is at   3.828402 -1.499216 -1.886803
      ESP Fit Center  662 is at   1.078540  3.289060 -2.787841
      ESP Fit Center  663 is at  -0.136303  2.514854 -1.999771
      ESP Fit Center  664 is at   1.012642  3.136241 -2.959771
      ESP Fit Center  665 is at   0.181258  2.532205 -2.959771
      ESP Fit Center  666 is at  -0.136303  1.554854 -2.959771
      ESP Fit Center  667 is at   0.181258  0.577503 -2.959771
      ESP Fit Center  668 is at   1.012642 -0.026533 -2.959771
      ESP Fit Center  669 is at   1.046466  2.386238 -3.662540
      ESP Fit Center  670 is at   0.566466  1.554854 -3.662540
      ESP Fit Center  671 is at   2.713727  3.789633  0.476460
      ESP Fit Center  672 is at   1.753727  3.789633  0.476460
      ESP Fit Center  673 is at   3.578935  3.935600 -0.226309
      ESP Fit Center  674 is at   2.747551  4.539636 -0.226309
      ESP Fit Center  675 is at   1.719903  4.539636 -0.226309
      ESP Fit Center  676 is at   0.888519  3.935600 -0.226309
      ESP Fit Center  677 is at   3.896496  3.918249 -1.186309
      ESP Fit Center  678 is at   3.193727  4.621018 -1.186309
      ESP Fit Center  679 is at   2.233727  4.878249 -1.186309
      ESP Fit Center  680 is at   1.273727  4.621018 -1.186309
      ESP Fit Center  681 is at   0.570958  3.918249 -1.186309
      ESP Fit Center  682 is at   2.747551  4.539636 -2.146309
      ESP Fit Center  683 is at   1.719903  4.539636 -2.146309
      ESP Fit Center  684 is at   0.888519  3.935600 -2.146309
      ESP Fit Center  685 is at   1.753727  3.789633 -2.849078
      ESP Fit Center  686 is at   2.092540  1.309493  2.240000
      ESP Fit Center  687 is at   3.064440  1.309493  2.018170
      ESP Fit Center  688 is at   2.578490  2.151183  2.018170
      ESP Fit Center  689 is at   3.843843  1.309493  1.396617
      ESP Fit Center  690 is at   3.509374  2.338883  1.396617
      ESP Fit Center  691 is at   2.633722  2.975081  1.396617
      ESP Fit Center  692 is at   3.333102  3.106757  0.498447
      ESP Fit Center  693 is at   4.026233  0.294613  0.498447
      ESP Fit Center  694 is at   3.870981  0.000000  0.534050
      ESP Fit Center  695 is at   1.010494 -2.281163  0.534050
      ESP Fit Center  696 is at   1.901527 -0.496691  2.822213
      ESP Fit Center  697 is at   2.861527 -0.496691  2.564982
      ESP Fit Center  698 is at   2.381527  0.334693  2.564982
      ESP Fit Center  699 is at   1.421527 -1.328075  2.564982
      ESP Fit Center  700 is at   2.381527 -1.328075  2.564982
      ESP Fit Center  701 is at   3.564296 -0.496691  1.862213
      ESP Fit Center  702 is at   3.246735  0.480660  1.862213
      ESP Fit Center  703 is at   1.387703 -2.078078  1.862213
      ESP Fit Center  704 is at   2.415351 -2.078078  1.862213
      ESP Fit Center  705 is at   3.246735 -1.474042  1.862213
      ESP Fit Center  706 is at   3.821527 -0.496691  0.902213
      ESP Fit Center  707 is at   0.941527 -2.159460  0.902213
      ESP Fit Center  708 is at   1.901527 -2.416691  0.902213
      ESP Fit Center  709 is at   2.861527 -2.159460  0.902213
      ESP Fit Center  710 is at   3.564296 -1.456691  0.902213
      ESP Fit Center  711 is at   1.890017 -2.490037 -0.871735
      ESP Fit Center  712 is at   2.850017 -2.232806 -0.871735
      ESP Fit Center  713 is at   3.552786 -1.530037 -0.871735
      ESP Fit Center  714 is at   0.544809 -1.547388 -1.831735
      ESP Fit Center  715 is at   1.376193 -2.151424 -1.831735
      ESP Fit Center  716 is at   2.403841 -2.151424 -1.831735
      ESP Fit Center  717 is at   3.235225 -1.547388 -1.831735
      ESP Fit Center  718 is at   0.930017 -0.570037 -2.534504
      ESP Fit Center  719 is at   1.410017 -1.401421 -2.534504
      ESP Fit Center  720 is at   2.370017 -1.401421 -2.534504
      ESP Fit Center  721 is at   1.890017 -0.570037 -2.791735
      ESP Fit Center  722 is at  -1.800388 -0.528642 -1.496376
      ESP Fit Center  723 is at  -0.520660 -0.901810 -2.162325
      ESP Fit Center  724 is at  -0.869051 -2.604218  0.787029
      ESP Fit Center  725 is at   0.158597 -2.604218  0.787029
      ESP Fit Center  726 is at  -2.017996 -1.982831 -0.172971
      ESP Fit Center  727 is at  -1.315227 -2.685600 -0.172971
      ESP Fit Center  728 is at  -0.355227 -2.942831 -0.172971
      ESP Fit Center  729 is at   0.604773 -2.685600 -0.172971
      ESP Fit Center  730 is at  -2.017996 -1.022831 -1.132971
      ESP Fit Center  731 is at  -1.700435 -2.000182 -1.132971
      ESP Fit Center  732 is at  -0.869051 -2.604218 -1.132971
      ESP Fit Center  733 is at   0.158597 -2.604218 -1.132971
      ESP Fit Center  734 is at  -1.315227 -1.022831 -1.835740
      ESP Fit Center  735 is at  -0.835227 -1.854215 -1.835740
      ESP Fit Center  736 is at   0.124773 -1.854215 -1.835740
      ESP Fit Center  737 is at  -2.306729  0.610548 -0.824599
      ESP Fit Center  738 is at  -1.731937  1.587899 -1.784599
      ESP Fit Center  739 is at  -2.049498  0.610548 -1.784599
      ESP Fit Center  740 is at  -1.731937 -0.366803 -1.784599
      ESP Fit Center  741 is at  -0.866729  1.441932 -2.487368
      ESP Fit Center  742 is at  -1.346729  0.610548 -2.487368
      ESP Fit Center  743 is at  -0.866729 -0.220836 -2.487368
      ESP Fit Center  744 is at   0.093271 -0.220836 -2.487368
      ESP Fit Center  745 is at  -0.386729  0.610548 -2.744599
      ESP Fit Center  746 is at  -0.806477  0.486546  4.378143
      ESP Fit Center  747 is at   0.265037  0.486546  4.165006
      ESP Fit Center  748 is at  -1.342234  1.414504  4.165006
      ESP Fit Center  749 is at  -1.877991  0.486546  4.165006
      ESP Fit Center  750 is at  -1.342234 -0.441412  4.165006
      ESP Fit Center  751 is at  -0.270720 -0.441412  4.165006
      ESP Fit Center  752 is at   1.173422  0.486546  3.558042
      ESP Fit Center  753 is at   0.908166  1.476495  3.558042
      ESP Fit Center  754 is at  -2.521120  1.476495  3.558042
      ESP Fit Center  755 is at  -2.786376  0.486546  3.558042
      ESP Fit Center  756 is at  -2.521120 -0.503403  3.558042
      ESP Fit Center  757 is at  -1.796426 -1.228097  3.558042
      ESP Fit Center  758 is at  -0.806477 -1.493353  3.558042
      ESP Fit Center  759 is at   0.183472 -1.228097  3.558042
      ESP Fit Center  760 is at   0.908166 -0.503403  3.558042
      ESP Fit Center  761 is at   1.780386  0.486546  2.649657
      ESP Fit Center  762 is at  -3.336811 -0.051293  2.649657
      ESP Fit Center  763 is at  -2.899293 -1.033974  2.649657
      ESP Fit Center  764 is at  -2.099908 -1.753743  2.649657
      ESP Fit Center  765 is at  -1.076878 -2.086146  2.649657
      ESP Fit Center  766 is at  -0.007092 -1.973707  2.649657
      ESP Fit Center  767 is at   0.924472 -1.435868  2.649657
      ESP Fit Center  768 is at  -3.558802 -0.027953  1.578143
      ESP Fit Center  769 is at  -3.187085 -0.987464  1.578143
      ESP Fit Center  770 is at  -2.493854 -1.747902  1.578143
      ESP Fit Center  771 is at  -1.572733 -2.206566  1.578143
      ESP Fit Center  772 is at  -0.548126 -2.301510  1.578143
      ESP Fit Center  773 is at   0.441590 -2.019911  1.578143
      ESP Fit Center  774 is at  -3.336811 -0.051293  0.506629
      ESP Fit Center  775 is at  -2.899293 -1.033974  0.506629
      ESP Fit Center  776 is at  -2.099908 -1.753743  0.506629
      ESP Fit Center  777 is at  -2.786376  0.486546 -0.401756
      ESP Fit Center  778 is at  -2.521120 -0.503403 -0.401756
      ESP Fit Center  779 is at   1.369999  2.300227  3.132023
      ESP Fit Center  780 is at  -0.638274  2.573395  4.607559
      ESP Fit Center  781 is at   0.321726  2.573395  4.350328
      ESP Fit Center  782 is at  -0.158274  3.404779  4.350328
      ESP Fit Center  783 is at  -1.598274  2.573395  4.350328
      ESP Fit Center  784 is at  -1.118274  1.742011  4.350328
      ESP Fit Center  785 is at  -0.158274  1.742011  4.350328
      ESP Fit Center  786 is at   1.024495  2.573395  3.647559
      ESP Fit Center  787 is at   0.706934  3.550746  3.647559
      ESP Fit Center  788 is at  -0.124450  4.154782  3.647559
      ESP Fit Center  789 is at   1.500321  2.476628  3.036909
      ESP Fit Center  790 is at   2.203090  2.476628  2.334140
      ESP Fit Center  791 is at   1.885529  3.453979  2.334140
      ESP Fit Center  792 is at   1.054145  4.058015  2.334140
      ESP Fit Center  793 is at   1.885529  1.499277  2.334140
      ESP Fit Center  794 is at   2.203090  3.436628  1.374140
      ESP Fit Center  795 is at   1.500321  4.139397  1.374140
      ESP Fit Center  796 is at   1.054145  4.058015  0.414140
      ESP Fit Center  797 is at  -0.077694  3.734439 -1.243280
      ESP Fit Center  798 is at  -2.768110  1.779737 -1.243280
      ESP Fit Center  799 is at  -0.462902  2.757088 -1.946049
      ESP Fit Center  800 is at  -0.942902  3.588472 -1.946049
      ESP Fit Center  801 is at  -1.902902  3.588472 -1.946049
      ESP Fit Center  802 is at  -2.382902  2.757088 -1.946049
      ESP Fit Center  803 is at  -1.902902  1.925704 -1.946049
      ESP Fit Center  804 is at  -1.422902  2.757088 -2.203280
      ESP Fit Center  805 is at  -0.559248  5.001022  2.351161
      ESP Fit Center  806 is at   0.305960  5.146989  1.648392
      ESP Fit Center  807 is at   0.623521  5.129638  0.688392
      ESP Fit Center  808 is at  -0.079248  5.832407  0.688392
      ESP Fit Center  809 is at   0.623521  4.169638 -0.271608
      ESP Fit Center  810 is at   0.305960  5.146989 -0.271608
      ESP Fit Center  811 is at  -0.525424  5.751025 -0.271608
      ESP Fit Center  812 is at  -0.079248  4.169638 -0.974377
      ESP Fit Center  813 is at  -0.559248  5.001022 -0.974377
      ESP Fit Center  814 is at  -1.519248  5.001022 -0.974377
      ESP Fit Center  815 is at  -3.725706  2.269401  3.829287
      ESP Fit Center  816 is at  -2.654192  2.269401  3.829287
      ESP Fit Center  817 is at  -4.904592  2.207410  3.222323
      ESP Fit Center  818 is at  -4.179898  1.482716  3.222323
      ESP Fit Center  819 is at  -3.189949  1.217460  3.222323
      ESP Fit Center  820 is at  -5.720283  3.735198  2.313938
      ESP Fit Center  821 is at  -5.720283  2.659520  2.313938
      ESP Fit Center  822 is at  -5.282765  1.676839  2.313938
      ESP Fit Center  823 is at  -4.483380  0.957070  2.313938
      ESP Fit Center  824 is at  -5.570557  4.671369  1.242424
      ESP Fit Center  825 is at  -5.942274  3.711858  1.242424
      ESP Fit Center  826 is at  -5.942274  2.682860  1.242424
      ESP Fit Center  827 is at  -5.570557  1.723349  1.242424
      ESP Fit Center  828 is at  -4.877326  0.962911  1.242424
      ESP Fit Center  829 is at  -3.956205  0.504247  1.242424
      ESP Fit Center  830 is at  -5.282765  4.717879  0.170910
      ESP Fit Center  831 is at  -5.720283  3.735198  0.170910
      ESP Fit Center  832 is at  -5.720283  2.659520  0.170910
      ESP Fit Center  833 is at  -5.282765  1.676839  0.170910
      ESP Fit Center  834 is at  -4.483380  0.957070  0.170910
      ESP Fit Center  835 is at  -3.460350  0.624667  0.170910
      ESP Fit Center  836 is at  -2.200000  4.912002 -0.737475
      ESP Fit Center  837 is at  -3.189949  5.177258 -0.737475
      ESP Fit Center  838 is at  -4.179898  4.912002 -0.737475
      ESP Fit Center  839 is at  -4.904592  4.187308 -0.737475
      ESP Fit Center  840 is at  -5.169848  3.197359 -0.737475
      ESP Fit Center  841 is at  -4.904592  2.207410 -0.737475
      ESP Fit Center  842 is at  -4.179898  1.482716 -0.737475
      ESP Fit Center  843 is at  -3.189949  1.217460 -0.737475
      ESP Fit Center  844 is at  -2.654192  4.125317 -1.344439
      ESP Fit Center  845 is at  -3.725706  4.125317 -1.344439
      ESP Fit Center  846 is at  -4.261463  3.197359 -1.344439
      ESP Fit Center  847 is at  -3.725706  2.269401 -1.344439
      ESP Fit Center  848 is at  -3.189949  3.197359 -1.557576
      ESP Fit Center  849 is at  -3.134953  4.458957  4.978996
      ESP Fit Center  850 is at  -3.401992  2.601660  4.075372
      ESP Fit Center  851 is at  -2.268615  4.267715  5.141635
      ESP Fit Center  852 is at  -1.308615  4.267715  4.884404
      ESP Fit Center  853 is at  -2.748615  3.436331  4.884404
      ESP Fit Center  854 is at  -1.788615  3.436331  4.884404
      ESP Fit Center  855 is at  -0.605846  4.267715  4.181635
      ESP Fit Center  856 is at  -0.923407  5.245066  4.181635
      ESP Fit Center  857 is at  -2.782439  2.686328  4.181635
      ESP Fit Center  858 is at  -0.605846  5.227715  3.221635
      ESP Fit Center  859 is at  -4.028297  4.281077  5.105224
      ESP Fit Center  860 is at  -4.988297  4.281077  4.847993
      ESP Fit Center  861 is at  -4.508297  3.449693  4.847993
      ESP Fit Center  862 is at  -3.548297  3.449693  4.847993
      ESP Fit Center  863 is at  -5.373505  5.258428  4.145224
      ESP Fit Center  864 is at  -5.691066  4.281077  4.145224
      ESP Fit Center  865 is at  -5.373505  3.303726  4.145224
      ESP Fit Center  866 is at  -4.542121  2.699690  4.145224
      ESP Fit Center  867 is at  -5.691066  5.241077  3.185224
      ESP Fit Center  868 is at  -5.948297  4.281077  3.185224
      ESP Fit Center  869 is at  -5.691066  3.321077  3.185224
      ESP Fit Center  870 is at  -5.691066  4.281077  2.225224
      ESP Fit Center  871 is at  -3.126792  5.895421 -0.343590
      ESP Fit Center  872 is at  -0.602739  6.061066  2.361634
      ESP Fit Center  873 is at  -0.345508  6.061066  1.401634
      ESP Fit Center  874 is at  -0.602739  7.021066  1.401634
      ESP Fit Center  875 is at  -0.602739  6.061066  0.441634
      ESP Fit Center  876 is at  -1.305508  6.061066 -0.261135
      ESP Fit Center  877 is at  -1.785508  6.892450 -0.261135
      ESP Fit Center  878 is at  -2.745508  6.892450 -0.261135
      ESP Fit Center  879 is at  -2.265508  6.061066 -0.518366
      ESP Fit Center  880 is at  -5.699690  6.087462  2.438774
      ESP Fit Center  881 is at  -5.699690  7.047462  1.478774
      ESP Fit Center  882 is at  -5.956921  6.087462  1.478774
      ESP Fit Center  883 is at  -5.699690  5.127462  1.478774
      ESP Fit Center  884 is at  -5.382129  7.064813  0.518774
      ESP Fit Center  885 is at  -5.699690  6.087462  0.518774
      ESP Fit Center  886 is at  -5.382129  5.110111  0.518774
      ESP Fit Center  887 is at  -3.556921  6.918846 -0.183995
      ESP Fit Center  888 is at  -4.516921  6.918846 -0.183995
      ESP Fit Center  889 is at  -4.996921  6.087462 -0.183995
      ESP Fit Center  890 is at  -4.516921  5.256078 -0.183995
      ESP Fit Center  891 is at  -4.036921  6.087462 -0.441226
      ESP Fit Center  892 is at  -3.057284  7.061888  6.282705
      ESP Fit Center  893 is at  -1.985770  7.061888  6.069568
      ESP Fit Center  894 is at  -2.521527  7.989846  6.069568
      ESP Fit Center  895 is at  -3.593041  7.989846  6.069568
      ESP Fit Center  896 is at  -4.128798  7.061888  6.069568
      ESP Fit Center  897 is at  -3.593041  6.133930  6.069568
      ESP Fit Center  898 is at  -2.521527  6.133930  6.069568
      ESP Fit Center  899 is at  -1.077385  7.061888  5.462604
      ESP Fit Center  900 is at  -1.342641  8.051837  5.462604
      ESP Fit Center  901 is at  -2.067335  8.776531  5.462604
      ESP Fit Center  902 is at  -3.057284  9.041787  5.462604
      ESP Fit Center  903 is at  -4.047233  8.776531  5.462604
      ESP Fit Center  904 is at  -4.771927  8.051837  5.462604
      ESP Fit Center  905 is at  -5.037183  7.061888  5.462604
      ESP Fit Center  906 is at  -4.771927  6.071939  5.462604
      ESP Fit Center  907 is at  -4.047233  5.347245  5.462604
      ESP Fit Center  908 is at  -3.057284  5.081989  5.462604
      ESP Fit Center  909 is at  -2.067335  5.347245  5.462604
      ESP Fit Center  910 is at  -1.342641  6.071939  5.462604
      ESP Fit Center  911 is at  -0.470421  7.061888  4.554219
      ESP Fit Center  912 is at  -0.694067  8.114060  4.554219
      ESP Fit Center  913 is at  -1.326335  8.984302  4.554219
      ESP Fit Center  914 is at  -5.150100  8.582408  4.554219
      ESP Fit Center  915 is at  -5.587618  7.599727  4.554219
      ESP Fit Center  916 is at  -5.587618  6.524049  4.554219
      ESP Fit Center  917 is at  -5.150100  5.541368  4.554219
      ESP Fit Center  918 is at  -0.694067  6.009716  4.554219
      ESP Fit Center  919 is at  -0.257284  7.061888  3.482705
      ESP Fit Center  920 is at  -5.809609  7.576387  3.482705
      ESP Fit Center  921 is at  -5.809609  6.547389  3.482705
      ESP Fit Center  922 is at  -5.437892  5.587878  3.482705
      ESP Fit Center  923 is at  -0.446362  6.050411  3.482705
      ESP Fit Center  924 is at  -0.470421  7.061888  2.411191
      ESP Fit Center  925 is at  -5.417048  9.684214  3.158723
      ESP Fit Center  926 is at  -4.767795 10.498351  2.090623
      ESP Fit Center  927 is at  -5.577081  9.584736  2.996397
      ESP Fit Center  928 is at  -5.894642  8.607385  2.996397
      ESP Fit Center  929 is at  -5.191873 10.270154  2.036397
      ESP Fit Center  930 is at  -5.894642  9.567385  2.036397
      ESP Fit Center  931 is at  -6.151873  8.607385  2.036397
      ESP Fit Center  932 is at  -5.894642  7.647385  2.036397
      ESP Fit Center  933 is at  -4.745697 10.188772  1.076397
      ESP Fit Center  934 is at  -5.577081  9.584736  1.076397
      ESP Fit Center  935 is at  -5.894642  8.607385  1.076397
      ESP Fit Center  936 is at  -5.577081  7.630034  1.076397
      ESP Fit Center  937 is at  -4.711873  9.438769  0.373628
      ESP Fit Center  938 is at  -5.191873  8.607385  0.373628
      ESP Fit Center  939 is at  -4.711873  7.776001  0.373628
      ESP Fit Center  940 is at  -3.751873  7.776001  0.373628
      ESP Fit Center  941 is at  -4.231873  8.607385  0.116397
      ESP Fit Center  942 is at  -3.493715  9.381054  5.356127
      ESP Fit Center  943 is at  -2.533715  9.381054  5.098896
      ESP Fit Center  944 is at  -3.013715 10.212438  5.098896
      ESP Fit Center  945 is at  -3.973715 10.212438  5.098896
      ESP Fit Center  946 is at  -4.453715  9.381054  5.098896
      ESP Fit Center  947 is at  -2.148507 10.358405  4.396127
      ESP Fit Center  948 is at  -2.979891 10.962441  4.396127
      ESP Fit Center  949 is at  -4.007539 10.962441  4.396127
      ESP Fit Center  950 is at  -4.838923 10.358405  4.396127
      ESP Fit Center  951 is at  -5.156484  9.381054  4.396127
      ESP Fit Center  952 is at  -2.533715 11.043823  3.436127
      ESP Fit Center  953 is at  -3.493715 11.301054  3.436127
      ESP Fit Center  954 is at  -4.453715 11.043823  3.436127
      ESP Fit Center  955 is at  -5.156484 10.341054  3.436127
      ESP Fit Center  956 is at  -4.007539 10.962441  2.476127
      ESP Fit Center  957 is at  -2.402606 10.991101  3.259077
      ESP Fit Center  958 is at  -0.027456  8.118591  1.228651
      ESP Fit Center  959 is at  -0.259171  9.133804  0.266325
      ESP Fit Center  960 is at  -0.557043 10.148260  0.266325
      ESP Fit Center  961 is at  -3.935955  9.662446  0.266325
      ESP Fit Center  962 is at  -3.176888  9.133804 -0.399624
      ESP Fit Center  963 is at  -1.220229  9.214807  4.277298
      ESP Fit Center  964 is at  -0.260229  9.214807  4.020067
      ESP Fit Center  965 is at  -0.740229 10.046191  4.020067
      ESP Fit Center  966 is at  -1.700229 10.046191  4.020067
      ESP Fit Center  967 is at   0.442540  9.214807  3.317298
      ESP Fit Center  968 is at   0.124979 10.192158  3.317298
      ESP Fit Center  969 is at  -0.706405 10.796194  3.317298
      ESP Fit Center  970 is at   0.124979  8.237456  3.317298
      ESP Fit Center  971 is at   0.699771  9.214807  2.357298
      ESP Fit Center  972 is at   0.442540 10.174807  2.357298
      ESP Fit Center  973 is at  -0.260229 10.877576  2.357298
      ESP Fit Center  974 is at  -0.260229  7.552038  2.357298
      ESP Fit Center  975 is at   0.442540  8.254807  2.357298
      ESP Fit Center  976 is at   0.442540  9.214807  1.397298
      ESP Fit Center  977 is at   0.124979 10.192158  1.397298
      ESP Fit Center  978 is at   0.124979  8.237456  1.397298
      ESP Fit Center  979 is at  -0.279601  7.482159  0.935833
      ESP Fit Center  980 is at  -0.279601  8.442159 -0.024167
      ESP Fit Center  981 is at  -3.605139  8.442159 -0.024167
      ESP Fit Center  982 is at  -3.287578  7.464808 -0.024167
      ESP Fit Center  983 is at  -0.597162  7.464808 -0.024167
      ESP Fit Center  984 is at  -0.982370  8.442159 -0.726936
      ESP Fit Center  985 is at  -1.462370  9.273543 -0.726936
      ESP Fit Center  986 is at  -2.422370  9.273543 -0.726936
      ESP Fit Center  987 is at  -2.902370  8.442159 -0.726936
      ESP Fit Center  988 is at  -2.422370  7.610775 -0.726936
      ESP Fit Center  989 is at  -1.462370  7.610775 -0.726936
      ESP Fit Center  990 is at  -1.942370  8.442159 -0.984167
      ESP Fit Center  991 is at  -1.838437 11.698759  2.286878
      ESP Fit Center  992 is at  -2.866085 11.698759  2.286878
      ESP Fit Center  993 is at  -3.697469 11.094723  2.286878
      ESP Fit Center  994 is at  -0.689492 11.077372  1.326878
      ESP Fit Center  995 is at  -1.392261 11.780141  1.326878
      ESP Fit Center  996 is at  -2.352261 12.037372  1.326878
      ESP Fit Center  997 is at  -3.312261 11.780141  1.326878
      ESP Fit Center  998 is at  -4.015030 11.077372  1.326878
      ESP Fit Center  999 is at  -1.007053 11.094723  0.366878
      ESP Fit Center 1000 is at  -1.838437 11.698759  0.366878
      ESP Fit Center 1001 is at  -2.866085 11.698759  0.366878
      ESP Fit Center 1002 is at  -3.697469 11.094723  0.366878
      ESP Fit Center 1003 is at  -4.015030 10.117372  0.366878
      ESP Fit Center 1004 is at  -1.392261 10.117372 -0.335891
      ESP Fit Center 1005 is at  -1.872261 10.948756 -0.335891
      ESP Fit Center 1006 is at  -2.832261 10.948756 -0.335891
      ESP Fit Center 1007 is at  -3.312261 10.117372 -0.335891
      ESP Fit Center 1008 is at  -2.352261 10.117372 -0.593122
      ESP Fit Center 1009 is at   6.836971 -3.151286 -1.862461
      ESP Fit Center 1010 is at   7.901782 -2.998189 -1.862461
      ESP Fit Center 1011 is at   8.714788 -2.293715 -1.862461
      ESP Fit Center 1012 is at   9.603152 -1.261530 -2.738404
      ESP Fit Center 1013 is at   9.356121 -0.179218 -2.738404
      ESP Fit Center 1014 is at   8.663957  0.688729 -2.738404
      ESP Fit Center 1015 is at   7.663750  1.170403 -2.738404
      ESP Fit Center 1016 is at   6.553604  1.170403 -2.738404
      ESP Fit Center 1017 is at   9.808677 -1.261530 -3.771649
      ESP Fit Center 1018 is at   9.603152 -0.228285 -3.771649
      ESP Fit Center 1019 is at   9.017865 -1.261530 -5.680837
      ESP Fit Center 1020 is at   8.141922 -1.261530 -6.266124
      ESP Fit Center 1021 is at   7.625300 -2.156347 -6.266124
      ESP Fit Center 1022 is at   9.022382  0.641704 -3.228455
      ESP Fit Center 1023 is at   8.225803  1.331944 -3.228455
      ESP Fit Center 1024 is at   7.182505  1.481948 -3.228455
      ESP Fit Center 1025 is at   9.608721 -0.369627 -4.308455
      ESP Fit Center 1026 is at   9.361306  0.634175 -4.308455
      ESP Fit Center 1027 is at   8.675741  1.408018 -4.308455
      ESP Fit Center 1028 is at   7.709080  1.774624 -4.308455
      ESP Fit Center 1029 is at   9.319336 -0.369627 -5.388455
      ESP Fit Center 1030 is at   9.022382  0.641704 -5.388455
      ESP Fit Center 1031 is at   8.225803  1.331944 -5.388455
      ESP Fit Center 1032 is at   8.528721 -0.369627 -6.179070
      ESP Fit Center 1033 is at   7.988721  0.565680 -6.179070
      ESP Fit Center 1034 is at   7.448721 -0.369627 -6.468455
      ESP Fit Center 1035 is at   7.153694 -1.052267 -0.537822
      ESP Fit Center 1036 is at   8.233694 -1.052267 -0.827207
      ESP Fit Center 1037 is at   7.693694 -0.116960 -0.827207
      ESP Fit Center 1038 is at   6.613694 -0.116960 -0.827207
      ESP Fit Center 1039 is at   6.073694 -1.052267 -0.827207
      ESP Fit Center 1040 is at   6.613694 -1.987574 -0.827207
      ESP Fit Center 1041 is at   7.693694 -1.987574 -0.827207
      ESP Fit Center 1042 is at   9.024309 -1.052267 -1.617822
      ESP Fit Center 1043 is at   8.727355 -0.040936 -1.617822
      ESP Fit Center 1044 is at   7.930776  0.649304 -1.617822
      ESP Fit Center 1045 is at   6.887478  0.799308 -1.617822
      ESP Fit Center 1046 is at   6.887478 -2.903842 -1.617822
      ESP Fit Center 1047 is at   7.930776 -2.753838 -1.617822
[...]
 1303 Fit       0.002911
 1304 Fit       0.007795
 1305 Fit       0.000296
 1306 Fit      -0.001503
 1307 Fit       0.002800
 1308 Fit       0.000473
 1309 Fit      -0.005478
 1310 Fit      -0.006331
 1311 Fit      -0.004209
 1312 Fit       0.000632
 1313 Fit       0.004149
 1314 Fit      -0.013123
 1315 Fit      -0.004049
 1316 Fit       0.002167
 1317 Fit      -0.007608
 1318 Fit       0.002417
 1319 Fit       0.010899
 1320 Fit       0.011494
 1321 Fit       0.001224
 1322 Fit       0.014912
 1323 Fit       0.010081
 1324 Fit       0.005402
 1325 Fit       0.004160
 1326 Fit       0.010366
 1327 Fit       0.011231
 1328 Fit       0.008331
 1329 Fit       0.009531
 1330 Fit       0.011362
 1331 Fit       0.010648
 1332 Fit       0.011836
 1333 Fit       0.009655
 1334 Fit       0.006070
 1335 Fit      -0.011405
 1336 Fit      -0.008392
 1337 Fit      -0.011998
 1338 Fit      -0.020815
 1339 Fit      -0.024094
 1340 Fit      -0.004831
 1341 Fit      -0.013346
 1342 Fit      -0.021709
 1343 Fit      -0.029591
 1344 Fit      -0.004269
 1345 Fit      -0.009509
 1346 Fit      -0.015313
 1347 Fit      -0.021560
 1348 Fit      -0.028308
 1349 Fit      -0.009865
 1350 Fit      -0.013677
 1351 Fit      -0.017184
 1352 Fit      -0.020818
 1353 Fit      -0.024867
 1354 Fit      -0.010279
 1355 Fit      -0.014573
 1356 Fit      -0.016679
 1357 Fit      -0.017831
 1358 Fit      -0.018499
 1359 Fit      -0.018844
 1360 Fit       0.000647
 1361 Fit      -0.006848
 1362 Fit      -0.012627
 1363 Fit      -0.016086
 1364 Fit      -0.016904
 1365 Fit      -0.015638
 1366 Fit      -0.012546
 1367 Fit      -0.006374
 1368 Fit      -0.002990
 1369 Fit      -0.011389
 1370 Fit      -0.013114
 1371 Fit      -0.007838
 1372 Fit      -0.004882
 1373 Fit      -0.006171
 1374 Fit      -0.007337
 1375 Fit      -0.003992
 1376 Fit      -0.000872
 1377 Fit      -0.002740
 1378 Fit       0.000255
 1379 Fit       0.003667
 1380 Fit      -0.005782
 1381 Fit       0.001301
 1382 Fit      -0.005979
 1383 Fit      -0.004660
 1384 Fit      -0.003584
 1385 Fit      -0.003630
 1386 Fit      -0.004795
 1387 Fit      -0.002087
 1388 Fit      -0.004267
 1389 Fit      -0.008538
 1390 Fit      -0.001843
 1391 Fit      -0.001927
 1392 Fit      -0.006019
 1393 Fit       0.000074
 1394 Fit      -0.000644
 1395 Fit       0.010098
 1396 Fit       0.012332
 1397 Fit       0.008766
 1398 Fit       0.006014
 1399 Fit      -0.001343
 1400 Fit       0.003127
 1401 Fit       0.000273
 1402 Fit       0.009141
 1403 Fit       0.004371
 1404 Fit      -0.001429
 1405 Fit       0.006970
 1406 Fit       0.005739
 1407 Fit       0.000100
 1408 Fit      -0.000984
 1409 Fit      -0.015679
 1410 Fit      -0.015899
 1411 Fit      -0.012560
 1412 Fit      -0.012558
 1413 Fit      -0.016800
 1414 Fit      -0.016637
 1415 Fit      -0.015761
 1416 Fit      -0.017043
 1417 Fit      -0.013862
 1418 Fit      -0.008119
 1419 Fit      -0.004384
 1420 Fit      -0.006818
 1421 Fit      -0.013400
 1422 Fit      -0.018226
 1423 Fit      -0.018102
 1424 Fit      -0.014507
 1425 Fit      -0.011803
 1426 Fit      -0.012322
 1427 Fit      -0.015610
 1428 Fit      -0.017445
 1429 Fit      -0.014543
 1430 Fit      -0.007890
 1431 Fit      -0.000433
 1432 Fit      -0.004934
 1433 Fit      -0.013317
 1434 Fit      -0.018062
 1435 Fit      -0.017547
 1436 Fit      -0.011862
 1437 Fit      -0.008108
 1438 Fit      -0.014865
 1439 Fit      -0.015135
 1440 Fit      -0.011856
 1441 Fit      -0.010181
 1442 Fit      -0.014574
 1443 Fit      -0.013637
 1444 Fit      -0.011513
 1445 Fit      -0.009150
 1446 Fit      -0.007056
 1447 Fit      -0.006306
 1448 Fit      -0.004252
 1449 Fit       0.000059
 1450 Fit      -0.004297
 1451 Fit       0.006136
 1452 Fit       0.001107
 1453 Fit      -0.004325
 1454 Fit       0.005860
 1455 Fit       0.004752
 1456 Fit       0.003270
 1457 Fit       0.008911
 1458 Fit       0.007695
 1459 Fit       0.007295
 1460 Fit       0.007155
 1461 Fit       0.008512
 1462 Fit       0.008505
 1463 Fit       0.009775
 1464 Fit       0.008901
 1465 Fit      -0.000456
 1466 Fit       0.003817
 1467 Fit       0.003885
 1468 Fit      -0.001109
 1469 Fit       0.004031
 1470 Fit       0.006207
 1471 Fit       0.006711
 1472 Fit       0.005421
 1473 Fit       0.001968
 1474 Fit       0.007719
 1475 Fit       0.007340
 1476 Fit       0.005817
 1477 Fit       0.003281
 1478 Fit       0.004286
 1479 Fit       0.002785
 1480 Fit       0.001002
 1481 Fit       0.002606
 1482 Fit       0.002428
 1483 Fit       0.003263
 1484 Fit       0.007547
 1485 Fit       0.008794
 1486 Fit       0.004610
 1487 Fit       0.006293
 1488 Fit      -0.002666
 1489 Fit       0.001298
 1490 Fit       0.000447
 1491 Fit       0.002457
 1492 Fit       0.003021
 1493 Fit      -0.005044
 1494 Fit       0.002074
 1495 Fit       0.002951
 1496 Fit       0.002990
 1497 Fit      -0.004065
 1498 Fit      -0.000096
 1499 Fit       0.002434
 1500 Fit       0.002566
 1501 Fit       0.002260
 1502 Fit       0.005470
 1503 Fit       0.005327
 1504 Fit       0.009342
 1505 Fit       0.008848
 1506 Fit       0.006836
 1507 Fit       0.005190
 1508 Fit       0.005623
 1509 Fit       0.007085
 1510 Fit       0.008508
 1511 Fit       0.009326
 1512 Fit       0.007142
 1513 Fit       0.004608
 1514 Fit       0.006613
 1515 Fit       0.008327
 1516 Fit       0.004692
 1517 Fit       0.006416
 1518 Fit       0.007542
 1519 Fit       0.008111
 1520 Fit       0.004060
 1521 Fit       0.005879
 1522 Fit       0.007206
 1523 Fit       0.007698
 1524 Fit       0.007889
 1525 Fit       0.005563
 1526 Fit       0.006640
 1527 Fit       0.006444
 1528 Fit       0.005311
 1529 Fit       0.006351
 1530 Fit       0.005387
 1531 Fit       0.003565
 1532 Fit       0.002855
 1533 Fit       0.002105
 1534 Fit       0.000240
 1535 Fit      -0.004378
 1536 Fit       0.004759
 1537 Fit       0.004284
 1538 Fit       0.003514
 1539 Fit       0.005440
 1540 Fit       0.004965
 1541 Fit       0.006579
 1542 Fit       0.007774
 1543 Fit       0.009453
 1544 Fit       0.010842
 1545 Fit       0.004334
 1546 Fit       0.004200
 1547 Fit       0.003090
 1548 Fit       0.005781
 1549 Fit       0.006136
 1550 Fit       0.006561
 1551 Fit       0.006967
 1552 Fit       0.007306
 1553 Fit       0.007945
 1554 Fit       0.009064
 1555 Fit       0.008989
 1556 Fit       0.010169
 1557 Fit       0.011267
 1558 Fit       0.003363
 1559 Fit       0.003877
 1560 Fit       0.002788
 1561 Fit       0.001413
 1562 Fit       0.001783
 1563 Fit       0.003970
 1564 Fit       0.004412
 1565 Fit       0.003708
 1566 Fit       0.002953
 1567 Fit       0.001639
 1568 Fit      -0.000350
 1569 Fit       0.004738
 1570 Fit       0.005682
 1571 Fit       0.005052
 1572 Fit       0.004350
 1573 Fit       0.001829
 1574 Fit      -0.000408
 1575 Fit       0.006944
 1576 Fit       0.005956
 1577 Fit       0.005600
 1578 Fit       0.010075
 1579 Fit       0.008718
 1580 Fit       0.007904
 1581 Fit       0.006903
 1582 Fit       0.006593
 1583 Fit       0.010907
 1584 Fit       0.009647
 1585 Fit       0.008817
 1586 Fit       0.007823
 1587 Fit       0.007495
 1588 Fit       0.010976
 1589 Fit       0.009702
 1590 Fit       0.008647
 1591 Fit       0.008571
 1592 Fit       0.009818
 1593 Fit       0.002576
 1594 Fit       0.011182
 1595 Fit       0.003870
 1596 Fit       0.005638
 1597 Fit       0.007701
 1598 Fit       0.009322
 1599 Fit       0.010575
 1600 Fit       0.007369
 1601 Fit       0.008919
 1602 Fit       0.010230
 1603 Fit       0.010860
 1604 Fit       0.011783
 1605 Fit       0.008820
 1606 Fit       0.008667
 1607 Fit       0.009386
 1608 Fit       0.010204
 1609 Fit       0.010751
 1610 Fit       0.010997
 1611 Fit       0.012024
 1612 Fit       0.011058
 1613 Fit       0.010063
 1614 Fit       0.010444
 1615 Fit       0.011132
 1616 Fit       0.004027
 1617 Fit       0.002194
 1618 Fit       0.005654
 1619 Fit       0.006696
 1620 Fit       0.003001
 1621 Fit       0.006137
 1622 Fit       0.007614
 1623 Fit       0.008243
 1624 Fit       0.003730
 1625 Fit       0.006617
 1626 Fit       0.008118
 1627 Fit       0.009022
 1628 Fit       0.009804
 1629 Fit       0.003668
 1630 Fit       0.006703
 1631 Fit       0.008350
 1632 Fit       0.009549
 1633 Fit       0.000154
 1634 Fit      -0.000708
 1635 Fit      -0.001650
 1636 Fit      -0.000034
 1637 Fit       0.008043
 1638 Fit       0.011771
 1639 Fit       0.010782
 1640 Fit       0.010673
 1641 Fit       0.009226
 1642 Fit       0.007213
 1643 Fit       0.011970
 1644 Fit       0.012445
 1645 Fit       0.010750
 1646 Fit       0.009810
 1647 Fit       0.010768
 1648 Fit       0.011287
 1649 Fit       0.011339
 1650 Fit       0.011830
 1651 Fit       0.011281
 1652 Fit       0.010850
 1653 Fit       0.011399
 1654 Fit       0.011188
 1655 Fit      -0.002310
 1656 Fit      -0.000767
 1657 Fit       0.007907
 1658 Fit       0.004393
 1659 Fit       0.001473
 1660 Fit       0.008871
 1661 Fit       0.007394
 1662 Fit       0.011226
 1663 Fit       0.010316
 1664 Fit       0.007462
 1665 Fit       0.010267
 1666 Fit       0.011779
 1667 Fit      -0.003980
 1668 Fit       0.001307
 1669 Fit       0.001006
 1670 Fit       0.001368
 1671 Fit       0.003287
 1672 Fit       0.005625
 1673 Fit       0.007885
 1674 Fit       0.008463
 1675 Fit       0.006761
 1676 Fit       0.007155
 1677 Fit       0.008365
 1678 Fit       0.009734
 1679 Fit       0.011261
 1680 Fit       0.012783
 1681 Fit       0.010158
 1682 Fit       0.010087
 1683 Fit       0.011302
 1684 Fit       0.013522
 1685 Fit       0.012154
 1686 Fit       0.014416
 1687 Fit       0.010388
 1688 Fit       0.011040
 1689 Fit       0.011995
 1690 Fit       0.011259
 1691 Fit       0.008583
 1692 Fit       0.002005
 1693 Fit       0.010830
 1694 Fit       0.010754
 1695 Fit       0.009562
 1696 Fit      -0.010129
 1697 Fit      -0.011793
 1698 Fit      -0.011414
 1699 Fit      -0.011503
 1700 Fit      -0.013902
 1701 Fit      -0.014467
 1702 Fit      -0.013197
 1703 Fit      -0.009928
 1704 Fit      -0.007695
 1705 Fit      -0.011230
 1706 Fit      -0.011632
 1707 Fit      -0.009623
 1708 Fit      -0.005493
 1709 Fit      -0.003385
 1710 Fit      -0.006335
 1711 Fit      -0.003361
 1712 Fit      -0.004246
 1713 Fit      -0.006513
 1714 Fit      -0.000666
 1715 Fit      -0.001058
 1716 Fit      -0.001728
 1717 Fit      -0.002239
 1718 Fit      -0.001044
 1719 Fit      -0.000828
 1720 Fit      -0.001780
 1721 Fit      -0.002753
 1722 Fit      -0.002917
 1723 Fit      -0.000247
 1724 Fit      -0.003924
 1725 Fit      -0.006168
 1726 Fit      -0.008705
 1727 Fit       0.001011
 1728 Fit      -0.000484
 1729 Fit       0.009129
 1730 Fit       0.005356
 1731 Fit       0.013781
 1732 Fit       0.009019
 1733 Fit       0.012005
 1734 Fit       0.013982
 1735 Fit       0.015086
 1736 Fit      -0.003938
 1737 Fit      -0.001679
 1738 Fit       0.001033
 1739 Fit       0.004813
 1740 Fit      -0.000371
 1741 Fit       0.002748
 1742 Fit       0.006263
 1743 Fit      -0.005257
 1744 Fit       0.000428
 1745 Fit       0.004596
 1746 Fit       0.007653
 1747 Fit       0.010146
 1748 Fit       0.000370
 1749 Fit       0.005050
 1750 Fit      -0.015079
 1751 Fit      -0.014189
 1752 Fit      -0.013755
 1753 Fit      -0.014187
 1754 Fit      -0.011968
 1755 Fit      -0.008334
 1756 Fit      -0.005285
 1757 Fit      -0.007841
 1758 Fit       0.006617
 1759 Fit       0.000385
 1760 Fit      -0.006588
 1761 Fit      -0.012957
 1762 Fit      -0.005122
 1763 Fit      -0.004230
 1764 Fit      -0.011108
 1765 Fit      -0.002253
 1766 Fit      -0.000028
 1767 Fit      -0.000727
 1768 Fit      -0.003431
 1769 Fit       0.003108
 1770 Fit       0.003454
 1771 Fit       0.002841
 1772 Fit       0.000884
 1773 Fit       0.007202
 1774 Fit       0.005167
 1775 Fit       0.009536
 1776 Fit       0.006726
 1777 Fit       0.003528
 1778 Fit       0.011369
 1779 Fit       0.007733
 1780 Fit       0.001751
 1781 Fit       0.015015
 1782 Fit       0.009164
 1783 Fit      -0.000845
 1784 Fit       0.011200
 1785 Fit       0.013935
 1786 Fit       0.000144
 1787 Fit       0.003806
 1788 Fit       0.006149
 1789 Fit      -0.000609
 1790 Fit       0.003643
 1791 Fit       0.006504
 1792 Fit       0.008548
 1793 Fit       0.003233
 1794 Fit       0.006003
 1795 Fit       0.008446
 1796 Fit       0.010546
 1797 Fit       0.008859
 1798 Fit       0.011469
 1799 Fit      -0.002473
 1800 Fit       0.006903
 1801 Fit       0.004972
 1802 Fit       0.013356
 1803 Fit       0.010178
 1804 Fit       0.010884
 1805 Fit       0.014936
 1806 Fit       0.014536
 1807 Fit      -0.012980
 1808 Fit      -0.013715
 1809 Fit      -0.008016
 1810 Fit      -0.008080
 1811 Fit      -0.013775
 1812 Fit      -0.016015
 1813 Fit      -0.016131
 1814 Fit      -0.014527
 1815 Fit      -0.009759
 1816 Fit      -0.012523
 1817 Fit      -0.017146
 1818 Fit      -0.017826
 1819 Fit      -0.017200
 1820 Fit      -0.016664
 1821 Fit      -0.016563
 1822 Fit      -0.016238
 1823 Fit      -0.014261
 1824 Fit      -0.011788
 1825 Fit      -0.023391
 1826 Fit      -0.020991
 1827 Fit      -0.018318
 1828 Fit      -0.015859
 1829 Fit      -0.014261
 1830 Fit      -0.013639
 1831 Fit      -0.013468
 1832 Fit      -0.013729
 1833 Fit      -0.027139
 1834 Fit      -0.021772
 1835 Fit      -0.017194
 1836 Fit      -0.013104
 1837 Fit      -0.010029
 1838 Fit      -0.008195
 1839 Fit      -0.006893
 1840 Fit      -0.022122
 1841 Fit      -0.016288
 1842 Fit      -0.010671
 1843 Fit      -0.005701
 1844 Fit      -0.002034
 1845 Fit       0.000381
 1846 Fit      -0.017757
 1847 Fit      -0.010663
 1848 Fit      -0.002969
 1849 Fit      -0.013082
 1850 Fit      -0.005935
 1851 Fit      -0.004751
 1852 Fit      -0.006383
 1853 Fit       0.000724
 1854 Fit       0.003740
 1855 Fit       0.005394
 1856 Fit      -0.001354
 1857 Fit      -0.002494
 1858 Fit       0.000764
 1859 Fit      -0.001187
 1860 Fit      -0.006348
 1861 Fit      -0.004326
 1862 Fit      -0.000534
 1863 Fit       0.001798
 1864 Fit      -0.010406
 1865 Fit      -0.004030
 1866 Fit      -0.007274
 1867 Fit       0.000074
 1868 Fit       0.002391
 1869 Fit       0.009937
 1870 Fit       0.004538
 1871 Fit       0.002506
 1872 Fit       0.009107
 1873 Fit       0.005172
 1874 Fit       0.004084
 1875 Fit       0.009231
 1876 Fit       0.009888
 1877 Fit       0.005933
 1878 Fit       0.006999
 1879 Fit       0.008123
 1880 Fit       0.008590
 1881 Fit       0.009675
 1882 Fit       0.009440
 1883 Fit       0.009862
 1884 Fit       0.009797
 1885 Fit       0.008484
 1886 Fit      -0.009415
 1887 Fit      -0.007174
 1888 Fit      -0.009980
 1889 Fit      -0.016398
 1890 Fit      -0.018729
 1891 Fit      -0.011025
 1892 Fit      -0.017628
 1893 Fit      -0.023713
 1894 Fit      -0.005113
 1895 Fit      -0.009755
 1896 Fit      -0.014879
 1897 Fit      -0.020238
 1898 Fit      -0.026324
 1899 Fit      -0.004627
 1900 Fit      -0.008450
 1901 Fit      -0.011799
 1902 Fit      -0.015248
 1903 Fit      -0.018873
 1904 Fit      -0.023035
 1905 Fit      -0.007758
 1906 Fit      -0.011214
 1907 Fit      -0.013602
 1908 Fit      -0.015699
 1909 Fit      -0.017720
 1910 Fit      -0.020092
 1911 Fit      -0.008474
 1912 Fit      -0.011896
 1913 Fit      -0.013674
 1914 Fit      -0.014433
 1915 Fit      -0.014499
 1916 Fit      -0.013824
 1917 Fit       0.001431
 1918 Fit      -0.004176
 1919 Fit      -0.008794
 1920 Fit      -0.011818
 1921 Fit      -0.012831
 1922 Fit      -0.012000
 1923 Fit      -0.009326
 1924 Fit      -0.003580
 1925 Fit      -0.001115
 1926 Fit      -0.007526
 1927 Fit      -0.009322
 1928 Fit      -0.005510
 1929 Fit      -0.002893
 1930 Fit      -0.006784
 1931 Fit      -0.005290
 1932 Fit      -0.002932
 1933 Fit      -0.003834
 1934 Fit      -0.001767
 1935 Fit       0.000449
 1936 Fit      -0.005478
 1937 Fit      -0.007014
 1938 Fit      -0.006108
 1939 Fit      -0.004773
 1940 Fit      -0.006598
 1941 Fit      -0.003737
 1942 Fit      -0.005004
 1943 Fit      -0.007642
 1944 Fit      -0.006245
 1945 Fit      -0.003093
 1946 Fit      -0.004001
 1947 Fit      -0.002093
 1948 Fit      -0.002633
 1949 Fit       0.005024
 1950 Fit       0.007267
 1951 Fit       0.005053
 1952 Fit      -0.000757
 1953 Fit      -0.001234
 1954 Fit       0.004600
 1955 Fit       0.000857
 1956 Fit      -0.003493
 1957 Fit       0.006949
 1958 Fit       0.002810
 1959 Fit      -0.002973
 1960 Fit       0.004183
 1961 Fit      -0.001005
 1962 Fit      -0.001373
 1963 Fit      -0.013055
 1964 Fit      -0.013074
 1965 Fit      -0.010838
 1966 Fit      -0.010859
 1967 Fit      -0.013677
 1968 Fit      -0.013821
 1969 Fit      -0.013252
 1970 Fit      -0.013539
 1971 Fit      -0.011343
 1972 Fit      -0.007607
 1973 Fit      -0.005291
 1974 Fit      -0.006891
 1975 Fit      -0.011161
 1976 Fit      -0.014442
 1977 Fit      -0.014646
 1978 Fit      -0.012646
 1979 Fit      -0.010989
 1980 Fit      -0.011153
 1981 Fit      -0.012910
 1982 Fit      -0.013636
 1983 Fit      -0.011571
 1984 Fit      -0.007069
 1985 Fit      -0.002055
 1986 Fit      -0.005275
 1987 Fit      -0.010991
 1988 Fit      -0.014400
 1989 Fit      -0.014361
 1990 Fit      -0.011179
 1991 Fit      -0.008248
 1992 Fit      -0.012196
 1993 Fit      -0.012291
 1994 Fit      -0.010242
 1995 Fit      -0.006901
 1996 Fit      -0.011381
 1997 Fit      -0.012931
 1998 Fit      -0.010603
 1999 Fit      -0.010198
 2000 Fit      -0.008735
 2001 Fit      -0.003395
 2002 Fit      -0.007307
 2003 Fit      -0.008796
 2004 Fit      -0.006669
 2005 Fit      -0.006154
 2006 Fit      -0.003010
 2007 Fit      -0.002571
 2008 Fit       0.001459
 2009 Fit      -0.002206
 2010 Fit       0.003535
 2011 Fit       0.006238
 2012 Fit       0.007699
 2013 Fit       0.003143
 2014 Fit       0.001082
 2015 Fit       0.006052
 2016 Fit       0.005186
 2017 Fit       0.004335
 2018 Fit       0.003833
 2019 Fit       0.006928
 2020 Fit       0.006426
 2021 Fit       0.006290
 2022 Fit       0.007478
 2023 Fit       0.007261
 2024 Fit       0.007815
 2025 Fit       0.001898
 2026 Fit       0.001954
 2027 Fit       0.002277
 2028 Fit       0.004380
 2029 Fit       0.004816
 2030 Fit       0.003651
 2031 Fit       0.000481
 2032 Fit       0.005015
 2033 Fit       0.006004
 2034 Fit       0.006003
 2035 Fit       0.005007
 2036 Fit       0.002971
 2037 Fit       0.006999
 2038 Fit       0.005980
 2039 Fit       0.003570
 2040 Fit       0.005692
 2041 Fit       0.003297
 2042 Fit       0.002626
 2043 Fit       0.002285
 2044 Fit       0.002964
 2045 Fit       0.002605
 2046 Fit       0.003301
 2047 Fit       0.003487
 2048 Fit       0.006529
 2049 Fit       0.007300
 2050 Fit       0.004536
 2051 Fit       0.005221
 2052 Fit       0.005825
 2053 Fit      -0.003897
 2054 Fit       0.000122
 2055 Fit      -0.001134
 2056 Fit       0.001177
 2057 Fit       0.002236
 2058 Fit      -0.006798
 2059 Fit       0.000836
 2060 Fit       0.002055
 2061 Fit       0.002537
 2062 Fit      -0.001688
 2063 Fit       0.001859
 2064 Fit       0.002369
 2065 Fit       0.002586
 2066 Fit       0.001032
 2067 Fit       0.006298
 2068 Fit       0.005287
 2069 Fit       0.007538
 2070 Fit       0.008042
 2071 Fit       0.006166
 2072 Fit       0.005041
 2073 Fit       0.005396
 2074 Fit       0.006280
 2075 Fit       0.007157
 2076 Fit       0.007873
 2077 Fit       0.006312
 2078 Fit       0.005941
 2079 Fit       0.003672
 2080 Fit       0.005017
 2081 Fit       0.006159
 2082 Fit       0.006992
 2083 Fit       0.004186
 2084 Fit       0.005441
 2085 Fit       0.006354
 2086 Fit       0.006864
 2087 Fit       0.007326
 2088 Fit       0.003905
 2089 Fit       0.005128
 2090 Fit       0.006091
 2091 Fit       0.006528
 2092 Fit       0.006791
 2093 Fit       0.004955
 2094 Fit       0.005729
 2095 Fit       0.005810
 2096 Fit       0.005037
 Job cpu time:       0 days  0 hours 12 minutes 35.9 seconds.
 Normal termination of Gaussian 16 at Sun Jul  9 10:40:22 2023.
