 Copyright (c) 1988-2019, Gaussian, Inc.  All Rights Reserved.
  
 This is part of the Gaussian(R) 16 program.  It is based on
 the Gaussian(R) 09 system (copyright 2009, Gaussian, Inc.),
 the Gaussian(R) 03 system (copyright 2003, Gaussian, Inc.),
 the Gaussian(R) 98 system (copyright 1998, Gaussian, Inc.),
 the Gaussian(R) 94 system (copyright 1995, Gaussian, Inc.),
 the Gaussian 92(TM) system (copyright 1992, Gaussian, Inc.),
 the Gaussian 90(TM) system (copyright 1990, Gaussian, Inc.),
 the Gaussian 88(TM) system (copyright 1988, Gaussian, Inc.),
 the Gaussian 86(TM) system (copyright 1986, Carnegie Mellon
 University), and the Gaussian 82(TM) system (copyright 1983,
 Carnegie Mellon University). Gaussian is a federally registered
 trademark of Gaussian, Inc.
 Cite this work as:
 Gaussian 16, Revision C.01,
 M. J. Frisch, G. W. Trucks, H. B. Schlegel, G. E. Scuseria, 
 M. A. Robb, J. R. Cheeseman, G. Scalmani, V. Barone, 
 G. A. Petersson, H. Nakatsuji, X. Li, M. Caricato, A. V. Marenich, 
 J. Bloino, B. G. Janesko, R. Gomperts, B. Mennucci, H. P. Hratchian, 
 J. V. Ortiz, A. F. Izmaylov, J. L. Sonnenberg, D. Williams-Young, 
 F. Ding, F. Lipparini, F. Egidi, J. Goings, B. Peng, A. Petrone, 
 T. Henderson, D. Ranasinghe, V. G. Zakrzewski, J. Gao, N. Rega, 
 G. Zheng, W. Liang, M. Hada, M. Ehara, K. Toyota, R. Fukuda, 
 J. Hasegawa, M. Ishida, T. Nakajima, Y. Honda, O. Kitao, H. Nakai, 
 T. Vreven, K. Throssell, J. A. Montgomery, Jr., J. E. Peralta, 
 F. Ogliaro, M. J. Bearpark, J. J. Heyd, E. N. Brothers, K. N. Kudin, 
 V. N. Staroverov, T. A. Keith, R. Kobayashi, J. Normand, 
 K. Raghavachari, A. P. Rendell, J. C. Burant, S. S. Iyengar, 
 J. Tomasi, M. Cossi, J. M. Millam, M. Klene, C. Adamo, R. Cammi, 
 J. W. Ochterski, R. L. Martin, K. Morokuma, O. Farkas, 
 J. B. Foresman, and D. J. Fox, Gaussian, Inc., Wallingford CT, 2019.
 
 ******************************************
 Gaussian 16:  EM64L-G16RevC.01  3-Jul-2019
                 9-Jul-2023 
 ******************************************
 ----------------------------------------------------------------------
 #P B3LYP/6-31G(d) Integral=Ultrafine SCF(Conver=8,XQC,MaxConventionalC
 ycles=64,MaxCycle=128) NoSymm Test Pop=mk IOp(6/33=2) GFInput GFPrint
 ----------------------------------------------------------------------
 1/38=1,172=1/1;
 2/12=2,15=1,17=6,18=5,40=1/2;
 3/5=1,6=6,7=1,11=2,24=110,25=1,30=1,74=-5,75=-5/1,2,3;
 4//1;
 5/5=2,6=8,7=128,8=3,13=1,38=5,85=64/2,8;
 6/7=2,8=2,9=2,10=2,15=8,20=1,28=1,33=2/1,2;
 99/5=1,9=1/99;
 -------------------------------------------------
 MEP step - Input generated by PyRED DVE-DMDS-OPLS
 -------------------------------------------------
 Symbolic Z-matrix:
 Charge =  0 Multiplicity = 1
 C                     2.60461  -7.10196  -0.56616 
 H                     2.34206  -6.6892    0.41316 
 H                     2.24562  -8.13588  -0.61635 
 H                     3.69567  -7.10568  -0.65455 
 C                     1.98444  -6.26895  -1.67633 
 H                     2.24042  -6.68709  -2.66545 
 H                     0.88568  -6.28542  -1.59252 
 O                     2.4866   -4.946    -1.56661 
 C                     2.07701  -4.06851  -2.59691 
 H                     2.14968  -4.55986  -3.58229 
 H                     2.7838   -3.23208  -2.58147 
 C                     0.66624  -3.51501  -2.43139 
 H                     0.40405  -2.93449  -3.33331 
 H                    -0.07066  -4.33113  -2.34492 
 O                     0.62543  -2.69386  -1.27989 
 C                    -0.65767  -2.15668  -1.02086 
 H                    -1.38402  -2.97023  -0.84275 
 H                    -1.01931  -1.56996  -1.88196 
 C                    -0.60511  -1.26411   0.21229 
 H                    -0.10019  -1.80499   1.02801 
 H                    -1.63346  -1.0516    0.52697 
 O                     0.        0.        0. 
 C                     1.42682   0.        0. 
 H                     1.81822  -0.54888  -0.86294 
 H                     1.79112  -0.5037    0.91232 
 C                     1.91937   1.43982   0. 
 H                     3.00415   1.43915   0.15477 
 H                     1.47539   1.99839   0.83037 
 S                     1.71016   2.37932  -1.56381 
 C                    -0.1098    2.62166  -1.69429 
 H                    -0.21997   3.25727  -2.57908 
 H                    -0.58352   1.65758  -1.89364 
 C                    -0.80176   3.26058  -0.49204 
 H                    -0.7733    2.57202   0.35661 
 H                    -1.85465   3.42965  -0.75111 
 S                    -0.05882   4.88525  -0.03897 
 C                    -1.43754   5.59864   0.94311 
 H                    -2.36904   5.5142    0.37161 
 H                    -1.20505   6.6646    1.03178 
 C                    -1.58994   4.97718   2.33157 
 H                    -1.78507   3.90347   2.25151 
 H                    -0.66862   5.11777   2.90643 
 S                    -2.98536   5.79599   3.21646 
 C                    -2.80776   5.06038   4.89248 
 H                    -1.78237   5.23222   5.23995 
 H                    -3.46538   5.66698   5.52433 
 C                    -3.18378   3.58243   4.9943 
 H                    -2.52961   2.95557   4.37903 
 H                    -3.09074   3.23845   6.03229 
 H                    -4.21543   3.41729   4.66801 
 
 ITRead=  0  0  0  0  0  0  0  0  0  0  0  0  0  0  0  0  0  0  0  0
 ITRead=  0  0  0  0  0  0  0  0  0  0  0  0  0  0  0  0  0  0  0  0
 ITRead=  0  0  0  0  0  0  0  0  0  0
 MicOpt= -1 -1 -1 -1 -1 -1 -1 -1 -1 -1 -1 -1 -1 -1 -1 -1 -1 -1 -1 -1
 MicOpt= -1 -1 -1 -1 -1 -1 -1 -1 -1 -1 -1 -1 -1 -1 -1 -1 -1 -1 -1 -1
 MicOpt= -1 -1 -1 -1 -1 -1 -1 -1 -1 -1
 NAtoms=     50 NQM=       50 NQMF=       0 NMMI=      0 NMMIF=      0
                NMic=       0 NMicF=      0.
                          Input orientation:                          
 ---------------------------------------------------------------------
 Center     Atomic      Atomic             Coordinates (Angstroms)
 Number     Number       Type             X           Y           Z
 ---------------------------------------------------------------------
      1          6           0        2.604605   -7.101959   -0.566157
      2          1           0        2.342063   -6.689198    0.413158
      3          1           0        2.245621   -8.135880   -0.616349
      4          1           0        3.695673   -7.105682   -0.654553
      5          6           0        1.984444   -6.268949   -1.676326
      6          1           0        2.240423   -6.687087   -2.665447
      7          1           0        0.885683   -6.285415   -1.592522
      8          8           0        2.486595   -4.945999   -1.566613
      9          6           0        2.077009   -4.068509   -2.596908
     10          1           0        2.149683   -4.559861   -3.582293
     11          1           0        2.783797   -3.232080   -2.581465
     12          6           0        0.666239   -3.515007   -2.431387
     13          1           0        0.404046   -2.934485   -3.333307
     14          1           0       -0.070660   -4.331130   -2.344917
     15          8           0        0.625434   -2.693862   -1.279889
     16          6           0       -0.657669   -2.156680   -1.020855
     17          1           0       -1.384020   -2.970229   -0.842753
     18          1           0       -1.019309   -1.569963   -1.881956
     19          6           0       -0.605112   -1.264107    0.212290
     20          1           0       -0.100187   -1.804986    1.028014
     21          1           0       -1.633464   -1.051600    0.526974
     22          8           0        0.000000    0.000000    0.000000
     23          6           0        1.426816    0.000000    0.000000
     24          1           0        1.818218   -0.548884   -0.862937
     25          1           0        1.791116   -0.503702    0.912319
     26          6           0        1.919366    1.439822    0.000000
     27          1           0        3.004147    1.439147    0.154767
     28          1           0        1.475392    1.998389    0.830373
     29         16           0        1.710160    2.379322   -1.563814
     30          6           0       -0.109799    2.621655   -1.694286
     31          1           0       -0.219973    3.257271   -2.579083
     32          1           0       -0.583518    1.657578   -1.893641
     33          6           0       -0.801759    3.260577   -0.492040
     34          1           0       -0.773302    2.572021    0.356613
     35          1           0       -1.854651    3.429648   -0.751113
     36         16           0       -0.058818    4.885253   -0.038970
     37          6           0       -1.437539    5.598640    0.943108
     38          1           0       -2.369042    5.514201    0.371613
     39          1           0       -1.205052    6.664602    1.031781
     40          6           0       -1.589944    4.977184    2.331575
     41          1           0       -1.785072    3.903469    2.251506
     42          1           0       -0.668617    5.117766    2.906434
     43         16           0       -2.985362    5.795992    3.216465
     44          6           0       -2.807762    5.060384    4.892483
     45          1           0       -1.782371    5.232223    5.239948
     46          1           0       -3.465384    5.666980    5.524330
     47          6           0       -3.183784    3.582427    4.994296
     48          1           0       -2.529609    2.955573    4.379025
     49          1           0       -3.090738    3.238451    6.032290
     50          1           0       -4.215430    3.417293    4.668008
 ---------------------------------------------------------------------
 Stoichiometry    C14H30O3S3
 Framework group  C1[X(C14H30O3S3)]
 Standard basis: 6-31G(d) (6D, 7F)
   372 basis functions,   752 primitive gaussians,   372 cartesian basis functions
    93 alpha electrons       93 beta electrons
 Requested convergence on RMS density matrix=1.00D-08 within  64 cycles.
 Requested convergence on MAX density matrix=1.00D-06.
 Requested convergence on             energy=1.00D-06.
 SCF Done:  E(RB3LYP) =  -1971.75564397     A.U. after   13 cycles
            NFock= 13  Conv=0.38D-08     -V/T= 2.0058
 Mulliken charges:
     1  C   -0.451552
     2  H    0.160182
     3  H    0.141613
     4  H    0.159318
     5  C   -0.012369
     6  H    0.117561
     7  H    0.120104
     8  O   -0.458702
     9  C   -0.034591
    10  H    0.118402
    11  H    0.158854
    12  C   -0.025109
    13  H    0.122980
    14  H    0.123374
    15  O   -0.463803
    16  C   -0.017403
    17  H    0.117680
    18  H    0.130570
    19  C   -0.041332
    20  H    0.139228
    21  H    0.143387
    22  O   -0.476990
    23  C   -0.008192
    24  H    0.164307
    25  H    0.124545
    26  C   -0.441826
    27  H    0.177917
    28  H    0.186474
    29  S    0.089267
    30  C   -0.410963
    31  H    0.181284
    32  H    0.188104
    33  C   -0.411390
    34  H    0.188283
    35  H    0.166344
    36  S    0.108280
    37  C   -0.436778
    38  H    0.178522
    39  H    0.190349
    40  C   -0.394260
    41  H    0.174024
    42  H    0.177590
    43  S    0.072447
    44  C   -0.406971
    45  H    0.168469
    46  H    0.175617
    47  C   -0.436201
    48  H    0.152175
    49  H    0.148523
    50  H    0.162662
 Sum of Mulliken charges =  -0.00000
 Dipole moment (field-independent basis, Debye):
    X=             -2.0939    Y=             -4.7952    Z=              0.5949  Tot=              5.2661
 Quadrupole moment (field-independent basis, Debye-Ang):
   XX=           -152.5236   YY=           -158.1331   ZZ=           -133.9373
   XY=              2.5931   XZ=              3.1799   YZ=             10.9369
 Traceless Quadrupole moment (field-independent basis, Debye-Ang):
   XX=             -4.3256   YY=             -9.9351   ZZ=             14.2607
   XY=              2.5931   XZ=              3.1799   YZ=             10.9369
 Octapole moment (field-independent basis, Debye-Ang**2):
  XXX=             32.9214  YYY=           -639.6152  ZZZ=            -43.2771  XYY=             22.8860
  XXY=           -162.4640  XXZ=            -24.9962  XZZ=            -13.4805  YZZ=           -133.7888
  YYZ=            -66.1160  XYZ=             23.8245
 Hexadecapole moment (field-independent basis, Debye-Ang**3):
 XXXX=          -3305.1237 YYYY=         -16097.5932 ZZZZ=          -4111.9843 XXXY=           2546.2552
 XXXZ=           1504.6243 YYYX=           2570.6154 YYYZ=          -2515.2880 ZZZX=           1294.4151
 ZZZY=          -2234.8879 XXYY=          -3437.1741 XXZZ=          -1235.5479 YYZZ=          -3209.3897
 XXYZ=           -876.6505 YYXZ=            581.9443 ZZXY=            673.8922
 Merz-Kollman atomic radii used.
 Atom Element Radius
    1     6    1.50
    2     1    1.20
    3     1    1.20
    4     1    1.20
    5     6    1.50
    6     1    1.20
    7     1    1.20
    8     8    1.40
    9     6    1.50
   10     1    1.20
   11     1    1.20
   12     6    1.50
   13     1    1.20
   14     1    1.20
   15     8    1.40
   16     6    1.50
   17     1    1.20
   18     1    1.20
   19     6    1.50
   20     1    1.20
   21     1    1.20
   22     8    1.40
   23     6    1.50
   24     1    1.20
   25     1    1.20
   26     6    1.50
   27     1    1.20
   28     1    1.20
   29    16    1.75
   30     6    1.50
   31     1    1.20
   32     1    1.20
   33     6    1.50
   34     1    1.20
   35     1    1.20
   36    16    1.75
   37     6    1.50
   38     1    1.20
   39     1    1.20
   40     6    1.50
   41     1    1.20
   42     1    1.20
   43    16    1.75
   44     6    1.50
   45     1    1.20
   46     1    1.20
   47     6    1.50
   48     1    1.20
   49     1    1.20
   50     1    1.20
 Generate VDW surfaces: Layer= 4 Dens= 1 Start= 1.400 Inc= 0.200
            Electrostatic Properties Using The SCF Density.


       Atomic Center    1 is at   2.604605 -7.101959 -0.566157
       Atomic Center    2 is at   2.342063 -6.689198  0.413158
       Atomic Center    3 is at   2.245621 -8.135880 -0.616349
       Atomic Center    4 is at   3.695673 -7.105682 -0.654553
       Atomic Center    5 is at   1.984444 -6.268949 -1.676326
       Atomic Center    6 is at   2.240423 -6.687087 -2.665447
       Atomic Center    7 is at   0.885683 -6.285415 -1.592522
       Atomic Center    8 is at   2.486595 -4.945999 -1.566613
       Atomic Center    9 is at   2.077009 -4.068509 -2.596908
       Atomic Center   10 is at   2.149683 -4.559861 -3.582293
       Atomic Center   11 is at   2.783797 -3.232080 -2.581465
       Atomic Center   12 is at   0.666239 -3.515007 -2.431387
       Atomic Center   13 is at   0.404046 -2.934485 -3.333307
       Atomic Center   14 is at  -0.070660 -4.331130 -2.344917
       Atomic Center   15 is at   0.625434 -2.693862 -1.279889
       Atomic Center   16 is at  -0.657669 -2.156680 -1.020855
       Atomic Center   17 is at  -1.384020 -2.970229 -0.842753
       Atomic Center   18 is at  -1.019309 -1.569963 -1.881956
       Atomic Center   19 is at  -0.605112 -1.264107  0.212290
       Atomic Center   20 is at  -0.100187 -1.804986  1.028014
       Atomic Center   21 is at  -1.633464 -1.051600  0.526974
       Atomic Center   22 is at   0.000000  0.000000  0.000000
       Atomic Center   23 is at   1.426816  0.000000  0.000000
       Atomic Center   24 is at   1.818218 -0.548884 -0.862937
       Atomic Center   25 is at   1.791116 -0.503702  0.912319
       Atomic Center   26 is at   1.919366  1.439822  0.000000
       Atomic Center   27 is at   3.004147  1.439147  0.154767
       Atomic Center   28 is at   1.475392  1.998389  0.830373
       Atomic Center   29 is at   1.710160  2.379322 -1.563814
       Atomic Center   30 is at  -0.109799  2.621655 -1.694286
       Atomic Center   31 is at  -0.219973  3.257271 -2.579083
       Atomic Center   32 is at  -0.583518  1.657578 -1.893641
       Atomic Center   33 is at  -0.801759  3.260577 -0.492040
       Atomic Center   34 is at  -0.773302  2.572021  0.356613
       Atomic Center   35 is at  -1.854651  3.429648 -0.751113
       Atomic Center   36 is at  -0.058818  4.885253 -0.038970
       Atomic Center   37 is at  -1.437539  5.598640  0.943108
       Atomic Center   38 is at  -2.369042  5.514201  0.371613
       Atomic Center   39 is at  -1.205052  6.664602  1.031781
       Atomic Center   40 is at  -1.589944  4.977184  2.331575
       Atomic Center   41 is at  -1.785072  3.903469  2.251506
       Atomic Center   42 is at  -0.668617  5.117766  2.906434
       Atomic Center   43 is at  -2.985362  5.795992  3.216465
       Atomic Center   44 is at  -2.807762  5.060384  4.892483
       Atomic Center   45 is at  -1.782371  5.232223  5.239948
       Atomic Center   46 is at  -3.465384  5.666980  5.524330
       Atomic Center   47 is at  -3.183784  3.582427  4.994296
       Atomic Center   48 is at  -2.529609  2.955573  4.379025
       Atomic Center   49 is at  -3.090738  3.238451  6.032290
       Atomic Center   50 is at  -4.215430  3.417293  4.668008
      ESP Fit Center   51 is at   3.129605 -8.011286  1.252496
      ESP Fit Center   52 is at   0.859620 -7.614333  0.483843
      ESP Fit Center   53 is at   3.360101 -8.756264  0.483843
      ESP Fit Center   54 is at   0.565627 -7.604522 -0.566157
      ESP Fit Center   55 is at   3.797541 -8.830225 -0.566157
      ESP Fit Center   56 is at   2.342063 -6.689198  2.093158
      ESP Fit Center   57 is at   3.329542 -6.689198  1.772307
      ESP Fit Center   58 is at   2.647211 -5.750049  1.772307
      ESP Fit Center   59 is at   1.543176 -6.108772  1.772307
      ESP Fit Center   60 is at   1.543176 -7.269624  1.772307
      ESP Fit Center   61 is at   2.647211 -7.628347  1.772307
      ESP Fit Center   62 is at   3.566030 -5.662168  0.932307
      ESP Fit Center   63 is at   2.619514 -5.115697  0.932307
      ESP Fit Center   64 is at   1.543176 -5.305484  0.932307
      ESP Fit Center   65 is at   0.840646 -6.142727  0.932307
      ESP Fit Center   66 is at   0.840646 -7.235669  0.932307
      ESP Fit Center   67 is at   1.446734 -8.716306  0.742800
      ESP Fit Center   68 is at   2.550769 -9.075029  0.742800
      ESP Fit Center   69 is at   0.744204 -8.682351 -0.097200
      ESP Fit Center   70 is at   1.446734 -9.519594 -0.097200
      ESP Fit Center   71 is at   2.523072 -9.709381 -0.097200
      ESP Fit Center   72 is at   3.469588 -9.162910 -0.097200
      ESP Fit Center   73 is at   0.744204 -8.682351 -1.135498
      ESP Fit Center   74 is at   1.446734 -9.519594 -1.135498
      ESP Fit Center   75 is at   2.523072 -9.709381 -1.135498
      ESP Fit Center   76 is at   3.469588 -9.162910 -1.135498
      ESP Fit Center   77 is at   1.446734 -8.716306 -1.975498
      ESP Fit Center   78 is at   2.550769 -9.075029 -1.975498
      ESP Fit Center   79 is at   4.683152 -7.105682  0.704596
      ESP Fit Center   80 is at   4.000821 -6.166533  0.704596
      ESP Fit Center   81 is at   4.000821 -8.044831  0.704596
      ESP Fit Center   82 is at   5.293448 -7.105682 -0.135404
      ESP Fit Center   83 is at   4.919640 -6.078652 -0.135404
      ESP Fit Center   84 is at   3.973124 -5.532181 -0.135404
      ESP Fit Center   85 is at   3.973124 -8.679183 -0.135404
      ESP Fit Center   86 is at   4.919640 -8.132712 -0.135404
      ESP Fit Center   87 is at   5.293448 -7.105682 -1.173702
      ESP Fit Center   88 is at   4.919640 -6.078652 -1.173702
      ESP Fit Center   89 is at   3.973124 -8.679183 -1.173702
      ESP Fit Center   90 is at   4.919640 -8.132712 -1.173702
      ESP Fit Center   91 is at   4.683152 -7.105682 -2.013702
      ESP Fit Center   92 is at   4.000821 -8.044831 -2.013702
      ESP Fit Center   93 is at   0.793479 -7.643395 -2.726326
      ESP Fit Center   94 is at   3.838198 -6.687087 -3.184596
      ESP Fit Center   95 is at   3.464390 -5.660057 -3.184596
      ESP Fit Center   96 is at   0.739006 -7.233558 -3.184596
      ESP Fit Center   97 is at   1.441536 -8.070801 -3.184596
      ESP Fit Center   98 is at   2.517874 -8.260588 -3.184596
      ESP Fit Center   99 is at   3.464390 -7.714117 -3.184596
      ESP Fit Center  100 is at   3.227902 -6.687087 -4.024596
      ESP Fit Center  101 is at   1.441536 -6.106661 -4.024596
      ESP Fit Center  102 is at   1.441536 -7.267513 -4.024596
      ESP Fit Center  103 is at   2.545571 -7.626236 -4.024596
      ESP Fit Center  104 is at   2.240423 -6.687087 -4.345447
      ESP Fit Center  105 is at   0.086796 -5.704989 -0.233373
      ESP Fit Center  106 is at   0.086796 -6.865841 -0.233373
      ESP Fit Center  107 is at  -0.615734 -5.738944 -1.073373
      ESP Fit Center  108 is at  -0.615734 -6.831886 -1.073373
      ESP Fit Center  109 is at   0.086796 -7.669129 -1.073373
      ESP Fit Center  110 is at  -0.615734 -6.831886 -2.111671
      ESP Fit Center  111 is at   0.086796 -7.669129 -2.111671
      ESP Fit Center  112 is at   0.086796 -6.865841 -2.951671
      ESP Fit Center  113 is at   2.486595 -4.945999  0.393387
      ESP Fit Center  114 is at   3.466595 -4.945999  0.130797
      ESP Fit Center  115 is at   2.976595 -4.097294  0.130797
      ESP Fit Center  116 is at   1.996595 -4.097294  0.130797
      ESP Fit Center  117 is at   1.506595 -4.945999  0.130797
      ESP Fit Center  118 is at   4.184005 -4.945999 -0.586613
      ESP Fit Center  119 is at   3.859828 -3.948287 -0.586613
      ESP Fit Center  120 is at   3.011123 -3.331666 -0.586613
      ESP Fit Center  121 is at   4.446595 -4.945999 -1.566613
      ESP Fit Center  122 is at   4.184005 -3.965999 -1.566613
      ESP Fit Center  123 is at   4.184005 -4.945999 -2.546613
      ESP Fit Center  124 is at   3.895662 -4.068509 -3.646908
      ESP Fit Center  125 is at   2.602009 -3.159182 -4.415561
      ESP Fit Center  126 is at   3.747458 -4.559861 -4.101442
      ESP Fit Center  127 is at   0.648266 -5.106332 -4.101442
      ESP Fit Center  128 is at   1.350796 -5.943575 -4.101442
      ESP Fit Center  129 is at   3.373650 -5.586891 -4.101442
      ESP Fit Center  130 is at   3.137162 -4.559861 -4.941442
      ESP Fit Center  131 is at   2.454831 -3.620712 -4.941442
      ESP Fit Center  132 is at   1.350796 -3.979435 -4.941442
      ESP Fit Center  133 is at   1.350796 -5.140287 -4.941442
      ESP Fit Center  134 is at   2.454831 -5.499010 -4.941442
      ESP Fit Center  135 is at   2.149683 -4.559861 -5.262293
      ESP Fit Center  136 is at   3.771276 -3.232080 -1.222316
      ESP Fit Center  137 is at   3.088945 -2.292931 -1.222316
      ESP Fit Center  138 is at   4.381572 -3.232080 -2.062316
      ESP Fit Center  139 is at   4.007764 -2.205050 -2.062316
      ESP Fit Center  140 is at   3.061248 -1.658579 -2.062316
      ESP Fit Center  141 is at   4.381572 -3.232080 -3.100614
      ESP Fit Center  142 is at   4.007764 -2.205050 -3.100614
      ESP Fit Center  143 is at   3.061248 -1.658579 -3.100614
      ESP Fit Center  144 is at   1.984910 -1.848366 -3.100614
      ESP Fit Center  145 is at   3.771276 -3.232080 -3.940614
      ESP Fit Center  146 is at   3.088945 -2.292931 -3.940614
      ESP Fit Center  147 is at   0.141239 -4.424334 -4.250040
      ESP Fit Center  148 is at   0.681497 -1.360984 -2.814158
      ESP Fit Center  149 is at   1.628013 -1.907455 -3.852456
      ESP Fit Center  150 is at   0.681497 -1.360984 -3.852456
      ESP Fit Center  151 is at  -0.394841 -1.550771 -3.852456
      ESP Fit Center  152 is at  -1.097371 -2.388014 -3.852456
      ESP Fit Center  153 is at  -1.097371 -3.480956 -3.852456
      ESP Fit Center  154 is at   1.391525 -2.934485 -4.692456
      ESP Fit Center  155 is at   0.709194 -1.995336 -4.692456
      ESP Fit Center  156 is at  -0.394841 -2.354059 -4.692456
      ESP Fit Center  157 is at  -0.394841 -3.514911 -4.692456
      ESP Fit Center  158 is at   0.709194 -3.873634 -4.692456
      ESP Fit Center  159 is at   0.404046 -2.934485 -5.013307
      ESP Fit Center  160 is at  -0.869547 -4.911556 -0.985768
      ESP Fit Center  161 is at  -1.572077 -4.877601 -1.825768
      ESP Fit Center  162 is at  -0.869547 -5.714844 -1.825768
      ESP Fit Center  163 is at  -1.572077 -3.784659 -2.864066
      ESP Fit Center  164 is at  -1.572077 -4.877601 -2.864066
      ESP Fit Center  165 is at  -0.869547 -5.714844 -2.864066
      ESP Fit Center  166 is at  -0.869547 -4.911556 -3.704066
      ESP Fit Center  167 is at   0.234488 -5.270279 -3.704066
      ESP Fit Center  168 is at   1.605434 -2.693862  0.417521
      ESP Fit Center  169 is at   0.135434 -3.542567  0.417521
      ESP Fit Center  170 is at   1.115434 -3.542567  0.417521
      ESP Fit Center  171 is at   2.322844 -2.693862 -0.299889
      ESP Fit Center  172 is at   0.100906 -4.308195 -0.299889
      ESP Fit Center  173 is at   1.998667 -1.696150 -2.259889
      ESP Fit Center  174 is at  -2.696647 -1.654117 -1.020855
      ESP Fit Center  175 is at  -2.182907 -3.550655  0.516396
      ESP Fit Center  176 is at  -1.078872 -3.909378  0.516396
      ESP Fit Center  177 is at  -2.885437 -2.423758 -0.323604
      ESP Fit Center  178 is at  -2.885437 -3.516700 -0.323604
      ESP Fit Center  179 is at  -2.182907 -4.353943 -0.323604
      ESP Fit Center  180 is at  -1.106569 -4.543730 -0.323604
      ESP Fit Center  181 is at  -2.885437 -2.423758 -1.361902
      ESP Fit Center  182 is at  -2.885437 -3.516700 -1.361902
      ESP Fit Center  183 is at  -2.182907 -4.353943 -1.361902
      ESP Fit Center  184 is at  -2.182907 -3.550655 -2.201902
      ESP Fit Center  185 is at  -1.818196 -0.186249 -1.362807
      ESP Fit Center  186 is at  -2.520726 -1.023492 -1.362807
      ESP Fit Center  187 is at   0.204658 -0.542933 -2.401105
      ESP Fit Center  188 is at  -0.741858  0.003538 -2.401105
      ESP Fit Center  189 is at  -1.818196 -0.186249 -2.401105
      ESP Fit Center  190 is at  -2.520726 -1.023492 -2.401105
      ESP Fit Center  191 is at  -2.520726 -2.116434 -2.401105
      ESP Fit Center  192 is at  -0.714161 -0.630814 -3.241105
      ESP Fit Center  193 is at  -1.818196 -0.989537 -3.241105
      ESP Fit Center  194 is at  -1.818196 -2.150389 -3.241105
      ESP Fit Center  195 is at  -1.019309 -1.569963 -3.561956
      ESP Fit Center  196 is at  -0.080112 -0.354780  2.030943
      ESP Fit Center  197 is at  -1.130112 -0.354780  2.030943
      ESP Fit Center  198 is at  -1.796077 -2.638553  1.262290
      ESP Fit Center  199 is at  -1.796077  0.110339 -0.837710
      ESP Fit Center  200 is at  -0.100187 -1.804986  2.708014
      ESP Fit Center  201 is at   0.887292 -1.804986  2.387163
      ESP Fit Center  202 is at   0.204961 -0.865837  2.387163
      ESP Fit Center  203 is at  -0.899074 -1.224560  2.387163
      ESP Fit Center  204 is at  -0.899074 -2.385412  2.387163
      ESP Fit Center  205 is at   0.204961 -2.744135  2.387163
      ESP Fit Center  206 is at  -0.899074 -3.188700  1.547163
      ESP Fit Center  207 is at   0.177264 -3.378487  1.547163
      ESP Fit Center  208 is at   1.123780 -2.832016  1.547163
      ESP Fit Center  209 is at   0.177264 -3.378487  0.508865
      ESP Fit Center  210 is at  -1.633464 -1.051600  2.206974
      ESP Fit Center  211 is at  -1.328316 -0.112451  1.886123
      ESP Fit Center  212 is at  -2.432351 -0.471174  1.886123
      ESP Fit Center  213 is at  -2.432351 -1.632026  1.886123
      ESP Fit Center  214 is at  -2.432351  0.332114  1.046123
      ESP Fit Center  215 is at  -3.134881 -0.505129  1.046123
      ESP Fit Center  216 is at  -3.134881 -1.598071  1.046123
      ESP Fit Center  217 is at  -2.432351 -2.435314  1.046123
      ESP Fit Center  218 is at  -2.432351  0.332114  0.007825
      ESP Fit Center  219 is at  -3.134881 -0.505129  0.007825
      ESP Fit Center  220 is at  -3.134881 -1.598071  0.007825
      ESP Fit Center  221 is at  -2.432351 -0.471174 -0.832175
      ESP Fit Center  222 is at   0.000000  0.000000  1.960000
      ESP Fit Center  223 is at   0.490000  0.848705  1.697410
      ESP Fit Center  224 is at  -0.490000  0.848705  1.697410
      ESP Fit Center  225 is at  -1.373233  0.997712  0.980000
      ESP Fit Center  226 is at  -1.697410  0.980000  0.000000
      ESP Fit Center  227 is at   0.000000  0.000000 -1.960000
      ESP Fit Center  228 is at   3.286274 -0.975919  0.000000
      ESP Fit Center  229 is at   3.042185 -1.575914 -0.343788
      ESP Fit Center  230 is at   3.415993 -0.548884 -1.382086
      ESP Fit Center  231 is at   3.042185 -1.575914 -1.382086
      ESP Fit Center  232 is at   2.805697 -0.548884 -2.222086
      ESP Fit Center  233 is at   1.019331  0.031542 -2.222086
      ESP Fit Center  234 is at   2.123366 -1.488033 -2.222086
      ESP Fit Center  235 is at   1.818218 -0.548884 -2.542937
      ESP Fit Center  236 is at   1.791116 -0.503702  2.592319
      ESP Fit Center  237 is at   2.778595 -0.503702  2.271468
      ESP Fit Center  238 is at   2.096264  0.435447  2.271468
      ESP Fit Center  239 is at   0.992229  0.076724  2.271468
      ESP Fit Center  240 is at   0.992229 -1.084128  2.271468
      ESP Fit Center  241 is at   2.096264 -1.442851  2.271468
      ESP Fit Center  242 is at   3.388891 -0.503702  1.431468
      ESP Fit Center  243 is at   2.068567 -2.077203  1.431468
      ESP Fit Center  244 is at   3.015083 -1.530732  1.431468
      ESP Fit Center  245 is at   2.068567 -2.077203  0.393170
      ESP Fit Center  246 is at   3.015083 -1.530732  0.393170
      ESP Fit Center  247 is at   3.004147  1.439147  1.834767
      ESP Fit Center  248 is at   3.991626  1.439147  1.513916
      ESP Fit Center  249 is at   3.309295  2.378296  1.513916
      ESP Fit Center  250 is at   3.309295  0.499998  1.513916
      ESP Fit Center  251 is at   4.601922  1.439147  0.673916
      ESP Fit Center  252 is at   4.228114  2.466177  0.673916
      ESP Fit Center  253 is at   3.281598  3.012648  0.673916
      ESP Fit Center  254 is at   4.228114  0.412117  0.673916
      ESP Fit Center  255 is at   4.601922  1.439147 -0.364382
      ESP Fit Center  256 is at   4.228114  2.466177 -0.364382
      ESP Fit Center  257 is at   4.228114  0.412117 -0.364382
      ESP Fit Center  258 is at   3.991626  1.439147 -1.204382
      ESP Fit Center  259 is at   1.475392  1.998389  2.510373
      ESP Fit Center  260 is at   2.462871  1.998389  2.189522
      ESP Fit Center  261 is at   1.780540  2.937538  2.189522
      ESP Fit Center  262 is at   0.676505  2.578815  2.189522
      ESP Fit Center  263 is at   0.676505  1.417963  2.189522
      ESP Fit Center  264 is at   1.780540  1.059240  2.189522
      ESP Fit Center  265 is at   2.699359  3.025419  1.349522
      ESP Fit Center  266 is at   1.752843  3.571890  1.349522
      ESP Fit Center  267 is at   3.321570  3.414913 -0.036264
      ESP Fit Center  268 is at   2.505882  4.121710 -0.036264
      ESP Fit Center  269 is at   4.098733  2.379322 -1.018638
      ESP Fit Center  270 is at   3.862190  3.415685 -1.018638
      ESP Fit Center  271 is at   3.199411  4.246784 -1.018638
      ESP Fit Center  272 is at   2.241668  4.708009 -1.018638
      ESP Fit Center  273 is at   4.098733  2.379322 -2.108990
      ESP Fit Center  274 is at   3.862190  3.415685 -2.108990
      ESP Fit Center  275 is at   3.199411  4.246784 -2.108990
      ESP Fit Center  276 is at   2.241668  4.708009 -2.108990
      ESP Fit Center  277 is at   3.199411  0.511860 -2.108990
      ESP Fit Center  278 is at   3.862190  1.342959 -2.108990
      ESP Fit Center  279 is at   3.625647  2.379322 -3.091364
      ESP Fit Center  280 is at   3.321570  3.414913 -3.091364
      ESP Fit Center  281 is at   2.505882  4.121710 -3.091364
      ESP Fit Center  282 is at   1.437558  4.275312 -3.091364
      ESP Fit Center  283 is at   0.455783  0.931693 -3.091364
      ESP Fit Center  284 is at   1.437558  0.483332 -3.091364
      ESP Fit Center  285 is at   2.505882  0.636934 -3.091364
      ESP Fit Center  286 is at   3.321570  1.343731 -3.091364
      ESP Fit Center  287 is at   2.773175  2.379322 -3.771188
      ESP Fit Center  288 is at   2.241668  3.299920 -3.771188
      ESP Fit Center  289 is at   1.178652  3.299920 -3.771188
      ESP Fit Center  290 is at   0.647145  2.379322 -3.771188
      ESP Fit Center  291 is at   1.178652  1.458724 -3.771188
      ESP Fit Center  292 is at   2.241668  1.458724 -3.771188
      ESP Fit Center  293 is at   1.710160  2.379322 -4.013814
      ESP Fit Center  294 is at   1.003994  4.284301 -3.098232
      ESP Fit Center  295 is at   0.057478  4.830772 -3.098232
      ESP Fit Center  296 is at  -1.018860  4.640985 -3.098232
      ESP Fit Center  297 is at  -1.721390  3.803742 -3.098232
      ESP Fit Center  298 is at  -1.721390  2.710800 -3.098232
      ESP Fit Center  299 is at   0.767506  3.257271 -3.938232
      ESP Fit Center  300 is at   0.085175  4.196420 -3.938232
      ESP Fit Center  301 is at  -1.018860  3.837697 -3.938232
      ESP Fit Center  302 is at  -1.018860  2.676845 -3.938232
      ESP Fit Center  303 is at   0.085175  2.318122 -3.938232
      ESP Fit Center  304 is at  -0.219973  3.257271 -4.259083
      ESP Fit Center  305 is at  -2.084935  1.111107 -1.374492
      ESP Fit Center  306 is at  -1.382405  0.273864 -1.374492
      ESP Fit Center  307 is at  -2.084935  2.204049 -2.412790
      ESP Fit Center  308 is at  -2.084935  1.111107 -2.412790
      ESP Fit Center  309 is at  -1.382405  0.273864 -2.412790
      ESP Fit Center  310 is at  -0.306067  0.084077 -2.412790
      ESP Fit Center  311 is at  -1.382405  1.077152 -3.252790
      ESP Fit Center  312 is at  -0.278370  0.718429 -3.252790
      ESP Fit Center  313 is at  -0.583518  1.657578 -3.573641
      ESP Fit Center  314 is at  -1.546429  1.297043 -0.492040
      ESP Fit Center  315 is at  -0.773302  2.572021  2.036613
      ESP Fit Center  316 is at  -1.572189  1.991595  1.715762
      ESP Fit Center  317 is at  -0.468154  1.632872  1.715762
      ESP Fit Center  318 is at  -2.274719  2.025550  0.875762
      ESP Fit Center  319 is at  -1.572189  1.188307  0.875762
      ESP Fit Center  320 is at  -1.572189  1.188307 -0.162536
      ESP Fit Center  321 is at  -2.653538  2.849222  0.608036
      ESP Fit Center  322 is at  -3.356068  3.976119 -0.231964
      ESP Fit Center  323 is at  -3.356068  2.883177 -0.231964
      ESP Fit Center  324 is at  -2.653538  2.045934 -0.231964
      ESP Fit Center  325 is at  -2.653538  4.813362 -1.270262
      ESP Fit Center  326 is at  -3.356068  3.976119 -1.270262
      ESP Fit Center  327 is at  -3.356068  2.883177 -1.270262
      ESP Fit Center  328 is at  -2.653538  2.045934 -1.270262
      ESP Fit Center  329 is at  -2.653538  4.010074 -2.110262
      ESP Fit Center  330 is at  -2.653538  2.849222 -2.110262
      ESP Fit Center  331 is at   1.004197  4.885253  2.168404
      ESP Fit Center  332 is at   0.472690  3.964655  2.168404
      ESP Fit Center  333 is at   1.856669  4.885253  1.488580
      ESP Fit Center  334 is at   1.552592  5.920844  1.488580
      ESP Fit Center  335 is at   0.736904  6.627641  1.488580
      ESP Fit Center  336 is at   1.552592  3.849662  1.488580
      ESP Fit Center  337 is at   2.329755  4.885253  0.506206
      ESP Fit Center  338 is at   2.093212  5.921616  0.506206
      ESP Fit Center  339 is at   1.430433  6.752715  0.506206
      ESP Fit Center  340 is at   0.472690  7.213940  0.506206
      ESP Fit Center  341 is at   2.093212  3.848890  0.506206
      ESP Fit Center  342 is at   2.329755  4.885253 -0.584146
      ESP Fit Center  343 is at   2.093212  5.921616 -0.584146
      ESP Fit Center  344 is at   1.430433  6.752715 -0.584146
      ESP Fit Center  345 is at   0.472690  7.213940 -0.584146
      ESP Fit Center  346 is at  -0.590326  7.213940 -0.584146
      ESP Fit Center  347 is at   1.856669  4.885253 -1.566520
      ESP Fit Center  348 is at   1.552592  5.920844 -1.566520
      ESP Fit Center  349 is at   0.736904  6.627641 -1.566520
      ESP Fit Center  350 is at  -0.331420  6.781243 -1.566520
      ESP Fit Center  351 is at  -1.313195  6.332882 -1.566520
      ESP Fit Center  352 is at  -1.896714  5.424908 -1.566520
      ESP Fit Center  353 is at   1.004197  4.885253 -2.246344
      ESP Fit Center  354 is at   0.472690  5.805851 -2.246344
      ESP Fit Center  355 is at  -0.590326  5.805851 -2.246344
      ESP Fit Center  356 is at  -1.121833  4.885253 -2.246344
      ESP Fit Center  357 is at  -3.009412  6.991198  0.943108
      ESP Fit Center  358 is at  -3.167929  6.897915  0.890762
      ESP Fit Center  359 is at  -3.870459  6.060672  0.890762
      ESP Fit Center  360 is at  -3.870459  4.967730  0.890762
      ESP Fit Center  361 is at  -3.167929  4.130487  0.890762
      ESP Fit Center  362 is at  -3.167929  6.897915 -0.147536
      ESP Fit Center  363 is at  -3.870459  6.060672 -0.147536
      ESP Fit Center  364 is at  -3.870459  4.967730 -0.147536
      ESP Fit Center  365 is at  -2.063894  6.453350 -0.987536
      ESP Fit Center  366 is at  -3.167929  6.094627 -0.987536
      ESP Fit Center  367 is at  -3.167929  4.933775 -0.987536
      ESP Fit Center  368 is at  -2.369042  5.514201 -1.308387
      ESP Fit Center  369 is at  -0.217573  6.664602  2.390930
      ESP Fit Center  370 is at  -0.899904  7.603751  2.390930
      ESP Fit Center  371 is at   0.018915  7.691632  1.550930
      ESP Fit Center  372 is at  -0.927601  8.238103  1.550930
      ESP Fit Center  373 is at  -2.003939  8.048316  1.550930
      ESP Fit Center  374 is at   0.018915  7.691632  0.512632
      ESP Fit Center  375 is at  -0.927601  8.238103  0.512632
      ESP Fit Center  376 is at  -2.003939  8.048316  0.512632
      ESP Fit Center  377 is at  -0.899904  7.603751 -0.327368
      ESP Fit Center  378 is at  -2.003939  7.245028 -0.327368
      ESP Fit Center  379 is at  -3.286489  3.356998  2.770655
      ESP Fit Center  380 is at  -1.507621  2.329968  2.770655
      ESP Fit Center  381 is at  -0.561105  2.876439  2.770655
      ESP Fit Center  382 is at  -3.286489  3.356998  1.732357
      ESP Fit Center  383 is at  -2.583959  2.519755  1.732357
      ESP Fit Center  384 is at  -2.583959  3.323043  0.892357
      ESP Fit Center  385 is at   0.318862  5.117766  4.265583
      ESP Fit Center  386 is at  -0.363469  6.056915  4.265583
      ESP Fit Center  387 is at  -0.363469  4.178617  4.265583
      ESP Fit Center  388 is at   0.929158  5.117766  3.425583
      ESP Fit Center  389 is at   0.555350  6.144796  3.425583
      ESP Fit Center  390 is at  -0.391166  6.691267  3.425583
      ESP Fit Center  391 is at  -0.391166  3.544265  3.425583
      ESP Fit Center  392 is at   0.555350  4.090736  3.425583
      ESP Fit Center  393 is at   0.929158  5.117766  2.387285
      ESP Fit Center  394 is at   0.555350  6.144796  2.387285
      ESP Fit Center  395 is at   0.555350  4.090736  2.387285
      ESP Fit Center  396 is at  -1.373952  6.831583  4.744015
      ESP Fit Center  397 is at  -2.189640  7.538380  4.744015
      ESP Fit Center  398 is at  -3.257964  7.691982  4.744015
      ESP Fit Center  399 is at  -4.239739  7.243621  4.744015
      ESP Fit Center  400 is at  -4.823258  6.335647  4.744015
      ESP Fit Center  401 is at  -0.833332  6.832355  3.761641
      ESP Fit Center  402 is at  -1.496111  7.663454  3.761641
      ESP Fit Center  403 is at  -2.453854  8.124679  3.761641
      ESP Fit Center  404 is at  -3.516870  8.124679  3.761641
      ESP Fit Center  405 is at  -4.474613  7.663454  3.761641
      ESP Fit Center  406 is at  -5.137392  6.832355  3.761641
      ESP Fit Center  407 is at  -5.373935  5.795992  3.761641
      ESP Fit Center  408 is at  -5.137392  4.759629  3.761641
      ESP Fit Center  409 is at  -1.496111  7.663454  2.671289
      ESP Fit Center  410 is at  -2.453854  8.124679  2.671289
      ESP Fit Center  411 is at  -3.516870  8.124679  2.671289
      ESP Fit Center  412 is at  -4.474613  7.663454  2.671289
      ESP Fit Center  413 is at  -5.137392  6.832355  2.671289
      ESP Fit Center  414 is at  -5.373935  5.795992  2.671289
      ESP Fit Center  415 is at  -5.137392  4.759629  2.671289
      ESP Fit Center  416 is at  -4.474613  3.928530  2.671289
      ESP Fit Center  417 is at  -3.516870  3.467305  2.671289
      ESP Fit Center  418 is at  -3.257964  7.691982  1.688915
      ESP Fit Center  419 is at  -4.239739  7.243621  1.688915
      ESP Fit Center  420 is at  -4.823258  6.335647  1.688915
      ESP Fit Center  421 is at  -4.823258  5.256337  1.688915
      ESP Fit Center  422 is at  -4.239739  4.348363  1.688915
      ESP Fit Center  423 is at  -3.516870  6.716590  1.009091
      ESP Fit Center  424 is at  -4.048377  5.795992  1.009091
      ESP Fit Center  425 is at  -2.807762  5.060384  6.992483
      ESP Fit Center  426 is at  -2.282762  5.969711  6.711136
      ESP Fit Center  427 is at  -1.782371  5.232223  6.919948
      ESP Fit Center  428 is at  -0.794892  5.232223  6.599097
      ESP Fit Center  429 is at  -1.477223  6.171372  6.599097
      ESP Fit Center  430 is at  -1.477223  4.293074  6.599097
      ESP Fit Center  431 is at  -0.184596  5.232223  5.759097
      ESP Fit Center  432 is at  -0.558404  6.259253  5.759097
      ESP Fit Center  433 is at  -1.504920  6.805724  5.759097
      ESP Fit Center  434 is at  -0.558404  4.205193  5.759097
      ESP Fit Center  435 is at  -0.184596  5.232223  4.720799
      ESP Fit Center  436 is at  -0.558404  6.259253  4.720799
      ESP Fit Center  437 is at  -0.558404  4.205193  4.720799
      ESP Fit Center  438 is at  -3.465384  5.666980  7.204330
      ESP Fit Center  439 is at  -2.477905  5.666980  6.883479
      ESP Fit Center  440 is at  -3.160236  6.606129  6.883479
      ESP Fit Center  441 is at  -4.264271  6.247406  6.883479
      ESP Fit Center  442 is at  -4.264271  5.086554  6.883479
      ESP Fit Center  443 is at  -3.187933  7.240481  6.043479
      ESP Fit Center  444 is at  -4.264271  7.050694  6.043479
      ESP Fit Center  445 is at  -4.966801  6.213451  6.043479
      ESP Fit Center  446 is at  -4.966801  5.120509  6.043479
      ESP Fit Center  447 is at  -4.264271  7.050694  5.005181
      ESP Fit Center  448 is at  -4.966801  6.213451  5.005181
      ESP Fit Center  449 is at  -4.966801  5.120509  5.005181
      ESP Fit Center  450 is at  -1.365131  3.582427  6.044296
      ESP Fit Center  451 is at  -4.928769  4.094801  6.044296
      ESP Fit Center  452 is at  -1.083784  3.582427  4.994296
      ESP Fit Center  453 is at  -3.928454  1.618893  4.994296
      ESP Fit Center  454 is at  -3.708784  2.673100  3.175643
      ESP Fit Center  455 is at  -0.931834  2.955573  4.898174
      ESP Fit Center  456 is at  -2.252158  1.382072  4.898174
      ESP Fit Center  457 is at  -1.305642  1.928543  4.898174
      ESP Fit Center  458 is at  -0.931834  2.955573  3.859876
      ESP Fit Center  459 is at  -3.328496  1.571859  3.859876
      ESP Fit Center  460 is at  -2.252158  1.382072  3.859876
      ESP Fit Center  461 is at  -1.305642  1.928543  3.859876
      ESP Fit Center  462 is at  -3.328496  2.375147  3.019876
      ESP Fit Center  463 is at  -2.224461  2.016424  3.019876
      ESP Fit Center  464 is at  -3.090738  3.238451  7.712290
      ESP Fit Center  465 is at  -2.103259  3.238451  7.391439
      ESP Fit Center  466 is at  -2.785590  4.177600  7.391439
      ESP Fit Center  467 is at  -3.889625  3.818877  7.391439
      ESP Fit Center  468 is at  -3.889625  2.658025  7.391439
      ESP Fit Center  469 is at  -2.785590  2.299302  7.391439
      ESP Fit Center  470 is at  -1.492963  3.238451  6.551439
      ESP Fit Center  471 is at  -4.592155  3.784922  6.551439
      ESP Fit Center  472 is at  -4.592155  2.691980  6.551439
      ESP Fit Center  473 is at  -3.889625  1.854737  6.551439
      ESP Fit Center  474 is at  -2.813287  1.664950  6.551439
      ESP Fit Center  475 is at  -1.866771  2.211421  6.551439
      ESP Fit Center  476 is at  -5.014317  3.997719  6.027157
      ESP Fit Center  477 is at  -5.014317  2.836867  6.027157
      ESP Fit Center  478 is at  -5.014317  4.801007  5.187157
      ESP Fit Center  479 is at  -5.716847  3.963764  5.187157
      ESP Fit Center  480 is at  -5.716847  2.870822  5.187157
      ESP Fit Center  481 is at  -5.014317  2.033579  5.187157
      ESP Fit Center  482 is at  -5.716847  3.963764  4.148859
      ESP Fit Center  483 is at  -5.716847  2.870822  4.148859
      ESP Fit Center  484 is at  -5.014317  2.033579  4.148859
      ESP Fit Center  485 is at  -5.014317  3.997719  3.308859
      ESP Fit Center  486 is at  -5.014317  2.836867  3.308859
      ESP Fit Center  487 is at  -3.910282  2.478144  3.308859
      ESP Fit Center  488 is at  -4.215430  3.417293  2.988008
      ESP Fit Center  489 is at   3.125265 -8.003769  1.596168
      ESP Fit Center  490 is at   4.183129 -6.087503  0.930219
      ESP Fit Center  491 is at   3.384088 -8.808788  0.930219
      ESP Fit Center  492 is at   4.183129 -8.116415  0.930219
      ESP Fit Center  493 is at   4.063463 -8.931309 -0.032107
      ESP Fit Center  494 is at   3.384088 -8.808788 -2.062533
      ESP Fit Center  495 is at   2.342063 -6.689198  2.333158
      ESP Fit Center  496 is at   3.302063 -6.689198  2.075927
      ESP Fit Center  497 is at   2.822063 -5.857814  2.075927
      ESP Fit Center  498 is at   1.862063 -5.857814  2.075927
      ESP Fit Center  499 is at   1.382063 -6.689198  2.075927
      ESP Fit Center  500 is at   1.862063 -7.520582  2.075927
      ESP Fit Center  501 is at   2.822063 -7.520582  2.075927
      ESP Fit Center  502 is at   4.004832 -6.689198  1.373158
      ESP Fit Center  503 is at   3.687271 -5.711847  1.373158
      ESP Fit Center  504 is at   2.855887 -5.107811  1.373158
      ESP Fit Center  505 is at   1.828239 -5.107811  1.373158
      ESP Fit Center  506 is at   0.996855 -5.711847  1.373158
      ESP Fit Center  507 is at   0.679294 -6.689198  1.373158
      ESP Fit Center  508 is at   0.996855 -7.666549  1.373158
      ESP Fit Center  509 is at   1.382063 -5.026429  0.413158
      ESP Fit Center  510 is at   0.679294 -5.729198  0.413158
      ESP Fit Center  511 is at   0.422063 -6.689198  0.413158
      ESP Fit Center  512 is at   1.765621 -8.967264  1.046420
      ESP Fit Center  513 is at   2.725621 -8.967264  1.046420
      ESP Fit Center  514 is at   0.582852 -8.135880  0.343651
      ESP Fit Center  515 is at   0.900413 -9.113231  0.343651
      ESP Fit Center  516 is at   1.731797 -9.717267  0.343651
      ESP Fit Center  517 is at   2.759445 -9.717267  0.343651
      ESP Fit Center  518 is at   3.590829 -9.113231  0.343651
      ESP Fit Center  519 is at   0.325621 -8.135880 -0.616349
      ESP Fit Center  520 is at   0.582852 -9.095880 -0.616349
      ESP Fit Center  521 is at   1.285621 -9.798649 -0.616349
      ESP Fit Center  522 is at   2.245621-10.055880 -0.616349
      ESP Fit Center  523 is at   3.205621 -9.798649 -0.616349
      ESP Fit Center  524 is at   0.900413 -9.113231 -1.576349
      ESP Fit Center  525 is at   1.731797 -9.717267 -1.576349
      ESP Fit Center  526 is at   2.759445 -9.717267 -1.576349
      ESP Fit Center  527 is at   3.590829 -9.113231 -1.576349
      ESP Fit Center  528 is at   1.765621 -8.967264 -2.279118
      ESP Fit Center  529 is at   2.725621 -8.967264 -2.279118
      ESP Fit Center  530 is at   4.655673 -7.105682  1.008216
      ESP Fit Center  531 is at   5.358442 -7.105682  0.305447
      ESP Fit Center  532 is at   5.040881 -6.128331  0.305447
      ESP Fit Center  533 is at   4.209497 -5.524295  0.305447
      ESP Fit Center  534 is at   4.209497 -8.687069  0.305447
      ESP Fit Center  535 is at   5.040881 -8.083033  0.305447
      ESP Fit Center  536 is at   5.615673 -7.105682 -0.654553
      ESP Fit Center  537 is at   5.358442 -6.145682 -0.654553
      ESP Fit Center  538 is at   4.655673 -5.442913 -0.654553
      ESP Fit Center  539 is at   4.655673 -8.768451 -0.654553
      ESP Fit Center  540 is at   5.358442 -8.065682 -0.654553
      ESP Fit Center  541 is at   5.358442 -7.105682 -1.614553
      ESP Fit Center  542 is at   5.040881 -6.128331 -1.614553
      ESP Fit Center  543 is at   4.209497 -8.687069 -1.614553
      ESP Fit Center  544 is at   5.040881 -8.083033 -1.614553
      ESP Fit Center  545 is at   4.655673 -7.105682 -2.317322
      ESP Fit Center  546 is at   4.175673 -7.937066 -2.317322
      ESP Fit Center  547 is at   0.525586 -8.098299 -2.210376
      ESP Fit Center  548 is at   4.160423 -6.687087 -2.665447
      ESP Fit Center  549 is at   1.280423 -8.349856 -2.665447
      ESP Fit Center  550 is at   2.240423 -8.607087 -2.665447
      ESP Fit Center  551 is at   3.200423 -8.349856 -2.665447
      ESP Fit Center  552 is at   3.903192 -7.647087 -2.665447
      ESP Fit Center  553 is at   3.903192 -6.687087 -3.625447
      ESP Fit Center  554 is at   0.577654 -6.687087 -3.625447
      ESP Fit Center  555 is at   0.895215 -7.664438 -3.625447
      ESP Fit Center  556 is at   1.726599 -8.268474 -3.625447
      ESP Fit Center  557 is at   2.754247 -8.268474 -3.625447
      ESP Fit Center  558 is at   3.585631 -7.664438 -3.625447
      ESP Fit Center  559 is at   3.200423 -6.687087 -4.328216
      ESP Fit Center  560 is at   1.280423 -6.687087 -4.328216
      ESP Fit Center  561 is at   1.760423 -7.518471 -4.328216
      ESP Fit Center  562 is at   2.720423 -7.518471 -4.328216
      ESP Fit Center  563 is at   2.240423 -6.687087 -4.585447
      ESP Fit Center  564 is at   0.405683 -5.454031  0.070247
      ESP Fit Center  565 is at  -0.074317 -6.285415  0.070247
      ESP Fit Center  566 is at  -0.459525 -5.308064 -0.632522
      ESP Fit Center  567 is at  -0.777086 -6.285415 -0.632522
      ESP Fit Center  568 is at  -0.459525 -7.262766 -0.632522
      ESP Fit Center  569 is at  -1.034317 -6.285415 -1.592522
      ESP Fit Center  570 is at  -0.777086 -7.245415 -1.592522
      ESP Fit Center  571 is at  -0.074317 -7.948184 -1.592522
      ESP Fit Center  572 is at  -0.777086 -6.285415 -2.552522
      ESP Fit Center  573 is at  -0.459525 -7.262766 -2.552522
      ESP Fit Center  574 is at   0.371859 -7.866802 -2.552522
      ESP Fit Center  575 is at  -0.074317 -6.285415 -3.255291
      ESP Fit Center  576 is at   3.458495 -4.945999  0.451557
      ESP Fit Center  577 is at   2.972545 -4.104309  0.451557
      ESP Fit Center  578 is at   2.000645 -4.104309  0.451557
      ESP Fit Center  579 is at   1.514695 -4.945999  0.451557
      ESP Fit Center  580 is at   4.237898 -4.945999 -0.169996
      ESP Fit Center  581 is at   3.903429 -3.916609 -0.169996
      ESP Fit Center  582 is at   3.027777 -3.280411 -0.169996
      ESP Fit Center  583 is at   4.670434 -4.945999 -1.068166
      ESP Fit Center  584 is at   4.420288 -3.931119 -1.068166
      ESP Fit Center  585 is at   4.670434 -4.945999 -2.065060
      ESP Fit Center  586 is at   4.420288 -5.960879 -2.065060
      ESP Fit Center  587 is at   4.185120 -5.083722 -3.130958
      ESP Fit Center  588 is at   3.953405 -4.068509 -4.093284
      ESP Fit Center  589 is at   3.812452 -5.519861 -3.582293
      ESP Fit Center  590 is at   3.812452 -4.559861 -4.542293
      ESP Fit Center  591 is at   3.494891 -3.582510 -4.542293
      ESP Fit Center  592 is at   0.804475 -5.537212 -4.542293
      ESP Fit Center  593 is at   1.635859 -6.141248 -4.542293
      ESP Fit Center  594 is at   2.663507 -6.141248 -4.542293
      ESP Fit Center  595 is at   3.494891 -5.537212 -4.542293
      ESP Fit Center  596 is at   3.109683 -4.559861 -5.245062
      ESP Fit Center  597 is at   2.629683 -3.728477 -5.245062
      ESP Fit Center  598 is at   1.669683 -3.728477 -5.245062
      ESP Fit Center  599 is at   1.189683 -4.559861 -5.245062
      ESP Fit Center  600 is at   1.669683 -5.391245 -5.245062
      ESP Fit Center  601 is at   2.629683 -5.391245 -5.245062
      ESP Fit Center  602 is at   2.149683 -4.559861 -5.502293
      ESP Fit Center  603 is at   3.263797 -2.400696 -0.918696
      ESP Fit Center  604 is at   4.446566 -3.232080 -1.621465
      ESP Fit Center  605 is at   4.129005 -2.254729 -1.621465
      ESP Fit Center  606 is at   3.297621 -1.650693 -1.621465
      ESP Fit Center  607 is at   4.703797 -3.232080 -2.581465
      ESP Fit Center  608 is at   4.446566 -2.272080 -2.581465
      ESP Fit Center  609 is at   3.743797 -1.569311 -2.581465
      ESP Fit Center  610 is at   2.783797 -1.312080 -2.581465
      ESP Fit Center  611 is at   4.446566 -3.232080 -3.541465
      ESP Fit Center  612 is at   4.129005 -2.254729 -3.541465
      ESP Fit Center  613 is at   3.297621 -1.650693 -3.541465
      ESP Fit Center  614 is at   2.269973 -1.650693 -3.541465
      ESP Fit Center  615 is at   3.743797 -3.232080 -4.244234
      ESP Fit Center  616 is at   3.263797 -2.400696 -4.244234
      ESP Fit Center  617 is at  -1.134149 -4.043649 -3.927763
      ESP Fit Center  618 is at   0.399200 -5.372304 -3.927763
      ESP Fit Center  619 is at   0.145579 -4.416817 -4.593712
      ESP Fit Center  620 is at   1.364046 -1.271716 -3.333307
      ESP Fit Center  621 is at   0.404046 -1.014485 -3.333307
      ESP Fit Center  622 is at  -1.515954 -2.934485 -3.333307
      ESP Fit Center  623 is at   1.749254 -1.957134 -4.293307
      ESP Fit Center  624 is at   0.917870 -1.353098 -4.293307
      ESP Fit Center  625 is at  -0.109778 -1.353098 -4.293307
      ESP Fit Center  626 is at  -0.941162 -1.957134 -4.293307
      ESP Fit Center  627 is at  -1.258723 -2.934485 -4.293307
      ESP Fit Center  628 is at  -0.941162 -3.911836 -4.293307
      ESP Fit Center  629 is at   1.364046 -2.934485 -4.996076
      ESP Fit Center  630 is at   0.884046 -2.103101 -4.996076
      ESP Fit Center  631 is at  -0.075954 -2.103101 -4.996076
      ESP Fit Center  632 is at  -0.555954 -2.934485 -4.996076
      ESP Fit Center  633 is at  -0.075954 -3.765869 -4.996076
      ESP Fit Center  634 is at   0.884046 -3.765869 -4.996076
      ESP Fit Center  635 is at   0.404046 -2.934485 -5.253307
      ESP Fit Center  636 is at  -0.550660 -5.162514 -0.682148
      ESP Fit Center  637 is at  -1.415868 -5.308481 -1.384917
      ESP Fit Center  638 is at  -1.990660 -4.331130 -2.344917
      ESP Fit Center  639 is at  -1.733429 -5.291130 -2.344917
      ESP Fit Center  640 is at  -1.030660 -5.993899 -2.344917
      ESP Fit Center  641 is at  -1.733429 -4.331130 -3.304917
      ESP Fit Center  642 is at  -1.415868 -5.308481 -3.304917
      ESP Fit Center  643 is at  -0.584484 -5.912517 -3.304917
      ESP Fit Center  644 is at  -1.030660 -4.331130 -4.007686
      ESP Fit Center  645 is at  -0.550660 -5.162514 -4.007686
      ESP Fit Center  646 is at   1.597334 -2.693862  0.738281
      ESP Fit Center  647 is at   1.111384 -3.535552  0.738281
      ESP Fit Center  648 is at   2.376737 -2.693862  0.116728
      ESP Fit Center  649 is at   0.084252 -4.359450  0.116728
      ESP Fit Center  650 is at   1.166616 -1.028274 -2.676506
      ESP Fit Center  651 is at  -2.997496 -2.156680 -1.554905
      ESP Fit Center  652 is at  -2.458057 -2.685322 -2.517231
      ESP Fit Center  653 is at  -2.344020 -2.970229  0.820016
      ESP Fit Center  654 is at  -1.864020 -3.801613  0.820016
      ESP Fit Center  655 is at  -0.904020 -3.801613  0.820016
      ESP Fit Center  656 is at  -3.046789 -2.970229  0.117247
      ESP Fit Center  657 is at  -2.729228 -3.947580  0.117247
      ESP Fit Center  658 is at  -1.897844 -4.551616  0.117247
      ESP Fit Center  659 is at  -0.870196 -4.551616  0.117247
      ESP Fit Center  660 is at  -3.046789 -2.010229 -0.842753
      ESP Fit Center  661 is at  -3.304020 -2.970229 -0.842753
      ESP Fit Center  662 is at  -3.046789 -3.930229 -0.842753
      ESP Fit Center  663 is at  -2.344020 -4.632998 -0.842753
      ESP Fit Center  664 is at  -1.384020 -4.890229 -0.842753
      ESP Fit Center  665 is at  -3.046789 -2.970229 -1.802753
      ESP Fit Center  666 is at  -2.729228 -3.947580 -1.802753
      ESP Fit Center  667 is at  -1.979309  0.092806 -1.881956
      ESP Fit Center  668 is at  -2.682078 -0.609963 -1.881956
      ESP Fit Center  669 is at  -2.939309 -1.569963 -1.881956
      ESP Fit Center  670 is at   0.325899 -0.592612 -2.841956
      ESP Fit Center  671 is at  -1.533133  0.011424 -2.841956
      ESP Fit Center  672 is at  -2.364517 -0.592612 -2.841956
      ESP Fit Center  673 is at  -2.682078 -1.569963 -2.841956
      ESP Fit Center  674 is at  -2.364517 -2.547314 -2.841956
      ESP Fit Center  675 is at  -0.539309 -0.738579 -3.544725
      ESP Fit Center  676 is at  -1.499309 -0.738579 -3.544725
      ESP Fit Center  677 is at  -1.979309 -1.569963 -3.544725
      ESP Fit Center  678 is at  -1.499309 -2.401347 -3.544725
      ESP Fit Center  679 is at  -1.019309 -1.569963 -3.801956
      ESP Fit Center  680 is at  -0.084452 -0.362297  2.374615
      ESP Fit Center  681 is at  -1.125772 -0.362297  2.374615
      ESP Fit Center  682 is at  -1.833890 -2.682192  1.708666
      ESP Fit Center  683 is at  -1.833890  0.153978 -1.284086
      ESP Fit Center  684 is at  -0.100187 -1.804986  2.948014
      ESP Fit Center  685 is at   0.859813 -1.804986  2.690783
      ESP Fit Center  686 is at   0.379813 -0.973602  2.690783
      ESP Fit Center  687 is at  -0.580187 -0.973602  2.690783
      ESP Fit Center  688 is at  -1.060187 -1.804986  2.690783
      ESP Fit Center  689 is at  -0.580187 -2.636370  2.690783
      ESP Fit Center  690 is at   0.379813 -2.636370  2.690783
      ESP Fit Center  691 is at  -1.445395 -2.782337  1.988014
      ESP Fit Center  692 is at  -0.614011 -3.386373  1.988014
      ESP Fit Center  693 is at   0.413637 -3.386373  1.988014
      ESP Fit Center  694 is at   1.245021 -2.782337  1.988014
      ESP Fit Center  695 is at  -0.100187 -3.724986  1.028014
      ESP Fit Center  696 is at   0.859813 -3.467755  1.028014
      ESP Fit Center  697 is at   1.562582 -2.764986  1.028014
      ESP Fit Center  698 is at  -1.633464 -1.051600  2.446974
      ESP Fit Center  699 is at  -2.113464 -0.220216  2.189743
      ESP Fit Center  700 is at  -2.593464 -1.051600  2.189743
      ESP Fit Center  701 is at  -2.113464 -1.882984  2.189743
      ESP Fit Center  702 is at  -2.147288  0.529787  1.486974
      ESP Fit Center  703 is at  -2.978672 -0.074249  1.486974
      ESP Fit Center  704 is at  -3.296233 -1.051600  1.486974
      ESP Fit Center  705 is at  -2.978672 -2.028951  1.486974
      ESP Fit Center  706 is at  -2.147288 -2.632987  1.486974
      ESP Fit Center  707 is at  -2.593464  0.611169  0.526974
      ESP Fit Center  708 is at  -3.296233 -0.091600  0.526974
      ESP Fit Center  709 is at  -3.553464 -1.051600  0.526974
      ESP Fit Center  710 is at  -3.296233 -2.011600  0.526974
      ESP Fit Center  711 is at  -2.147288  0.529787 -0.433026
      ESP Fit Center  712 is at  -2.978672 -0.074249 -0.433026
      ESP Fit Center  713 is at  -3.296233 -1.051600 -0.433026
      ESP Fit Center  714 is at   0.000000  0.000000  2.240000
      ESP Fit Center  715 is at  -0.485950  0.841690  2.018170
      ESP Fit Center  716 is at  -1.416834  1.029390  1.396617
      ESP Fit Center  717 is at  -2.120380  0.522627 -0.498447
      ESP Fit Center  718 is at   3.738218 -0.548884 -0.862937
      ESP Fit Center  719 is at   2.778218 -2.211653 -0.862937
      ESP Fit Center  720 is at   3.480987 -1.508884 -0.862937
      ESP Fit Center  721 is at   3.480987 -0.548884 -1.822937
      ESP Fit Center  722 is at   2.778218 -0.548884 -2.525706
      ESP Fit Center  723 is at   0.858218 -0.548884 -2.525706
      ESP Fit Center  724 is at   1.818218 -0.548884 -2.782937
      ESP Fit Center  725 is at   1.791116 -0.503702  2.832319
      ESP Fit Center  726 is at   2.751116 -0.503702  2.575088
      ESP Fit Center  727 is at   2.271116  0.327682  2.575088
      ESP Fit Center  728 is at   1.311116  0.327682  2.575088
      ESP Fit Center  729 is at   0.831116 -0.503702  2.575088
      ESP Fit Center  730 is at   1.311116 -1.335086  2.575088
      ESP Fit Center  731 is at   2.271116 -1.335086  2.575088
      ESP Fit Center  732 is at   3.453885 -0.503702  1.872319
      ESP Fit Center  733 is at   3.136324  0.473649  1.872319
      ESP Fit Center  734 is at   2.304940 -2.085089  1.872319
      ESP Fit Center  735 is at   3.136324 -1.481053  1.872319
      ESP Fit Center  736 is at   3.711116 -0.503702  0.912319
      ESP Fit Center  737 is at   1.791116 -2.423702  0.912319
      ESP Fit Center  738 is at   2.751116 -2.166471  0.912319
      ESP Fit Center  739 is at   3.453885 -1.463702  0.912319
      ESP Fit Center  740 is at   2.960687  1.439822  2.162325
      ESP Fit Center  741 is at   3.964147  1.439147  1.817536
      ESP Fit Center  742 is at   3.484147  2.270531  1.817536
      ESP Fit Center  743 is at   3.484147  0.607763  1.817536
      ESP Fit Center  744 is at   4.666916  1.439147  1.114767
      ESP Fit Center  745 is at   4.349355  2.416498  1.114767
      ESP Fit Center  746 is at   3.517971  3.020534  1.114767
      ESP Fit Center  747 is at   4.349355  0.461796  1.114767
      ESP Fit Center  748 is at   4.924147  1.439147  0.154767
      ESP Fit Center  749 is at   4.666916  2.399147  0.154767
      ESP Fit Center  750 is at   3.964147  3.101916  0.154767
      ESP Fit Center  751 is at   3.964147 -0.223622  0.154767
      ESP Fit Center  752 is at   4.666916  0.479147  0.154767
      ESP Fit Center  753 is at   4.666916  1.439147 -0.805233
      ESP Fit Center  754 is at   4.349355  0.461796 -0.805233
      ESP Fit Center  755 is at   1.475392  1.998389  2.750373
      ESP Fit Center  756 is at   2.435392  1.998389  2.493142
      ESP Fit Center  757 is at   1.955392  2.829773  2.493142
      ESP Fit Center  758 is at   0.995392  2.829773  2.493142
      ESP Fit Center  759 is at   0.515392  1.998389  2.493142
      ESP Fit Center  760 is at   0.995392  1.167005  2.493142
      ESP Fit Center  761 is at   1.955392  1.167005  2.493142
      ESP Fit Center  762 is at   2.820600  2.975740  1.790373
      ESP Fit Center  763 is at   1.989216  3.579776  1.790373
      ESP Fit Center  764 is at   2.435392  3.661158  0.830373
      ESP Fit Center  765 is at   3.424803  3.369271  0.416085
      ESP Fit Center  766 is at   2.700109  4.093965  0.416085
      ESP Fit Center  767 is at   4.073377  3.431494 -0.492300
      ESP Fit Center  768 is at   3.441109  4.301736 -0.492300
      ESP Fit Center  769 is at   4.510160  2.379322 -1.563814
      ESP Fit Center  770 is at   4.321082  3.390799 -1.563814
      ESP Fit Center  771 is at   3.779385  4.265670 -1.563814
      ESP Fit Center  772 is at   2.958227  4.885779 -1.563814
      ESP Fit Center  773 is at   3.779385  0.492974 -1.563814
      ESP Fit Center  774 is at   4.321082  1.367845 -1.563814
      ESP Fit Center  775 is at   4.297023  2.379322 -2.635328
      ESP Fit Center  776 is at   4.073377  3.431494 -2.635328
      ESP Fit Center  777 is at   3.441109  4.301736 -2.635328
      ESP Fit Center  778 is at   2.509545  4.839575 -2.635328
      ESP Fit Center  779 is at   1.439759  4.952014 -2.635328
      ESP Fit Center  780 is at   0.416729  0.139033 -2.635328
      ESP Fit Center  781 is at   2.509545 -0.080931 -2.635328
      ESP Fit Center  782 is at   3.441109  0.456908 -2.635328
      ESP Fit Center  783 is at   4.073377  1.327150 -2.635328
      ESP Fit Center  784 is at   3.690059  2.379322 -3.543713
      ESP Fit Center  785 is at   3.424803  3.369271 -3.543713
      ESP Fit Center  786 is at   2.700109  4.093965 -3.543713
      ESP Fit Center  787 is at   1.710160  4.359221 -3.543713
      ESP Fit Center  788 is at   0.720211  0.664679 -3.543713
      ESP Fit Center  789 is at   1.710160  0.399423 -3.543713
      ESP Fit Center  790 is at   2.700109  0.664679 -3.543713
      ESP Fit Center  791 is at   3.424803  1.389373 -3.543713
      ESP Fit Center  792 is at   2.781674  2.379322 -4.150677
      ESP Fit Center  793 is at   2.245917  3.307280 -4.150677
      ESP Fit Center  794 is at   1.174403  3.307280 -4.150677
      ESP Fit Center  795 is at   0.638646  2.379322 -4.150677
      ESP Fit Center  796 is at   1.174403  1.451364 -4.150677
      ESP Fit Center  797 is at   2.245917  1.451364 -4.150677
      ESP Fit Center  798 is at   1.710160  2.379322 -4.363814
      ESP Fit Center  799 is at  -0.630459  1.719845 -3.856611
      ESP Fit Center  800 is at  -1.882742  4.217271 -2.579083
      ESP Fit Center  801 is at   0.293851  4.838658 -3.539083
      ESP Fit Center  802 is at  -0.733797  4.838658 -3.539083
      ESP Fit Center  803 is at  -1.565181  4.234622 -3.539083
      ESP Fit Center  804 is at  -1.882742  3.257271 -3.539083
      ESP Fit Center  805 is at   0.740027  3.257271 -4.241852
      ESP Fit Center  806 is at   0.260027  4.088655 -4.241852
      ESP Fit Center  807 is at  -0.699973  4.088655 -4.241852
      ESP Fit Center  808 is at  -1.179973  3.257271 -4.241852
      ESP Fit Center  809 is at  -0.699973  2.425887 -4.241852
      ESP Fit Center  810 is at   0.260027  2.425887 -4.241852
      ESP Fit Center  811 is at  -0.219973  3.257271 -4.499083
      ESP Fit Center  812 is at  -1.928726  0.680227 -0.933641
      ESP Fit Center  813 is at  -2.503518  1.657578 -1.893641
      ESP Fit Center  814 is at  -2.246287  0.697578 -1.893641
      ESP Fit Center  815 is at  -2.246287  1.657578 -2.853641
      ESP Fit Center  816 is at  -1.928726  0.680227 -2.853641
      ESP Fit Center  817 is at  -0.069694  0.076191 -2.853641
      ESP Fit Center  818 is at  -1.543518  1.657578 -3.556410
      ESP Fit Center  819 is at  -1.063518  0.826194 -3.556410
      ESP Fit Center  820 is at  -0.103518  0.826194 -3.556410
      ESP Fit Center  821 is at  -1.253302  1.740637  2.019382
      ESP Fit Center  822 is at  -0.293302  1.740637  2.019382
      ESP Fit Center  823 is at  -2.118510  1.594670  1.316613
      ESP Fit Center  824 is at  -2.436071  1.612021  0.356613
      ESP Fit Center  825 is at  -3.517420  3.429648  0.208887
      ESP Fit Center  826 is at  -3.199859  2.452297  0.208887
      ESP Fit Center  827 is at  -3.517420  4.389648 -0.751113
      ESP Fit Center  828 is at  -3.774651  3.429648 -0.751113
      ESP Fit Center  829 is at  -3.517420  2.469648 -0.751113
      ESP Fit Center  830 is at  -2.814651  1.766879 -0.751113
      ESP Fit Center  831 is at  -2.368475  5.011035 -1.711113
      ESP Fit Center  832 is at  -3.199859  4.406999 -1.711113
      ESP Fit Center  833 is at  -3.517420  3.429648 -1.711113
      ESP Fit Center  834 is at  -3.199859  2.452297 -1.711113
      ESP Fit Center  835 is at  -2.334651  4.261032 -2.413882
      ESP Fit Center  836 is at  -2.814651  3.429648 -2.413882
      ESP Fit Center  837 is at   1.921081  4.885253  1.940929
      ESP Fit Center  838 is at   1.655825  5.875202  1.940929
      ESP Fit Center  839 is at   0.931131  6.599896  1.940929
      ESP Fit Center  840 is at   1.655825  3.895304  1.940929
      ESP Fit Center  841 is at   2.528045  4.885253  1.032544
      ESP Fit Center  842 is at   2.304399  5.937425  1.032544
      ESP Fit Center  843 is at   1.672131  6.807667  1.032544
      ESP Fit Center  844 is at   0.740567  7.345506  1.032544
      ESP Fit Center  845 is at   2.304399  3.833081  1.032544
      ESP Fit Center  846 is at   2.741182  4.885253 -0.038970
      ESP Fit Center  847 is at   2.552104  5.896730 -0.038970
      ESP Fit Center  848 is at   2.010407  6.771601 -0.038970
      ESP Fit Center  849 is at   1.189249  7.391710 -0.038970
      ESP Fit Center  850 is at   0.199533  7.673309 -0.038970
      ESP Fit Center  851 is at   2.304399  5.937425 -1.110484
      ESP Fit Center  852 is at   1.672131  6.807667 -1.110484
      ESP Fit Center  853 is at   0.740567  7.345506 -1.110484
      ESP Fit Center  854 is at  -0.329219  7.457945 -1.110484
      ESP Fit Center  855 is at  -1.352249  7.125542 -1.110484
      ESP Fit Center  856 is at   1.655825  5.875202 -2.018869
      ESP Fit Center  857 is at   0.931131  6.599896 -2.018869
      ESP Fit Center  858 is at  -0.058818  6.865152 -2.018869
      ESP Fit Center  859 is at  -1.048767  6.599896 -2.018869
      ESP Fit Center  860 is at  -1.773461  5.875202 -2.018869
      ESP Fit Center  861 is at  -2.038717  4.885253 -2.018869
      ESP Fit Center  862 is at   1.012696  4.885253 -2.625833
      ESP Fit Center  863 is at   0.476939  5.813211 -2.625833
      ESP Fit Center  864 is at  -0.594575  5.813211 -2.625833
      ESP Fit Center  865 is at  -2.896397  7.427990  0.409058
      ESP Fit Center  866 is at  -3.329042  7.176970  0.371613
      ESP Fit Center  867 is at  -4.031811  6.474201  0.371613
      ESP Fit Center  868 is at  -4.289042  5.514201  0.371613
      ESP Fit Center  869 is at  -4.031811  4.554201  0.371613
      ESP Fit Center  870 is at  -2.882866  7.095588 -0.588387
      ESP Fit Center  871 is at  -3.714250  6.491552 -0.588387
      ESP Fit Center  872 is at  -4.031811  5.514201 -0.588387
      ESP Fit Center  873 is at  -3.714250  4.536850 -0.588387
      ESP Fit Center  874 is at  -2.849042  6.345585 -1.291156
      ESP Fit Center  875 is at  -3.329042  5.514201 -1.291156
      ESP Fit Center  876 is at  -2.369042  5.514201 -1.548387
      ESP Fit Center  877 is at  -0.725052  7.495986  2.694550
      ESP Fit Center  878 is at   0.140156  7.641953  1.991781
      ESP Fit Center  879 is at  -0.691228  8.245989  1.991781
      ESP Fit Center  880 is at  -1.718876  8.245989  1.991781
      ESP Fit Center  881 is at   0.457717  7.624602  1.031781
      ESP Fit Center  882 is at  -0.245052  8.327371  1.031781
      ESP Fit Center  883 is at  -1.205052  8.584602  1.031781
      ESP Fit Center  884 is at  -2.165052  8.327371  1.031781
      ESP Fit Center  885 is at  -2.867821  7.624602  1.031781
      ESP Fit Center  886 is at  -0.691228  8.245989  0.071781
      ESP Fit Center  887 is at  -1.718876  8.245989  0.071781
      ESP Fit Center  888 is at  -2.550260  7.641953  0.071781
      ESP Fit Center  889 is at  -1.685052  7.495986 -0.630988
      ESP Fit Center  890 is at  -0.439864  2.926118  3.211506
      ESP Fit Center  891 is at  -3.447841  2.943469  2.251506
      ESP Fit Center  892 is at  -2.745072  2.240700  2.251506
      ESP Fit Center  893 is at  -1.785072  1.983469  2.251506
      ESP Fit Center  894 is at  -0.825072  2.240700  2.251506
      ESP Fit Center  895 is at  -0.122303  2.943469  2.251506
      ESP Fit Center  896 is at  -3.130280  2.926118  1.291506
      ESP Fit Center  897 is at   0.291383  5.117766  4.569203
      ESP Fit Center  898 is at  -0.188617  4.286382  4.569203
      ESP Fit Center  899 is at   0.994152  5.117766  3.866434
      ESP Fit Center  900 is at   0.676591  6.095117  3.866434
      ESP Fit Center  901 is at  -0.154793  6.699153  3.866434
      ESP Fit Center  902 is at  -0.154793  3.536379  3.866434
      ESP Fit Center  903 is at   0.676591  4.140415  3.866434
      ESP Fit Center  904 is at   1.251383  5.117766  2.906434
      ESP Fit Center  905 is at   0.994152  6.077766  2.906434
      ESP Fit Center  906 is at   0.291383  6.780535  2.906434
      ESP Fit Center  907 is at   0.291383  3.454997  2.906434
      ESP Fit Center  908 is at   0.994152  4.157766  2.906434
      ESP Fit Center  909 is at  -1.995413  7.510635  5.196364
      ESP Fit Center  910 is at  -2.985362  7.775891  5.196364
      ESP Fit Center  911 is at  -3.975311  7.510635  5.196364
      ESP Fit Center  912 is at  -0.622145  6.848164  4.287979
      ESP Fit Center  913 is at  -1.254413  7.718406  4.287979
      ESP Fit Center  914 is at  -2.185977  8.256245  4.287979
      ESP Fit Center  915 is at  -3.255763  8.368684  4.287979
      ESP Fit Center  916 is at  -4.278793  8.036281  4.287979
      ESP Fit Center  917 is at  -5.078178  7.316512  4.287979
      ESP Fit Center  918 is at  -5.515696  6.333831  4.287979
      ESP Fit Center  919 is at  -5.515696  5.258153  4.287979
      ESP Fit Center  920 is at  -0.916137  7.682340  3.216465
      ESP Fit Center  921 is at  -1.737295  8.302449  3.216465
      ESP Fit Center  922 is at  -2.727011  8.584048  3.216465
      ESP Fit Center  923 is at  -3.751618  8.489104  3.216465
      ESP Fit Center  924 is at  -4.672739  8.030440  3.216465
      ESP Fit Center  925 is at  -5.365970  7.270002  3.216465
      ESP Fit Center  926 is at  -5.737687  6.310491  3.216465
      ESP Fit Center  927 is at  -5.737687  5.281493  3.216465
      ESP Fit Center  928 is at  -5.365970  4.321982  3.216465
      ESP Fit Center  929 is at  -2.185977  8.256245  2.144951
      ESP Fit Center  930 is at  -3.255763  8.368684  2.144951
      ESP Fit Center  931 is at  -4.278793  8.036281  2.144951
      ESP Fit Center  932 is at  -5.078178  7.316512  2.144951
      ESP Fit Center  933 is at  -5.515696  6.333831  2.144951
      ESP Fit Center  934 is at  -5.515696  5.258153  2.144951
      ESP Fit Center  935 is at  -5.078178  4.275472  2.144951
      ESP Fit Center  936 is at  -4.278793  3.555703  2.144951
      ESP Fit Center  937 is at  -2.985362  7.775891  1.236566
      ESP Fit Center  938 is at  -3.975311  7.510635  1.236566
      ESP Fit Center  939 is at  -4.700005  6.785941  1.236566
      ESP Fit Center  940 is at  -4.965261  5.795992  1.236566
      ESP Fit Center  941 is at  -4.700005  4.806043  1.236566
      ESP Fit Center  942 is at  -3.975311  4.081349  1.236566
      ESP Fit Center  943 is at  -2.807762  5.060384  7.292483
      ESP Fit Center  944 is at  -2.287102  5.962194  7.054808
      ESP Fit Center  945 is at  -2.028279  6.767213  6.388859
      ESP Fit Center  946 is at  -1.782371  5.232223  7.159948
      ESP Fit Center  947 is at  -0.822371  5.232223  6.902717
      ESP Fit Center  948 is at  -1.302371  6.063607  6.902717
      ESP Fit Center  949 is at  -1.302371  4.400839  6.902717
      ESP Fit Center  950 is at  -0.119602  5.232223  6.199948
      ESP Fit Center  951 is at  -0.437163  6.209574  6.199948
      ESP Fit Center  952 is at  -1.268547  6.813610  6.199948
      ESP Fit Center  953 is at  -0.437163  4.254872  6.199948
      ESP Fit Center  954 is at   0.137629  5.232223  5.239948
      ESP Fit Center  955 is at  -0.119602  6.192223  5.239948
      ESP Fit Center  956 is at  -0.822371  6.894992  5.239948
      ESP Fit Center  957 is at  -0.119602  4.272223  5.239948
      ESP Fit Center  958 is at  -3.465384  5.666980  7.444330
      ESP Fit Center  959 is at  -2.985384  6.498364  7.187099
      ESP Fit Center  960 is at  -3.945384  6.498364  7.187099
      ESP Fit Center  961 is at  -4.425384  5.666980  7.187099
      ESP Fit Center  962 is at  -3.945384  4.835596  7.187099
      ESP Fit Center  963 is at  -2.951560  7.248367  6.484330
      ESP Fit Center  964 is at  -3.979208  7.248367  6.484330
      ESP Fit Center  965 is at  -4.810592  6.644331  6.484330
      ESP Fit Center  966 is at  -5.128153  5.666980  6.484330
      ESP Fit Center  967 is at  -4.810592  4.689629  6.484330
      ESP Fit Center  968 is at  -3.465384  7.586980  5.524330
      ESP Fit Center  969 is at  -4.425384  7.329749  5.524330
      ESP Fit Center  970 is at  -5.128153  6.626980  5.524330
      ESP Fit Center  971 is at  -5.385384  5.666980  5.524330
      ESP Fit Center  972 is at  -4.984172  4.111069  6.490672
      ESP Fit Center  973 is at  -4.984172  3.053785  6.490672
      ESP Fit Center  974 is at  -4.642642  1.753077  5.528346
      ESP Fit Center  975 is at  -3.704444  1.301264  5.528346
      ESP Fit Center  976 is at  -2.663124  1.301264  5.528346
      ESP Fit Center  977 is at  -3.704444  1.301264  4.460246
      ESP Fit Center  978 is at  -3.704444  2.680617  2.831971
      ESP Fit Center  979 is at  -0.866840  2.955573  5.339025
      ESP Fit Center  980 is at  -2.015785  1.374186  5.339025
      ESP Fit Center  981 is at  -1.184401  1.978222  5.339025
      ESP Fit Center  982 is at  -0.609609  2.955573  4.379025
      ESP Fit Center  983 is at  -2.529609  1.035573  4.379025
      ESP Fit Center  984 is at  -1.569609  1.292804  4.379025
      ESP Fit Center  985 is at  -0.866840  1.995573  4.379025
      ESP Fit Center  986 is at  -3.043433  1.374186  3.419025
      ESP Fit Center  987 is at  -2.015785  1.374186  3.419025
      ESP Fit Center  988 is at  -1.184401  1.978222  3.419025
      ESP Fit Center  989 is at  -3.009609  2.124189  2.716256
      ESP Fit Center  990 is at  -3.090738  3.238451  7.952290
      ESP Fit Center  991 is at  -2.130738  3.238451  7.695059
      ESP Fit Center  992 is at  -2.610738  4.069835  7.695059
      ESP Fit Center  993 is at  -3.570738  4.069835  7.695059
      ESP Fit Center  994 is at  -4.050738  3.238451  7.695059
      ESP Fit Center  995 is at  -3.570738  2.407067  7.695059
      ESP Fit Center  996 is at  -2.610738  2.407067  7.695059
      ESP Fit Center  997 is at  -1.427969  3.238451  6.992290
      ESP Fit Center  998 is at  -1.745530  4.215802  6.992290
      ESP Fit Center  999 is at  -4.435946  4.215802  6.992290
      ESP Fit Center 1000 is at  -4.753507  3.238451  6.992290
      ESP Fit Center 1001 is at  -4.435946  2.261100  6.992290
      ESP Fit Center 1002 is at  -3.604562  1.657064  6.992290
      ESP Fit Center 1003 is at  -2.576914  1.657064  6.992290
      ESP Fit Center 1004 is at  -1.745530  2.261100  6.992290
      ESP Fit Center 1005 is at  -4.050738  1.575682  6.032290
      ESP Fit Center 1006 is at  -3.090738  1.318451  6.032290
      ESP Fit Center 1007 is at  -2.130738  1.575682  6.032290
      ESP Fit Center 1008 is at  -1.427969  2.278451  6.032290
      ESP Fit Center 1009 is at  -5.175430  3.417293  6.330777
      ESP Fit Center 1010 is at  -5.560638  4.394644  5.628008
      ESP Fit Center 1011 is at  -5.878199  3.417293  5.628008
      ESP Fit Center 1012 is at  -5.560638  2.439942  5.628008
      ESP Fit Center 1013 is at  -4.729254  1.835906  5.628008
      ESP Fit Center 1014 is at  -5.878199  4.377293  4.668008
      ESP Fit Center 1015 is at  -6.135430  3.417293  4.668008
      ESP Fit Center 1016 is at  -5.878199  2.457293  4.668008
      ESP Fit Center 1017 is at  -5.175430  1.754524  4.668008
      ESP Fit Center 1018 is at  -5.560638  4.394644  3.708008
      ESP Fit Center 1019 is at  -5.878199  3.417293  3.708008
      ESP Fit Center 1020 is at  -5.560638  2.439942  3.708008
      ESP Fit Center 1021 is at  -4.729254  1.835906  3.708008
      ESP Fit Center 1022 is at  -5.175430  3.417293  3.005239
      ESP Fit Center 1023 is at  -4.695430  2.585909  3.005239
      ESP Fit Center 1024 is at   4.210716 -6.069774  1.343031
      ESP Fit Center 1025 is at   1.354353 -8.544827  1.343031
      ESP Fit Center 1026 is at   3.397710 -8.838618  1.343031
      ESP Fit Center 1027 is at   4.210716 -8.134144  1.343031
      ESP Fit Center 1028 is at   4.159885 -5.151700  0.467088
      ESP Fit Center 1029 is at   0.110130 -7.101959  0.467088
      ESP Fit Center 1030 is at   0.357161 -8.184271  0.467088
      ESP Fit Center 1031 is at   4.159885 -9.052218  0.467088
      ESP Fit Center 1032 is at   4.159885 -9.052218 -1.599402
      ESP Fit Center 1033 is at   3.397710 -8.838618 -2.475345
      ESP Fit Center 1034 is at   2.342063 -6.689198  2.573158
      ESP Fit Center 1035 is at   3.422063 -6.689198  2.283773
      ESP Fit Center 1036 is at   2.882063 -5.753891  2.283773
      ESP Fit Center 1037 is at   1.802063 -5.753891  2.283773
      ESP Fit Center 1038 is at   1.262063 -6.689198  2.283773
      ESP Fit Center 1039 is at   1.802063 -7.624505  2.283773
      ESP Fit Center 1040 is at   2.882063 -7.624505  2.283773
      ESP Fit Center 1041 is at   3.915724 -5.677867  1.493158
      ESP Fit Center 1042 is at   3.119145 -4.987627  1.493158
      ESP Fit Center 1043 is at   2.075847 -4.837623  1.493158
      ESP Fit Center 1044 is at   1.117071 -5.275482  1.493158
      ESP Fit Center 1045 is at   0.547221 -6.162185  1.493158
      ESP Fit Center 1046 is at   0.547221 -7.216211  1.493158
      ESP Fit Center 1047 is at   1.117071 -8.102914  1.493158
[...]
 1333 Fit      -0.005046
 1334 Fit       0.004877
 1335 Fit       0.004402
 1336 Fit      -0.003412
 1337 Fit       0.006303
 1338 Fit       0.007281
 1339 Fit       0.003510
 1340 Fit       0.009043
 1341 Fit       0.003726
 1342 Fit       0.003412
 1343 Fit       0.006920
 1344 Fit       0.007416
 1345 Fit       0.007880
 1346 Fit       0.008216
 1347 Fit       0.008590
 1348 Fit       0.005319
 1349 Fit       0.007707
 1350 Fit       0.008798
 1351 Fit       0.009384
 1352 Fit       0.003790
 1353 Fit       0.007605
 1354 Fit      -0.015733
 1355 Fit      -0.012500
 1356 Fit      -0.005652
 1357 Fit      -0.011929
 1358 Fit      -0.021974
 1359 Fit      -0.019490
 1360 Fit      -0.013777
 1361 Fit      -0.006578
 1362 Fit      -0.018002
 1363 Fit      -0.027476
 1364 Fit      -0.023852
 1365 Fit      -0.018712
 1366 Fit      -0.012744
 1367 Fit      -0.005790
 1368 Fit      -0.027456
 1369 Fit      -0.022325
 1370 Fit      -0.017683
 1371 Fit      -0.012972
 1372 Fit      -0.029292
 1373 Fit      -0.024686
 1374 Fit      -0.021418
 1375 Fit      -0.018187
 1376 Fit      -0.014650
 1377 Fit      -0.009822
 1378 Fit      -0.027116
 1379 Fit      -0.024646
 1380 Fit      -0.022038
 1381 Fit      -0.017793
 1382 Fit      -0.010896
 1383 Fit      -0.001612
 1384 Fit      -0.021330
 1385 Fit      -0.016943
 1386 Fit      -0.003509
 1387 Fit      -0.007669
 1388 Fit      -0.005927
 1389 Fit      -0.005765
 1390 Fit      -0.003219
 1391 Fit       0.002806
 1392 Fit      -0.001408
 1393 Fit       0.000907
 1394 Fit       0.004364
 1395 Fit      -0.001866
 1396 Fit       0.003503
 1397 Fit      -0.002890
 1398 Fit      -0.004120
 1399 Fit      -0.009278
 1400 Fit      -0.002770
 1401 Fit      -0.002806
 1402 Fit      -0.005048
 1403 Fit      -0.008280
 1404 Fit      -0.004691
 1405 Fit      -0.003409
 1406 Fit      -0.003744
 1407 Fit       0.006379
 1408 Fit       0.004977
 1409 Fit       0.009781
 1410 Fit       0.009201
 1411 Fit       0.002413
 1412 Fit       0.008095
 1413 Fit       0.008238
 1414 Fit       0.002380
 1415 Fit       0.001743
 1416 Fit      -0.001053
 1417 Fit       0.007168
 1418 Fit       0.004056
 1419 Fit      -0.007367
 1420 Fit      -0.004657
 1421 Fit      -0.002246
 1422 Fit       0.000644
 1423 Fit      -0.005692
 1424 Fit      -0.005762
 1425 Fit      -0.005191
 1426 Fit      -0.010328
 1427 Fit      -0.014537
 1428 Fit      -0.013992
 1429 Fit      -0.010362
 1430 Fit      -0.006169
 1431 Fit      -0.003364
 1432 Fit      -0.002014
 1433 Fit      -0.011312
 1434 Fit      -0.017111
 1435 Fit      -0.019016
 1436 Fit      -0.017545
 1437 Fit      -0.014484
 1438 Fit      -0.011824
 1439 Fit      -0.010616
 1440 Fit      -0.010301
 1441 Fit      -0.008599
 1442 Fit      -0.014125
 1443 Fit      -0.017851
 1444 Fit      -0.018056
 1445 Fit      -0.016571
 1446 Fit      -0.015333
 1447 Fit      -0.015252
 1448 Fit      -0.015745
 1449 Fit      -0.015058
 1450 Fit      -0.011561
 1451 Fit      -0.013655
 1452 Fit      -0.014951
 1453 Fit      -0.015164
 1454 Fit      -0.015813
 1455 Fit      -0.016530
 1456 Fit      -0.015604
 1457 Fit      -0.011393
 1458 Fit      -0.003389
 1459 Fit      -0.010217
 1460 Fit      -0.011501
 1461 Fit      -0.011740
 1462 Fit      -0.008977
 1463 Fit      -0.001368
 1464 Fit       0.008128
 1465 Fit       0.006220
 1466 Fit       0.003435
 1467 Fit      -0.002889
 1468 Fit       0.007390
 1469 Fit       0.007310
 1470 Fit       0.005415
 1471 Fit       0.008627
 1472 Fit       0.007515
 1473 Fit       0.005328
 1474 Fit       0.002272
 1475 Fit       0.008485
 1476 Fit       0.007808
 1477 Fit       0.004752
 1478 Fit      -0.000836
 1479 Fit       0.008947
 1480 Fit       0.007566
 1481 Fit       0.005585
 1482 Fit       0.006547
 1483 Fit       0.007580
 1484 Fit       0.008580
 1485 Fit       0.001837
 1486 Fit       0.003092
 1487 Fit       0.004919
 1488 Fit       0.006030
 1489 Fit       0.006554
 1490 Fit      -0.001412
 1491 Fit       0.001426
 1492 Fit       0.002700
 1493 Fit       0.003748
 1494 Fit       0.005535
 1495 Fit       0.005158
 1496 Fit       0.003781
 1497 Fit       0.004470
 1498 Fit       0.005874
 1499 Fit       0.006550
 1500 Fit       0.003920
 1501 Fit       0.004954
 1502 Fit       0.004854
 1503 Fit       0.001107
 1504 Fit       0.006110
 1505 Fit       0.006719
 1506 Fit       0.008824
 1507 Fit       0.005465
 1508 Fit       0.007261
 1509 Fit       0.008105
 1510 Fit       0.008403
 1511 Fit       0.004749
 1512 Fit       0.007860
 1513 Fit       0.009158
 1514 Fit       0.010052
 1515 Fit       0.007718
 1516 Fit       0.007994
 1517 Fit       0.008112
 1518 Fit       0.008340
 1519 Fit       0.007881
 1520 Fit       0.006902
 1521 Fit       0.007219
 1522 Fit       0.007774
 1523 Fit       0.007771
 1524 Fit       0.005497
 1525 Fit       0.004940
 1526 Fit       0.005496
 1527 Fit       0.006243
 1528 Fit       0.006731
 1529 Fit       0.007042
 1530 Fit       0.005169
 1531 Fit       0.005747
 1532 Fit       0.003567
 1533 Fit       0.004005
 1534 Fit       0.003983
 1535 Fit      -0.001265
 1536 Fit       0.001381
 1537 Fit       0.003439
 1538 Fit       0.004249
 1539 Fit       0.004108
 1540 Fit      -0.004052
 1541 Fit       0.001167
 1542 Fit       0.003181
 1543 Fit       0.003703
 1544 Fit      -0.006916
 1545 Fit      -0.000145
 1546 Fit      -0.001686
 1547 Fit       0.003454
 1548 Fit       0.002574
 1549 Fit       0.001222
 1550 Fit      -0.000047
 1551 Fit      -0.012099
 1552 Fit       0.005384
 1553 Fit       0.002511
 1554 Fit       0.001106
 1555 Fit       0.003568
 1556 Fit       0.006043
 1557 Fit       0.004297
 1558 Fit       0.001849
 1559 Fit      -0.000050
 1560 Fit      -0.000789
 1561 Fit       0.001086
 1562 Fit       0.003154
 1563 Fit       0.002861
 1564 Fit       0.001472
 1565 Fit      -0.004779
 1566 Fit      -0.006573
 1567 Fit      -0.005195
 1568 Fit      -0.000484
 1569 Fit       0.003266
 1570 Fit       0.004186
 1571 Fit       0.003599
 1572 Fit      -0.007620
 1573 Fit       0.001936
 1574 Fit       0.005136
 1575 Fit       0.005416
 1576 Fit       0.005520
 1577 Fit       0.004886
 1578 Fit       0.003411
 1579 Fit       0.007404
 1580 Fit       0.007135
 1581 Fit       0.006459
 1582 Fit       0.005191
 1583 Fit       0.003448
 1584 Fit       0.008985
 1585 Fit       0.008243
 1586 Fit       0.007352
 1587 Fit       0.005997
 1588 Fit       0.004257
 1589 Fit       0.009050
 1590 Fit       0.007693
 1591 Fit       0.006034
 1592 Fit      -0.000991
 1593 Fit      -0.004683
 1594 Fit       0.000543
 1595 Fit      -0.000244
 1596 Fit      -0.004061
 1597 Fit      -0.011872
 1598 Fit       0.001883
 1599 Fit       0.001416
 1600 Fit       0.000107
 1601 Fit      -0.004270
 1602 Fit       0.002587
 1603 Fit       0.001974
 1604 Fit       0.000297
 1605 Fit      -0.005253
 1606 Fit       0.002490
 1607 Fit       0.001361
 1608 Fit      -0.009536
 1609 Fit       0.002541
 1610 Fit       0.010324
 1611 Fit      -0.001299
 1612 Fit       0.010987
 1613 Fit       0.010064
 1614 Fit       0.012471
 1615 Fit       0.000731
 1616 Fit       0.009015
 1617 Fit       0.007468
 1618 Fit       0.005741
 1619 Fit       0.003911
 1620 Fit       0.004324
 1621 Fit       0.011308
 1622 Fit       0.009683
 1623 Fit       0.008523
 1624 Fit       0.007251
 1625 Fit       0.005805
 1626 Fit       0.007519
 1627 Fit       0.011445
 1628 Fit       0.009392
 1629 Fit       0.008028
 1630 Fit       0.009915
 1631 Fit       0.005437
 1632 Fit       0.008618
 1633 Fit       0.008639
 1634 Fit       0.008006
 1635 Fit       0.011808
 1636 Fit       0.010255
 1637 Fit       0.009566
 1638 Fit       0.013767
 1639 Fit       0.011364
 1640 Fit       0.010396
 1641 Fit       0.012795
 1642 Fit       0.011080
 1643 Fit      -0.019258
 1644 Fit      -0.019379
 1645 Fit      -0.016889
 1646 Fit      -0.019089
 1647 Fit      -0.019854
 1648 Fit      -0.015854
 1649 Fit      -0.017111
 1650 Fit      -0.015376
 1651 Fit      -0.013477
 1652 Fit      -0.013212
 1653 Fit      -0.009050
 1654 Fit      -0.005711
 1655 Fit      -0.004003
 1656 Fit      -0.005805
 1657 Fit       0.000915
 1658 Fit       0.001224
 1659 Fit       0.004853
 1660 Fit       0.005701
 1661 Fit       0.002289
 1662 Fit       0.004846
 1663 Fit       0.005291
 1664 Fit       0.014075
 1665 Fit       0.012482
 1666 Fit       0.011013
 1667 Fit       0.008783
 1668 Fit       0.006165
 1669 Fit       0.007326
 1670 Fit       0.007993
 1671 Fit       0.010553
 1672 Fit       0.011749
 1673 Fit       0.010743
 1674 Fit       0.008830
 1675 Fit       0.009464
 1676 Fit      -0.012930
 1677 Fit      -0.006256
 1678 Fit      -0.006359
 1679 Fit      -0.002811
 1680 Fit      -0.001732
 1681 Fit      -0.001788
 1682 Fit      -0.000325
 1683 Fit      -0.000737
 1684 Fit      -0.003227
 1685 Fit       0.001591
 1686 Fit       0.001771
 1687 Fit       0.001056
 1688 Fit       0.001513
 1689 Fit       0.004725
 1690 Fit       0.013146
 1691 Fit       0.013800
 1692 Fit       0.013736
 1693 Fit      -0.000541
 1694 Fit      -0.001912
 1695 Fit       0.012917
 1696 Fit       0.006401
 1697 Fit       0.003767
 1698 Fit       0.005528
 1699 Fit       0.008825
 1700 Fit       0.010777
 1701 Fit       0.011917
 1702 Fit       0.010339
 1703 Fit       0.007746
 1704 Fit       0.008701
 1705 Fit       0.010609
 1706 Fit       0.012162
 1707 Fit       0.010259
 1708 Fit       0.013659
 1709 Fit       0.013585
 1710 Fit       0.013722
 1711 Fit       0.013306
 1712 Fit       0.013591
 1713 Fit       0.013079
 1714 Fit       0.013453
 1715 Fit       0.014353
 1716 Fit      -0.008987
 1717 Fit       0.008071
 1718 Fit       0.013358
 1719 Fit       0.012804
 1720 Fit       0.011641
 1721 Fit       0.013426
 1722 Fit       0.011808
 1723 Fit       0.009685
 1724 Fit       0.004343
 1725 Fit       0.013777
 1726 Fit       0.012756
 1727 Fit       0.012212
 1728 Fit       0.011529
 1729 Fit       0.013110
 1730 Fit       0.012766
 1731 Fit       0.013035
 1732 Fit       0.012951
 1733 Fit       0.013868
 1734 Fit       0.009589
 1735 Fit       0.010913
 1736 Fit       0.012145
 1737 Fit       0.009112
 1738 Fit       0.010493
 1739 Fit       0.011705
 1740 Fit       0.005822
 1741 Fit       0.008405
 1742 Fit       0.010646
 1743 Fit       0.005095
 1744 Fit       0.006140
 1745 Fit       0.008521
 1746 Fit       0.010484
 1747 Fit       0.011587
 1748 Fit       0.008976
 1749 Fit       0.007098
 1750 Fit       0.006154
 1751 Fit       0.006351
 1752 Fit       0.008360
 1753 Fit       0.007757
 1754 Fit       0.005988
 1755 Fit       0.009366
 1756 Fit       0.006450
 1757 Fit       0.003033
 1758 Fit       0.001985
 1759 Fit       0.006227
 1760 Fit      -0.001067
 1761 Fit      -0.007315
 1762 Fit      -0.006219
 1763 Fit       0.007947
 1764 Fit       0.009823
 1765 Fit       0.010346
 1766 Fit       0.004834
 1767 Fit       0.008459
 1768 Fit       0.010283
 1769 Fit       0.011476
 1770 Fit       0.012071
 1771 Fit       0.007909
 1772 Fit       0.010175
 1773 Fit       0.011848
 1774 Fit       0.013131
 1775 Fit       0.014312
 1776 Fit       0.007752
 1777 Fit       0.010608
 1778 Fit       0.012661
 1779 Fit       0.014616
 1780 Fit       0.008732
 1781 Fit       0.012311
 1782 Fit       0.001914
 1783 Fit       0.003779
 1784 Fit       0.004088
 1785 Fit       0.001066
 1786 Fit      -0.000754
 1787 Fit      -0.015326
 1788 Fit      -0.001383
 1789 Fit      -0.004990
 1790 Fit       0.005689
 1791 Fit       0.005108
 1792 Fit       0.005796
 1793 Fit       0.005509
 1794 Fit       0.005886
 1795 Fit       0.006219
 1796 Fit       0.004493
 1797 Fit       0.004639
 1798 Fit       0.000940
 1799 Fit       0.002312
 1800 Fit       0.004650
 1801 Fit      -0.007913
 1802 Fit      -0.004639
 1803 Fit       0.000234
 1804 Fit       0.004039
 1805 Fit      -0.000063
 1806 Fit       0.006346
 1807 Fit      -0.007380
 1808 Fit       0.003671
 1809 Fit       0.003137
 1810 Fit      -0.000015
 1811 Fit      -0.004846
 1812 Fit       0.004858
 1813 Fit       0.002134
 1814 Fit      -0.001029
 1815 Fit      -0.006706
 1816 Fit       0.004154
 1817 Fit       0.003597
 1818 Fit       0.000072
 1819 Fit      -0.003769
 1820 Fit       0.002228
 1821 Fit       0.001737
 1822 Fit       0.004100
 1823 Fit       0.002808
 1824 Fit      -0.000188
 1825 Fit       0.001874
 1826 Fit       0.005359
 1827 Fit       0.005049
 1828 Fit       0.005437
 1829 Fit      -0.003219
 1830 Fit      -0.009484
 1831 Fit      -0.009505
 1832 Fit      -0.019479
 1833 Fit      -0.011328
 1834 Fit      -0.018876
 1835 Fit      -0.026095
 1836 Fit      -0.008807
 1837 Fit      -0.013684
 1838 Fit      -0.018882
 1839 Fit      -0.023712
 1840 Fit      -0.003109
 1841 Fit      -0.005110
 1842 Fit      -0.012757
 1843 Fit      -0.016099
 1844 Fit      -0.019627
 1845 Fit      -0.022488
 1846 Fit      -0.024449
 1847 Fit      -0.007153
 1848 Fit      -0.008867
 1849 Fit      -0.010357
 1850 Fit      -0.015236
 1851 Fit      -0.017069
 1852 Fit      -0.018602
 1853 Fit      -0.018836
 1854 Fit      -0.016974
 1855 Fit      -0.004978
 1856 Fit      -0.008496
 1857 Fit      -0.010703
 1858 Fit      -0.012584
 1859 Fit      -0.013829
 1860 Fit      -0.015860
 1861 Fit      -0.016176
 1862 Fit      -0.015267
 1863 Fit      -0.011907
 1864 Fit      -0.007070
 1865 Fit      -0.010961
 1866 Fit      -0.013683
 1867 Fit      -0.015132
 1868 Fit      -0.014376
 1869 Fit      -0.012555
 1870 Fit      -0.007629
 1871 Fit      -0.005707
 1872 Fit      -0.009435
 1873 Fit      -0.013281
 1874 Fit      -0.010863
 1875 Fit       0.005969
 1876 Fit       0.006583
 1877 Fit       0.004419
 1878 Fit       0.000159
 1879 Fit       0.002902
 1880 Fit      -0.008593
 1881 Fit      -0.005397
 1882 Fit      -0.000862
 1883 Fit       0.002738
 1884 Fit       0.004110
 1885 Fit      -0.003690
 1886 Fit      -0.000549
 1887 Fit       0.001799
 1888 Fit       0.000755
 1889 Fit      -0.000938
 1890 Fit       0.007927
 1891 Fit       0.008182
 1892 Fit       0.008766
 1893 Fit       0.006865
 1894 Fit       0.007975
 1895 Fit       0.003489
 1896 Fit       0.004801
 1897 Fit       0.005439
 1898 Fit       0.006644
 1899 Fit       0.005290
 1900 Fit       0.005444
 1901 Fit       0.006841
 1902 Fit       0.007383
 1903 Fit       0.006232
 1904 Fit       0.006747
 1905 Fit       0.007730
 1906 Fit       0.008343
 1907 Fit       0.003212
 1908 Fit       0.006010
 1909 Fit       0.007455
 1910 Fit       0.008494
 1911 Fit       0.003074
 1912 Fit       0.006277
 1913 Fit      -0.010019
 1914 Fit      -0.008229
 1915 Fit      -0.006853
 1916 Fit      -0.015822
 1917 Fit      -0.014622
 1918 Fit      -0.010757
 1919 Fit      -0.005877
 1920 Fit      -0.012032
 1921 Fit      -0.020431
 1922 Fit      -0.018878
 1923 Fit      -0.015376
 1924 Fit      -0.010960
 1925 Fit      -0.005853
 1926 Fit      -0.022640
 1927 Fit      -0.019024
 1928 Fit      -0.015334
 1929 Fit      -0.011474
 1930 Fit      -0.007305
 1931 Fit      -0.025355
 1932 Fit      -0.020957
 1933 Fit      -0.017565
 1934 Fit      -0.014372
 1935 Fit      -0.011253
 1936 Fit      -0.008503
 1937 Fit      -0.025699
 1938 Fit      -0.021680
 1939 Fit      -0.018959
 1940 Fit      -0.016313
 1941 Fit      -0.013291
 1942 Fit      -0.009210
 1943 Fit      -0.003400
 1944 Fit      -0.022629
 1945 Fit      -0.020320
 1946 Fit      -0.017865
 1947 Fit      -0.014193
 1948 Fit      -0.008631
 1949 Fit      -0.001325
 1950 Fit      -0.016743
 1951 Fit      -0.012776
 1952 Fit      -0.006434
 1953 Fit      -0.004232
 1954 Fit      -0.004346
 1955 Fit      -0.003678
 1956 Fit      -0.001944
 1957 Fit       0.001671
 1958 Fit      -0.001853
 1959 Fit       0.000591
 1960 Fit       0.003963
 1961 Fit      -0.002900
 1962 Fit       0.002097
 1963 Fit      -0.003899
 1964 Fit      -0.006406
 1965 Fit      -0.003963
 1966 Fit      -0.004476
 1967 Fit      -0.007170
 1968 Fit      -0.005304
 1969 Fit      -0.003943
 1970 Fit      -0.004399
 1971 Fit      -0.005835
 1972 Fit      -0.007269
 1973 Fit      -0.005078
 1974 Fit      -0.004427
 1975 Fit       0.006429
 1976 Fit       0.002073
 1977 Fit       0.008622
 1978 Fit       0.007037
 1979 Fit       0.006723
 1980 Fit       0.003017
 1981 Fit       0.002007
 1982 Fit       0.007494
 1983 Fit       0.004738
 1984 Fit      -0.003208
 1985 Fit      -0.002689
 1986 Fit      -0.002365
 1987 Fit       0.002588
 1988 Fit      -0.001463
 1989 Fit      -0.006240
 1990 Fit      -0.009433
 1991 Fit      -0.009159
 1992 Fit      -0.006548
 1993 Fit      -0.003274
 1994 Fit      -0.000727
 1995 Fit      -0.007705
 1996 Fit      -0.012132
 1997 Fit      -0.013939
 1998 Fit      -0.013322
 1999 Fit      -0.011208
 2000 Fit      -0.008817
 2001 Fit      -0.007055
 2002 Fit      -0.006023
 2003 Fit      -0.004762
 2004 Fit      -0.006530
 2005 Fit      -0.011044
 2006 Fit      -0.014128
 2007 Fit      -0.015189
 2008 Fit      -0.014553
 2009 Fit      -0.013098
 2010 Fit      -0.011722
 2011 Fit      -0.010930
 2012 Fit      -0.010601
 2013 Fit      -0.009985
 2014 Fit      -0.007904
 2015 Fit      -0.012153
 2016 Fit      -0.013792
 2017 Fit      -0.013665
 2018 Fit      -0.013077
 2019 Fit      -0.012818
 2020 Fit      -0.012882
 2021 Fit      -0.012516
 2022 Fit      -0.010686
 2023 Fit      -0.006933
 2024 Fit      -0.001602
 2025 Fit      -0.009760
 2026 Fit      -0.011364
 2027 Fit      -0.011764
 2028 Fit      -0.012039
 2029 Fit      -0.011957
 2030 Fit      -0.010450
 2031 Fit      -0.006496
 2032 Fit       0.000125
 2033 Fit      -0.007521
 2034 Fit      -0.008079
 2035 Fit      -0.007415
 2036 Fit      -0.004269
 2037 Fit       0.007167
 2038 Fit       0.006791
 2039 Fit       0.005602
 2040 Fit       0.003438
 2041 Fit      -0.000693
 2042 Fit       0.006293
 2043 Fit       0.004886
 2044 Fit       0.007720
 2045 Fit       0.006221
 2046 Fit       0.004484
 2047 Fit       0.002444
 2048 Fit       0.007280
 2049 Fit       0.006118
 2050 Fit       0.004005
 2051 Fit       0.000725
 2052 Fit      -0.003072
 2053 Fit       0.007302
 2054 Fit       0.006578
 2055 Fit       0.004986
 2056 Fit       0.005492
 2057 Fit       0.006449
 2058 Fit       0.007602
 2059 Fit       0.002297
 2060 Fit       0.002952
 2061 Fit       0.004237
 2062 Fit       0.005224
 2063 Fit       0.005895
 2064 Fit      -0.002642
 2065 Fit      -0.000737
 2066 Fit       0.001328
 2067 Fit       0.002701
 2068 Fit       0.003612
 2069 Fit       0.005418
 2070 Fit       0.004063
 2071 Fit       0.003839
 2072 Fit       0.004319
 2073 Fit       0.006388
 2074 Fit       0.003830
 2075 Fit       0.004255
 2076 Fit       0.005044
 2077 Fit       0.005816
 2078 Fit       0.006786
 2079 Fit       0.004622
 2080 Fit       0.004002
 2081 Fit       0.007676
 2082 Fit       0.006363
 2083 Fit       0.006816
 2084 Fit       0.007011
 2085 Fit       0.006541
 2086 Fit       0.007569
 2087 Fit       0.007729
 2088 Fit       0.007919
 2089 Fit       0.007728
 2090 Fit       0.008234
 2091 Fit       0.006955
 2092 Fit       0.007130
 2093 Fit       0.007298
 2094 Fit       0.006956
 2095 Fit       0.006254
 2096 Fit       0.006431
 2097 Fit       0.006845
 2098 Fit       0.007066
 2099 Fit       0.007815
 2100 Fit       0.005437
 2101 Fit       0.005002
 2102 Fit       0.005378
 2103 Fit       0.005926
 2104 Fit       0.006310
 2105 Fit       0.006572
 2106 Fit       0.004334
 2107 Fit       0.004961
 2108 Fit       0.005485
 2109 Fit       0.005820
 2110 Fit       0.006204
 2111 Fit       0.003507
 2112 Fit       0.003603
 2113 Fit       0.001373
 2114 Fit       0.002595
 2115 Fit       0.003530
 2116 Fit       0.003886
 2117 Fit      -0.002944
 2118 Fit       0.000647
 2119 Fit       0.002707
 2120 Fit       0.003685
 2121 Fit       0.004094
 2122 Fit      -0.006518
 2123 Fit      -0.000505
 2124 Fit       0.002194
 2125 Fit       0.003566
 2126 Fit      -0.000711
 Job cpu time:       0 days  0 hours 13 minutes  9.9 seconds.
 Normal termination of Gaussian 16 at Sun Jul  9 09:55:14 2023.
