 Copyright (c) 1988-2019, Gaussian, Inc.  All Rights Reserved.
  
 This is part of the Gaussian(R) 16 program.  It is based on
 the Gaussian(R) 09 system (copyright 2009, Gaussian, Inc.),
 the Gaussian(R) 03 system (copyright 2003, Gaussian, Inc.),
 the Gaussian(R) 98 system (copyright 1998, Gaussian, Inc.),
 the Gaussian(R) 94 system (copyright 1995, Gaussian, Inc.),
 the Gaussian 92(TM) system (copyright 1992, Gaussian, Inc.),
 the Gaussian 90(TM) system (copyright 1990, Gaussian, Inc.),
 the Gaussian 88(TM) system (copyright 1988, Gaussian, Inc.),
 the Gaussian 86(TM) system (copyright 1986, Carnegie Mellon
 University), and the Gaussian 82(TM) system (copyright 1983,
 Carnegie Mellon University). Gaussian is a federally registered
 trademark of Gaussian, Inc.
 Cite this work as:
 Gaussian 16, Revision C.01,
 M. J. Frisch, G. W. Trucks, H. B. Schlegel, G. E. Scuseria, 
 M. A. Robb, J. R. Cheeseman, G. Scalmani, V. Barone, 
 G. A. Petersson, H. Nakatsuji, X. Li, M. Caricato, A. V. Marenich, 
 J. Bloino, B. G. Janesko, R. Gomperts, B. Mennucci, H. P. Hratchian, 
 J. V. Ortiz, A. F. Izmaylov, J. L. Sonnenberg, D. Williams-Young, 
 F. Ding, F. Lipparini, F. Egidi, J. Goings, B. Peng, A. Petrone, 
 T. Henderson, D. Ranasinghe, V. G. Zakrzewski, J. Gao, N. Rega, 
 G. Zheng, W. Liang, M. Hada, M. Ehara, K. Toyota, R. Fukuda, 
 J. Hasegawa, M. Ishida, T. Nakajima, Y. Honda, O. Kitao, H. Nakai, 
 T. Vreven, K. Throssell, J. A. Montgomery, Jr., J. E. Peralta, 
 F. Ogliaro, M. J. Bearpark, J. J. Heyd, E. N. Brothers, K. N. Kudin, 
 V. N. Staroverov, T. A. Keith, R. Kobayashi, J. Normand, 
 K. Raghavachari, A. P. Rendell, J. C. Burant, S. S. Iyengar, 
 J. Tomasi, M. Cossi, J. M. Millam, M. Klene, C. Adamo, R. Cammi, 
 J. W. Ochterski, R. L. Martin, K. Morokuma, O. Farkas, 
 J. B. Foresman, and D. J. Fox, Gaussian, Inc., Wallingford CT, 2019.
 
 ******************************************
 Gaussian 16:  EM64L-G16RevC.01  3-Jul-2019
                 9-Jul-2023 
 ******************************************
 ----------------------------------------------------------------------
 #P B3LYP/6-31G(d) Integral=Ultrafine SCF(Conver=8,XQC,MaxConventionalC
 ycles=64,MaxCycle=128) NoSymm Test Pop=mk IOp(6/33=2) GFInput GFPrint
 ----------------------------------------------------------------------
 1/38=1,172=1/1;
 2/12=2,15=1,17=6,18=5,40=1/2;
 3/5=1,6=6,7=1,11=2,24=110,25=1,30=1,74=-5,75=-5/1,2,3;
 4//1;
 5/5=2,6=8,7=128,8=3,13=1,38=5,85=64/2,8;
 6/7=2,8=2,9=2,10=2,15=8,20=1,28=1,33=2/1,2;
 99/5=1,9=1/99;
 -------------------------------------------------
 MEP step - Input generated by PyRED DVE-DMDS-OPLS
 -------------------------------------------------
 Symbolic Z-matrix:
 Charge =  0 Multiplicity = 1
 C                    -2.81125  -6.54125   1.61958 
 H                    -3.31048  -5.63281   1.97215 
 H                    -3.01746  -6.654     0.55029 
 H                    -3.23958  -7.39966   2.14844 
 C                    -1.31443  -6.45839   1.86859 
 H                    -1.10384  -6.3548    2.94632 
 H                    -0.81256  -7.37997   1.52714 
 O                    -0.80006  -5.33903   1.16352 
 C                     0.59839  -5.17445   1.31761 
 H                     1.13549  -6.04146   0.89204 
 H                     0.86741  -5.10304   2.38397 
 C                     1.04812  -3.90701   0.60405 
 H                     2.14339  -3.90752   0.5549 
 H                     0.66545  -3.91486  -0.42711 
 O                     0.68202  -2.71942   1.29002 
 C                    -0.60942  -2.19379   0.97518 
 H                    -0.92301  -1.62278   1.85608 
 H                    -1.32772  -3.0072    0.81848 
 C                    -0.60729  -1.26036  -0.23397 
 H                    -1.64823  -1.03796  -0.49964 
 H                    -0.14014  -1.75634  -1.10168 
 O                     0.        0.        0. 
 C                     1.42159   0.        0. 
 H                     1.8007   -0.51182  -0.90047 
 H                     1.8216   -0.52598   0.87422 
 C                     1.85616   1.46266   0. 
 H                     1.50396   1.94905   0.91597 
 H                     1.40831   1.97135  -0.85885 
 S                     3.69109   1.56006  -0.06723 
 C                     3.95078   3.33799   0.32485 
 H                     3.4011    3.59312   1.23668 
 H                     5.01814   3.41427   0.55322 
 C                     3.57372   4.28088  -0.81887 
 H                     2.51434   4.16955  -1.07016 
 H                     4.14666   4.04457  -1.72136 
 S                     3.75467   6.07294  -0.43707 
 C                     5.58086   6.3257   -0.53438 
 H                     5.71778   7.32612  -0.95494 
 H                     5.99238   5.61635  -1.2585 
 C                     6.29455   6.23688   0.81812 
 H                     5.83703   6.93926   1.52086 
 H                     6.2053    5.23997   1.26088 
 S                     8.08203   6.68661   0.74343 
 C                     8.90206   5.04741   0.57605 
 H                     9.95727   5.26711   0.77198 
 H                     8.55548   4.40341   1.39249 
 C                     8.75006   4.35221  -0.77616 
 H                     9.34992   3.43339  -0.79725 
 H                     7.71044   4.06889  -0.9719 
 H                     9.08436   5.00051  -1.59216 
 
 ITRead=  0  0  0  0  0  0  0  0  0  0  0  0  0  0  0  0  0  0  0  0
 ITRead=  0  0  0  0  0  0  0  0  0  0  0  0  0  0  0  0  0  0  0  0
 ITRead=  0  0  0  0  0  0  0  0  0  0
 MicOpt= -1 -1 -1 -1 -1 -1 -1 -1 -1 -1 -1 -1 -1 -1 -1 -1 -1 -1 -1 -1
 MicOpt= -1 -1 -1 -1 -1 -1 -1 -1 -1 -1 -1 -1 -1 -1 -1 -1 -1 -1 -1 -1
 MicOpt= -1 -1 -1 -1 -1 -1 -1 -1 -1 -1
 NAtoms=     50 NQM=       50 NQMF=       0 NMMI=      0 NMMIF=      0
                NMic=       0 NMicF=      0.
                          Input orientation:                          
 ---------------------------------------------------------------------
 Center     Atomic      Atomic             Coordinates (Angstroms)
 Number     Number       Type             X           Y           Z
 ---------------------------------------------------------------------
      1          6           0       -2.811252   -6.541254    1.619582
      2          1           0       -3.310476   -5.632815    1.972151
      3          1           0       -3.017457   -6.653997    0.550287
      4          1           0       -3.239585   -7.399660    2.148440
      5          6           0       -1.314430   -6.458386    1.868594
      6          1           0       -1.103835   -6.354796    2.946320
      7          1           0       -0.812561   -7.379971    1.527138
      8          8           0       -0.800057   -5.339026    1.163515
      9          6           0        0.598391   -5.174452    1.317612
     10          1           0        1.135486   -6.041461    0.892038
     11          1           0        0.867406   -5.103035    2.383971
     12          6           0        1.048121   -3.907005    0.604053
     13          1           0        2.143392   -3.907518    0.554904
     14          1           0        0.665452   -3.914862   -0.427106
     15          8           0        0.682019   -2.719417    1.290020
     16          6           0       -0.609422   -2.193789    0.975175
     17          1           0       -0.923014   -1.622778    1.856084
     18          1           0       -1.327721   -3.007202    0.818479
     19          6           0       -0.607288   -1.260361   -0.233973
     20          1           0       -1.648232   -1.037956   -0.499636
     21          1           0       -0.140136   -1.756338   -1.101680
     22          8           0        0.000000    0.000000    0.000000
     23          6           0        1.421586    0.000000    0.000000
     24          1           0        1.800702   -0.511823   -0.900472
     25          1           0        1.821597   -0.525982    0.874221
     26          6           0        1.856158    1.462658    0.000000
     27          1           0        1.503963    1.949054    0.915972
     28          1           0        1.408313    1.971348   -0.858850
     29         16           0        3.691094    1.560059   -0.067229
     30          6           0        3.950777    3.337993    0.324849
     31          1           0        3.401102    3.593124    1.236680
     32          1           0        5.018143    3.414269    0.553220
     33          6           0        3.573724    4.280883   -0.818870
     34          1           0        2.514338    4.169550   -1.070164
     35          1           0        4.146661    4.044569   -1.721359
     36         16           0        3.754674    6.072939   -0.437069
     37          6           0        5.580858    6.325698   -0.534381
     38          1           0        5.717775    7.326123   -0.954942
     39          1           0        5.992384    5.616349   -1.258500
     40          6           0        6.294551    6.236876    0.818115
     41          1           0        5.837025    6.939262    1.520864
     42          1           0        6.205304    5.239970    1.260881
     43         16           0        8.082034    6.686610    0.743434
     44          6           0        8.902055    5.047412    0.576052
     45          1           0        9.957272    5.267108    0.771979
     46          1           0        8.555483    4.403415    1.392494
     47          6           0        8.750061    4.352205   -0.776155
     48          1           0        9.349918    3.433388   -0.797251
     49          1           0        7.710437    4.068891   -0.971902
     50          1           0        9.084361    5.000514   -1.592162
 ---------------------------------------------------------------------
 Stoichiometry    C14H30O3S3
 Framework group  C1[X(C14H30O3S3)]
 Standard basis: 6-31G(d) (6D, 7F)
   372 basis functions,   752 primitive gaussians,   372 cartesian basis functions
    93 alpha electrons       93 beta electrons
 Requested convergence on RMS density matrix=1.00D-08 within  64 cycles.
 Requested convergence on MAX density matrix=1.00D-06.
 Requested convergence on             energy=1.00D-06.
 SCF Done:  E(RB3LYP) =  -1971.75532437     A.U. after   13 cycles
            NFock= 13  Conv=0.36D-08     -V/T= 2.0058
 Mulliken charges:
     1  C   -0.455534
     2  H    0.158727
     3  H    0.158331
     4  H    0.146123
     5  C   -0.003536
     6  H    0.124610
     7  H    0.119983
     8  O   -0.472327
     9  C   -0.012534
    10  H    0.114695
    11  H    0.133317
    12  C   -0.051483
    13  H    0.146336
    14  H    0.134989
    15  O   -0.472226
    16  C   -0.055402
    17  H    0.150918
    18  H    0.156492
    19  C   -0.037827
    20  H    0.142252
    21  H    0.122719
    22  O   -0.479613
    23  C   -0.023656
    24  H    0.125968
    25  H    0.168240
    26  C   -0.420386
    27  H    0.177323
    28  H    0.177037
    29  S    0.077486
    30  C   -0.409934
    31  H    0.184881
    32  H    0.174608
    33  C   -0.412887
    34  H    0.186513
    35  H    0.182091
    36  S    0.081221
    37  C   -0.411888
    38  H    0.192773
    39  H    0.178042
    40  C   -0.410527
    41  H    0.191725
    42  H    0.172819
    43  S    0.079899
    44  C   -0.408555
    45  H    0.178709
    46  H    0.169506
    47  C   -0.435773
    48  H    0.151982
    49  H    0.148746
    50  H    0.165027
 Sum of Mulliken charges =  -0.00000
 Dipole moment (field-independent basis, Debye):
    X=             -0.4723    Y=             -4.5105    Z=             -0.2319  Tot=              4.5411
 Quadrupole moment (field-independent basis, Debye-Ang):
   XX=           -142.6001   YY=           -153.7208   ZZ=           -148.0118
   XY=             -9.3544   XZ=             -4.2888   YZ=             -5.1015
 Traceless Quadrupole moment (field-independent basis, Debye-Ang):
   XX=              5.5108   YY=             -5.6099   ZZ=              0.0991
   XY=             -9.3544   XZ=             -4.2888   YZ=             -5.1015
 Octapole moment (field-independent basis, Debye-Ang**2):
  XXX=          -1281.6057  YYY=           -869.2410  ZZZ=           -159.6709  XYY=           -600.2769
  XXY=           -266.6245  XXZ=            -76.1997  XZZ=           -460.0308  YZZ=           -194.3750
  YYZ=            -31.0338  XYZ=            -15.9245
 Hexadecapole moment (field-independent basis, Debye-Ang**3):
 XXXX=         -17777.0065 YYYY=         -20334.6309 ZZZZ=           -916.0870 XXXY=          -8101.6550
 XXXZ=           -211.3271 YYYX=          -8862.0336 YYYZ=            420.9444 ZZZX=            -20.9167
 ZZZY=            757.2600 XXYY=          -7500.9847 XXZZ=          -3330.9511 YYZZ=          -3388.5750
 XXYZ=              5.2253 YYXZ=           -242.7421 ZZXY=          -2538.2875
 Merz-Kollman atomic radii used.
 Atom Element Radius
    1     6    1.50
    2     1    1.20
    3     1    1.20
    4     1    1.20
    5     6    1.50
    6     1    1.20
    7     1    1.20
    8     8    1.40
    9     6    1.50
   10     1    1.20
   11     1    1.20
   12     6    1.50
   13     1    1.20
   14     1    1.20
   15     8    1.40
   16     6    1.50
   17     1    1.20
   18     1    1.20
   19     6    1.50
   20     1    1.20
   21     1    1.20
   22     8    1.40
   23     6    1.50
   24     1    1.20
   25     1    1.20
   26     6    1.50
   27     1    1.20
   28     1    1.20
   29    16    1.75
   30     6    1.50
   31     1    1.20
   32     1    1.20
   33     6    1.50
   34     1    1.20
   35     1    1.20
   36    16    1.75
   37     6    1.50
   38     1    1.20
   39     1    1.20
   40     6    1.50
   41     1    1.20
   42     1    1.20
   43    16    1.75
   44     6    1.50
   45     1    1.20
   46     1    1.20
   47     6    1.50
   48     1    1.20
   49     1    1.20
   50     1    1.20
 Generate VDW surfaces: Layer= 4 Dens= 1 Start= 1.400 Inc= 0.200
            Electrostatic Properties Using The SCF Density.


       Atomic Center    1 is at  -2.811252 -6.541254  1.619582
       Atomic Center    2 is at  -3.310476 -5.632815  1.972151
       Atomic Center    3 is at  -3.017457 -6.653997  0.550287
       Atomic Center    4 is at  -3.239585 -7.399660  2.148440
       Atomic Center    5 is at  -1.314430 -6.458386  1.868594
       Atomic Center    6 is at  -1.103835 -6.354796  2.946320
       Atomic Center    7 is at  -0.812561 -7.379971  1.527138
       Atomic Center    8 is at  -0.800057 -5.339026  1.163515
       Atomic Center    9 is at   0.598391 -5.174452  1.317612
       Atomic Center   10 is at   1.135486 -6.041461  0.892038
       Atomic Center   11 is at   0.867406 -5.103035  2.383971
       Atomic Center   12 is at   1.048121 -3.907005  0.604053
       Atomic Center   13 is at   2.143392 -3.907518  0.554904
       Atomic Center   14 is at   0.665452 -3.914862 -0.427106
       Atomic Center   15 is at   0.682019 -2.719417  1.290020
       Atomic Center   16 is at  -0.609422 -2.193789  0.975175
       Atomic Center   17 is at  -0.923014 -1.622778  1.856084
       Atomic Center   18 is at  -1.327721 -3.007202  0.818479
       Atomic Center   19 is at  -0.607288 -1.260361 -0.233973
       Atomic Center   20 is at  -1.648232 -1.037956 -0.499636
       Atomic Center   21 is at  -0.140136 -1.756338 -1.101680
       Atomic Center   22 is at   0.000000  0.000000  0.000000
       Atomic Center   23 is at   1.421586  0.000000  0.000000
       Atomic Center   24 is at   1.800702 -0.511823 -0.900472
       Atomic Center   25 is at   1.821597 -0.525982  0.874221
       Atomic Center   26 is at   1.856158  1.462658  0.000000
       Atomic Center   27 is at   1.503963  1.949054  0.915972
       Atomic Center   28 is at   1.408313  1.971348 -0.858850
       Atomic Center   29 is at   3.691094  1.560059 -0.067229
       Atomic Center   30 is at   3.950777  3.337993  0.324849
       Atomic Center   31 is at   3.401102  3.593124  1.236680
       Atomic Center   32 is at   5.018143  3.414269  0.553220
       Atomic Center   33 is at   3.573724  4.280883 -0.818870
       Atomic Center   34 is at   2.514338  4.169550 -1.070164
       Atomic Center   35 is at   4.146661  4.044569 -1.721359
       Atomic Center   36 is at   3.754674  6.072939 -0.437069
       Atomic Center   37 is at   5.580858  6.325698 -0.534381
       Atomic Center   38 is at   5.717775  7.326123 -0.954942
       Atomic Center   39 is at   5.992384  5.616349 -1.258500
       Atomic Center   40 is at   6.294551  6.236876  0.818115
       Atomic Center   41 is at   5.837025  6.939262  1.520864
       Atomic Center   42 is at   6.205304  5.239970  1.260881
       Atomic Center   43 is at   8.082034  6.686610  0.743434
       Atomic Center   44 is at   8.902055  5.047412  0.576052
       Atomic Center   45 is at   9.957272  5.267108  0.771979
       Atomic Center   46 is at   8.555483  4.403415  1.392494
       Atomic Center   47 is at   8.750061  4.352205 -0.776155
       Atomic Center   48 is at   9.349918  3.433388 -0.797251
       Atomic Center   49 is at   7.710437  4.068891 -0.971902
       Atomic Center   50 is at   9.084361  5.000514 -1.592162
      ESP Fit Center   51 is at  -2.811252 -6.541254  3.719582
      ESP Fit Center   52 is at  -4.850230 -7.043817  1.619582
      ESP Fit Center   53 is at  -3.070073 -8.341396  0.569582
      ESP Fit Center   54 is at  -2.055756 -8.195559  0.569582
      ESP Fit Center   55 is at  -3.310476 -5.632815  3.652151
      ESP Fit Center   56 is at  -3.005328 -4.693666  3.331300
      ESP Fit Center   57 is at  -4.109363 -5.052389  3.331300
      ESP Fit Center   58 is at  -4.109363 -6.213241  3.331300
      ESP Fit Center   59 is at  -2.086509 -4.605785  2.491300
      ESP Fit Center   60 is at  -3.033025 -4.059314  2.491300
      ESP Fit Center   61 is at  -4.109363 -4.249101  2.491300
      ESP Fit Center   62 is at  -4.811893 -5.086344  2.491300
      ESP Fit Center   63 is at  -4.811893 -6.179286  2.491300
      ESP Fit Center   64 is at  -3.033025 -4.059314  1.453002
      ESP Fit Center   65 is at  -4.109363 -4.249101  1.453002
      ESP Fit Center   66 is at  -4.811893 -5.086344  1.453002
      ESP Fit Center   67 is at  -3.005328 -4.693666  0.613002
      ESP Fit Center   68 is at  -4.109363 -5.052389  0.613002
      ESP Fit Center   69 is at  -2.740006 -5.080496  0.031138
      ESP Fit Center   70 is at  -3.816344 -5.270283  0.031138
      ESP Fit Center   71 is at  -4.518874 -6.107526  0.031138
      ESP Fit Center   72 is at  -4.518874 -7.200468  0.031138
      ESP Fit Center   73 is at  -3.816344 -8.037711  0.031138
      ESP Fit Center   74 is at  -2.740006 -8.227498  0.031138
      ESP Fit Center   75 is at  -1.793490 -7.681027  0.031138
      ESP Fit Center   76 is at  -2.029978 -6.653997 -0.808862
      ESP Fit Center   77 is at  -2.712309 -5.714848 -0.808862
      ESP Fit Center   78 is at  -3.816344 -6.073571 -0.808862
      ESP Fit Center   79 is at  -3.816344 -7.234423 -0.808862
      ESP Fit Center   80 is at  -2.712309 -7.593146 -0.808862
      ESP Fit Center   81 is at  -3.017457 -6.653997 -1.129713
      ESP Fit Center   82 is at  -3.239585 -7.399660  3.828440
      ESP Fit Center   83 is at  -4.038472 -6.819234  3.507589
      ESP Fit Center   84 is at  -4.038472 -7.980086  3.507589
      ESP Fit Center   85 is at  -2.934437 -8.338809  3.507589
      ESP Fit Center   86 is at  -4.741002 -6.853189  2.667589
      ESP Fit Center   87 is at  -4.741002 -7.946131  2.667589
      ESP Fit Center   88 is at  -4.038472 -8.783374  2.667589
      ESP Fit Center   89 is at  -2.962134 -8.973161  2.667589
      ESP Fit Center   90 is at  -2.015618 -8.426690  2.667589
      ESP Fit Center   91 is at  -4.741002 -7.946131  1.629291
      ESP Fit Center   92 is at  -4.038472 -8.783374  1.629291
      ESP Fit Center   93 is at  -2.962134 -8.973161  1.629291
      ESP Fit Center   94 is at  -1.573251 -4.658244  2.918594
      ESP Fit Center   95 is at  -1.573251 -8.258528  2.918594
      ESP Fit Center   96 is at   0.215519 -7.441624  2.918594
      ESP Fit Center   97 is at  -1.103835 -6.354796  4.626320
      ESP Fit Center   98 is at  -0.116356 -6.354796  4.305469
      ESP Fit Center   99 is at  -0.798687 -5.415647  4.305469
      ESP Fit Center  100 is at  -1.902722 -5.774370  4.305469
      ESP Fit Center  101 is at  -1.902722 -6.935222  4.305469
      ESP Fit Center  102 is at  -0.798687 -7.293945  4.305469
      ESP Fit Center  103 is at   0.493940 -6.354796  3.465469
      ESP Fit Center  104 is at  -0.826384 -4.781295  3.465469
      ESP Fit Center  105 is at  -1.902722 -4.971082  3.465469
      ESP Fit Center  106 is at  -1.902722 -7.738510  3.465469
      ESP Fit Center  107 is at  -0.826384 -7.928297  3.465469
      ESP Fit Center  108 is at   0.120132 -7.381826  3.465469
      ESP Fit Center  109 is at  -0.507413 -8.319120  2.886287
      ESP Fit Center  110 is at   0.785214 -7.379971  2.046287
      ESP Fit Center  111 is at  -1.611448 -8.763685  2.046287
      ESP Fit Center  112 is at  -0.535110 -8.953472  2.046287
      ESP Fit Center  113 is at   0.411406 -8.407001  2.046287
      ESP Fit Center  114 is at  -1.611448 -8.763685  1.007989
      ESP Fit Center  115 is at  -0.535110 -8.953472  1.007989
      ESP Fit Center  116 is at   0.411406 -8.407001  1.007989
      ESP Fit Center  117 is at   0.174918 -7.379971  0.167989
      ESP Fit Center  118 is at  -1.611448 -7.960397  0.167989
      ESP Fit Center  119 is at  -0.507413 -8.319120  0.167989
      ESP Fit Center  120 is at  -0.812561 -7.379971 -0.152862
      ESP Fit Center  121 is at  -1.290057 -4.490321  2.860925
      ESP Fit Center  122 is at  -2.173290 -4.341314  2.143515
      ESP Fit Center  123 is at  -2.497467 -4.359026  1.163515
      ESP Fit Center  124 is at  -2.173290 -4.341314  0.183515
      ESP Fit Center  125 is at  -1.290057 -4.490321 -0.533895
      ESP Fit Center  126 is at  -1.780057 -5.339026 -0.533895
      ESP Fit Center  127 is at  -1.290057 -6.187731 -0.533895
      ESP Fit Center  128 is at  -0.310057 -6.187731 -0.533895
      ESP Fit Center  129 is at  -0.800057 -5.339026 -0.796485
      ESP Fit Center  130 is at  -0.592574 -3.800006  2.367612
      ESP Fit Center  131 is at   1.353887 -6.828757  2.367612
      ESP Fit Center  132 is at   0.073391 -6.083779 -0.501041
      ESP Fit Center  133 is at   1.440634 -6.980610  2.251187
      ESP Fit Center  134 is at   2.733261 -6.041461  1.411187
      ESP Fit Center  135 is at   1.412937 -7.614962  1.411187
      ESP Fit Center  136 is at   2.359453 -7.068491  1.411187
      ESP Fit Center  137 is at   2.733261 -6.041461  0.372889
      ESP Fit Center  138 is at   1.412937 -7.614962  0.372889
      ESP Fit Center  139 is at   2.359453 -7.068491  0.372889
      ESP Fit Center  140 is at   2.122965 -6.041461 -0.467111
      ESP Fit Center  141 is at   0.336599 -6.621887 -0.467111
      ESP Fit Center  142 is at   1.440634 -6.980610 -0.467111
      ESP Fit Center  143 is at   1.135486 -6.041461 -0.787962
      ESP Fit Center  144 is at   0.867406 -5.103035  4.063971
      ESP Fit Center  145 is at   1.854885 -5.103035  3.743120
      ESP Fit Center  146 is at   1.172554 -4.163886  3.743120
      ESP Fit Center  147 is at   0.068519 -4.522609  3.743120
      ESP Fit Center  148 is at   1.172554 -6.042184  3.743120
      ESP Fit Center  149 is at   2.465181 -5.103035  2.903120
      ESP Fit Center  150 is at   2.091373 -4.076005  2.903120
      ESP Fit Center  151 is at   0.068519 -3.719321  2.903120
      ESP Fit Center  152 is at   1.144857 -6.676536  2.903120
      ESP Fit Center  153 is at   2.091373 -6.130065  2.903120
      ESP Fit Center  154 is at   2.098121 -3.907005  2.422706
      ESP Fit Center  155 is at   1.803617 -2.252700 -0.445947
      ESP Fit Center  156 is at   3.130871 -3.907518  1.914053
      ESP Fit Center  157 is at   3.741167 -3.907518  1.074053
      ESP Fit Center  158 is at   3.367359 -2.880488  1.074053
      ESP Fit Center  159 is at   3.367359 -4.934548  1.074053
      ESP Fit Center  160 is at   3.741167 -3.907518  0.035755
      ESP Fit Center  161 is at   3.367359 -2.880488  0.035755
      ESP Fit Center  162 is at   2.420843 -2.334017  0.035755
      ESP Fit Center  163 is at   3.367359 -4.934548  0.035755
      ESP Fit Center  164 is at   3.130871 -3.907518 -0.804245
      ESP Fit Center  165 is at   2.448540 -2.968369 -0.804245
      ESP Fit Center  166 is at   2.448540 -4.846667 -0.804245
      ESP Fit Center  167 is at  -0.835965 -3.368391 -0.946255
      ESP Fit Center  168 is at  -0.835965 -4.461333 -0.946255
      ESP Fit Center  169 is at  -0.133435 -5.298576 -0.946255
      ESP Fit Center  170 is at   0.942903 -5.488363 -0.946255
      ESP Fit Center  171 is at   1.652931 -3.914862 -1.786255
      ESP Fit Center  172 is at   0.970600 -2.975713 -1.786255
      ESP Fit Center  173 is at  -0.133435 -3.334436 -1.786255
      ESP Fit Center  174 is at  -0.133435 -4.495288 -1.786255
      ESP Fit Center  175 is at   0.970600 -4.854011 -1.786255
      ESP Fit Center  176 is at   0.665452 -3.914862 -2.107106
      ESP Fit Center  177 is at   0.682019 -2.719417  3.250020
      ESP Fit Center  178 is at   1.662019 -2.719417  2.987430
      ESP Fit Center  179 is at   1.172019 -1.870712  2.987430
      ESP Fit Center  180 is at  -0.297981 -2.719417  2.987430
      ESP Fit Center  181 is at   0.192019 -3.568122  2.987430
      ESP Fit Center  182 is at   2.379429 -2.719417  2.270020
      ESP Fit Center  183 is at   2.055252 -1.721705  2.270020
      ESP Fit Center  184 is at  -1.134422 -3.103116  2.793828
      ESP Fit Center  185 is at  -2.648400 -1.691226  0.975175
      ESP Fit Center  186 is at  -0.923014 -1.622778  3.536084
      ESP Fit Center  187 is at   0.064465 -1.622778  3.215233
      ESP Fit Center  188 is at  -0.617866 -0.683629  3.215233
      ESP Fit Center  189 is at  -1.721901 -1.042352  3.215233
      ESP Fit Center  190 is at  -1.721901 -2.203204  3.215233
      ESP Fit Center  191 is at  -0.617866 -2.561927  3.215233
      ESP Fit Center  192 is at   0.300953 -0.595748  2.375233
      ESP Fit Center  193 is at  -0.645563 -0.049277  2.375233
      ESP Fit Center  194 is at  -1.721901 -0.239064  2.375233
      ESP Fit Center  195 is at  -2.424431 -1.076307  2.375233
      ESP Fit Center  196 is at  -2.424431 -2.169249  2.375233
      ESP Fit Center  197 is at  -1.721901 -0.239064  1.336935
      ESP Fit Center  198 is at  -2.424431 -1.076307  1.336935
      ESP Fit Center  199 is at  -2.126608 -3.587628  2.177628
      ESP Fit Center  200 is at  -2.829138 -2.460731  1.337628
      ESP Fit Center  201 is at  -2.829138 -3.553673  1.337628
      ESP Fit Center  202 is at  -2.829138 -2.460731  0.299330
      ESP Fit Center  203 is at  -2.829138 -3.553673  0.299330
      ESP Fit Center  204 is at  -2.126608 -3.587628 -0.540670
      ESP Fit Center  205 is at  -1.022573 -3.946351 -0.540670
      ESP Fit Center  206 is at  -1.798253  0.114085  0.816027
      ESP Fit Center  207 is at  -1.798253 -2.634807 -1.283973
      ESP Fit Center  208 is at  -0.082288 -0.351034 -2.052626
      ESP Fit Center  209 is at  -1.132288 -0.351034 -2.052626
      ESP Fit Center  210 is at  -2.447119 -0.457530  0.859513
      ESP Fit Center  211 is at  -2.447119  0.345758  0.019513
      ESP Fit Center  212 is at  -3.149649 -0.491485  0.019513
      ESP Fit Center  213 is at  -3.149649 -1.584427  0.019513
      ESP Fit Center  214 is at  -2.447119  0.345758 -1.018785
      ESP Fit Center  215 is at  -3.149649 -0.491485 -1.018785
      ESP Fit Center  216 is at  -3.149649 -1.584427 -1.018785
      ESP Fit Center  217 is at  -2.447119 -2.421670 -1.018785
      ESP Fit Center  218 is at  -1.343084 -0.098807 -1.858785
      ESP Fit Center  219 is at  -2.447119 -0.457530 -1.858785
      ESP Fit Center  220 is at  -2.447119 -1.618382 -1.858785
      ESP Fit Center  221 is at  -1.648232 -1.037956 -2.179636
      ESP Fit Center  222 is at  -0.939023 -3.140052 -1.620829
      ESP Fit Center  223 is at   1.083831 -2.783368 -1.620829
      ESP Fit Center  224 is at   0.847343 -1.756338 -2.460829
      ESP Fit Center  225 is at   0.165012 -0.817189 -2.460829
      ESP Fit Center  226 is at  -0.939023 -1.175912 -2.460829
      ESP Fit Center  227 is at  -0.939023 -2.336764 -2.460829
      ESP Fit Center  228 is at   0.165012 -2.695487 -2.460829
      ESP Fit Center  229 is at  -0.140136 -1.756338 -2.781680
      ESP Fit Center  230 is at   0.000000  0.000000  1.960000
      ESP Fit Center  231 is at   0.490000  0.848705  1.697410
      ESP Fit Center  232 is at  -0.490000  0.848705  1.697410
      ESP Fit Center  233 is at  -0.524528  1.614333  0.980000
      ESP Fit Center  234 is at  -1.373233  0.997712  0.980000
      ESP Fit Center  235 is at  -0.980000  1.697410  0.000000
      ESP Fit Center  236 is at  -1.697410  0.980000  0.000000
      ESP Fit Center  237 is at  -0.524528  1.614333 -0.980000
      ESP Fit Center  238 is at  -1.373233  0.997712 -0.980000
      ESP Fit Center  239 is at  -0.490000  0.848705 -1.697410
      ESP Fit Center  240 is at   0.000000  0.000000 -1.960000
      ESP Fit Center  241 is at   2.614522 -1.728266  0.000000
      ESP Fit Center  242 is at   3.281044 -0.975919  0.000000
      ESP Fit Center  243 is at   2.078153 -2.085324 -0.381323
      ESP Fit Center  244 is at   3.024669 -1.538853 -0.381323
      ESP Fit Center  245 is at   3.398477 -0.511823 -1.419621
      ESP Fit Center  246 is at   2.078153 -2.085324 -1.419621
      ESP Fit Center  247 is at   3.024669 -1.538853 -1.419621
      ESP Fit Center  248 is at   2.788181 -0.511823 -2.259621
      ESP Fit Center  249 is at   2.105850  0.427326 -2.259621
      ESP Fit Center  250 is at   1.001815  0.068603 -2.259621
      ESP Fit Center  251 is at   1.001815 -1.092249 -2.259621
      ESP Fit Center  252 is at   2.105850 -1.450972 -2.259621
      ESP Fit Center  253 is at   1.800702 -0.511823 -2.580472
      ESP Fit Center  254 is at   1.821597 -0.525982  2.554221
      ESP Fit Center  255 is at   2.809076 -0.525982  2.233370
      ESP Fit Center  256 is at   2.126745  0.413167  2.233370
      ESP Fit Center  257 is at   1.022710  0.054444  2.233370
      ESP Fit Center  258 is at   2.126745 -1.465131  2.233370
      ESP Fit Center  259 is at   3.419372 -0.525982  1.393370
      ESP Fit Center  260 is at   3.045564 -1.553012  1.393370
      ESP Fit Center  261 is at   3.045564 -1.553012  0.355072
      ESP Fit Center  262 is at   1.111488  3.426192  0.000000
      ESP Fit Center  263 is at  -0.182820  1.965221  0.000000
      ESP Fit Center  264 is at   1.503963  1.949054  2.595972
      ESP Fit Center  265 is at   2.491442  1.949054  2.275121
      ESP Fit Center  266 is at   1.809111  2.888203  2.275121
      ESP Fit Center  267 is at   0.705076  2.529480  2.275121
      ESP Fit Center  268 is at   0.705076  1.368628  2.275121
      ESP Fit Center  269 is at   1.809111  1.009905  2.275121
      ESP Fit Center  270 is at   0.705076  3.332768  1.435121
      ESP Fit Center  271 is at   0.002546  2.495525  1.435121
      ESP Fit Center  272 is at   0.002546  1.402583  1.435121
      ESP Fit Center  273 is at   0.705076  3.332768  0.396823
      ESP Fit Center  274 is at   0.002546  2.495525  0.396823
      ESP Fit Center  275 is at   0.609426  3.355062 -0.339701
      ESP Fit Center  276 is at  -0.093104  2.517819 -0.339701
      ESP Fit Center  277 is at   0.609426  3.355062 -1.377999
      ESP Fit Center  278 is at  -0.093104  2.517819 -1.377999
      ESP Fit Center  279 is at  -0.093104  1.424877 -1.377999
      ESP Fit Center  280 is at   2.395792  1.971348 -2.217999
      ESP Fit Center  281 is at   1.713461  2.910497 -2.217999
      ESP Fit Center  282 is at   0.609426  2.551774 -2.217999
      ESP Fit Center  283 is at   0.609426  1.390922 -2.217999
      ESP Fit Center  284 is at   1.713461  1.032199 -2.217999
      ESP Fit Center  285 is at   1.408313  1.971348 -2.538850
      ESP Fit Center  286 is at   3.691094  1.560059  2.382771
      ESP Fit Center  287 is at   4.754109  1.560059  2.140145
      ESP Fit Center  288 is at   2.628079  1.560059  2.140145
      ESP Fit Center  289 is at   3.159586  0.639461  2.140145
      ESP Fit Center  290 is at   4.222602  0.639461  2.140145
      ESP Fit Center  291 is at   5.606581  1.560059  1.460321
      ESP Fit Center  292 is at   3.418492 -0.335931  1.460321
      ESP Fit Center  293 is at   4.486816 -0.182329  1.460321
      ESP Fit Center  294 is at   5.302504  0.524468  1.460321
      ESP Fit Center  295 is at   6.079667  1.560059  0.477947
      ESP Fit Center  296 is at   4.222602 -0.768628  0.477947
      ESP Fit Center  297 is at   5.180345 -0.307403  0.477947
      ESP Fit Center  298 is at   5.843124  0.523696  0.477947
      ESP Fit Center  299 is at   6.079667  1.560059 -0.612405
      ESP Fit Center  300 is at   4.222602 -0.768628 -0.612405
      ESP Fit Center  301 is at   5.180345 -0.307403 -0.612405
      ESP Fit Center  302 is at   5.843124  0.523696 -0.612405
      ESP Fit Center  303 is at   5.606581  1.560059 -1.594779
      ESP Fit Center  304 is at   5.302504  2.595650 -1.594779
      ESP Fit Center  305 is at   3.418492 -0.335931 -1.594779
      ESP Fit Center  306 is at   4.486816 -0.182329 -1.594779
      ESP Fit Center  307 is at   5.302504  0.524468 -1.594779
      ESP Fit Center  308 is at   4.754109  1.560059 -2.274603
      ESP Fit Center  309 is at   3.159586  2.480657 -2.274603
      ESP Fit Center  310 is at   2.628079  1.560059 -2.274603
      ESP Fit Center  311 is at   3.159586  0.639461 -2.274603
      ESP Fit Center  312 is at   4.222602  0.639461 -2.274603
      ESP Fit Center  313 is at   3.691094  1.560059 -2.517229
      ESP Fit Center  314 is at   4.475777  2.428666  2.143502
      ESP Fit Center  315 is at   3.401102  3.593124  2.916680
      ESP Fit Center  316 is at   4.388581  3.593124  2.595829
      ESP Fit Center  317 is at   3.706250  4.532273  2.595829
      ESP Fit Center  318 is at   2.602215  4.173550  2.595829
      ESP Fit Center  319 is at   2.602215  3.012698  2.595829
      ESP Fit Center  320 is at   3.706250  2.653975  2.595829
      ESP Fit Center  321 is at   2.602215  4.976838  1.755829
      ESP Fit Center  322 is at   1.899685  4.139595  1.755829
      ESP Fit Center  323 is at   1.899685  4.139595  0.717531
      ESP Fit Center  324 is at   5.018143  3.414269  2.233220
      ESP Fit Center  325 is at   6.005622  3.414269  1.912369
      ESP Fit Center  326 is at   5.323291  2.475120  1.912369
      ESP Fit Center  327 is at   6.615918  3.414269  1.072369
      ESP Fit Center  328 is at   6.242110  2.387239  1.072369
      ESP Fit Center  329 is at   6.242110  2.387239  0.034071
      ESP Fit Center  330 is at   6.005622  3.414269 -0.805929
      ESP Fit Center  331 is at   3.048724  5.190210 -2.637523
      ESP Fit Center  332 is at   1.715451  4.749976  0.288985
      ESP Fit Center  333 is at   1.715451  3.589124  0.288985
      ESP Fit Center  334 is at   1.012921  4.716021 -0.551015
      ESP Fit Center  335 is at   1.012921  3.623079 -0.551015
      ESP Fit Center  336 is at   1.012921  4.716021 -1.589313
      ESP Fit Center  337 is at   1.012921  3.623079 -1.589313
      ESP Fit Center  338 is at   1.715451  4.749976 -2.429313
      ESP Fit Center  339 is at   1.715451  3.589124 -2.429313
      ESP Fit Center  340 is at   2.514338  4.169550 -2.750164
      ESP Fit Center  341 is at   5.370628  3.017539 -1.202210
      ESP Fit Center  342 is at   5.744436  4.044569 -2.240508
      ESP Fit Center  343 is at   3.347774  2.660855 -2.240508
      ESP Fit Center  344 is at   4.424112  2.471068 -2.240508
      ESP Fit Center  345 is at   5.370628  3.017539 -2.240508
      ESP Fit Center  346 is at   5.134140  4.044569 -3.080508
      ESP Fit Center  347 is at   4.451809  4.983718 -3.080508
      ESP Fit Center  348 is at   3.347774  4.624995 -3.080508
      ESP Fit Center  349 is at   3.347774  3.464143 -3.080508
      ESP Fit Center  350 is at   4.451809  3.105420 -3.080508
      ESP Fit Center  351 is at   4.146661  4.044569 -3.401359
      ESP Fit Center  352 is at   3.754674  6.072939  2.012931
      ESP Fit Center  353 is at   3.223166  6.993537  1.770305
      ESP Fit Center  354 is at   2.691659  6.072939  1.770305
      ESP Fit Center  355 is at   4.286182  5.152341  1.770305
      ESP Fit Center  356 is at   3.482072  7.968929  1.090481
      ESP Fit Center  357 is at   2.500297  7.520568  1.090481
      ESP Fit Center  358 is at   1.916778  6.612594  1.090481
      ESP Fit Center  359 is at   1.916778  5.533284  1.090481
      ESP Fit Center  360 is at   4.286182  8.401626  0.108107
      ESP Fit Center  361 is at   3.223166  8.401626  0.108107
      ESP Fit Center  362 is at   2.265423  7.940401  0.108107
      ESP Fit Center  363 is at   1.602644  7.109302  0.108107
      ESP Fit Center  364 is at   1.366101  6.072939  0.108107
      ESP Fit Center  365 is at   1.602644  5.036576  0.108107
      ESP Fit Center  366 is at   4.286182  8.401626 -0.982245
      ESP Fit Center  367 is at   3.223166  8.401626 -0.982245
      ESP Fit Center  368 is at   2.265423  7.940401 -0.982245
      ESP Fit Center  369 is at   1.602644  7.109302 -0.982245
      ESP Fit Center  370 is at   1.366101  6.072939 -0.982245
      ESP Fit Center  371 is at   3.482072  7.968929 -1.964619
      ESP Fit Center  372 is at   2.500297  7.520568 -1.964619
      ESP Fit Center  373 is at   1.916778  6.612594 -1.964619
      ESP Fit Center  374 is at   1.916778  5.533284 -1.964619
      ESP Fit Center  375 is at   4.817689  6.072939 -2.644443
      ESP Fit Center  376 is at   4.286182  6.993537 -2.644443
      ESP Fit Center  377 is at   3.223166  6.993537 -2.644443
      ESP Fit Center  378 is at   2.691659  6.072939 -2.644443
      ESP Fit Center  379 is at   3.754674  6.072939 -2.887069
      ESP Fit Center  380 is at   5.995226  8.899624 -0.435793
      ESP Fit Center  381 is at   4.918888  8.709837 -0.435793
      ESP Fit Center  382 is at   6.941742  8.353153 -1.474091
      ESP Fit Center  383 is at   5.995226  8.899624 -1.474091
      ESP Fit Center  384 is at   4.918888  8.709837 -1.474091
      ESP Fit Center  385 is at   6.705254  7.326123 -2.314091
      ESP Fit Center  386 is at   6.022923  8.265272 -2.314091
      ESP Fit Center  387 is at   4.918888  7.906549 -2.314091
      ESP Fit Center  388 is at   5.717775  7.326123 -2.634942
      ESP Fit Center  389 is at   6.979863  5.616349 -2.617649
      ESP Fit Center  390 is at   6.297532  6.555498 -2.617649
      ESP Fit Center  391 is at   5.193497  6.196775 -2.617649
      ESP Fit Center  392 is at   5.193497  5.035923 -2.617649
      ESP Fit Center  393 is at   6.297532  4.677200 -2.617649
      ESP Fit Center  394 is at   5.992384  5.616349 -2.938500
      ESP Fit Center  395 is at   4.549566  5.724502  1.868115
      ESP Fit Center  396 is at   5.837025  6.939262  3.200864
      ESP Fit Center  397 is at   6.824504  6.939262  2.880013
      ESP Fit Center  398 is at   6.142173  7.878411  2.880013
      ESP Fit Center  399 is at   5.038138  7.519688  2.880013
      ESP Fit Center  400 is at   5.038138  6.358836  2.880013
      ESP Fit Center  401 is at   6.114476  8.512763  2.040013
      ESP Fit Center  402 is at   5.038138  8.322976  2.040013
      ESP Fit Center  403 is at   4.335608  7.485733  2.040013
      ESP Fit Center  404 is at   4.335608  6.392791  2.040013
      ESP Fit Center  405 is at   6.114476  8.512763  1.001715
      ESP Fit Center  406 is at   5.038138  8.322976  1.001715
      ESP Fit Center  407 is at   6.205304  5.239970  2.940881
      ESP Fit Center  408 is at   7.192783  5.239970  2.620030
      ESP Fit Center  409 is at   5.406417  4.659544  2.620030
      ESP Fit Center  410 is at   6.510452  4.300821  2.620030
      ESP Fit Center  411 is at   4.703887  4.693499  1.780030
      ESP Fit Center  412 is at   6.482755  3.666469  1.780030
      ESP Fit Center  413 is at   8.082034  6.686610  3.193434
      ESP Fit Center  414 is at   9.145049  6.686610  2.950808
      ESP Fit Center  415 is at   8.613542  7.607208  2.950808
      ESP Fit Center  416 is at   7.550526  7.607208  2.950808
      ESP Fit Center  417 is at   7.019019  6.686610  2.950808
      ESP Fit Center  418 is at   7.550526  5.766012  2.950808
      ESP Fit Center  419 is at   8.613542  5.766012  2.950808
      ESP Fit Center  420 is at   9.997521  6.686610  2.270984
      ESP Fit Center  421 is at   9.693444  7.722201  2.270984
      ESP Fit Center  422 is at   8.877756  8.428998  2.270984
      ESP Fit Center  423 is at   7.809432  8.582600  2.270984
      ESP Fit Center  424 is at   6.827657  8.134239  2.270984
      ESP Fit Center  425 is at  10.234064  7.722973  1.288610
      ESP Fit Center  426 is at   9.571285  8.554072  1.288610
      ESP Fit Center  427 is at   8.613542  9.015297  1.288610
      ESP Fit Center  428 is at   7.550526  9.015297  1.288610
      ESP Fit Center  429 is at   6.592783  8.554072  1.288610
      ESP Fit Center  430 is at  10.234064  7.722973  0.198258
      ESP Fit Center  431 is at   9.571285  8.554072  0.198258
      ESP Fit Center  432 is at   8.613542  9.015297  0.198258
      ESP Fit Center  433 is at   7.550526  9.015297  0.198258
      ESP Fit Center  434 is at   6.592783  8.554072  0.198258
      ESP Fit Center  435 is at   9.997521  6.686610 -0.784116
      ESP Fit Center  436 is at   9.693444  7.722201 -0.784116
      ESP Fit Center  437 is at   8.877756  8.428998 -0.784116
      ESP Fit Center  438 is at   7.809432  8.582600 -0.784116
      ESP Fit Center  439 is at   9.145049  6.686610 -1.463940
      ESP Fit Center  440 is at   8.613542  7.607208 -1.463940
      ESP Fit Center  441 is at   7.550526  7.607208 -1.463940
      ESP Fit Center  442 is at   8.082034  6.686610 -1.706566
      ESP Fit Center  443 is at   9.957272  5.267108  2.451979
      ESP Fit Center  444 is at  10.944751  5.267108  2.131128
      ESP Fit Center  445 is at  10.262420  6.206257  2.131128
      ESP Fit Center  446 is at  10.262420  4.327959  2.131128
      ESP Fit Center  447 is at  11.555047  5.267108  1.291128
      ESP Fit Center  448 is at  11.181239  6.294138  1.291128
      ESP Fit Center  449 is at  11.181239  4.240078  1.291128
      ESP Fit Center  450 is at  11.555047  5.267108  0.252830
      ESP Fit Center  451 is at  11.181239  6.294138  0.252830
      ESP Fit Center  452 is at  11.181239  4.240078  0.252830
      ESP Fit Center  453 is at  10.944751  5.267108 -0.587170
      ESP Fit Center  454 is at  10.262420  6.206257 -0.587170
      ESP Fit Center  455 is at   8.555483  4.403415  3.072494
      ESP Fit Center  456 is at   9.542962  4.403415  2.751643
      ESP Fit Center  457 is at   8.860631  5.342564  2.751643
      ESP Fit Center  458 is at   7.756596  4.983841  2.751643
      ESP Fit Center  459 is at   7.756596  3.822989  2.751643
      ESP Fit Center  460 is at   8.860631  3.464266  2.751643
      ESP Fit Center  461 is at   7.054066  3.856944  1.911643
      ESP Fit Center  462 is at   7.756596  3.019701  1.911643
      ESP Fit Center  463 is at   8.832934  2.829914  1.911643
      ESP Fit Center  464 is at   9.779450  3.376385  1.911643
      ESP Fit Center  465 is at   7.756596  3.019701  0.873345
      ESP Fit Center  466 is at   8.832934  2.829914  0.873345
      ESP Fit Center  467 is at  10.850061  4.352205 -0.776155
      ESP Fit Center  468 is at  10.609519  5.328124 -0.776155
      ESP Fit Center  469 is at   8.005391  2.388671 -0.776155
      ESP Fit Center  470 is at   8.225061  3.442878 -2.594808
      ESP Fit Center  471 is at   9.275061  3.442878 -2.594808
      ESP Fit Center  472 is at  10.337397  3.433388  0.561898
      ESP Fit Center  473 is at   9.655066  2.494239  0.561898
      ESP Fit Center  474 is at  10.947693  3.433388 -0.278102
      ESP Fit Center  475 is at   8.551031  2.049674 -0.278102
      ESP Fit Center  476 is at   9.627369  1.859887 -0.278102
      ESP Fit Center  477 is at  10.573885  2.406358 -0.278102
      ESP Fit Center  478 is at  10.947693  3.433388 -1.316400
      ESP Fit Center  479 is at   8.551031  2.049674 -1.316400
      ESP Fit Center  480 is at   9.627369  1.859887 -1.316400
      ESP Fit Center  481 is at  10.573885  2.406358 -1.316400
      ESP Fit Center  482 is at  10.337397  3.433388 -2.156400
      ESP Fit Center  483 is at   9.655066  2.494239 -2.156400
      ESP Fit Center  484 is at   6.911550  3.488465  0.387247
      ESP Fit Center  485 is at   6.911550  2.685177 -0.452753
      ESP Fit Center  486 is at   6.209020  3.522420 -1.491051
      ESP Fit Center  487 is at   6.911550  2.685177 -1.491051
      ESP Fit Center  488 is at   7.987888  2.495390 -1.491051
      ESP Fit Center  489 is at   6.911550  4.649317 -2.331051
      ESP Fit Center  490 is at   6.911550  3.488465 -2.331051
      ESP Fit Center  491 is at   8.015585  3.129742 -2.331051
      ESP Fit Center  492 is at   7.710437  4.068891 -2.651902
      ESP Fit Center  493 is at  10.308328  6.027544 -1.073013
      ESP Fit Center  494 is at  10.682136  5.000514 -2.111311
      ESP Fit Center  495 is at  10.308328  6.027544 -2.111311
      ESP Fit Center  496 is at   9.361812  6.574015 -2.111311
      ESP Fit Center  497 is at   8.285474  6.384228 -2.111311
      ESP Fit Center  498 is at   7.582944  5.546985 -2.111311
      ESP Fit Center  499 is at  10.071840  5.000514 -2.951311
      ESP Fit Center  500 is at   9.389509  5.939663 -2.951311
      ESP Fit Center  501 is at   8.285474  5.580940 -2.951311
      ESP Fit Center  502 is at   8.285474  4.420088 -2.951311
      ESP Fit Center  503 is at   9.389509  4.061365 -2.951311
      ESP Fit Center  504 is at   9.084361  5.000514 -3.272162
      ESP Fit Center  505 is at  -2.811252 -6.541254  4.019582
      ESP Fit Center  506 is at  -3.852573 -6.541254  3.781907
      ESP Fit Center  507 is at  -5.151079 -6.541254  2.153632
      ESP Fit Center  508 is at  -5.151079 -6.541254  1.085532
      ESP Fit Center  509 is at  -4.919363 -7.556467  1.085532
      ESP Fit Center  510 is at  -2.290592 -8.822417  1.085532
      ESP Fit Center  511 is at  -3.078291 -4.683957  0.123206
      ESP Fit Center  512 is at  -2.031769 -8.248083  0.123206
      ESP Fit Center  513 is at  -3.310476 -5.632815  3.892151
      ESP Fit Center  514 is at  -2.830476 -4.801431  3.634920
      ESP Fit Center  515 is at  -3.790476 -4.801431  3.634920
      ESP Fit Center  516 is at  -4.270476 -5.632815  3.634920
      ESP Fit Center  517 is at  -2.796652 -4.051428  2.932151
      ESP Fit Center  518 is at  -3.824300 -4.051428  2.932151
      ESP Fit Center  519 is at  -4.655684 -4.655464  2.932151
      ESP Fit Center  520 is at  -4.973245 -5.632815  2.932151
      ESP Fit Center  521 is at  -3.310476 -3.712815  1.972151
      ESP Fit Center  522 is at  -4.270476 -3.970046  1.972151
      ESP Fit Center  523 is at  -4.973245 -4.672815  1.972151
      ESP Fit Center  524 is at  -5.230476 -5.632815  1.972151
      ESP Fit Center  525 is at  -3.824300 -4.051428  1.012151
      ESP Fit Center  526 is at  -4.655684 -4.655464  1.012151
      ESP Fit Center  527 is at  -4.973245 -5.632815  1.012151
      ESP Fit Center  528 is at  -4.680226 -7.613997  0.550287
      ESP Fit Center  529 is at  -2.503633 -5.072610 -0.409713
      ESP Fit Center  530 is at  -3.531281 -5.072610 -0.409713
      ESP Fit Center  531 is at  -4.362665 -5.676646 -0.409713
      ESP Fit Center  532 is at  -4.680226 -6.653997 -0.409713
      ESP Fit Center  533 is at  -4.362665 -7.631348 -0.409713
      ESP Fit Center  534 is at  -3.531281 -8.235384 -0.409713
      ESP Fit Center  535 is at  -2.503633 -8.235384 -0.409713
      ESP Fit Center  536 is at  -1.672249 -7.631348 -0.409713
      ESP Fit Center  537 is at  -2.057457 -6.653997 -1.112482
      ESP Fit Center  538 is at  -2.537457 -5.822613 -1.112482
      ESP Fit Center  539 is at  -3.497457 -5.822613 -1.112482
      ESP Fit Center  540 is at  -3.977457 -6.653997 -1.112482
      ESP Fit Center  541 is at  -3.497457 -7.485381 -1.112482
      ESP Fit Center  542 is at  -2.537457 -7.485381 -1.112482
      ESP Fit Center  543 is at  -3.017457 -6.653997 -1.369713
      ESP Fit Center  544 is at  -3.239585 -7.399660  4.068440
      ESP Fit Center  545 is at  -4.199585 -7.399660  3.811209
      ESP Fit Center  546 is at  -3.719585 -8.231044  3.811209
      ESP Fit Center  547 is at  -2.759585 -8.231044  3.811209
      ESP Fit Center  548 is at  -4.902354 -7.399660  3.108440
      ESP Fit Center  549 is at  -4.584793 -8.377011  3.108440
      ESP Fit Center  550 is at  -3.753409 -8.981047  3.108440
      ESP Fit Center  551 is at  -2.725761 -8.981047  3.108440
      ESP Fit Center  552 is at  -5.159585 -7.399660  2.148440
      ESP Fit Center  553 is at  -4.902354 -8.359660  2.148440
      ESP Fit Center  554 is at  -4.199585 -9.062429  2.148440
      ESP Fit Center  555 is at  -3.239585 -9.319660  2.148440
      ESP Fit Center  556 is at  -2.279585 -9.062429  2.148440
      ESP Fit Center  557 is at  -4.584793 -8.377011  1.188440
      ESP Fit Center  558 is at  -3.753409 -8.981047  1.188440
      ESP Fit Center  559 is at  -2.725761 -8.981047  1.188440
      ESP Fit Center  560 is at  -1.581469 -8.315683  3.364970
      ESP Fit Center  561 is at  -0.534947 -8.165215  3.364970
      ESP Fit Center  562 is at  -1.103835 -6.354796  4.866320
      ESP Fit Center  563 is at  -0.143835 -6.354796  4.609089
      ESP Fit Center  564 is at  -0.623835 -5.523412  4.609089
      ESP Fit Center  565 is at  -1.583835 -5.523412  4.609089
      ESP Fit Center  566 is at  -2.063835 -6.354796  4.609089
      ESP Fit Center  567 is at  -1.583835 -7.186180  4.609089
      ESP Fit Center  568 is at  -0.623835 -7.186180  4.609089
      ESP Fit Center  569 is at   0.558934 -6.354796  3.906320
      ESP Fit Center  570 is at  -0.590011 -4.773409  3.906320
      ESP Fit Center  571 is at  -1.617659 -4.773409  3.906320
      ESP Fit Center  572 is at  -2.449043 -5.377445  3.906320
      ESP Fit Center  573 is at  -2.449043 -7.332147  3.906320
      ESP Fit Center  574 is at  -1.617659 -7.936183  3.906320
      ESP Fit Center  575 is at  -0.590011 -7.936183  3.906320
      ESP Fit Center  576 is at   0.241373 -7.332147  3.906320
      ESP Fit Center  577 is at  -0.332561 -8.211355  3.189907
      ESP Fit Center  578 is at   0.850208 -7.379971  2.487138
      ESP Fit Center  579 is at  -1.326385 -8.961358  2.487138
      ESP Fit Center  580 is at  -0.298737 -8.961358  2.487138
      ESP Fit Center  581 is at   0.532647 -8.357322  2.487138
      ESP Fit Center  582 is at  -1.772561 -9.042740  1.527138
      ESP Fit Center  583 is at  -0.812561 -9.299971  1.527138
      ESP Fit Center  584 is at   0.147439 -9.042740  1.527138
      ESP Fit Center  585 is at   0.850208 -8.339971  1.527138
      ESP Fit Center  586 is at  -1.326385 -8.961358  0.567138
      ESP Fit Center  587 is at  -0.298737 -8.961358  0.567138
      ESP Fit Center  588 is at   0.532647 -8.357322  0.567138
      ESP Fit Center  589 is at   0.147439 -7.379971 -0.135631
      ESP Fit Center  590 is at  -1.292561 -8.211355 -0.135631
      ESP Fit Center  591 is at  -0.332561 -8.211355 -0.135631
      ESP Fit Center  592 is at  -0.812561 -7.379971 -0.392862
      ESP Fit Center  593 is at  -1.286007 -4.497336 -0.854655
      ESP Fit Center  594 is at  -1.771957 -5.339026 -0.854655
      ESP Fit Center  595 is at  -1.286007 -6.180716 -0.854655
      ESP Fit Center  596 is at  -0.314107 -6.180716 -0.854655
      ESP Fit Center  597 is at  -0.800057 -5.339026 -1.076485
      ESP Fit Center  598 is at  -0.630387 -3.756367  2.813988
      ESP Fit Center  599 is at   2.938218 -5.174452  1.851662
      ESP Fit Center  600 is at   0.077731 -6.076262 -0.844713
      ESP Fit Center  601 is at   2.798255 -6.041461  1.852038
      ESP Fit Center  602 is at   1.649310 -7.622848  1.852038
      ESP Fit Center  603 is at   2.480694 -7.018812  1.852038
      ESP Fit Center  604 is at   3.055486 -6.041461  0.892038
      ESP Fit Center  605 is at   1.135486 -7.961461  0.892038
      ESP Fit Center  606 is at   2.095486 -7.704230  0.892038
      ESP Fit Center  607 is at   2.798255 -7.001461  0.892038
      ESP Fit Center  608 is at   2.798255 -6.041461 -0.067962
      ESP Fit Center  609 is at   0.621662 -7.622848 -0.067962
      ESP Fit Center  610 is at   1.649310 -7.622848 -0.067962
      ESP Fit Center  611 is at   2.480694 -7.018812 -0.067962
      ESP Fit Center  612 is at   2.095486 -6.041461 -0.770731
      ESP Fit Center  613 is at   0.655486 -6.872845 -0.770731
      ESP Fit Center  614 is at   1.615486 -6.872845 -0.770731
      ESP Fit Center  615 is at   1.135486 -6.041461 -1.027962
      ESP Fit Center  616 is at   0.867406 -5.103035  4.303971
      ESP Fit Center  617 is at   1.827406 -5.103035  4.046740
      ESP Fit Center  618 is at   1.347406 -4.271651  4.046740
      ESP Fit Center  619 is at   0.387406 -4.271651  4.046740
      ESP Fit Center  620 is at  -0.092594 -5.103035  4.046740
      ESP Fit Center  621 is at   1.347406 -5.934419  4.046740
      ESP Fit Center  622 is at   2.530175 -5.103035  3.343971
      ESP Fit Center  623 is at   2.212614 -4.125684  3.343971
      ESP Fit Center  624 is at   1.381230 -3.521648  3.343971
      ESP Fit Center  625 is at  -0.477802 -4.125684  3.343971
      ESP Fit Center  626 is at   1.381230 -6.684422  3.343971
      ESP Fit Center  627 is at   2.212614 -6.080386  3.343971
      ESP Fit Center  628 is at   2.787406 -5.103035  2.383971
      ESP Fit Center  629 is at   1.827604 -5.613834 -0.892323
      ESP Fit Center  630 is at   3.103392 -3.907518  2.217673
      ESP Fit Center  631 is at   3.806161 -3.907518  1.514904
      ESP Fit Center  632 is at   3.488600 -2.930167  1.514904
      ESP Fit Center  633 is at   3.488600 -4.884869  1.514904
      ESP Fit Center  634 is at   4.063392 -3.907518  0.554904
      ESP Fit Center  635 is at   3.806161 -2.947518  0.554904
      ESP Fit Center  636 is at   3.103392 -2.244749  0.554904
      ESP Fit Center  637 is at   3.103392 -5.570287  0.554904
      ESP Fit Center  638 is at   3.806161 -4.867518  0.554904
      ESP Fit Center  639 is at   3.806161 -3.907518 -0.405096
      ESP Fit Center  640 is at   3.488600 -2.930167 -0.405096
      ESP Fit Center  641 is at   2.657216 -2.326131 -0.405096
      ESP Fit Center  642 is at   2.657216 -5.488905 -0.405096
      ESP Fit Center  643 is at   3.488600 -4.884869 -0.405096
      ESP Fit Center  644 is at   3.103392 -3.907518 -1.107865
      ESP Fit Center  645 is at   2.623392 -3.076134 -1.107865
      ESP Fit Center  646 is at   2.623392 -4.738902 -1.107865
      ESP Fit Center  647 is at   2.010660 -2.937511 -1.387106
      ESP Fit Center  648 is at  -0.997317 -3.914862 -1.387106
      ESP Fit Center  649 is at  -0.679756 -4.892213 -1.387106
      ESP Fit Center  650 is at   0.151628 -5.496249 -1.387106
      ESP Fit Center  651 is at   1.179276 -5.496249 -1.387106
      ESP Fit Center  652 is at   2.010660 -4.892213 -1.387106
      ESP Fit Center  653 is at   1.625452 -3.914862 -2.089875
      ESP Fit Center  654 is at   1.145452 -3.083478 -2.089875
      ESP Fit Center  655 is at  -0.294548 -3.914862 -2.089875
      ESP Fit Center  656 is at   0.185452 -4.746246 -2.089875
      ESP Fit Center  657 is at   1.145452 -4.746246 -2.089875
      ESP Fit Center  658 is at   0.665452 -3.914862 -2.347106
      ESP Fit Center  659 is at   0.682019 -2.719417  3.530020
      ESP Fit Center  660 is at   1.653919 -2.719417  3.308190
      ESP Fit Center  661 is at   1.167969 -1.877727  3.308190
      ESP Fit Center  662 is at  -0.289881 -2.719417  3.308190
      ESP Fit Center  663 is at   2.433322 -2.719417  2.686637
      ESP Fit Center  664 is at   2.098853 -1.690027  2.686637
      ESP Fit Center  665 is at   1.223201 -1.053829  2.686637
      ESP Fit Center  666 is at  -1.130082 -3.095599  3.137500
      ESP Fit Center  667 is at  -2.409810 -2.722431  2.471551
      ESP Fit Center  668 is at  -2.949249 -2.193789  1.509225
      ESP Fit Center  669 is at  -0.923014 -1.622778  3.776084
      ESP Fit Center  670 is at   0.036986 -1.622778  3.518853
      ESP Fit Center  671 is at  -0.443014 -0.791394  3.518853
      ESP Fit Center  672 is at  -1.403014 -0.791394  3.518853
      ESP Fit Center  673 is at  -1.883014 -1.622778  3.518853
      ESP Fit Center  674 is at  -1.403014 -2.454162  3.518853
      ESP Fit Center  675 is at  -0.443014 -2.454162  3.518853
      ESP Fit Center  676 is at   0.422194 -0.645427  2.816084
      ESP Fit Center  677 is at  -0.409190 -0.041391  2.816084
      ESP Fit Center  678 is at  -1.436838 -0.041391  2.816084
      ESP Fit Center  679 is at  -2.268222 -0.645427  2.816084
      ESP Fit Center  680 is at  -2.585783 -1.622778  2.816084
      ESP Fit Center  681 is at  -2.268222 -2.600129  2.816084
      ESP Fit Center  682 is at  -1.883014  0.039991  1.856084
      ESP Fit Center  683 is at  -2.585783 -0.662778  1.856084
      ESP Fit Center  684 is at  -2.843014 -1.622778  1.856084
      ESP Fit Center  685 is at  -2.990490 -3.007202  1.778479
      ESP Fit Center  686 is at  -3.247721 -3.007202  0.818479
      ESP Fit Center  687 is at  -2.990490 -3.967202  0.818479
      ESP Fit Center  688 is at  -2.990490 -3.007202 -0.141521
      ESP Fit Center  689 is at  -2.672929 -3.984553 -0.141521
      ESP Fit Center  690 is at  -2.287721 -3.007202 -0.844290
      ESP Fit Center  691 is at  -1.807721 -3.838586 -0.844290
      ESP Fit Center  692 is at  -1.836066 -2.678446 -1.730349
      ESP Fit Center  693 is at  -1.127948 -0.358551 -2.396298
      ESP Fit Center  694 is at  -2.162056  0.543431  0.460364
      ESP Fit Center  695 is at  -2.993440 -0.060605  0.460364
      ESP Fit Center  696 is at  -3.311001 -1.037956  0.460364
      ESP Fit Center  697 is at  -2.993440 -2.015307  0.460364
      ESP Fit Center  698 is at  -2.608232  0.624813 -0.499636
      ESP Fit Center  699 is at  -3.311001 -0.077956 -0.499636
      ESP Fit Center  700 is at  -3.568232 -1.037956 -0.499636
      ESP Fit Center  701 is at  -3.311001 -1.997956 -0.499636
      ESP Fit Center  702 is at  -2.162056  0.543431 -1.459636
      ESP Fit Center  703 is at  -2.993440 -0.060605 -1.459636
      ESP Fit Center  704 is at  -3.311001 -1.037956 -1.459636
      ESP Fit Center  705 is at  -2.993440 -2.015307 -1.459636
      ESP Fit Center  706 is at  -2.162056 -2.619343 -1.459636
      ESP Fit Center  707 is at  -2.128232 -0.206572 -2.162405
      ESP Fit Center  708 is at  -2.608232 -1.037956 -2.162405
      ESP Fit Center  709 is at  -2.128232 -1.869340 -2.162405
      ESP Fit Center  710 is at  -1.648232 -1.037956 -2.419636
      ESP Fit Center  711 is at  -1.485344 -2.733689 -2.061680
      ESP Fit Center  712 is at  -0.653960 -3.337725 -2.061680
      ESP Fit Center  713 is at   1.205072 -2.733689 -2.061680
      ESP Fit Center  714 is at   0.819864 -1.756338 -2.764449
      ESP Fit Center  715 is at   0.339864 -0.924954 -2.764449
      ESP Fit Center  716 is at  -0.620136 -0.924954 -2.764449
      ESP Fit Center  717 is at  -1.100136 -1.756338 -2.764449
      ESP Fit Center  718 is at  -0.620136 -2.587722 -2.764449
      ESP Fit Center  719 is at   0.339864 -2.587722 -2.764449
      ESP Fit Center  720 is at  -0.140136 -1.756338 -3.021680
      ESP Fit Center  721 is at  -0.485950  0.841690  2.018170
      ESP Fit Center  722 is at  -0.541182  1.665588  1.396617
      ESP Fit Center  723 is at  -1.416834  1.029390  1.396617
      ESP Fit Center  724 is at  -0.774400  2.041924  0.498447
      ESP Fit Center  725 is at  -1.634627  1.448153  0.498447
      ESP Fit Center  726 is at  -0.774400  2.041924 -0.498447
      ESP Fit Center  727 is at  -1.634627  1.448153 -0.498447
      ESP Fit Center  728 is at  -0.541182  1.665588 -1.396617
      ESP Fit Center  729 is at  -1.416834  1.029390 -1.396617
      ESP Fit Center  730 is at  -0.485950  0.841690 -2.018170
      ESP Fit Center  731 is at   0.000000  0.000000 -2.240000
      ESP Fit Center  732 is at   2.760702 -2.174592 -0.900472
      ESP Fit Center  733 is at   3.463471 -1.471823 -0.900472
      ESP Fit Center  734 is at   2.314526 -2.093210 -1.860472
      ESP Fit Center  735 is at   3.145910 -1.489174 -1.860472
      ESP Fit Center  736 is at   2.760702 -0.511823 -2.563241
      ESP Fit Center  737 is at   2.280702  0.319561 -2.563241
      ESP Fit Center  738 is at   1.320702  0.319561 -2.563241
      ESP Fit Center  739 is at   0.840702 -0.511823 -2.563241
      ESP Fit Center  740 is at   1.320702 -1.343207 -2.563241
      ESP Fit Center  741 is at   2.280702 -1.343207 -2.563241
      ESP Fit Center  742 is at   1.800702 -0.511823 -2.820472
      ESP Fit Center  743 is at   1.821597 -0.525982  2.794221
      ESP Fit Center  744 is at   2.781597 -0.525982  2.536990
      ESP Fit Center  745 is at   2.301597  0.305402  2.536990
      ESP Fit Center  746 is at   1.341597  0.305402  2.536990
      ESP Fit Center  747 is at   0.861597 -0.525982  2.536990
      ESP Fit Center  748 is at   2.301597 -1.357366  2.536990
      ESP Fit Center  749 is at   3.484366 -0.525982  1.834221
      ESP Fit Center  750 is at   3.166805 -1.503333  1.834221
      ESP Fit Center  751 is at   3.484366 -1.485982  0.874221
      ESP Fit Center  752 is at   1.503963  1.949054  2.835972
      ESP Fit Center  753 is at   2.463963  1.949054  2.578741
      ESP Fit Center  754 is at   1.983963  2.780438  2.578741
      ESP Fit Center  755 is at   1.023963  2.780438  2.578741
      ESP Fit Center  756 is at   0.543963  1.949054  2.578741
      ESP Fit Center  757 is at   1.023963  1.117670  2.578741
      ESP Fit Center  758 is at   1.983963  1.117670  2.578741
      ESP Fit Center  759 is at   0.990139  3.530441  1.875972
      ESP Fit Center  760 is at   0.158755  2.926405  1.875972
      ESP Fit Center  761 is at  -0.158806  1.949054  1.875972
      ESP Fit Center  762 is at   1.503963  3.869054  0.915972
      ESP Fit Center  763 is at   0.543963  3.611823  0.915972
      ESP Fit Center  764 is at  -0.158806  2.909054  0.915972
      ESP Fit Center  765 is at   0.448313  3.634117 -0.858850
      ESP Fit Center  766 is at  -0.254456  2.931348 -0.858850
      ESP Fit Center  767 is at   0.063105  2.948699 -1.818850
      ESP Fit Center  768 is at  -0.254456  1.971348 -1.818850
      ESP Fit Center  769 is at   2.368313  1.971348 -2.521619
      ESP Fit Center  770 is at   1.888313  2.802732 -2.521619
      ESP Fit Center  771 is at   0.928313  2.802732 -2.521619
      ESP Fit Center  772 is at   0.448313  1.971348 -2.521619
      ESP Fit Center  773 is at   0.928313  1.139964 -2.521619
      ESP Fit Center  774 is at   1.888313  1.139964 -2.521619
      ESP Fit Center  775 is at   1.408313  1.971348 -2.778850
      ESP Fit Center  776 is at   3.691094  1.560059  2.732771
      ESP Fit Center  777 is at   4.762608  1.560059  2.519634
      ESP Fit Center  778 is at   2.619580  1.560059  2.519634
      ESP Fit Center  779 is at   3.155337  0.632101  2.519634
      ESP Fit Center  780 is at   4.226851  0.632101  2.519634
      ESP Fit Center  781 is at   5.670993  1.560059  1.912670
      ESP Fit Center  782 is at   3.691094 -0.419840  1.912670
      ESP Fit Center  783 is at   4.681043 -0.154584  1.912670
      ESP Fit Center  784 is at   5.405737  0.570110  1.912670
      ESP Fit Center  785 is at   6.277957  1.560059  1.004285
      ESP Fit Center  786 is at   4.490479 -0.900194  1.004285
      ESP Fit Center  787 is at   5.422043 -0.362355  1.004285
      ESP Fit Center  788 is at   6.054311  0.507887  1.004285
      ESP Fit Center  789 is at   6.491094  1.560059 -0.067229
      ESP Fit Center  790 is at   3.949445 -1.227997 -0.067229
      ESP Fit Center  791 is at   4.939161 -0.946398 -0.067229
      ESP Fit Center  792 is at   5.760319 -0.326289 -0.067229
      ESP Fit Center  793 is at   6.302016  0.548582 -0.067229
      ESP Fit Center  794 is at   6.277957  1.560059 -1.138743
      ESP Fit Center  795 is at   6.054311  2.612231 -1.138743
      ESP Fit Center  796 is at   4.490479 -0.900194 -1.138743
      ESP Fit Center  797 is at   5.422043 -0.362355 -1.138743
      ESP Fit Center  798 is at   6.054311  0.507887 -1.138743
      ESP Fit Center  799 is at   5.670993  1.560059 -2.047128
      ESP Fit Center  800 is at   5.405737  2.550008 -2.047128
      ESP Fit Center  801 is at   3.691094 -0.419840 -2.047128
      ESP Fit Center  802 is at   4.681043 -0.154584 -2.047128
      ESP Fit Center  803 is at   5.405737  0.570110 -2.047128
      ESP Fit Center  804 is at   4.762608  1.560059 -2.654092
      ESP Fit Center  805 is at   3.155337  2.488017 -2.654092
      ESP Fit Center  806 is at   2.619580  1.560059 -2.654092
      ESP Fit Center  807 is at   3.155337  0.632101 -2.654092
      ESP Fit Center  808 is at   4.226851  0.632101 -2.654092
      ESP Fit Center  809 is at   3.691094  1.560059 -2.867229
      ESP Fit Center  810 is at   4.992098  3.337993  2.487174
      ESP Fit Center  811 is at   4.471437  2.436183  2.487174
      ESP Fit Center  812 is at   3.401102  3.593124  3.156680
      ESP Fit Center  813 is at   4.361102  3.593124  2.899449
      ESP Fit Center  814 is at   3.881102  4.424508  2.899449
      ESP Fit Center  815 is at   2.921102  4.424508  2.899449
      ESP Fit Center  816 is at   2.441102  3.593124  2.899449
      ESP Fit Center  817 is at   2.921102  2.761740  2.899449
      ESP Fit Center  818 is at   3.881102  2.761740  2.899449
      ESP Fit Center  819 is at   2.887278  5.174511  2.196680
      ESP Fit Center  820 is at   2.055894  4.570475  2.196680
      ESP Fit Center  821 is at   1.738333  3.593124  2.196680
      ESP Fit Center  822 is at   1.738333  4.553124  1.236680
      ESP Fit Center  823 is at   5.018143  3.414269  2.473220
      ESP Fit Center  824 is at   5.978143  3.414269  2.215989
      ESP Fit Center  825 is at   5.498143  2.582885  2.215989
      ESP Fit Center  826 is at   6.363351  2.436918  1.513220
      ESP Fit Center  827 is at   6.680912  2.454269  0.553220
      ESP Fit Center  828 is at   6.363351  2.436918 -0.406780
      ESP Fit Center  829 is at   1.554338  4.169550  0.592605
      ESP Fit Center  830 is at   0.851569  4.169550 -0.110164
      ESP Fit Center  831 is at   0.851569  5.129550 -1.070164
      ESP Fit Center  832 is at   0.594338  4.169550 -1.070164
      ESP Fit Center  833 is at   1.169130  5.146901 -2.030164
      ESP Fit Center  834 is at   0.851569  4.169550 -2.030164
      ESP Fit Center  835 is at   2.034338  5.000934 -2.732933
      ESP Fit Center  836 is at   1.554338  4.169550 -2.732933
      ESP Fit Center  837 is at   2.034338  3.338166 -2.732933
      ESP Fit Center  838 is at   2.514338  4.169550 -2.990164
      ESP Fit Center  839 is at   5.809430  3.084569 -1.721359
      ESP Fit Center  840 is at   5.809430  4.044569 -2.681359
      ESP Fit Center  841 is at   4.660485  2.463182 -2.681359
      ESP Fit Center  842 is at   5.491869  3.067218 -2.681359
      ESP Fit Center  843 is at   5.106661  4.044569 -3.384128
      ESP Fit Center  844 is at   4.626661  4.875953 -3.384128
      ESP Fit Center  845 is at   3.666661  4.875953 -3.384128
      ESP Fit Center  846 is at   3.186661  4.044569 -3.384128
      ESP Fit Center  847 is at   3.666661  3.213185 -3.384128
      ESP Fit Center  848 is at   4.626661  3.213185 -3.384128
      ESP Fit Center  849 is at   4.146661  4.044569 -3.641359
      ESP Fit Center  850 is at   3.754674  6.072939  2.362931
      ESP Fit Center  851 is at   3.218917  7.000897  2.149794
      ESP Fit Center  852 is at   2.683160  6.072939  2.149794
      ESP Fit Center  853 is at   4.290431  5.144981  2.149794
      ESP Fit Center  854 is at   3.754674  8.052838  1.542830
      ESP Fit Center  855 is at   2.764725  7.787582  1.542830
      ESP Fit Center  856 is at   2.040031  7.062888  1.542830
      ESP Fit Center  857 is at   1.774775  6.072939  1.542830
      ESP Fit Center  858 is at   2.040031  5.082990  1.542830
      ESP Fit Center  859 is at   4.554059  8.533192  0.634445
      ESP Fit Center  860 is at   3.484273  8.645631  0.634445
      ESP Fit Center  861 is at   2.461243  8.313228  0.634445
      ESP Fit Center  862 is at   1.661858  7.593459  0.634445
      ESP Fit Center  863 is at   1.224340  6.610778  0.634445
      ESP Fit Center  864 is at   1.224340  5.535100  0.634445
      ESP Fit Center  865 is at   1.661858  4.552419  0.634445
      ESP Fit Center  866 is at   4.013025  8.860995 -0.437069
      ESP Fit Center  867 is at   2.988418  8.766051 -0.437069
      ESP Fit Center  868 is at   2.067297  8.307387 -0.437069
      ESP Fit Center  869 is at   1.374066  7.546949 -0.437069
      ESP Fit Center  870 is at   1.002349  6.587438 -0.437069
      ESP Fit Center  871 is at   1.002349  5.558440 -0.437069
      ESP Fit Center  872 is at   3.484273  8.645631 -1.508583
      ESP Fit Center  873 is at   2.461243  8.313228 -1.508583
      ESP Fit Center  874 is at   1.661858  7.593459 -1.508583
      ESP Fit Center  875 is at   1.224340  6.610778 -1.508583
      ESP Fit Center  876 is at   1.224340  5.535100 -1.508583
      ESP Fit Center  877 is at   3.754674  8.052838 -2.416968
      ESP Fit Center  878 is at   2.764725  7.787582 -2.416968
      ESP Fit Center  879 is at   2.040031  7.062888 -2.416968
      ESP Fit Center  880 is at   1.774775  6.072939 -2.416968
      ESP Fit Center  881 is at   4.826188  6.072939 -3.023932
      ESP Fit Center  882 is at   4.290431  7.000897 -3.023932
      ESP Fit Center  883 is at   3.218917  7.000897 -3.023932
      ESP Fit Center  884 is at   2.683160  6.072939 -3.023932
      ESP Fit Center  885 is at   3.754674  6.072939 -3.237069
      ESP Fit Center  886 is at   6.231599  8.907510  0.005058
      ESP Fit Center  887 is at   5.203951  8.907510  0.005058
      ESP Fit Center  888 is at   6.677775  8.988892 -0.954942
      ESP Fit Center  889 is at   5.717775  9.246123 -0.954942
      ESP Fit Center  890 is at   4.757775  8.988892 -0.954942
      ESP Fit Center  891 is at   7.380544  7.326123 -1.914942
      ESP Fit Center  892 is at   7.062983  8.303474 -1.914942
      ESP Fit Center  893 is at   6.231599  8.907510 -1.914942
      ESP Fit Center  894 is at   5.203951  8.907510 -1.914942
      ESP Fit Center  895 is at   6.677775  7.326123 -2.617711
      ESP Fit Center  896 is at   6.197775  8.157507 -2.617711
      ESP Fit Center  897 is at   5.237775  8.157507 -2.617711
      ESP Fit Center  898 is at   5.717775  7.326123 -2.874942
      ESP Fit Center  899 is at   7.337592  6.593700 -2.218500
      ESP Fit Center  900 is at   6.952384  5.616349 -2.921269
      ESP Fit Center  901 is at   6.472384  6.447733 -2.921269
      ESP Fit Center  902 is at   5.032384  5.616349 -2.921269
      ESP Fit Center  903 is at   5.512384  4.784965 -2.921269
      ESP Fit Center  904 is at   6.472384  4.784965 -2.921269
      ESP Fit Center  905 is at   5.992384  5.616349 -3.178500
      ESP Fit Center  906 is at   4.494163  5.708234  2.314491
      ESP Fit Center  907 is at   5.837025  6.939262  3.440864
      ESP Fit Center  908 is at   6.317025  7.770646  3.183633
      ESP Fit Center  909 is at   5.357025  7.770646  3.183633
      ESP Fit Center  910 is at   4.877025  6.939262  3.183633
      ESP Fit Center  911 is at   5.357025  6.107878  3.183633
      ESP Fit Center  912 is at   6.350849  8.520649  2.480864
      ESP Fit Center  913 is at   5.323201  8.520649  2.480864
      ESP Fit Center  914 is at   4.491817  7.916613  2.480864
      ESP Fit Center  915 is at   4.174256  6.939262  2.480864
      ESP Fit Center  916 is at   4.491817  5.961911  2.480864
      ESP Fit Center  917 is at   5.837025  8.859262  1.520864
      ESP Fit Center  918 is at   4.877025  8.602031  1.520864
      ESP Fit Center  919 is at   5.323201  8.520649  0.560864
      ESP Fit Center  920 is at   6.205304  5.239970  3.180881
      ESP Fit Center  921 is at   5.245304  5.239970  2.923650
      ESP Fit Center  922 is at   5.725304  4.408586  2.923650
      ESP Fit Center  923 is at   6.685304  4.408586  2.923650
      ESP Fit Center  924 is at   4.542535  5.239970  2.220881
      ESP Fit Center  925 is at   6.719128  3.658583  2.220881
      ESP Fit Center  926 is at   8.082034  6.686610  3.543434
      ESP Fit Center  927 is at   9.153548  6.686610  3.330297
      ESP Fit Center  928 is at   8.617791  7.614568  3.330297
      ESP Fit Center  929 is at   7.546277  7.614568  3.330297
      ESP Fit Center  930 is at   7.010520  6.686610  3.330297
      ESP Fit Center  931 is at   7.546277  5.758652  3.330297
      ESP Fit Center  932 is at   8.617791  5.758652  3.330297
      ESP Fit Center  933 is at  10.061933  6.686610  2.723333
      ESP Fit Center  934 is at   9.796677  7.676559  2.723333
      ESP Fit Center  935 is at   9.071983  8.401253  2.723333
      ESP Fit Center  936 is at   8.082034  8.666509  2.723333
      ESP Fit Center  937 is at   7.092085  8.401253  2.723333
      ESP Fit Center  938 is at   9.796677  5.696661  2.723333
      ESP Fit Center  939 is at  10.445251  7.738782  1.814948
      ESP Fit Center  940 is at   9.812983  8.609024  1.814948
      ESP Fit Center  941 is at   8.881419  9.146863  1.814948
      ESP Fit Center  942 is at   7.811633  9.259302  1.814948
      ESP Fit Center  943 is at   6.788603  8.926899  1.814948
      ESP Fit Center  944 is at  10.692956  7.698087  0.743434
      ESP Fit Center  945 is at  10.151259  8.572958  0.743434
      ESP Fit Center  946 is at   9.330101  9.193067  0.743434
      ESP Fit Center  947 is at   8.340385  9.474666  0.743434
      ESP Fit Center  948 is at   7.315778  9.379722  0.743434
      ESP Fit Center  949 is at   6.394657  8.921058  0.743434
      ESP Fit Center  950 is at  10.668897  6.686610 -0.328080
      ESP Fit Center  951 is at  10.445251  7.738782 -0.328080
      ESP Fit Center  952 is at   9.812983  8.609024 -0.328080
      ESP Fit Center  953 is at   8.881419  9.146863 -0.328080
      ESP Fit Center  954 is at   7.811633  9.259302 -0.328080
      ESP Fit Center  955 is at   6.788603  8.926899 -0.328080
      ESP Fit Center  956 is at  10.061933  6.686610 -1.236465
      ESP Fit Center  957 is at   9.796677  7.676559 -1.236465
      ESP Fit Center  958 is at   9.071983  8.401253 -1.236465
      ESP Fit Center  959 is at   8.082034  8.666509 -1.236465
      ESP Fit Center  960 is at   8.617791  7.614568 -1.843429
      ESP Fit Center  961 is at   7.546277  7.614568 -1.843429
      ESP Fit Center  962 is at   8.082034  6.686610 -2.056566
      ESP Fit Center  963 is at   9.943376  5.047412  2.738377
      ESP Fit Center  964 is at  10.360913  3.218062  1.110102
      ESP Fit Center  965 is at  10.917272  5.267108  2.434748
      ESP Fit Center  966 is at  10.437272  6.098492  2.434748
      ESP Fit Center  967 is at  10.437272  4.435724  2.434748
      ESP Fit Center  968 is at  11.620041  5.267108  1.731979
      ESP Fit Center  969 is at  11.302480  6.244459  1.731979
      ESP Fit Center  970 is at  11.302480  4.289757  1.731979
      ESP Fit Center  971 is at  11.877272  5.267108  0.771979
      ESP Fit Center  972 is at  11.620041  6.227108  0.771979
      ESP Fit Center  973 is at  10.917272  6.929877  0.771979
      ESP Fit Center  974 is at  10.917272  3.604339  0.771979
      ESP Fit Center  975 is at  11.620041  4.307108  0.771979
      ESP Fit Center  976 is at  11.620041  5.267108 -0.188021
      ESP Fit Center  977 is at  11.302480  6.244459 -0.188021
      ESP Fit Center  978 is at  11.302480  4.289757 -0.188021
      ESP Fit Center  979 is at   8.555483  4.403415  3.312494
      ESP Fit Center  980 is at   9.515483  4.403415  3.055263
      ESP Fit Center  981 is at   9.035483  5.234799  3.055263
      ESP Fit Center  982 is at   7.595483  4.403415  3.055263
      ESP Fit Center  983 is at   8.075483  3.572031  3.055263
      ESP Fit Center  984 is at   9.035483  3.572031  3.055263
      ESP Fit Center  985 is at   7.210275  3.426064  2.352494
      ESP Fit Center  986 is at   8.041659  2.822028  2.352494
      ESP Fit Center  987 is at   9.069307  2.822028  2.352494
      ESP Fit Center  988 is at   9.900691  3.426064  2.352494
      ESP Fit Center  989 is at   6.892714  3.443415  1.392494
      ESP Fit Center  990 is at   7.595483  2.740646  1.392494
      ESP Fit Center  991 is at   8.555483  2.483415  1.392494
      ESP Fit Center  992 is at   9.515483  2.740646  1.392494
      ESP Fit Center  993 is at   8.483022  2.494908  0.720221
      ESP Fit Center  994 is at  11.089888  4.352205 -1.310205
      ESP Fit Center  995 is at   8.483022  2.494908 -2.272531
      ESP Fit Center  996 is at   7.708740  4.352205 -2.938480
      ESP Fit Center  997 is at   8.229401  3.450395 -2.938480
      ESP Fit Center  998 is at   9.270721  3.450395 -2.938480
      ESP Fit Center  999 is at   9.829918  2.602004  0.865518
      ESP Fit Center 1000 is at  11.012687  3.433388  0.162749
      ESP Fit Center 1001 is at   8.836094  1.852001  0.162749
      ESP Fit Center 1002 is at   9.863742  1.852001  0.162749
      ESP Fit Center 1003 is at  10.695126  2.456037  0.162749
      ESP Fit Center 1004 is at  11.269918  3.433388 -0.797251
      ESP Fit Center 1005 is at   8.389918  1.770619 -0.797251
      ESP Fit Center 1006 is at   9.349918  1.513388 -0.797251
      ESP Fit Center 1007 is at  10.309918  1.770619 -0.797251
      ESP Fit Center 1008 is at  11.012687  2.473388 -0.797251
      ESP Fit Center 1009 is at  11.012687  3.433388 -1.757251
      ESP Fit Center 1010 is at   8.836094  1.852001 -1.757251
      ESP Fit Center 1011 is at   9.863742  1.852001 -1.757251
      ESP Fit Center 1012 is at  10.695126  2.456037 -1.757251
      ESP Fit Center 1013 is at  10.309918  3.433388 -2.460020
      ESP Fit Center 1014 is at   8.869918  2.602004 -2.460020
      ESP Fit Center 1015 is at   9.829918  2.602004 -2.460020
      ESP Fit Center 1016 is at   7.196613  2.487504 -0.011902
      ESP Fit Center 1017 is at   6.750437  2.406122 -0.971902
      ESP Fit Center 1018 is at   7.710437  2.148891 -0.971902
      ESP Fit Center 1019 is at   6.365229  3.091540 -1.931902
      ESP Fit Center 1020 is at   7.196613  2.487504 -1.931902
      ESP Fit Center 1021 is at   7.230437  4.900275 -2.634671
      ESP Fit Center 1022 is at   6.750437  4.068891 -2.634671
      ESP Fit Center 1023 is at   7.230437  3.237507 -2.634671
      ESP Fit Center 1024 is at  11.004361  5.000514 -1.592162
      ESP Fit Center 1025 is at  10.747130  5.960514 -1.592162
      ESP Fit Center 1026 is at  10.044361  6.663283 -1.592162
      ESP Fit Center 1027 is at  10.747130  5.000514 -2.552162
      ESP Fit Center 1028 is at  10.429569  5.977865 -2.552162
      ESP Fit Center 1029 is at   9.598185  6.581901 -2.552162
      ESP Fit Center 1030 is at   8.570537  6.581901 -2.552162
      ESP Fit Center 1031 is at   7.739153  5.977865 -2.552162
      ESP Fit Center 1032 is at  10.429569  4.023163 -2.552162
      ESP Fit Center 1033 is at  10.044361  5.000514 -3.254931
      ESP Fit Center 1034 is at   9.564361  5.831898 -3.254931
      ESP Fit Center 1035 is at   8.604361  5.831898 -3.254931
      ESP Fit Center 1036 is at   8.124361  5.000514 -3.254931
      ESP Fit Center 1037 is at   8.604361  4.169130 -3.254931
      ESP Fit Center 1038 is at   9.564361  4.169130 -3.254931
      ESP Fit Center 1039 is at   9.084361  5.000514 -3.512162
      ESP Fit Center 1040 is at  -2.811252 -6.541254  4.319582
      ESP Fit Center 1041 is at  -3.844497 -6.541254  4.114057
      ESP Fit Center 1042 is at  -5.305727 -6.541254  2.652827
      ESP Fit Center 1043 is at  -5.511252 -6.541254  1.619582
      ESP Fit Center 1044 is at  -5.058696 -5.458942  0.586337
      ESP Fit Center 1045 is at  -5.305727 -6.541254  0.586337
      ESP Fit Center 1046 is at  -5.058696 -7.623566  0.586337
      ESP Fit Center 1047 is at  -4.366532 -8.491513  0.586337
[...]
 1349 Fit       0.012128
 1350 Fit       0.001306
 1351 Fit       0.003983
 1352 Fit       0.004174
 1353 Fit       0.003523
 1354 Fit       0.007035
 1355 Fit      -0.002247
 1356 Fit       0.003523
 1357 Fit       0.003847
 1358 Fit       0.012994
 1359 Fit       0.006108
 1360 Fit       0.007196
 1361 Fit       0.003997
 1362 Fit      -0.000721
 1363 Fit       0.001693
 1364 Fit       0.000713
 1365 Fit       0.002861
 1366 Fit       0.003625
 1367 Fit      -0.009722
 1368 Fit      -0.013233
 1369 Fit      -0.012734
 1370 Fit      -0.002115
 1371 Fit      -0.007920
 1372 Fit      -0.014053
 1373 Fit      -0.015277
 1374 Fit      -0.011830
 1375 Fit      -0.006464
 1376 Fit      -0.012404
 1377 Fit      -0.014999
 1378 Fit      -0.013757
 1379 Fit      -0.009050
 1380 Fit      -0.001487
 1381 Fit      -0.002274
 1382 Fit      -0.009213
 1383 Fit      -0.013750
 1384 Fit      -0.014861
 1385 Fit      -0.012231
 1386 Fit      -0.006378
 1387 Fit       0.002098
 1388 Fit      -0.003062
 1389 Fit      -0.010560
 1390 Fit      -0.014970
 1391 Fit      -0.015646
 1392 Fit      -0.012338
 1393 Fit      -0.005446
 1394 Fit      -0.010126
 1395 Fit      -0.015680
 1396 Fit      -0.017166
 1397 Fit      -0.014181
 1398 Fit      -0.007096
 1399 Fit      -0.005867
 1400 Fit      -0.013066
 1401 Fit      -0.017195
 1402 Fit      -0.016145
 1403 Fit      -0.010110
 1404 Fit      -0.002417
 1405 Fit      -0.009882
 1406 Fit      -0.014879
 1407 Fit      -0.011380
 1408 Fit      -0.003463
 1409 Fit      -0.008734
 1410 Fit       0.002442
 1411 Fit      -0.005514
 1412 Fit       0.000330
 1413 Fit       0.000447
 1414 Fit      -0.007155
 1415 Fit      -0.001141
 1416 Fit       0.000228
 1417 Fit      -0.004105
 1418 Fit      -0.001074
 1419 Fit      -0.000451
 1420 Fit      -0.002087
 1421 Fit      -0.000640
 1422 Fit       0.005310
 1423 Fit       0.002021
 1424 Fit       0.009599
 1425 Fit       0.005496
 1426 Fit      -0.001525
 1427 Fit      -0.003465
 1428 Fit      -0.000889
 1429 Fit      -0.003619
 1430 Fit       0.000171
 1431 Fit      -0.000763
 1432 Fit       0.000734
 1433 Fit       0.000410
 1434 Fit      -0.000382
 1435 Fit      -0.005438
 1436 Fit       0.000352
 1437 Fit       0.001360
 1438 Fit       0.003010
 1439 Fit       0.002516
 1440 Fit       0.007034
 1441 Fit       0.008405
 1442 Fit      -0.013918
 1443 Fit      -0.014660
 1444 Fit      -0.017615
 1445 Fit      -0.013698
 1446 Fit      -0.008328
 1447 Fit      -0.006521
 1448 Fit      -0.009038
 1449 Fit      -0.010725
 1450 Fit      -0.015947
 1451 Fit      -0.018103
 1452 Fit      -0.015835
 1453 Fit      -0.009753
 1454 Fit      -0.005190
 1455 Fit      -0.003623
 1456 Fit      -0.010904
 1457 Fit      -0.015633
 1458 Fit      -0.016790
 1459 Fit      -0.014049
 1460 Fit      -0.008037
 1461 Fit      -0.006497
 1462 Fit      -0.012722
 1463 Fit      -0.015592
 1464 Fit      -0.014662
 1465 Fit      -0.010224
 1466 Fit      -0.003264
 1467 Fit      -0.005586
 1468 Fit      -0.012151
 1469 Fit      -0.015419
 1470 Fit      -0.014780
 1471 Fit      -0.010343
 1472 Fit      -0.002795
 1473 Fit       0.000113
 1474 Fit      -0.008103
 1475 Fit      -0.014073
 1476 Fit      -0.016325
 1477 Fit      -0.014042
 1478 Fit      -0.006761
 1479 Fit      -0.011626
 1480 Fit      -0.015962
 1481 Fit      -0.014502
 1482 Fit      -0.013146
 1483 Fit      -0.009430
 1484 Fit       0.000290
 1485 Fit       0.006187
 1486 Fit       0.008471
 1487 Fit       0.003379
 1488 Fit       0.005235
 1489 Fit       0.006282
 1490 Fit       0.003145
 1491 Fit       0.007392
 1492 Fit       0.007572
 1493 Fit       0.005213
 1494 Fit       0.009609
 1495 Fit       0.008636
 1496 Fit       0.007440
 1497 Fit       0.004710
 1498 Fit       0.008862
 1499 Fit       0.003257
 1500 Fit       0.003142
 1501 Fit       0.006392
 1502 Fit       0.007884
 1503 Fit       0.006469
 1504 Fit       0.011152
 1505 Fit       0.009023
 1506 Fit       0.008078
 1507 Fit       0.007026
 1508 Fit       0.010483
 1509 Fit       0.009352
 1510 Fit       0.009489
 1511 Fit       0.006998
 1512 Fit       0.007515
 1513 Fit       0.004638
 1514 Fit       0.004813
 1515 Fit       0.003434
 1516 Fit       0.004989
 1517 Fit       0.003638
 1518 Fit       0.003266
 1519 Fit       0.009631
 1520 Fit       0.009768
 1521 Fit       0.007109
 1522 Fit       0.008163
 1523 Fit       0.008760
 1524 Fit       0.007418
 1525 Fit       0.004963
 1526 Fit       0.006603
 1527 Fit       0.007633
 1528 Fit       0.007726
 1529 Fit       0.005419
 1530 Fit       0.004832
 1531 Fit       0.006137
 1532 Fit       0.006279
 1533 Fit       0.004495
 1534 Fit       0.005074
 1535 Fit       0.006404
 1536 Fit       0.003946
 1537 Fit       0.010741
 1538 Fit       0.005934
 1539 Fit       0.005076
 1540 Fit       0.003206
 1541 Fit      -0.002876
 1542 Fit       0.004090
 1543 Fit       0.002841
 1544 Fit      -0.000707
 1545 Fit      -0.004396
 1546 Fit      -0.002012
 1547 Fit       0.003992
 1548 Fit       0.004037
 1549 Fit       0.002902
 1550 Fit       0.002226
 1551 Fit       0.004086
 1552 Fit       0.003745
 1553 Fit       0.003693
 1554 Fit       0.003814
 1555 Fit       0.005169
 1556 Fit       0.005626
 1557 Fit       0.003501
 1558 Fit       0.003950
 1559 Fit       0.002863
 1560 Fit       0.003315
 1561 Fit       0.004445
 1562 Fit       0.007816
 1563 Fit       0.001176
 1564 Fit       0.002195
 1565 Fit       0.002802
 1566 Fit       0.003523
 1567 Fit       0.004332
 1568 Fit       0.005134
 1569 Fit       0.005968
 1570 Fit       0.007230
 1571 Fit       0.003715
 1572 Fit       0.004295
 1573 Fit       0.004671
 1574 Fit       0.000315
 1575 Fit       0.003209
 1576 Fit       0.004382
 1577 Fit       0.004452
 1578 Fit       0.003297
 1579 Fit       0.004242
 1580 Fit       0.004246
 1581 Fit       0.003858
 1582 Fit       0.003137
 1583 Fit       0.003643
 1584 Fit       0.003544
 1585 Fit       0.001184
 1586 Fit       0.002292
 1587 Fit       0.003306
 1588 Fit       0.004041
 1589 Fit       0.004800
 1590 Fit      -0.000554
 1591 Fit       0.002273
 1592 Fit       0.003582
 1593 Fit       0.004432
 1594 Fit       0.005055
 1595 Fit       0.005504
 1596 Fit       0.005637
 1597 Fit       0.004029
 1598 Fit       0.001293
 1599 Fit      -0.000107
 1600 Fit       0.002640
 1601 Fit       0.004339
 1602 Fit       0.005036
 1603 Fit       0.004505
 1604 Fit       0.003626
 1605 Fit       0.007516
 1606 Fit       0.006381
 1607 Fit       0.007824
 1608 Fit       0.008992
 1609 Fit       0.005029
 1610 Fit       0.006327
 1611 Fit       0.007637
 1612 Fit       0.008616
 1613 Fit       0.009588
 1614 Fit       0.004823
 1615 Fit       0.006158
 1616 Fit       0.007316
 1617 Fit       0.008183
 1618 Fit       0.009034
 1619 Fit       0.005260
 1620 Fit       0.006384
 1621 Fit       0.007252
 1622 Fit       0.008199
 1623 Fit       0.009686
 1624 Fit       0.010113
 1625 Fit       0.009483
 1626 Fit       0.009203
 1627 Fit       0.009419
 1628 Fit       0.002352
 1629 Fit       0.006524
 1630 Fit       0.006681
 1631 Fit       0.004904
 1632 Fit       0.004993
 1633 Fit       0.006620
 1634 Fit       0.007726
 1635 Fit       0.007605
 1636 Fit       0.007755
 1637 Fit       0.001786
 1638 Fit       0.001492
 1639 Fit       0.003918
 1640 Fit       0.009218
 1641 Fit       0.009062
 1642 Fit       0.008523
 1643 Fit       0.008132
 1644 Fit       0.009826
 1645 Fit       0.009172
 1646 Fit       0.009291
 1647 Fit       0.009299
 1648 Fit       0.008989
 1649 Fit       0.009111
 1650 Fit       0.009814
 1651 Fit       0.008481
 1652 Fit       0.008632
 1653 Fit       0.009029
 1654 Fit       0.007636
 1655 Fit       0.008091
 1656 Fit       0.009015
 1657 Fit       0.005980
 1658 Fit       0.006526
 1659 Fit      -0.003991
 1660 Fit      -0.004779
 1661 Fit      -0.002995
 1662 Fit       0.000227
 1663 Fit      -0.007382
 1664 Fit       0.009761
 1665 Fit       0.008867
 1666 Fit       0.008223
 1667 Fit       0.009620
 1668 Fit       0.002771
 1669 Fit       0.009509
 1670 Fit       0.009088
 1671 Fit       0.010313
 1672 Fit       0.009870
 1673 Fit       0.009308
 1674 Fit       0.009388
 1675 Fit       0.011086
 1676 Fit       0.009410
 1677 Fit       0.009362
 1678 Fit       0.009729
 1679 Fit       0.011034
 1680 Fit       0.007993
 1681 Fit       0.008868
 1682 Fit       0.009577
 1683 Fit       0.010314
 1684 Fit       0.005892
 1685 Fit       0.008465
 1686 Fit       0.008452
 1687 Fit       0.003683
 1688 Fit       0.003572
 1689 Fit      -0.000799
 1690 Fit      -0.000970
 1691 Fit       0.006274
 1692 Fit       0.004089
 1693 Fit      -0.001197
 1694 Fit      -0.009616
 1695 Fit      -0.006669
 1696 Fit       0.008001
 1697 Fit       0.006583
 1698 Fit       0.006019
 1699 Fit       0.000773
 1700 Fit       0.007963
 1701 Fit      -0.000758
 1702 Fit       0.011099
 1703 Fit       0.005925
 1704 Fit       0.009513
 1705 Fit       0.009085
 1706 Fit       0.000194
 1707 Fit       0.002607
 1708 Fit      -0.004167
 1709 Fit       0.007231
 1710 Fit       0.004208
 1711 Fit      -0.000697
 1712 Fit       0.010773
 1713 Fit       0.007654
 1714 Fit       0.005275
 1715 Fit       0.001340
 1716 Fit      -0.002555
 1717 Fit       0.010706
 1718 Fit       0.008156
 1719 Fit       0.006110
 1720 Fit       0.003298
 1721 Fit       0.008623
 1722 Fit       0.007140
 1723 Fit       0.002718
 1724 Fit       0.001745
 1725 Fit       0.005567
 1726 Fit       0.008663
 1727 Fit       0.008032
 1728 Fit       0.007609
 1729 Fit       0.006604
 1730 Fit       0.007902
 1731 Fit       0.008256
 1732 Fit      -0.013005
 1733 Fit      -0.014039
 1734 Fit      -0.015371
 1735 Fit      -0.012576
 1736 Fit      -0.016313
 1737 Fit      -0.015359
 1738 Fit      -0.008836
 1739 Fit      -0.005287
 1740 Fit      -0.004092
 1741 Fit       0.001913
 1742 Fit       0.002393
 1743 Fit       0.004127
 1744 Fit      -0.003425
 1745 Fit      -0.009426
 1746 Fit      -0.004833
 1747 Fit      -0.001541
 1748 Fit      -0.000313
 1749 Fit      -0.002696
 1750 Fit      -0.008272
 1751 Fit      -0.010865
 1752 Fit      -0.006840
 1753 Fit      -0.004228
 1754 Fit      -0.000983
 1755 Fit       0.001100
 1756 Fit       0.001105
 1757 Fit      -0.009745
 1758 Fit      -0.003033
 1759 Fit       0.001170
 1760 Fit       0.002731
 1761 Fit       0.003352
 1762 Fit       0.004097
 1763 Fit       0.002666
 1764 Fit       0.001628
 1765 Fit      -0.003780
 1766 Fit       0.004900
 1767 Fit       0.005867
 1768 Fit      -0.000623
 1769 Fit       0.002928
 1770 Fit      -0.003619
 1771 Fit       0.002464
 1772 Fit      -0.003914
 1773 Fit       0.001595
 1774 Fit       0.004536
 1775 Fit       0.005994
 1776 Fit      -0.002607
 1777 Fit       0.002050
 1778 Fit       0.004590
 1779 Fit       0.005745
 1780 Fit       0.005828
 1781 Fit      -0.007215
 1782 Fit      -0.000787
 1783 Fit       0.002989
 1784 Fit       0.004902
 1785 Fit       0.005683
 1786 Fit      -0.000227
 1787 Fit       0.003258
 1788 Fit       0.006340
 1789 Fit       0.008247
 1790 Fit       0.008124
 1791 Fit       0.005212
 1792 Fit       0.002366
 1793 Fit       0.001561
 1794 Fit       0.004137
 1795 Fit       0.006083
 1796 Fit       0.006860
 1797 Fit       0.004512
 1798 Fit      -0.011329
 1799 Fit      -0.013163
 1800 Fit      -0.012051
 1801 Fit      -0.014377
 1802 Fit      -0.013670
 1803 Fit      -0.014860
 1804 Fit      -0.012180
 1805 Fit      -0.013085
 1806 Fit      -0.011902
 1807 Fit      -0.010772
 1808 Fit      -0.009205
 1809 Fit      -0.007623
 1810 Fit      -0.001595
 1811 Fit       0.002749
 1812 Fit       0.004562
 1813 Fit      -0.000000
 1814 Fit      -0.001683
 1815 Fit      -0.000222
 1816 Fit       0.001608
 1817 Fit       0.004733
 1818 Fit       0.002806
 1819 Fit       0.001258
 1820 Fit      -0.011444
 1821 Fit      -0.011369
 1822 Fit      -0.008230
 1823 Fit      -0.007124
 1824 Fit      -0.012202
 1825 Fit      -0.007214
 1826 Fit      -0.000464
 1827 Fit       0.003615
 1828 Fit       0.001478
 1829 Fit      -0.002220
 1830 Fit      -0.004431
 1831 Fit      -0.004533
 1832 Fit       0.003866
 1833 Fit       0.000458
 1834 Fit      -0.004024
 1835 Fit      -0.010210
 1836 Fit       0.003249
 1837 Fit      -0.000080
 1838 Fit      -0.005421
 1839 Fit       0.000869
 1840 Fit       0.002302
 1841 Fit      -0.004196
 1842 Fit       0.002540
 1843 Fit      -0.002454
 1844 Fit       0.002558
 1845 Fit       0.002694
 1846 Fit      -0.000337
 1847 Fit      -0.000788
 1848 Fit       0.000589
 1849 Fit      -0.006894
 1850 Fit      -0.007022
 1851 Fit      -0.001696
 1852 Fit      -0.004154
 1853 Fit      -0.009885
 1854 Fit      -0.011301
 1855 Fit      -0.004320
 1856 Fit      -0.013234
 1857 Fit      -0.013025
 1858 Fit      -0.010143
 1859 Fit      -0.000026
 1860 Fit      -0.012395
 1861 Fit      -0.011293
 1862 Fit      -0.007270
 1863 Fit       0.003134
 1864 Fit      -0.009085
 1865 Fit      -0.010188
 1866 Fit      -0.008884
 1867 Fit      -0.004482
 1868 Fit       0.003252
 1869 Fit      -0.003981
 1870 Fit      -0.007172
 1871 Fit      -0.008583
 1872 Fit      -0.007315
 1873 Fit      -0.003287
 1874 Fit       0.001055
 1875 Fit      -0.004897
 1876 Fit      -0.007779
 1877 Fit      -0.007747
 1878 Fit      -0.004692
 1879 Fit      -0.002369
 1880 Fit      -0.007143
 1881 Fit      -0.008708
 1882 Fit      -0.007056
 1883 Fit      -0.005739
 1884 Fit      -0.005883
 1885 Fit      -0.008988
 1886 Fit      -0.009081
 1887 Fit      -0.007735
 1888 Fit      -0.003249
 1889 Fit      -0.004575
 1890 Fit      -0.006685
 1891 Fit      -0.009217
 1892 Fit      -0.007485
 1893 Fit       0.003700
 1894 Fit       0.001920
 1895 Fit       0.002731
 1896 Fit       0.001299
 1897 Fit       0.000670
 1898 Fit       0.002620
 1899 Fit       0.001012
 1900 Fit      -0.000371
 1901 Fit      -0.002422
 1902 Fit       0.002528
 1903 Fit       0.000974
 1904 Fit       0.007597
 1905 Fit       0.011108
 1906 Fit       0.000810
 1907 Fit       0.000349
 1908 Fit       0.003093
 1909 Fit       0.000574
 1910 Fit       0.003518
 1911 Fit       0.001637
 1912 Fit       0.004473
 1913 Fit       0.001895
 1914 Fit       0.002340
 1915 Fit       0.009235
 1916 Fit       0.004465
 1917 Fit       0.005122
 1918 Fit       0.002678
 1919 Fit      -0.000734
 1920 Fit       0.000909
 1921 Fit       0.000457
 1922 Fit       0.002053
 1923 Fit       0.002420
 1924 Fit      -0.006586
 1925 Fit      -0.009662
 1926 Fit      -0.009138
 1927 Fit      -0.000937
 1928 Fit      -0.006384
 1929 Fit      -0.010984
 1930 Fit      -0.011865
 1931 Fit      -0.009229
 1932 Fit      -0.005785
 1933 Fit      -0.010295
 1934 Fit      -0.012236
 1935 Fit      -0.011393
 1936 Fit      -0.007943
 1937 Fit      -0.001939
 1938 Fit      -0.001508
 1939 Fit      -0.006686
 1940 Fit      -0.010488
 1941 Fit      -0.012220
 1942 Fit      -0.011519
 1943 Fit      -0.008505
 1944 Fit      -0.003587
 1945 Fit       0.003168
 1946 Fit      -0.004583
 1947 Fit      -0.009013
 1948 Fit      -0.011839
 1949 Fit      -0.012595
 1950 Fit      -0.011104
 1951 Fit      -0.007530
 1952 Fit      -0.002114
 1953 Fit      -0.008344
 1954 Fit      -0.012062
 1955 Fit      -0.013359
 1956 Fit      -0.011957
 1957 Fit      -0.007961
 1958 Fit      -0.001446
 1959 Fit      -0.009032
 1960 Fit      -0.012879
 1961 Fit      -0.013840
 1962 Fit      -0.011609
 1963 Fit      -0.006449
 1964 Fit      -0.005618
 1965 Fit      -0.010432
 1966 Fit      -0.013213
 1967 Fit      -0.012424
 1968 Fit      -0.008189
 1969 Fit      -0.002372
 1970 Fit      -0.002014
 1971 Fit      -0.007473
 1972 Fit      -0.010967
 1973 Fit      -0.008505
 1974 Fit      -0.002890
 1975 Fit      -0.006367
 1976 Fit      -0.000422
 1977 Fit       0.000625
 1978 Fit       0.001784
 1979 Fit      -0.001696
 1980 Fit      -0.000204
 1981 Fit      -0.001644
 1982 Fit      -0.000946
 1983 Fit      -0.005531
 1984 Fit      -0.001956
 1985 Fit      -0.001323
 1986 Fit      -0.001004
 1987 Fit      -0.001300
 1988 Fit      -0.002944
 1989 Fit       0.004302
 1990 Fit       0.001520
 1991 Fit       0.007409
 1992 Fit       0.004121
 1993 Fit      -0.002141
 1994 Fit       0.001756
 1995 Fit      -0.002166
 1996 Fit      -0.001766
 1997 Fit      -0.004232
 1998 Fit      -0.001142
 1999 Fit      -0.001330
 2000 Fit      -0.000037
 2001 Fit      -0.001212
 2002 Fit      -0.001424
 2003 Fit      -0.004418
 2004 Fit      -0.000466
 2005 Fit      -0.002120
 2006 Fit       0.000917
 2007 Fit       0.001831
 2008 Fit       0.001796
 2009 Fit       0.005013
 2010 Fit       0.005874
 2011 Fit      -0.010469
 2012 Fit      -0.011177
 2013 Fit      -0.013423
 2014 Fit      -0.010787
 2015 Fit      -0.006863
 2016 Fit      -0.005253
 2017 Fit      -0.007011
 2018 Fit      -0.008985
 2019 Fit      -0.012771
 2020 Fit      -0.014345
 2021 Fit      -0.012819
 2022 Fit      -0.008658
 2023 Fit       0.002180
 2024 Fit      -0.004763
 2025 Fit      -0.004570
 2026 Fit      -0.009685
 2027 Fit      -0.013069
 2028 Fit      -0.013898
 2029 Fit      -0.011957
 2030 Fit      -0.007665
 2031 Fit      -0.006082
 2032 Fit      -0.010648
 2033 Fit      -0.012972
 2034 Fit      -0.012783
 2035 Fit      -0.010189
 2036 Fit      -0.005713
 2037 Fit      -0.003827
 2038 Fit      -0.008847
 2039 Fit      -0.011915
 2040 Fit      -0.012780
 2041 Fit      -0.011371
 2042 Fit      -0.007963
 2043 Fit      -0.003111
 2044 Fit      -0.004627
 2045 Fit      -0.009640
 2046 Fit      -0.012449
 2047 Fit      -0.012613
 2048 Fit      -0.010040
 2049 Fit      -0.004868
 2050 Fit      -0.000344
 2051 Fit      -0.006698
 2052 Fit      -0.011226
 2053 Fit      -0.012932
 2054 Fit      -0.011221
 2055 Fit      -0.008509
 2056 Fit      -0.011814
 2057 Fit      -0.010764
 2058 Fit      -0.008908
 2059 Fit      -0.006389
 2060 Fit      -0.000602
 2061 Fit       0.004652
 2062 Fit       0.006822
 2063 Fit       0.008174
 2064 Fit       0.001801
 2065 Fit       0.004271
 2066 Fit       0.001096
 2067 Fit       0.005632
 2068 Fit       0.005724
 2069 Fit       0.003500
 2070 Fit       0.007663
 2071 Fit       0.006851
 2072 Fit       0.006201
 2073 Fit       0.004067
 2074 Fit       0.007440
 2075 Fit       0.005945
 2076 Fit       0.003331
 2077 Fit       0.002060
 2078 Fit       0.002061
 2079 Fit       0.004226
 2080 Fit       0.005845
 2081 Fit       0.004890
 2082 Fit       0.008452
 2083 Fit       0.007114
 2084 Fit       0.006482
 2085 Fit       0.005574
 2086 Fit       0.010402
 2087 Fit       0.007820
 2088 Fit       0.007556
 2089 Fit       0.007534
 2090 Fit       0.008288
 2091 Fit       0.006890
 2092 Fit       0.004233
 2093 Fit       0.005417
 2094 Fit       0.004760
 2095 Fit       0.003016
 2096 Fit       0.004031
 2097 Fit       0.004068
 2098 Fit       0.002982
 2099 Fit       0.003449
 2100 Fit       0.003537
 2101 Fit       0.004274
 2102 Fit       0.003298
 2103 Fit       0.003036
 2104 Fit       0.006694
 2105 Fit       0.007301
 2106 Fit       0.007922
 2107 Fit       0.007539
 2108 Fit       0.004860
 2109 Fit       0.006107
 2110 Fit       0.006875
 2111 Fit       0.007146
 2112 Fit       0.005771
 2113 Fit       0.004017
 2114 Fit       0.005378
 2115 Fit       0.006093
 2116 Fit       0.006110
 2117 Fit       0.004466
 2118 Fit       0.003827
 2119 Fit       0.004800
 2120 Fit       0.004973
 2121 Fit       0.003761
 2122 Fit       0.004377
 2123 Fit       0.002380
 2124 Fit       0.004783
 2125 Fit       0.003156
 2126 Fit       0.008440
 2127 Fit       0.004973
 2128 Fit       0.003894
 2129 Fit       0.002365
 2130 Fit      -0.001464
 2131 Fit       0.003371
 2132 Fit       0.002183
 2133 Fit      -0.000364
 2134 Fit      -0.002477
 2135 Fit      -0.000503
 2136 Fit       0.003555
 2137 Fit       0.003223
 2138 Fit       0.002197
 2139 Fit       0.001870
 2140 Fit       0.003456
 2141 Fit       0.003254
 2142 Fit       0.003080
 Job cpu time:       0 days  0 hours 11 minutes 57.6 seconds.
 Normal termination of Gaussian 16 at Sun Jul  9 09:58:14 2023.
