 Entering Gaussian System, Link 0=/opt/gaussian/g16_legacy/g16
 Input=IsoP_rdkit_03_271_gaussian.com
 Output=IsoP_rdkit_03_271_gaussian.log
 Initial command:
 /opt/gaussian/g16_legacy/l1.exe "/scratch-local/jramos/2641335/Gau-10221.inp" -scrdir="/scratch-local/jramos/2641335/"
 Entering Link 1 = /opt/gaussian/g16_legacy/l1.exe PID=     10222.
  
 Copyright (c) 1988,1990,1992,1993,1995,1998,2003,2009,2016,
            Gaussian, Inc.  All Rights Reserved.
  
 This is part of the Gaussian(R) 16 program.  It is based on
 the Gaussian(R) 09 system (copyright 2009, Gaussian, Inc.),
 the Gaussian(R) 03 system (copyright 2003, Gaussian, Inc.),
 the Gaussian(R) 98 system (copyright 1998, Gaussian, Inc.),
 the Gaussian(R) 94 system (copyright 1995, Gaussian, Inc.),
 the Gaussian 92(TM) system (copyright 1992, Gaussian, Inc.),
 the Gaussian 90(TM) system (copyright 1990, Gaussian, Inc.),
 the Gaussian 88(TM) system (copyright 1988, Gaussian, Inc.),
 the Gaussian 86(TM) system (copyright 1986, Carnegie Mellon
 University), and the Gaussian 82(TM) system (copyright 1983,
 Carnegie Mellon University). Gaussian is a federally registered
 trademark of Gaussian, Inc.
  
 This software contains proprietary and confidential information,
 including trade secrets, belonging to Gaussian, Inc.
  
 This software is provided under written license and may be
 used, copied, transmitted, or stored only in accord with that
 written license.
  
 The following legend is applicable only to US Government
 contracts under FAR:
  
                    RESTRICTED RIGHTS LEGEND
  
 Use, reproduction and disclosure by the US Government is
 subject to restrictions as set forth in subparagraphs (a)
 and (c) of the Commercial Computer Software - Restricted
 Rights clause in FAR 52.227-19.
  
 Gaussian, Inc.
 340 Quinnipiac St., Bldg. 40, Wallingford CT 06492
  
  
 ---------------------------------------------------------------
 Warning -- This program may not be used in any manner that
 competes with the business of Gaussian, Inc. or will provide
 assistance to any competitor of Gaussian, Inc.  The licensee
 of this program is prohibited from giving any competitor of
 Gaussian, Inc. access to this program.  By using this program,
 the user acknowledges that Gaussian, Inc. is engaged in the
 business of creating and licensing software in the field of
 computational chemistry and represents and warrants to the
 licensee that it is not a competitor of Gaussian, Inc. and that
 it will not use this program in any manner prohibited above.
 ---------------------------------------------------------------
  

 Cite this work as:
 Gaussian 16, Revision A.03,
 M. J. Frisch, G. W. Trucks, H. B. Schlegel, G. E. Scuseria, 
 M. A. Robb, J. R. Cheeseman, G. Scalmani, V. Barone, 
 G. A. Petersson, H. Nakatsuji, X. Li, M. Caricato, A. V. Marenich, 
 J. Bloino, B. G. Janesko, R. Gomperts, B. Mennucci, H. P. Hratchian, 
 J. V. Ortiz, A. F. Izmaylov, J. L. Sonnenberg, D. Williams-Young, 
 F. Ding, F. Lipparini, F. Egidi, J. Goings, B. Peng, A. Petrone, 
 T. Henderson, D. Ranasinghe, V. G. Zakrzewski, J. Gao, N. Rega, 
 G. Zheng, W. Liang, M. Hada, M. Ehara, K. Toyota, R. Fukuda, 
 J. Hasegawa, M. Ishida, T. Nakajima, Y. Honda, O. Kitao, H. Nakai, 
 T. Vreven, K. Throssell, J. A. Montgomery, Jr., J. E. Peralta, 
 F. Ogliaro, M. J. Bearpark, J. J. Heyd, E. N. Brothers, K. N. Kudin, 
 V. N. Staroverov, T. A. Keith, R. Kobayashi, J. Normand, 
 K. Raghavachari, A. P. Rendell, J. C. Burant, S. S. Iyengar, 
 J. Tomasi, M. Cossi, J. M. Millam, M. Klene, C. Adamo, R. Cammi, 
 J. W. Ochterski, R. L. Martin, K. Morokuma, O. Farkas, 
 J. B. Foresman, and D. J. Fox, Gaussian, Inc., Wallingford CT, 2016.
 
 ******************************************
 Gaussian 16:  EM64L-G16RevA.03 25-Dec-2016
                 6-Jul-2021 
 ******************************************
 %chk=IsoP_rdkit_03_271_gaussian.chk
 %nproc=6
 Will use up to    6 processors via shared memory.
 %mem=4000Mb
 -----------------------------
 #p opt=loose m062x/6-31g(d,p)
 -----------------------------
 1/7=-1,18=20,19=15,26=3,38=1/1,3;
 2/9=110,12=2,17=6,18=5,40=1/2;
 3/5=1,6=6,7=101,11=2,25=1,30=1,71=1,74=-55/1,2,3;
 4//1;
 5/5=2,38=5/2;
 6/7=2,8=2,9=2,10=2,28=1/1;
 7//1,2,3,16;
 1/7=-1,18=20,19=15,26=3/3(2);
 2/9=110/2;
 99//99;
 2/9=110/2;
 3/5=1,6=6,7=101,11=2,25=1,30=1,71=1,74=-55/1,2,3;
 4/5=5,16=3,69=1/1;
 5/5=2,38=5/2;
 7//1,2,3,16;
 1/7=-1,18=20,19=15,26=3/3(-5);
 2/9=110/2;
 6/7=2,8=2,9=2,10=2,19=2,28=1/1;
 99/9=1/99;
 Leave Link    1 at Tue Jul  6 11:10:09 2021, MaxMem=   524288000 cpu:               0.5 elap:               0.1
 (Enter /opt/gaussian/g16_legacy/l101.exe)
 -------------------------------------------------
 Conformer number 271. Energy MM = 23.242 kcal/mol
 -------------------------------------------------
 Symbolic Z-matrix:
 Charge =  0 Multiplicity = 1
 C                    -0.6752    0.847    -0.3825 
 H                    -0.4356    1.7312   -0.9885 
 H                    -0.5007    1.1608    0.6536 
 C                    -2.1312    0.4852   -0.5916 
 C                    -2.6458    0.6923   -1.993 
 H                    -2.541     1.7424   -2.2846 
 H                    -2.0842    0.0758   -2.7019 
 H                    -3.7037    0.4261   -2.09 
 C                    -2.9495    0.0318    0.3787 
 H                    -3.9889   -0.1783    0.1282 
 C                    -2.6      -0.2525    1.8053 
 H                    -3.1221    0.4492    2.4627 
 H                    -2.9226   -1.2662    2.0643 
 H                    -1.5295   -0.1894    2.0127 
 C                     3.956     0.163     0.5054 
 H                     4.6224   -0.7056    0.5251 
 H                     4.1462    0.7686    1.3976 
 H                     4.2227    0.7662   -0.3688 
 C                     2.518    -0.2849    0.4749 
 C                     2.1066   -1.125     1.6524 
 H                     2.3593   -0.6118    2.5866 
 H                     2.6342   -2.0841    1.6329 
 H                     1.0344   -1.3309    1.6857 
 C                     1.7076    0.0755   -0.5395 
 H                     2.115     0.7047   -1.331 
 C                     0.2658   -0.3067   -0.7438 
 H                     0.1384   -0.58     -1.7989 
 H                     0.0035   -1.2045   -0.1746 
 
 ITRead=  0  0  0  0  0  0  0  0  0  0  0  0  0  0  0  0  0  0  0  0
 ITRead=  0  0  0  0  0  0  0  0
 MicOpt= -1 -1 -1 -1 -1 -1 -1 -1 -1 -1 -1 -1 -1 -1 -1 -1 -1 -1 -1 -1
 MicOpt= -1 -1 -1 -1 -1 -1 -1 -1
 NAtoms=     28 NQM=       28 NQMF=       0 NMMI=      0 NMMIF=      0
                NMic=       0 NMicF=      0.
                    Isotopes and Nuclear Properties:
 (Nuclear quadrupole moments (NQMom) in fm**2, nuclear magnetic moments (NMagM)
  in nuclear magnetons)

  Atom         1           2           3           4           5           6           7           8           9          10
 IAtWgt=          12           1           1          12          12           1           1           1          12           1
 AtmWgt=  12.0000000   1.0078250   1.0078250  12.0000000  12.0000000   1.0078250   1.0078250   1.0078250  12.0000000   1.0078250
 NucSpn=           0           1           1           0           0           1           1           1           0           1
 AtZEff=  -0.0000000  -0.0000000  -0.0000000  -0.0000000  -0.0000000  -0.0000000  -0.0000000  -0.0000000  -0.0000000  -0.0000000
 NQMom=    0.0000000   0.0000000   0.0000000   0.0000000   0.0000000   0.0000000   0.0000000   0.0000000   0.0000000   0.0000000
 NMagM=    0.0000000   2.7928460   2.7928460   0.0000000   0.0000000   2.7928460   2.7928460   2.7928460   0.0000000   2.7928460
 AtZNuc=   6.0000000   1.0000000   1.0000000   6.0000000   6.0000000   1.0000000   1.0000000   1.0000000   6.0000000   1.0000000

  Atom        11          12          13          14          15          16          17          18          19          20
 IAtWgt=          12           1           1           1          12           1           1           1          12          12
 AtmWgt=  12.0000000   1.0078250   1.0078250   1.0078250  12.0000000   1.0078250   1.0078250   1.0078250  12.0000000  12.0000000
 NucSpn=           0           1           1           1           0           1           1           1           0           0
 AtZEff=  -0.0000000  -0.0000000  -0.0000000  -0.0000000  -0.0000000  -0.0000000  -0.0000000  -0.0000000  -0.0000000  -0.0000000
 NQMom=    0.0000000   0.0000000   0.0000000   0.0000000   0.0000000   0.0000000   0.0000000   0.0000000   0.0000000   0.0000000
 NMagM=    0.0000000   2.7928460   2.7928460   2.7928460   0.0000000   2.7928460   2.7928460   2.7928460   0.0000000   0.0000000
 AtZNuc=   6.0000000   1.0000000   1.0000000   1.0000000   6.0000000   1.0000000   1.0000000   1.0000000   6.0000000   6.0000000

  Atom        21          22          23          24          25          26          27          28
 IAtWgt=           1           1           1          12           1          12           1           1
 AtmWgt=   1.0078250   1.0078250   1.0078250  12.0000000   1.0078250  12.0000000   1.0078250   1.0078250
 NucSpn=           1           1           1           0           1           0           1           1
 AtZEff=  -0.0000000  -0.0000000  -0.0000000  -0.0000000  -0.0000000  -0.0000000  -0.0000000  -0.0000000
 NQMom=    0.0000000   0.0000000   0.0000000   0.0000000   0.0000000   0.0000000   0.0000000   0.0000000
 NMagM=    2.7928460   2.7928460   2.7928460   0.0000000   2.7928460   0.0000000   2.7928460   2.7928460
 AtZNuc=   1.0000000   1.0000000   1.0000000   6.0000000   1.0000000   6.0000000   1.0000000   1.0000000
 Leave Link  101 at Tue Jul  6 11:10:10 2021, MaxMem=   524288000 cpu:               2.4 elap:               0.7
 (Enter /opt/gaussian/g16_legacy/l103.exe)

 GradGradGradGradGradGradGradGradGradGradGradGradGradGradGradGradGradGrad
 Berny optimization.
 Initialization pass.
                           ----------------------------
                           !    Initial Parameters    !
                           ! (Angstroms and Degrees)  !
 --------------------------                            --------------------------
 ! Name  Definition              Value          Derivative Info.                !
 --------------------------------------------------------------------------------
 ! R1    R(1,2)                  1.0984         estimate D2E/DX2                !
 ! R2    R(1,3)                  1.0966         estimate D2E/DX2                !
 ! R3    R(1,4)                  1.5148         estimate D2E/DX2                !
 ! R4    R(1,26)                 1.532          estimate D2E/DX2                !
 ! R5    R(4,5)                  1.5072         estimate D2E/DX2                !
 ! R6    R(4,9)                  1.3478         estimate D2E/DX2                !
 ! R7    R(5,6)                  1.0949         estimate D2E/DX2                !
 ! R8    R(5,7)                  1.0945         estimate D2E/DX2                !
 ! R9    R(5,8)                  1.0952         estimate D2E/DX2                !
 ! R10   R(9,10)                 1.0896         estimate D2E/DX2                !
 ! R11   R(9,11)                 1.496          estimate D2E/DX2                !
 ! R12   R(11,12)                1.0941         estimate D2E/DX2                !
 ! R13   R(11,13)                1.0949         estimate D2E/DX2                !
 ! R14   R(11,14)                1.0922         estimate D2E/DX2                !
 ! R15   R(15,16)                1.095          estimate D2E/DX2                !
 ! R16   R(15,17)                1.095          estimate D2E/DX2                !
 ! R17   R(15,18)                1.0951         estimate D2E/DX2                !
 ! R18   R(15,19)                1.5064         estimate D2E/DX2                !
 ! R19   R(19,20)                1.5038         estimate D2E/DX2                !
 ! R20   R(19,24)                1.3475         estimate D2E/DX2                !
 ! R21   R(20,21)                1.0954         estimate D2E/DX2                !
 ! R22   R(20,22)                1.0948         estimate D2E/DX2                !
 ! R23   R(20,23)                1.0923         estimate D2E/DX2                !
 ! R24   R(24,25)                1.0901         estimate D2E/DX2                !
 ! R25   R(24,26)                1.5055         estimate D2E/DX2                !
 ! R26   R(26,27)                1.0973         estimate D2E/DX2                !
 ! R27   R(26,28)                1.0949         estimate D2E/DX2                !
 ! A1    A(2,1,3)              104.8461         estimate D2E/DX2                !
 ! A2    A(2,1,4)              109.0132         estimate D2E/DX2                !
 ! A3    A(2,1,26)             110.0058         estimate D2E/DX2                !
 ! A4    A(3,1,4)              110.5938         estimate D2E/DX2                !
 ! A5    A(3,1,26)             109.913          estimate D2E/DX2                !
 ! A6    A(4,1,26)             112.2081         estimate D2E/DX2                !
 ! A7    A(1,4,5)              115.0692         estimate D2E/DX2                !
 ! A8    A(1,4,9)              124.3699         estimate D2E/DX2                !
 ! A9    A(5,4,9)              120.5505         estimate D2E/DX2                !
 ! A10   A(4,5,6)              110.2886         estimate D2E/DX2                !
 ! A11   A(4,5,7)              110.4647         estimate D2E/DX2                !
 ! A12   A(4,5,8)              112.2569         estimate D2E/DX2                !
 ! A13   A(6,5,7)              108.5791         estimate D2E/DX2                !
 ! A14   A(6,5,8)              107.5777         estimate D2E/DX2                !
 ! A15   A(7,5,8)              107.5391         estimate D2E/DX2                !
 ! A16   A(4,9,10)             118.5878         estimate D2E/DX2                !
 ! A17   A(4,9,11)             127.486          estimate D2E/DX2                !
 ! A18   A(10,9,11)            113.9184         estimate D2E/DX2                !
 ! A19   A(9,11,12)            109.8522         estimate D2E/DX2                !
 ! A20   A(9,11,13)            109.432          estimate D2E/DX2                !
 ! A21   A(9,11,14)            113.5195         estimate D2E/DX2                !
 ! A22   A(12,11,13)           108.1224         estimate D2E/DX2                !
 ! A23   A(12,11,14)           108.454          estimate D2E/DX2                !
 ! A24   A(13,11,14)           107.2988         estimate D2E/DX2                !
 ! A25   A(16,15,17)           108.5639         estimate D2E/DX2                !
 ! A26   A(16,15,18)           107.6435         estimate D2E/DX2                !
 ! A27   A(16,15,19)           110.2099         estimate D2E/DX2                !
 ! A28   A(17,15,18)           107.6688         estimate D2E/DX2                !
 ! A29   A(17,15,19)           110.2887         estimate D2E/DX2                !
 ! A30   A(18,15,19)           112.3391         estimate D2E/DX2                !
 ! A31   A(15,19,20)           114.2915         estimate D2E/DX2                !
 ! A32   A(15,19,24)           120.6518         estimate D2E/DX2                !
 ! A33   A(20,19,24)           125.0538         estimate D2E/DX2                !
 ! A34   A(19,20,21)           110.0554         estimate D2E/DX2                !
 ! A35   A(19,20,22)           110.0969         estimate D2E/DX2                !
 ! A36   A(19,20,23)           113.435          estimate D2E/DX2                !
 ! A37   A(21,20,22)           108.3269         estimate D2E/DX2                !
 ! A38   A(21,20,23)           106.7834         estimate D2E/DX2                !
 ! A39   A(22,20,23)           107.9658         estimate D2E/DX2                !
 ! A40   A(19,24,25)           118.4386         estimate D2E/DX2                !
 ! A41   A(19,24,26)           127.6062         estimate D2E/DX2                !
 ! A42   A(25,24,26)           113.9479         estimate D2E/DX2                !
 ! A43   A(1,26,24)            111.4106         estimate D2E/DX2                !
 ! A44   A(1,26,27)            110.0598         estimate D2E/DX2                !
 ! A45   A(1,26,28)            110.3496         estimate D2E/DX2                !
 ! A46   A(24,26,27)           107.7514         estimate D2E/DX2                !
 ! A47   A(24,26,28)           111.5332         estimate D2E/DX2                !
 ! A48   A(27,26,28)           105.5342         estimate D2E/DX2                !
 ! D1    D(2,1,4,5)             36.6393         estimate D2E/DX2                !
 ! D2    D(2,1,4,9)           -142.1846         estimate D2E/DX2                !
 ! D3    D(3,1,4,5)            151.41           estimate D2E/DX2                !
 ! D4    D(3,1,4,9)            -27.4139         estimate D2E/DX2                !
 ! D5    D(26,1,4,5)           -85.4696         estimate D2E/DX2                !
 ! D6    D(26,1,4,9)            95.7065         estimate D2E/DX2                !
 ! D7    D(2,1,26,24)           58.0225         estimate D2E/DX2                !
 ! D8    D(2,1,26,27)          -61.4376         estimate D2E/DX2                !
 ! D9    D(2,1,26,28)         -177.511          estimate D2E/DX2                !
 ! D10   D(3,1,26,24)          -56.9325         estimate D2E/DX2                !
 ! D11   D(3,1,26,27)         -176.3927         estimate D2E/DX2                !
 ! D12   D(3,1,26,28)           67.5339         estimate D2E/DX2                !
 ! D13   D(4,1,26,24)          179.5648         estimate D2E/DX2                !
 ! D14   D(4,1,26,27)           60.1046         estimate D2E/DX2                !
 ! D15   D(4,1,26,28)          -55.9688         estimate D2E/DX2                !
 ! D16   D(1,4,5,6)            -59.4969         estimate D2E/DX2                !
 ! D17   D(1,4,5,7)             60.5383         estimate D2E/DX2                !
 ! D18   D(1,4,5,8)           -179.4433         estimate D2E/DX2                !
 ! D19   D(9,4,5,6)            119.3759         estimate D2E/DX2                !
 ! D20   D(9,4,5,7)           -120.589          estimate D2E/DX2                !
 ! D21   D(9,4,5,8)             -0.5706         estimate D2E/DX2                !
 ! D22   D(1,4,9,10)           178.5979         estimate D2E/DX2                !
 ! D23   D(1,4,9,11)            -2.4842         estimate D2E/DX2                !
 ! D24   D(5,4,9,10)            -0.1651         estimate D2E/DX2                !
 ! D25   D(5,4,9,11)           178.7529         estimate D2E/DX2                !
 ! D26   D(4,9,11,12)          113.6873         estimate D2E/DX2                !
 ! D27   D(4,9,11,13)         -127.7546         estimate D2E/DX2                !
 ! D28   D(4,9,11,14)           -7.9251         estimate D2E/DX2                !
 ! D29   D(10,9,11,12)         -67.3521         estimate D2E/DX2                !
 ! D30   D(10,9,11,13)          51.206          estimate D2E/DX2                !
 ! D31   D(10,9,11,14)         171.0355         estimate D2E/DX2                !
 ! D32   D(16,15,19,20)         59.5982         estimate D2E/DX2                !
 ! D33   D(16,15,19,24)       -120.9858         estimate D2E/DX2                !
 ! D34   D(17,15,19,20)        -60.2549         estimate D2E/DX2                !
 ! D35   D(17,15,19,24)        119.161          estimate D2E/DX2                !
 ! D36   D(18,15,19,20)        179.6285         estimate D2E/DX2                !
 ! D37   D(18,15,19,24)         -0.9556         estimate D2E/DX2                !
 ! D38   D(15,19,20,21)         52.7846         estimate D2E/DX2                !
 ! D39   D(15,19,20,22)        -66.5567         estimate D2E/DX2                !
 ! D40   D(15,19,20,23)        172.3405         estimate D2E/DX2                !
 ! D41   D(24,19,20,21)       -126.6016         estimate D2E/DX2                !
 ! D42   D(24,19,20,22)        114.0571         estimate D2E/DX2                !
 ! D43   D(24,19,20,23)         -7.0457         estimate D2E/DX2                !
 ! D44   D(15,19,24,25)         -0.5199         estimate D2E/DX2                !
 ! D45   D(15,19,24,26)        178.4269         estimate D2E/DX2                !
 ! D46   D(20,19,24,25)        178.8298         estimate D2E/DX2                !
 ! D47   D(20,19,24,26)         -2.2234         estimate D2E/DX2                !
 ! D48   D(19,24,26,1)         103.3682         estimate D2E/DX2                !
 ! D49   D(19,24,26,27)       -135.81           estimate D2E/DX2                !
 ! D50   D(19,24,26,28)        -20.43           estimate D2E/DX2                !
 ! D51   D(25,24,26,1)         -77.6451         estimate D2E/DX2                !
 ! D52   D(25,24,26,27)         43.1768         estimate D2E/DX2                !
 ! D53   D(25,24,26,28)        158.5567         estimate D2E/DX2                !
 --------------------------------------------------------------------------------
 Trust Radius=3.00D-01 FncErr=1.00D-07 GrdErr=1.00D-06 EigMax=2.50D+02 EigMin=1.00D-04
 Number of steps in this run=    138 maximum allowed number of steps=    168.
 GradGradGradGradGradGradGradGradGradGradGradGradGradGradGradGradGradGrad

 Leave Link  103 at Tue Jul  6 11:10:10 2021, MaxMem=   524288000 cpu:               0.3 elap:               0.1
 (Enter /opt/gaussian/g16_legacy/l202.exe)
                          Input orientation:                          
 ---------------------------------------------------------------------
 Center     Atomic      Atomic             Coordinates (Angstroms)
 Number     Number       Type             X           Y           Z
 ---------------------------------------------------------------------
      1          6           0       -0.675200    0.847000   -0.382500
      2          1           0       -0.435600    1.731200   -0.988500
      3          1           0       -0.500700    1.160800    0.653600
      4          6           0       -2.131200    0.485200   -0.591600
      5          6           0       -2.645800    0.692300   -1.993000
      6          1           0       -2.541000    1.742400   -2.284600
      7          1           0       -2.084200    0.075800   -2.701900
      8          1           0       -3.703700    0.426100   -2.090000
      9          6           0       -2.949500    0.031800    0.378700
     10          1           0       -3.988900   -0.178300    0.128200
     11          6           0       -2.600000   -0.252500    1.805300
     12          1           0       -3.122100    0.449200    2.462700
     13          1           0       -2.922600   -1.266200    2.064300
     14          1           0       -1.529500   -0.189400    2.012700
     15          6           0        3.956000    0.163000    0.505400
     16          1           0        4.622400   -0.705600    0.525100
     17          1           0        4.146200    0.768600    1.397600
     18          1           0        4.222700    0.766200   -0.368800
     19          6           0        2.518000   -0.284900    0.474900
     20          6           0        2.106600   -1.125000    1.652400
     21          1           0        2.359300   -0.611800    2.586600
     22          1           0        2.634200   -2.084100    1.632900
     23          1           0        1.034400   -1.330900    1.685700
     24          6           0        1.707600    0.075500   -0.539500
     25          1           0        2.115000    0.704700   -1.331000
     26          6           0        0.265800   -0.306700   -0.743800
     27          1           0        0.138400   -0.580000   -1.798900
     28          1           0        0.003500   -1.204500   -0.174600
 ---------------------------------------------------------------------
                    Distance matrix (angstroms):
                    1          2          3          4          5
     1  C    0.000000
     2  H    1.098387   0.000000
     3  H    1.096551   1.739565   0.000000
     4  C    1.514780   2.141286   2.159974   0.000000
     5  C    2.549688   2.640704   3.438813   1.507191   0.000000
     6  H    2.810860   2.472389   3.624100   2.148194   1.094862
     7  H    2.821285   2.897235   3.865757   2.150159   1.094535
     8  H    3.502074   3.687420   4.280927   2.172890   1.095182
     9  C    2.533065   3.328196   2.710504   1.347838   2.480616
    10  H    3.506089   4.185588   3.773165   2.099856   2.657320
    11  C    3.114518   4.052778   2.780448   2.551295   3.914311
    12  H    3.773689   4.557586   3.263580   3.211219   4.487674
    13  H    3.937417   4.948653   3.707560   3.278341   4.513759
    14  H    2.746077   3.727267   2.174540   2.756720   4.250783
    15  C    4.764896   4.896646   4.569436   6.193644   7.078554
    16  H    5.594539   5.814838   5.454000   6.948103   7.818036
    17  H    5.140117   5.254804   4.722397   6.591129   7.591657
    18  H    4.898586   4.797396   4.848868   6.364012   7.058313
    19  C    3.494690   3.863930   3.351795   4.831722   5.806056
    20  C    3.970896   4.647043   3.608392   5.058382   6.259139
    21  H    4.489080   5.107098   3.880490   5.609720   6.908288
    22  H    4.858530   5.554451   4.616926   5.853097   6.980970
    23  H    3.455927   4.323043   3.103278   4.301783   5.583014
    24  C    2.509501   2.745223   2.734585   3.860952   4.630896
    25  H    2.950444   2.770662   3.314898   4.315682   4.806622
    26  C    1.532006   2.169073   2.166519   2.529008   3.322035
    27  H    2.168977   2.515526   3.074669   2.782680   3.067278
    28  H    2.170831   3.077918   2.556321   2.754255   3.731383
                    6          7          8          9         10
     6  H    0.000000
     7  H    1.777740   0.000000
     8  H    1.767027   1.766327   0.000000
     9  C    3.191581   3.200121   2.611277   0.000000
    10  H    3.406920   3.420806   2.316689   1.089608   0.000000
    11  C    4.550867   4.548481   4.105120   1.496050   2.178810
    12  H    4.954483   5.281075   4.589757   2.132386   2.568071
    13  H    5.301908   5.022006   4.553263   2.127622   2.463535
    14  H    4.818897   4.754522   4.683816   2.176071   3.098405
    15  C    7.244972   6.839473   8.091744   6.907908   7.961168
    16  H    8.074739   7.483488   8.800195   7.609130   8.636554
    17  H    7.695812   7.490244   8.596603   7.206247   8.287813
    18  H    7.097246   6.759955   8.118252   7.248348   8.280668
    19  C    6.108868   5.603785   6.767110   5.477509   6.517002
    20  C    6.732172   6.161546   7.083153   5.340847   6.354097
    21  H    7.299574   6.941593   7.727082   5.785534   6.821385
    22  H    7.534693   6.761580   7.767243   6.101455   7.054194
    23  H    6.163760   5.563767   6.308134   4.408703   5.384035
    24  C    4.886157   4.365057   5.639959   4.746955   5.741111
    25  H    4.864618   4.461856   5.874604   5.387488   6.337708
    26  C    3.801447   3.082687   4.255136   3.422388   4.345037
    27  H    3.578915   2.487053   3.982299   3.827710   4.572711
    28  H    4.428408   3.519219   4.480061   3.248813   4.133283
                   11         12         13         14         15
    11  C    0.000000
    12  H    1.094142   0.000000
    13  H    1.094870   1.772321   0.000000
    14  H    1.092230   1.773890   1.761502   0.000000
    15  C    6.696530   7.349315   7.196382   5.699724   0.000000
    16  H    7.348964   8.066296   7.720779   6.350220   1.094963
    17  H    6.835209   7.352866   7.385989   5.788755   1.094965
    18  H    7.232821   7.878069   7.817029   6.298612   1.095082
    19  C    5.288189   6.025029   5.752327   4.330843   1.506449
    20  C    4.789229   5.520326   5.048015   3.771788   2.528801
    21  H    5.033307   5.584516   5.347850   3.953549   2.735171
    22  H    5.548092   6.343593   5.633213   4.590265   2.840400
    23  H    3.792903   4.587916   3.975597   2.825515   3.487204
    24  C    4.915393   5.699023   5.478931   4.130704   2.480882
    25  H    5.743155   6.471836   6.386699   5.026144   2.656141
    26  C    3.835839   4.725557   4.355681   3.291679   3.924117
    27  H    4.538320   5.463639   4.976435   4.178846   4.520610
    28  H    3.406541   4.411287   3.684907   2.857411   4.237300
                   16         17         18         19         20
    16  H    0.000000
    17  H    1.778001   0.000000
    18  H    1.767770   1.768057   0.000000
    19  C    2.146627   2.147620   2.173164   0.000000
    20  C    2.788539   2.794747   3.484217   1.503837   0.000000
    21  H    3.062712   2.551908   3.755733   2.142738   1.095427
    22  H    2.660906   3.237191   3.828099   2.142799   1.094813
    23  H    3.822530   3.764864   4.334058   2.182022   1.092299
    24  C    3.199930   3.190535   2.613797   1.347458   2.530776
    25  H    3.423610   3.402222   2.317760   2.098331   3.499793
    26  C    4.555128   4.560632   4.116892   2.560881   3.130485
    27  H    5.052030   5.300830   4.531991   3.304504   4.010275
    28  H    4.698161   4.850454   4.660796   2.755036   2.786984
                   21         22         23         24         25
    21  H    0.000000
    22  H    1.775607   0.000000
    23  H    1.756156   1.769027   0.000000
    24  C    3.266435   3.200278   2.717108   0.000000
    25  H    4.140102   4.102643   3.796293   1.090110   0.000000
    26  C    3.945553   3.796995   2.746307   1.505524   2.187984
    27  H    4.915894   4.502065   3.675473   2.116166   2.403400
    28  H    3.677678   3.310791   2.130598   2.162292   3.072578
                   26         27         28
    26  C    0.000000
    27  H    1.097342   0.000000
    28  H    1.094913   1.745437   0.000000
 Stoichiometry    C10H18
 Framework group  C1[X(C10H18)]
 Deg. of freedom    78
 Full point group                 C1      NOp   1
 Largest Abelian subgroup         C1      NOp   1
 Largest concise Abelian subgroup C1      NOp   1
                         Standard orientation:                         
 ---------------------------------------------------------------------
 Center     Atomic      Atomic             Coordinates (Angstroms)
 Number     Number       Type             X           Y           Z
 ---------------------------------------------------------------------
      1          6           0        0.793814   -0.586432    0.589159
      2          1           0        0.745982   -1.484308    1.220019
      3          1           0        0.484589    0.235308    1.246081
      4          6           0        2.220895   -0.386971    0.122026
      5          6           0        2.975642   -1.655040   -0.184540
      6          1           0        3.025313   -2.291711    0.704789
      7          1           0        2.478694   -2.212159   -0.984956
      8          1           0        4.003223   -1.458214   -0.508208
      9          6           0        2.820217    0.813938   -0.001660
     10          1           0        3.860326    0.846769   -0.324679
     11          6           0        2.215686    2.161826    0.234784
     12          1           0        2.690790    2.635723    1.098985
     13          1           0        2.388746    2.797173   -0.639930
     14          1           0        1.137413    2.131917    0.406248
     15          6           0       -3.965068   -0.407963    0.429685
     16          1           0       -4.709109   -0.227498   -0.353117
     17          1           0       -4.237044    0.181231    1.311630
     18          1           0       -4.023741   -1.466038    0.705798
     19          6           0       -2.593436   -0.018218   -0.056232
     20          6           0       -2.465962    1.425877   -0.456063
     21          1           0       -2.815373    2.072749    0.355990
     22          1           0       -3.076406    1.626062   -1.342572
     23          1           0       -1.439614    1.725954   -0.678952
     24          6           0       -1.596288   -0.923560   -0.097397
     25          1           0       -1.803972   -1.940147    0.236905
     26          6           0       -0.185966   -0.715576   -0.581481
     27          1           0        0.084181   -1.577122   -1.205115
     28          1           0       -0.111200    0.157022   -1.238609
 ---------------------------------------------------------------------
 Rotational constants (GHZ):           2.2181702           0.5802373           0.4854297
 Leave Link  202 at Tue Jul  6 11:10:11 2021, MaxMem=   524288000 cpu:               0.5 elap:               0.2
 (Enter /opt/gaussian/g16_legacy/l301.exe)
 Standard basis: 6-31G(d,p) (6D, 7F)
 Ernie: Thresh=  0.10000D-02 Tol=  0.10000D-05 Strict=F.
 There are   240 symmetry adapted cartesian basis functions of A   symmetry.
 There are   240 symmetry adapted basis functions of A   symmetry.
   240 basis functions,   406 primitive gaussians,   240 cartesian basis functions
    39 alpha electrons       39 beta electrons
       nuclear repulsion energy       516.4390380438 Hartrees.
 IExCor= 4336 DFT=T Ex+Corr=M062X ExCW=0 ScaHFX=  0.540000
 ScaDFX=  1.000000  1.000000  1.000000  1.000000 ScalE2=  1.000000  1.000000
 IRadAn=      5 IRanWt=     -1 IRanGd=            0 ICorTp=0 IEmpDi=  4
 NAtoms=   28 NActive=   28 NUniq=   28 SFac= 1.00D+00 NAtFMM=   60 NAOKFM=F Big=F
 Integral buffers will be    131072 words long.
 Raffenetti 2 integral format.
 Two-electron integral symmetry is turned on.
 Leave Link  301 at Tue Jul  6 11:10:11 2021, MaxMem=   524288000 cpu:               0.9 elap:               0.2
 (Enter /opt/gaussian/g16_legacy/l302.exe)
 NPDir=0 NMtPBC=     1 NCelOv=     1 NCel=       1 NClECP=     1 NCelD=      1
         NCelK=      1 NCelE2=     1 NClLst=     1 CellRange=     0.0.
 One-electron integrals computed using PRISM.
 One-electron integral symmetry used in STVInt
 NBasis=   240 RedAO= T EigKep=  2.10D-03  NBF=   240
 NBsUse=   240 1.00D-06 EigRej= -1.00D+00 NBFU=   240
 Precomputing XC quadrature grid using
 IXCGrd= 4 IRadAn=           5 IRanWt=          -1 IRanGd=           0 AccXCQ= 0.00D+00.
 Generated NRdTot=       0 NPtTot=           0 NUsed=           0 NTot=          32
 NSgBfM=   240   240   240   240   240 MxSgAt=    28 MxSgA2=    28.
 Leave Link  302 at Tue Jul  6 11:10:12 2021, MaxMem=   524288000 cpu:               4.8 elap:               1.0
 (Enter /opt/gaussian/g16_legacy/l303.exe)
 DipDrv:  MaxL=1.
 Leave Link  303 at Tue Jul  6 11:10:12 2021, MaxMem=   524288000 cpu:               0.6 elap:               0.2
 (Enter /opt/gaussian/g16_legacy/l401.exe)
 ExpMin= 1.61D-01 ExpMax= 3.05D+03 ExpMxC= 4.57D+02 IAcc=3 IRadAn=         5 AccDes= 0.00D+00
 Harris functional with IExCor= 1009 and IRadAn=       5 diagonalized for initial guess.
 HarFok:  IExCor= 1009 AccDes= 0.00D+00 IRadAn=         5 IDoV= 1 UseB2=F ITyADJ=14
 ICtDFT=  3500011 ScaDFX=  1.000000  1.000000  1.000000  1.000000
 FoFCou: FMM=F IPFlag=           0 FMFlag=      100000 FMFlg1=           0
         NFxFlg=           0 DoJE=T BraDBF=F KetDBF=T FulRan=T
         wScrn=  0.000000 ICntrl=       500 IOpCl=  0 I1Cent=   200000004 NGrid=           0
         NMat0=    1 NMatS0=      1 NMatT0=    0 NMatD0=    1 NMtDS0=    0 NMtDT0=    0
 Petite list used in FoFCou.
 Harris En= -391.655461321811    
 JPrj=0 DoOrth=F DoCkMO=F.
 Leave Link  401 at Tue Jul  6 11:10:16 2021, MaxMem=   524288000 cpu:              20.5 elap:               3.6
 (Enter /opt/gaussian/g16_legacy/l502.exe)
 Integral symmetry usage will be decided dynamically.
 Closed shell SCF:
 Using DIIS extrapolation, IDIIS=  1040.
 NGot=   524288000 LenX=   524168546 LenY=   524110505
 Requested convergence on RMS density matrix=1.00D-08 within 128 cycles.
 Requested convergence on MAX density matrix=1.00D-06.
 Requested convergence on             energy=1.00D-06.
 No special actions if energy rises.
 Fock matrices will be formed incrementally for  20 cycles.
 Integral accuracy reduced to 1.0D-05 until final iterations.

 Cycle   1  Pass 0  IDiag  1:
 FoFJK:  IHMeth= 1 ICntrl=       0 DoSepK=F KAlg= 0 I1Cent=           0 FoldK=F
 IRaf= 860000000 NMat=       1 IRICut=       1 DoRegI=T DoRafI=F ISym2E= 0 IDoP0=0 IntGTp=1.
 FoFCou: FMM=F IPFlag=           0 FMFlag=      100000 FMFlg1=           0
         NFxFlg=           0 DoJE=F BraDBF=F KetDBF=F FulRan=T
         wScrn=  0.000000 ICntrl=         0 IOpCl=  0 I1Cent=           0 NGrid=           0
         NMat0=    1 NMatS0=      1 NMatT0=    0 NMatD0=    1 NMtDS0=    0 NMtDT0=    0
 Symmetry not used in FoFCou.
 E= -391.299461120156    
 DIIS: error= 3.62D-02 at cycle   1 NSaved=   1.
 NSaved= 1 IEnMin= 1 EnMin= -391.299461120156     IErMin= 1 ErrMin= 3.62D-02
 ErrMax= 3.62D-02  0.00D+00 EMaxC= 1.00D-01 BMatC= 3.69D-01 BMatP= 3.69D-01
 IDIUse=3 WtCom= 6.38D-01 WtEn= 3.62D-01
 Coeff-Com:  0.100D+01
 Coeff-En:   0.100D+01
 Coeff:      0.100D+01
 Gap=     0.340 Goal=   None    Shift=    0.000
 GapD=    0.340 DampG=1.000 DampE=0.500 DampFc=0.5000 IDamp=-1.
 Damping current iteration by 5.00D-01
 RMSDP=4.37D-03 MaxDP=1.14D-01              OVMax= 1.41D-01

 Cycle   2  Pass 0  IDiag  1:
 RMSU=  2.14D-03    CP:  9.75D-01
 E= -391.508198219836     Delta-E=       -0.208737099680 Rises=F Damp=T
 DIIS: error= 9.75D-03 at cycle   2 NSaved=   2.
 NSaved= 2 IEnMin= 2 EnMin= -391.508198219836     IErMin= 2 ErrMin= 9.75D-03
 ErrMax= 9.75D-03  0.00D+00 EMaxC= 1.00D-01 BMatC= 2.10D-02 BMatP= 3.69D-01
 IDIUse=3 WtCom= 9.02D-01 WtEn= 9.75D-02
 Coeff-Com: -0.153D+00 0.115D+01
 Coeff-En:   0.000D+00 0.100D+01
 Coeff:     -0.138D+00 0.114D+01
 Gap=     0.374 Goal=   None    Shift=    0.000
 RMSDP=8.31D-04 MaxDP=2.64D-02 DE=-2.09D-01 OVMax= 6.20D-02

 Cycle   3  Pass 0  IDiag  1:
 RMSU=  7.86D-04    CP:  9.69D-01  1.12D+00
 E= -391.687881454042     Delta-E=       -0.179683234206 Rises=F Damp=F
 DIIS: error= 1.35D-03 at cycle   3 NSaved=   3.
 NSaved= 3 IEnMin= 3 EnMin= -391.687881454042     IErMin= 3 ErrMin= 1.35D-03
 ErrMax= 1.35D-03  0.00D+00 EMaxC= 1.00D-01 BMatC= 6.06D-04 BMatP= 2.10D-02
 IDIUse=3 WtCom= 9.86D-01 WtEn= 1.35D-02
 Coeff-Com: -0.271D-01 0.123D+00 0.904D+00
 Coeff-En:   0.000D+00 0.000D+00 0.100D+01
 Coeff:     -0.267D-01 0.121D+00 0.906D+00
 Gap=     0.338 Goal=   None    Shift=    0.000
 RMSDP=1.86D-04 MaxDP=5.90D-03 DE=-1.80D-01 OVMax= 7.14D-03

 Cycle   4  Pass 0  IDiag  1:
 RMSU=  1.67D-04    CP:  9.68D-01  1.15D+00  9.36D-01
 E= -391.688276078031     Delta-E=       -0.000394623989 Rises=F Damp=F
 DIIS: error= 6.81D-04 at cycle   4 NSaved=   4.
 NSaved= 4 IEnMin= 4 EnMin= -391.688276078031     IErMin= 4 ErrMin= 6.81D-04
 ErrMax= 6.81D-04  0.00D+00 EMaxC= 1.00D-01 BMatC= 2.11D-04 BMatP= 6.06D-04
 IDIUse=3 WtCom= 9.93D-01 WtEn= 6.81D-03
 Coeff-Com: -0.598D-02 0.232D-01 0.378D+00 0.605D+00
 Coeff-En:   0.000D+00 0.000D+00 0.168D+00 0.832D+00
 Coeff:     -0.594D-02 0.231D-01 0.376D+00 0.607D+00
 Gap=     0.338 Goal=   None    Shift=    0.000
 RMSDP=8.15D-05 MaxDP=2.59D-03 DE=-3.95D-04 OVMax= 5.61D-03

 Cycle   5  Pass 0  IDiag  1:
 RMSU=  4.22D-05    CP:  9.68D-01  1.14D+00  9.77D-01  6.35D-01
 E= -391.688469489399     Delta-E=       -0.000193411368 Rises=F Damp=F
 DIIS: error= 2.84D-04 at cycle   5 NSaved=   5.
 NSaved= 5 IEnMin= 5 EnMin= -391.688469489399     IErMin= 5 ErrMin= 2.84D-04
 ErrMax= 2.84D-04  0.00D+00 EMaxC= 1.00D-01 BMatC= 2.40D-05 BMatP= 2.11D-04
 IDIUse=3 WtCom= 9.97D-01 WtEn= 2.84D-03
 Coeff-Com:  0.346D-03-0.121D-02 0.929D-01 0.287D+00 0.621D+00
 Coeff-En:   0.000D+00 0.000D+00 0.000D+00 0.000D+00 0.100D+01
 Coeff:      0.345D-03-0.120D-02 0.926D-01 0.287D+00 0.622D+00
 Gap=     0.338 Goal=   None    Shift=    0.000
 RMSDP=2.29D-05 MaxDP=9.77D-04 DE=-1.93D-04 OVMax= 1.92D-03

 Cycle   6  Pass 0  IDiag  1:
 RMSU=  1.45D-05    CP:  9.68D-01  1.14D+00  9.84D-01  6.97D-01  6.87D-01
 E= -391.688492227241     Delta-E=       -0.000022737842 Rises=F Damp=F
 DIIS: error= 6.72D-05 at cycle   6 NSaved=   6.
 NSaved= 6 IEnMin= 6 EnMin= -391.688492227241     IErMin= 6 ErrMin= 6.72D-05
 ErrMax= 6.72D-05  0.00D+00 EMaxC= 1.00D-01 BMatC= 1.86D-06 BMatP= 2.40D-05
 IDIUse=1 WtCom= 1.00D+00 WtEn= 0.00D+00
 Coeff-Com:  0.878D-03-0.301D-02 0.710D-02 0.764D-01 0.275D+00 0.643D+00
 Coeff:      0.878D-03-0.301D-02 0.710D-02 0.764D-01 0.275D+00 0.643D+00
 Gap=     0.338 Goal=   None    Shift=    0.000
 RMSDP=6.45D-06 MaxDP=2.36D-04 DE=-2.27D-05 OVMax= 5.17D-04

 Initial convergence to 1.0D-05 achieved.  Increase integral accuracy.
 Cycle   7  Pass 1  IDiag  1:
 E= -391.688477894168     Delta-E=        0.000014333073 Rises=F Damp=F
 DIIS: error= 1.93D-05 at cycle   1 NSaved=   1.
 NSaved= 1 IEnMin= 1 EnMin= -391.688477894168     IErMin= 1 ErrMin= 1.93D-05
 ErrMax= 1.93D-05  0.00D+00 EMaxC= 1.00D-01 BMatC= 2.24D-07 BMatP= 2.24D-07
 IDIUse=1 WtCom= 1.00D+00 WtEn= 0.00D+00
 Coeff-Com:  0.100D+01
 Coeff:      0.100D+01
 Gap=     0.338 Goal=   None    Shift=    0.000
 RMSDP=6.45D-06 MaxDP=2.36D-04 DE= 1.43D-05 OVMax= 2.07D-04

 Cycle   8  Pass 1  IDiag  1:
 RMSU=  7.78D-06    CP:  1.00D+00
 E= -391.688478004944     Delta-E=       -0.000000110776 Rises=F Damp=F
 DIIS: error= 1.48D-05 at cycle   2 NSaved=   2.
 NSaved= 2 IEnMin= 2 EnMin= -391.688478004944     IErMin= 2 ErrMin= 1.48D-05
 ErrMax= 1.48D-05  0.00D+00 EMaxC= 1.00D-01 BMatC= 1.25D-07 BMatP= 2.24D-07
 IDIUse=1 WtCom= 1.00D+00 WtEn= 0.00D+00
 Coeff-Com:  0.409D+00 0.591D+00
 Coeff:      0.409D+00 0.591D+00
 Gap=     0.338 Goal=   None    Shift=    0.000
 RMSDP=1.64D-06 MaxDP=6.87D-05 DE=-1.11D-07 OVMax= 1.46D-04

 Cycle   9  Pass 1  IDiag  1:
 RMSU=  1.63D-06    CP:  1.00D+00  9.70D-01
 E= -391.688478111231     Delta-E=       -0.000000106287 Rises=F Damp=F
 DIIS: error= 6.59D-06 at cycle   3 NSaved=   3.
 NSaved= 3 IEnMin= 3 EnMin= -391.688478111231     IErMin= 3 ErrMin= 6.59D-06
 ErrMax= 6.59D-06  0.00D+00 EMaxC= 1.00D-01 BMatC= 1.70D-08 BMatP= 1.25D-07
 IDIUse=1 WtCom= 1.00D+00 WtEn= 0.00D+00
 Coeff-Com:  0.102D-01 0.261D+00 0.729D+00
 Coeff:      0.102D-01 0.261D+00 0.729D+00
 Gap=     0.338 Goal=   None    Shift=    0.000
 RMSDP=6.23D-07 MaxDP=2.42D-05 DE=-1.06D-07 OVMax= 5.69D-05

 Cycle  10  Pass 1  IDiag  1:
 RMSU=  3.76D-07    CP:  1.00D+00  1.01D+00  7.51D-01
 E= -391.688478126692     Delta-E=       -0.000000015461 Rises=F Damp=F
 DIIS: error= 1.92D-06 at cycle   4 NSaved=   4.
 NSaved= 4 IEnMin= 4 EnMin= -391.688478126692     IErMin= 4 ErrMin= 1.92D-06
 ErrMax= 1.92D-06  0.00D+00 EMaxC= 1.00D-01 BMatC= 1.84D-09 BMatP= 1.70D-08
 IDIUse=1 WtCom= 1.00D+00 WtEn= 0.00D+00
 Coeff-Com: -0.205D-01 0.949D-01 0.369D+00 0.557D+00
 Coeff:     -0.205D-01 0.949D-01 0.369D+00 0.557D+00
 Gap=     0.338 Goal=   None    Shift=    0.000
 RMSDP=1.87D-07 MaxDP=5.96D-06 DE=-1.55D-08 OVMax= 1.36D-05

 Cycle  11  Pass 1  IDiag  1:
 RMSU=  1.32D-07    CP:  1.00D+00  1.01D+00  7.94D-01  7.02D-01
 E= -391.688478128604     Delta-E=       -0.000000001912 Rises=F Damp=F
 DIIS: error= 2.30D-07 at cycle   5 NSaved=   5.
 NSaved= 5 IEnMin= 5 EnMin= -391.688478128604     IErMin= 5 ErrMin= 2.30D-07
 ErrMax= 2.30D-07  0.00D+00 EMaxC= 1.00D-01 BMatC= 2.19D-11 BMatP= 1.84D-09
 IDIUse=1 WtCom= 1.00D+00 WtEn= 0.00D+00
 Coeff-Com: -0.332D-02-0.306D-02 0.258D-02 0.797D-01 0.924D+00
 Coeff:     -0.332D-02-0.306D-02 0.258D-02 0.797D-01 0.924D+00
 Gap=     0.338 Goal=   None    Shift=    0.000
 RMSDP=3.75D-08 MaxDP=8.49D-07 DE=-1.91D-09 OVMax= 1.64D-06

 Cycle  12  Pass 1  IDiag  1:
 RMSU=  2.78D-08    CP:  1.00D+00  1.01D+00  7.96D-01  7.66D-01  1.02D+00
 E= -391.688478128633     Delta-E=       -0.000000000029 Rises=F Damp=F
 DIIS: error= 7.12D-08 at cycle   6 NSaved=   6.
 NSaved= 6 IEnMin= 6 EnMin= -391.688478128633     IErMin= 6 ErrMin= 7.12D-08
 ErrMax= 7.12D-08  0.00D+00 EMaxC= 1.00D-01 BMatC= 2.55D-12 BMatP= 2.19D-11
 IDIUse=1 WtCom= 1.00D+00 WtEn= 0.00D+00
 Coeff-Com:  0.737D-03-0.862D-02-0.300D-01-0.201D-01 0.280D+00 0.778D+00
 Coeff:      0.737D-03-0.862D-02-0.300D-01-0.201D-01 0.280D+00 0.778D+00
 Gap=     0.338 Goal=   None    Shift=    0.000
 RMSDP=1.12D-08 MaxDP=1.95D-07 DE=-2.93D-11 OVMax= 5.07D-07

 Cycle  13  Pass 1  IDiag  1:
 RMSU=  5.30D-09    CP:  1.00D+00  1.01D+00  7.96D-01  7.76D-01  1.08D+00
                    CP:  8.87D-01
 E= -391.688478128633     Delta-E=        0.000000000000 Rises=F Damp=F
 DIIS: error= 1.98D-08 at cycle   7 NSaved=   7.
 NSaved= 7 IEnMin= 6 EnMin= -391.688478128633     IErMin= 7 ErrMin= 1.98D-08
 ErrMax= 1.98D-08  0.00D+00 EMaxC= 1.00D-01 BMatC= 1.53D-13 BMatP= 2.55D-12
 IDIUse=1 WtCom= 1.00D+00 WtEn= 0.00D+00
 Coeff-Com:  0.381D-03-0.257D-02-0.977D-02-0.962D-02 0.501D-01 0.259D+00
 Coeff-Com:  0.713D+00
 Coeff:      0.381D-03-0.257D-02-0.977D-02-0.962D-02 0.501D-01 0.259D+00
 Coeff:      0.713D+00
 Gap=     0.338 Goal=   None    Shift=    0.000
 RMSDP=1.95D-09 MaxDP=5.93D-08 DE= 0.00D+00 OVMax= 1.14D-07

 SCF Done:  E(RM062X) =  -391.688478129     A.U. after   13 cycles
            NFock= 13  Conv=0.19D-08     -V/T= 2.0093
 KE= 3.880863812215D+02 PE=-1.937911377834D+03 EE= 6.416974804404D+02
 Leave Link  502 at Tue Jul  6 11:11:33 2021, MaxMem=   524288000 cpu:             461.8 elap:              77.1
 (Enter /opt/gaussian/g16_legacy/l601.exe)
 Copying SCF densities to generalized density rwf, IOpCl= 0 IROHF=0.

 **********************************************************************

            Population analysis using the SCF density.

 **********************************************************************

 Orbital symmetries:
       Occupied  (A) (A) (A) (A) (A) (A) (A) (A) (A) (A) (A) (A)
                 (A) (A) (A) (A) (A) (A) (A) (A) (A) (A) (A) (A)
                 (A) (A) (A) (A) (A) (A) (A) (A) (A) (A) (A) (A)
                 (A) (A) (A)
       Virtual   (A) (A) (A) (A) (A) (A) (A) (A) (A) (A) (A) (A)
                 (A) (A) (A) (A) (A) (A) (A) (A) (A) (A) (A) (A)
                 (A) (A) (A) (A) (A) (A) (A) (A) (A) (A) (A) (A)
                 (A) (A) (A) (A) (A) (A) (A) (A) (A) (A) (A) (A)
                 (A) (A) (A) (A) (A) (A) (A) (A) (A) (A) (A) (A)
                 (A) (A) (A) (A) (A) (A) (A) (A) (A) (A) (A) (A)
                 (A) (A) (A) (A) (A) (A) (A) (A) (A) (A) (A) (A)
                 (A) (A) (A) (A) (A) (A) (A) (A) (A) (A) (A) (A)
                 (A) (A) (A) (A) (A) (A) (A) (A) (A) (A) (A) (A)
                 (A) (A) (A) (A) (A) (A) (A) (A) (A) (A) (A) (A)
                 (A) (A) (A) (A) (A) (A) (A) (A) (A) (A) (A) (A)
                 (A) (A) (A) (A) (A) (A) (A) (A) (A) (A) (A) (A)
                 (A) (A) (A) (A) (A) (A) (A) (A) (A) (A) (A) (A)
                 (A) (A) (A) (A) (A) (A) (A) (A) (A) (A) (A) (A)
                 (A) (A) (A) (A) (A) (A) (A) (A) (A) (A) (A) (A)
                 (A) (A) (A) (A) (A) (A) (A) (A) (A) (A) (A) (A)
                 (A) (A) (A) (A) (A) (A) (A) (A) (A)
 The electronic state is 1-A.
 Alpha  occ. eigenvalues --  -10.54671 -10.54137 -10.53914 -10.53826 -10.53599
 Alpha  occ. eigenvalues --  -10.53346 -10.53307 -10.53262 -10.53190 -10.53179
 Alpha  occ. eigenvalues --   -0.91983  -0.89943  -0.84730  -0.81567  -0.77855
 Alpha  occ. eigenvalues --   -0.76077  -0.71688  -0.68490  -0.58978  -0.57711
 Alpha  occ. eigenvalues --   -0.54372  -0.51496  -0.50504  -0.49868  -0.48812
 Alpha  occ. eigenvalues --   -0.47711  -0.46478  -0.45979  -0.44709  -0.43467
 Alpha  occ. eigenvalues --   -0.43025  -0.42543  -0.41665  -0.40334  -0.39821
 Alpha  occ. eigenvalues --   -0.37776  -0.36269  -0.28739  -0.27015
 Alpha virt. eigenvalues --    0.06794   0.07959   0.11969   0.14600   0.15413
 Alpha virt. eigenvalues --    0.17032   0.18290   0.18503   0.19841   0.20042
 Alpha virt. eigenvalues --    0.20849   0.21573   0.22490   0.22870   0.23345
 Alpha virt. eigenvalues --    0.24536   0.24823   0.25781   0.27103   0.28151
 Alpha virt. eigenvalues --    0.28989   0.29300   0.30606   0.30953   0.31570
 Alpha virt. eigenvalues --    0.38581   0.40159   0.47226   0.48086   0.54158
 Alpha virt. eigenvalues --    0.55036   0.55937   0.57744   0.59176   0.60104
 Alpha virt. eigenvalues --    0.60382   0.61457   0.62552   0.63185   0.64691
 Alpha virt. eigenvalues --    0.66793   0.68006   0.70961   0.72039   0.73581
 Alpha virt. eigenvalues --    0.74597   0.76522   0.77576   0.78254   0.79555
 Alpha virt. eigenvalues --    0.80229   0.81287   0.83200   0.84628   0.85680
 Alpha virt. eigenvalues --    0.88043   0.88893   0.89143   0.91645   0.92624
 Alpha virt. eigenvalues --    0.92948   0.94074   0.94881   0.95752   0.96202
 Alpha virt. eigenvalues --    0.96676   0.97254   0.98492   0.99387   1.00190
 Alpha virt. eigenvalues --    1.01151   1.02479   1.03314   1.05363   1.06069
 Alpha virt. eigenvalues --    1.13696   1.20901   1.21460   1.23431   1.25027
 Alpha virt. eigenvalues --    1.26778   1.32453   1.35463   1.36573   1.37414
 Alpha virt. eigenvalues --    1.39140   1.41560   1.44811   1.48207   1.49406
 Alpha virt. eigenvalues --    1.53509   1.60047   1.69033   1.69434   1.72409
 Alpha virt. eigenvalues --    1.75271   1.77838   1.79340   1.79622   1.83403
 Alpha virt. eigenvalues --    1.84897   1.86181   1.86985   1.88218   1.88885
 Alpha virt. eigenvalues --    1.90186   1.92638   1.93814   1.97990   2.01364
 Alpha virt. eigenvalues --    2.02140   2.03297   2.05497   2.09331   2.09996
 Alpha virt. eigenvalues --    2.10030   2.10157   2.12446   2.13498   2.13718
 Alpha virt. eigenvalues --    2.14733   2.15542   2.16444   2.18065   2.18387
 Alpha virt. eigenvalues --    2.19776   2.20942   2.22261   2.23013   2.26617
 Alpha virt. eigenvalues --    2.29115   2.29844   2.33191   2.33580   2.35524
 Alpha virt. eigenvalues --    2.37921   2.38398   2.43842   2.44470   2.45011
 Alpha virt. eigenvalues --    2.46590   2.48209   2.51220   2.52735   2.54810
 Alpha virt. eigenvalues --    2.57121   2.59332   2.61500   2.62801   2.64021
 Alpha virt. eigenvalues --    2.65999   2.68356   2.70374   2.71627   2.73365
 Alpha virt. eigenvalues --    2.74286   2.74595   2.76579   2.80573   2.83730
 Alpha virt. eigenvalues --    2.84913   2.85950   2.87181   2.88213   2.88612
 Alpha virt. eigenvalues --    2.90199   2.91593   2.93448   2.94407   3.01450
 Alpha virt. eigenvalues --    3.03766   3.08830   3.09669   3.17779   3.19467
 Alpha virt. eigenvalues --    3.20830   3.23270   3.28777   3.35680   3.39646
 Alpha virt. eigenvalues --    3.40327   3.41904   3.42750   3.43690   3.44211
 Alpha virt. eigenvalues --    3.45590   3.47036   3.48942   3.50683   3.52304
 Alpha virt. eigenvalues --    3.56644   4.18754   4.22309   4.34204   4.42625
 Alpha virt. eigenvalues --    4.48613   4.52623   4.53213   4.66945   4.69677
 Alpha virt. eigenvalues --    4.75920
          Condensed to atoms (all electrons):
               1          2          3          4          5          6
     1  C    5.038944   0.387563   0.383004   0.360395  -0.070593  -0.003943
     2  H    0.387563   0.610549  -0.034850  -0.037108  -0.006283   0.004558
     3  H    0.383004  -0.034850   0.600042  -0.030479   0.004632   0.000054
     4  C    0.360395  -0.037108  -0.030479   4.768641   0.368272  -0.034065
     5  C   -0.070593  -0.006283   0.004632   0.368272   5.000196   0.380021
     6  H   -0.003943   0.004558   0.000054  -0.034065   0.380021   0.589238
     7  H   -0.000028  -0.000382  -0.000002  -0.038777   0.382570  -0.034423
     8  H    0.004507   0.000106  -0.000169  -0.033915   0.385904  -0.027519
     9  C   -0.047673   0.003321  -0.007980   0.716357  -0.041391  -0.000619
    10  H    0.005615  -0.000173   0.000034  -0.030980  -0.013385   0.000322
    11  C   -0.013002   0.000262   0.000862  -0.044816   0.006115  -0.000173
    12  H    0.000190   0.000029   0.000203  -0.000871  -0.000150   0.000025
    13  H    0.000382  -0.000013  -0.000128   0.000949  -0.000148  -0.000004
    14  H    0.002654  -0.000097   0.002160  -0.008161   0.000091  -0.000002
    15  C   -0.000087   0.000002  -0.000084   0.000002  -0.000000  -0.000000
    16  H   -0.000005   0.000000   0.000002   0.000000  -0.000000   0.000000
    17  H    0.000020  -0.000001  -0.000005  -0.000000   0.000000  -0.000000
    18  H   -0.000003   0.000002  -0.000001   0.000000  -0.000000  -0.000000
    19  C   -0.003615   0.000189   0.001758   0.000049  -0.000004   0.000000
    20  C    0.000367  -0.000001   0.000513  -0.000021   0.000000   0.000000
    21  H    0.000074  -0.000000  -0.000095  -0.000003   0.000000  -0.000000
    22  H   -0.000036  -0.000000   0.000015   0.000002  -0.000000   0.000000
    23  H   -0.000196  -0.000006  -0.000047  -0.000042  -0.000000  -0.000000
    24  C   -0.053990  -0.001360  -0.000450   0.005664  -0.000091   0.000014
    25  H   -0.000657   0.002504  -0.000110  -0.000103   0.000007  -0.000003
    26  C    0.346199  -0.042554  -0.039218  -0.047340  -0.001588  -0.000223
    27  H   -0.042215  -0.005258   0.005616  -0.003103   0.001247   0.000094
    28  H   -0.039895   0.005557  -0.004840  -0.001520  -0.000056   0.000021
               7          8          9         10         11         12
     1  C   -0.000028   0.004507  -0.047673   0.005615  -0.013002   0.000190
     2  H   -0.000382   0.000106   0.003321  -0.000173   0.000262   0.000029
     3  H   -0.000002  -0.000169  -0.007980   0.000034   0.000862   0.000203
     4  C   -0.038777  -0.033915   0.716357  -0.030980  -0.044816  -0.000871
     5  C    0.382570   0.385904  -0.041391  -0.013385   0.006115  -0.000150
     6  H   -0.034423  -0.027519  -0.000619   0.000322  -0.000173   0.000025
     7  H    0.591390  -0.027653  -0.001216   0.000177  -0.000167  -0.000006
     8  H   -0.027653   0.574850  -0.005169   0.006167   0.000103  -0.000004
     9  C   -0.001216  -0.005169   4.894896   0.378234   0.360468  -0.036353
    10  H    0.000177   0.006167   0.378234   0.612217  -0.056030  -0.000412
    11  C   -0.000167   0.000103   0.360468  -0.056030   4.977035   0.385529
    12  H   -0.000006  -0.000004  -0.036353  -0.000412   0.385529   0.576289
    13  H    0.000019  -0.000011  -0.033295  -0.003161   0.386551  -0.031784
    14  H    0.000001   0.000007  -0.034062   0.004530   0.389226  -0.027467
    15  C   -0.000000   0.000000   0.000000   0.000000  -0.000000   0.000000
    16  H    0.000000   0.000000   0.000000   0.000000   0.000000   0.000000
    17  H    0.000000  -0.000000  -0.000000  -0.000000   0.000000  -0.000000
    18  H   -0.000000   0.000000  -0.000000   0.000000   0.000000  -0.000000
    19  C   -0.000001   0.000000   0.000000   0.000000   0.000009  -0.000000
    20  C   -0.000000  -0.000000   0.000009  -0.000000  -0.000147   0.000003
    21  H    0.000000  -0.000000   0.000000  -0.000000  -0.000003  -0.000000
    22  H    0.000000   0.000000   0.000000   0.000000   0.000003  -0.000000
    23  H    0.000000   0.000000  -0.000026   0.000001   0.000039  -0.000011
    24  C   -0.000157   0.000003   0.000100   0.000003  -0.000045   0.000003
    25  H    0.000015  -0.000000  -0.000001  -0.000000   0.000000   0.000000
    26  C    0.001437  -0.000036  -0.004423  -0.000096   0.000378  -0.000043
    27  H    0.001855  -0.000099   0.000056   0.000001  -0.000007  -0.000000
    28  H    0.000016  -0.000007   0.002444  -0.000077   0.000546   0.000021
              13         14         15         16         17         18
     1  C    0.000382   0.002654  -0.000087  -0.000005   0.000020  -0.000003
     2  H   -0.000013  -0.000097   0.000002   0.000000  -0.000001   0.000002
     3  H   -0.000128   0.002160  -0.000084   0.000002  -0.000005  -0.000001
     4  C    0.000949  -0.008161   0.000002   0.000000  -0.000000   0.000000
     5  C   -0.000148   0.000091  -0.000000  -0.000000   0.000000  -0.000000
     6  H   -0.000004  -0.000002  -0.000000   0.000000  -0.000000  -0.000000
     7  H    0.000019   0.000001  -0.000000   0.000000   0.000000  -0.000000
     8  H   -0.000011   0.000007   0.000000   0.000000  -0.000000   0.000000
     9  C   -0.033295  -0.034062   0.000000   0.000000  -0.000000  -0.000000
    10  H   -0.003161   0.004530   0.000000   0.000000  -0.000000   0.000000
    11  C    0.386551   0.389226  -0.000000   0.000000   0.000000   0.000000
    12  H   -0.031784  -0.027467   0.000000   0.000000  -0.000000  -0.000000
    13  H    0.579803  -0.029946  -0.000000  -0.000000   0.000000  -0.000000
    14  H   -0.029946   0.580115   0.000001  -0.000000  -0.000000  -0.000000
    15  C   -0.000000   0.000001   5.004464   0.382973   0.380434   0.385190
    16  H   -0.000000  -0.000000   0.382973   0.589317  -0.034293  -0.027295
    17  H    0.000000  -0.000000   0.380434  -0.034293   0.590109  -0.027131
    18  H   -0.000000  -0.000000   0.385190  -0.027295  -0.027131   0.572048
    19  C    0.000000  -0.000000   0.366852  -0.038109  -0.035983  -0.033012
    20  C   -0.000004   0.000041  -0.078893  -0.000500  -0.002160   0.004664
    21  H    0.000000   0.000028  -0.003609  -0.000851   0.004482   0.000032
    22  H   -0.000000  -0.000009  -0.001916   0.003709  -0.000680  -0.000069
    23  H    0.000035   0.001479   0.004781  -0.000005  -0.000049  -0.000168
    24  C   -0.000004  -0.000053  -0.037390  -0.001454  -0.000762  -0.004841
    25  H    0.000000  -0.000001  -0.013625   0.000217   0.000294   0.006075
    26  C    0.000077  -0.000056   0.005701  -0.000206  -0.000121   0.000120
    27  H    0.000001  -0.000009  -0.000181   0.000014  -0.000002  -0.000012
    28  H   -0.000095   0.000037   0.000089   0.000006  -0.000005   0.000010
              19         20         21         22         23         24
     1  C   -0.003615   0.000367   0.000074  -0.000036  -0.000196  -0.053990
     2  H    0.000189  -0.000001  -0.000000  -0.000000  -0.000006  -0.001360
     3  H    0.001758   0.000513  -0.000095   0.000015  -0.000047  -0.000450
     4  C    0.000049  -0.000021  -0.000003   0.000002  -0.000042   0.005664
     5  C   -0.000004   0.000000   0.000000  -0.000000  -0.000000  -0.000091
     6  H    0.000000   0.000000  -0.000000   0.000000  -0.000000   0.000014
     7  H   -0.000001  -0.000000   0.000000   0.000000   0.000000  -0.000157
     8  H    0.000000  -0.000000  -0.000000   0.000000   0.000000   0.000003
     9  C    0.000000   0.000009   0.000000   0.000000  -0.000026   0.000100
    10  H    0.000000  -0.000000  -0.000000   0.000000   0.000001   0.000003
    11  C    0.000009  -0.000147  -0.000003   0.000003   0.000039  -0.000045
    12  H   -0.000000   0.000003  -0.000000  -0.000000  -0.000011   0.000003
    13  H    0.000000  -0.000004   0.000000  -0.000000   0.000035  -0.000004
    14  H   -0.000000   0.000041   0.000028  -0.000009   0.001479  -0.000053
    15  C    0.366852  -0.078893  -0.003609  -0.001916   0.004781  -0.037390
    16  H   -0.038109  -0.000500  -0.000851   0.003709  -0.000005  -0.001454
    17  H   -0.035983  -0.002160   0.004482  -0.000680  -0.000049  -0.000762
    18  H   -0.033012   0.004664   0.000032  -0.000069  -0.000168  -0.004841
    19  C    4.732094   0.377696  -0.036196  -0.035984  -0.026769   0.718023
    20  C    0.377696   5.005602   0.385394   0.382678   0.382381  -0.052162
    21  H   -0.036196   0.385394   0.583405  -0.032578  -0.029616   0.000973
    22  H   -0.035984   0.382678  -0.032578   0.578092  -0.026676  -0.000064
    23  H   -0.026769   0.382381  -0.029616  -0.026676   0.574786  -0.008308
    24  C    0.718023  -0.052162   0.000973  -0.000064  -0.008308   4.917742
    25  H   -0.031857   0.006081  -0.000153  -0.000160   0.000027   0.374973
    26  C   -0.038344  -0.013677   0.000450   0.000173   0.002072   0.352775
    27  H    0.001801   0.000350  -0.000015   0.000031  -0.000073  -0.032070
    28  H   -0.006328   0.000825  -0.000146   0.000054   0.002744  -0.038033
              25         26         27         28
     1  C   -0.000657   0.346199  -0.042215  -0.039895
     2  H    0.002504  -0.042554  -0.005258   0.005557
     3  H   -0.000110  -0.039218   0.005616  -0.004840
     4  C   -0.000103  -0.047340  -0.003103  -0.001520
     5  C    0.000007  -0.001588   0.001247  -0.000056
     6  H   -0.000003  -0.000223   0.000094   0.000021
     7  H    0.000015   0.001437   0.001855   0.000016
     8  H   -0.000000  -0.000036  -0.000099  -0.000007
     9  C   -0.000001  -0.004423   0.000056   0.002444
    10  H   -0.000000  -0.000096   0.000001  -0.000077
    11  C    0.000000   0.000378  -0.000007   0.000546
    12  H    0.000000  -0.000043  -0.000000   0.000021
    13  H    0.000000   0.000077   0.000001  -0.000095
    14  H   -0.000001  -0.000056  -0.000009   0.000037
    15  C   -0.013625   0.005701  -0.000181   0.000089
    16  H    0.000217  -0.000206   0.000014   0.000006
    17  H    0.000294  -0.000121  -0.000002  -0.000005
    18  H    0.006075   0.000120  -0.000012   0.000010
    19  C   -0.031857  -0.038344   0.001801  -0.006328
    20  C    0.006081  -0.013677   0.000350   0.000825
    21  H   -0.000153   0.000450  -0.000015  -0.000146
    22  H   -0.000160   0.000173   0.000031   0.000054
    23  H    0.000027   0.002072  -0.000073   0.002744
    24  C    0.374973   0.352775  -0.032070  -0.038033
    25  H    0.613704  -0.052738  -0.004887   0.004707
    26  C   -0.052738   4.996722   0.387278   0.391491
    27  H   -0.004887   0.387278   0.604933  -0.034472
    28  H    0.004707   0.391491  -0.034472   0.599876
 Mulliken charges:
               1
     1  C   -0.253974
     2  H    0.113442
     3  H    0.119562
     4  C    0.090973
     5  C   -0.395368
     6  H    0.126628
     7  H    0.125332
     8  H    0.122935
     9  C   -0.143678
    10  H    0.097012
    11  C   -0.392735
    12  H    0.134810
    13  H    0.130776
    14  H    0.119494
    15  C   -0.394704
    16  H    0.126482
    17  H    0.125854
    18  H    0.124391
    19  C    0.087730
    20  C   -0.399039
    21  H    0.128425
    22  H    0.133416
    23  H    0.123647
    24  C   -0.139042
    25  H    0.095688
    26  C   -0.244211
    27  H    0.119125
    28  H    0.117029
 Sum of Mulliken charges =  -0.00000
 Mulliken charges with hydrogens summed into heavy atoms:
               1
     1  C   -0.020970
     4  C    0.090973
     5  C   -0.020473
     9  C   -0.046666
    11  C   -0.007656
    15  C   -0.017978
    19  C    0.087730
    20  C   -0.013550
    24  C   -0.043354
    26  C   -0.008057
 Electronic spatial extent (au):  <R**2>=           2420.9816
 Charge=             -0.0000 electrons
 Dipole moment (field-independent basis, Debye):
    X=             -0.2925    Y=              0.1864    Z=             -0.0070  Tot=              0.3469
 Quadrupole moment (field-independent basis, Debye-Ang):
   XX=            -63.1033   YY=            -62.4438   ZZ=            -66.0647
   XY=             -0.6024   XZ=             -0.7765   YZ=             -0.4163
 Traceless Quadrupole moment (field-independent basis, Debye-Ang):
   XX=              0.7673   YY=              1.4268   ZZ=             -2.1941
   XY=             -0.6024   XZ=             -0.7765   YZ=             -0.4163
 Octapole moment (field-independent basis, Debye-Ang**2):
  XXX=             -3.1031  YYY=             -1.4740  ZZZ=              0.1923  XYY=              1.4298
  XXY=              4.5834  XXZ=             -2.2741  XZZ=             -1.5812  YZZ=              1.2867
  YYZ=              1.2970  XYZ=              0.8616
 Hexadecapole moment (field-independent basis, Debye-Ang**3):
 XXXX=          -2453.2135 YYYY=           -686.2934 ZZZZ=           -172.1885 XXXY=              0.6459
 XXXZ=            -10.2521 YYYX=             10.3532 YYYZ=             -2.5463 ZZZX=              1.0971
 ZZZY=              0.1304 XXYY=           -520.3609 XXZZ=           -448.9874 YYZZ=           -136.9197
 XXYZ=             -3.7987 YYXZ=             -2.4033 ZZXY=             -4.5469
 N-N= 5.164390380438D+02 E-N=-1.937911372714D+03  KE= 3.880863812215D+02
 No NMR shielding tensors so no spin-rotation constants.
 Leave Link  601 at Tue Jul  6 11:11:35 2021, MaxMem=   524288000 cpu:               7.8 elap:               1.6
 (Enter /opt/gaussian/g16_legacy/l701.exe)
 ... and contract with generalized density number  0.
 Compute integral first derivatives.
 Leave Link  701 at Tue Jul  6 11:11:35 2021, MaxMem=   524288000 cpu:               1.3 elap:               0.2
 (Enter /opt/gaussian/g16_legacy/l702.exe)
 L702 exits ... SP integral derivatives will be done elsewhere.
 Leave Link  702 at Tue Jul  6 11:11:35 2021, MaxMem=   524288000 cpu:               0.4 elap:               0.1
 (Enter /opt/gaussian/g16_legacy/l703.exe)
 Integral derivatives from FoFJK, PRISM(SPDF).
 Compute integral first derivatives, UseDBF=F ICtDFT=           0.
 Calling FoFJK, ICntrl=      2127 FMM=F ISym2X=0 I1Cent= 0 IOpClX= 0 NMat=1 NMatS=1 NMatT=0.
 FoFJK:  IHMeth= 1 ICntrl=    2127 DoSepK=F KAlg= 0 I1Cent=           0 FoldK=F
 IRaf=         0 NMat=       1 IRICut=       1 DoRegI=T DoRafI=F ISym2E= 0 IDoP0=0 IntGTp=1.
 FoFCou: FMM=F IPFlag=           0 FMFlag=      100000 FMFlg1=         800
         NFxFlg=           0 DoJE=F BraDBF=F KetDBF=F FulRan=T
         wScrn=  0.000000 ICntrl=      2127 IOpCl=  0 I1Cent=           0 NGrid=           0
         NMat0=    1 NMatS0=      1 NMatT0=    0 NMatD0=    1 NMtDS0=    0 NMtDT0=    0
 Symmetry not used in FoFCou.
 Leave Link  703 at Tue Jul  6 11:11:52 2021, MaxMem=   524288000 cpu:              80.5 elap:              16.4
 (Enter /opt/gaussian/g16_legacy/l716.exe)
 Dipole        =-1.15064293D-01 7.33415636D-02-2.76129090D-03
 ***** Axes restored to original set *****
 -------------------------------------------------------------------
 Center     Atomic                   Forces (Hartrees/Bohr)
 Number     Number              X              Y              Z
 -------------------------------------------------------------------
      1        6          -0.008523986    0.001078038    0.004184189
      2        1           0.000720143   -0.001941144   -0.001680066
      3        1           0.001020068   -0.003342792   -0.000275425
      4        6          -0.011858244    0.000727537    0.007867952
      5        6          -0.003234353   -0.001574854    0.001785027
      6        1           0.001756053   -0.000241153   -0.002134007
      7        1           0.001238804    0.001834609   -0.002270699
      8        1           0.001673468   -0.000480957    0.001415375
      9        6           0.010435810    0.002658419   -0.010249438
     10        1           0.000432920    0.000578548   -0.002933930
     11        6           0.001625873   -0.000510645    0.000003742
     12        1          -0.000078480   -0.001264532    0.002932325
     13        1          -0.000705219    0.000835945    0.002131761
     14        1           0.000217961    0.001335161   -0.000805016
     15        6          -0.001136142    0.002133432   -0.003012713
     16        1           0.001433012    0.000294762    0.002481053
     17        1           0.002186633   -0.001584236    0.001368396
     18        1          -0.001860583   -0.001205513    0.000765401
     19        6          -0.006896932    0.007952465   -0.011780806
     20        6          -0.004391204    0.000147771   -0.001316528
     21        1           0.002288070   -0.001279743    0.000078104
     22        1           0.001079907   -0.000242556    0.002412644
     23        1           0.000175591   -0.000129038   -0.001850015
     24        6           0.005538435   -0.008014074    0.007003183
     25        1           0.002390111    0.000832345    0.001549562
     26        6           0.007810786   -0.001476587    0.000362512
     27        1          -0.002292643    0.001004562    0.000021955
     28        1          -0.001045859    0.001874229    0.001945460
 -------------------------------------------------------------------
 Cartesian Forces:  Max     0.011858244 RMS     0.003717419
 Leave Link  716 at Tue Jul  6 11:11:52 2021, MaxMem=   524288000 cpu:               0.4 elap:               0.1
 (Enter /opt/gaussian/g16_legacy/l103.exe)

 GradGradGradGradGradGradGradGradGradGradGradGradGradGradGradGradGradGrad
 Berny optimization.
 FormGI is forming the generalized inverse of G from B-inverse, IUseBI=4.
 Internal  Forces:  Max     0.014887021 RMS     0.002456209
 Search for a local minimum.
 Step number   1 out of a maximum of  138
 All quantities printed in internal units (Hartrees-Bohrs-Radians)
 RMS Force = .24562D-02 SwitMx=.10000D-02 MixMth= 1
 Mixed Optimization -- RFO/linear search
 Second derivative matrix not updated -- first step.
 ITU=  0
     Eigenvalues ---    0.00343   0.00570   0.00671   0.00681   0.00693
     Eigenvalues ---    0.00715   0.00818   0.01219   0.01287   0.01569
     Eigenvalues ---    0.01641   0.02779   0.02784   0.04018   0.04138
     Eigenvalues ---    0.05349   0.05399   0.06978   0.07035   0.07091
     Eigenvalues ---    0.07092   0.07269   0.07301   0.07348   0.07505
     Eigenvalues ---    0.09277   0.09362   0.12767   0.12843   0.15999
     Eigenvalues ---    0.15999   0.16000   0.16000   0.16000   0.16000
     Eigenvalues ---    0.16000   0.16000   0.16000   0.16000   0.16000
     Eigenvalues ---    0.16000   0.16000   0.16000   0.21859   0.21866
     Eigenvalues ---    0.22000   0.22000   0.24994   0.24997   0.24998
     Eigenvalues ---    0.24999   0.29239   0.30875   0.31634   0.31710
     Eigenvalues ---    0.31805   0.31978   0.32795   0.33861   0.33978
     Eigenvalues ---    0.34066   0.34193   0.34221   0.34232   0.34245
     Eigenvalues ---    0.34245   0.34251   0.34256   0.34257   0.34262
     Eigenvalues ---    0.34294   0.34338   0.34548   0.34556   0.34800
     Eigenvalues ---    0.34858   0.55484   0.55566
 RFO step:  Lambda=-3.41086187D-03 EMin= 3.42569523D-03
 Linear search not attempted -- first point.
 Iteration  1 RMS(Cart)=  0.04188228 RMS(Int)=  0.00076491
 Iteration  2 RMS(Cart)=  0.00101112 RMS(Int)=  0.00017853
 Iteration  3 RMS(Cart)=  0.00000059 RMS(Int)=  0.00017853
 ITry= 1 IFail=0 DXMaxC= 2.14D-01 DCOld= 1.00D+10 DXMaxT= 3.00D-01 DXLimC= 3.00D+00 Rises=F
 Variable       Old X    -DE/DX   Delta X   Delta X   Delta X     New X
                                 (Linear)    (Quad)   (Total)
    R1        2.07565  -0.00048   0.00000  -0.00140  -0.00140   2.07425
    R2        2.07218  -0.00105   0.00000  -0.00306  -0.00306   2.06912
    R3        2.86252  -0.00207   0.00000  -0.00662  -0.00662   2.85590
    R4        2.89507   0.00300   0.00000   0.01016   0.01016   2.90523
    R5        2.84818   0.00057   0.00000   0.00177   0.00177   2.84995
    R6        2.54705  -0.01489   0.00000  -0.02667  -0.02667   2.52038
    R7        2.06899   0.00051   0.00000   0.00146   0.00146   2.07045
    R8        2.06837   0.00107   0.00000   0.00310   0.00310   2.07147
    R9        2.06959  -0.00163   0.00000  -0.00470  -0.00470   2.06489
   R10        2.05906   0.00015   0.00000   0.00043   0.00043   2.05949
   R11        2.82712   0.00424   0.00000   0.01278   0.01278   2.83991
   R12        2.06763   0.00099   0.00000   0.00285   0.00285   2.07048
   R13        2.06900  -0.00006   0.00000  -0.00018  -0.00018   2.06882
   R14        2.06402   0.00014   0.00000   0.00039   0.00039   2.06441
   R15        2.06918   0.00068   0.00000   0.00198   0.00198   2.07115
   R16        2.06918   0.00062   0.00000   0.00179   0.00179   2.07097
   R17        2.06941  -0.00173   0.00000  -0.00500  -0.00500   2.06441
   R18        2.84678   0.00052   0.00000   0.00162   0.00162   2.84840
   R19        2.84184   0.00054   0.00000   0.00168   0.00168   2.84352
   R20        2.54633  -0.01408   0.00000  -0.02519  -0.02519   2.52114
   R21        2.07006  -0.00001   0.00000  -0.00001  -0.00001   2.07004
   R22        2.06890   0.00069   0.00000   0.00199   0.00199   2.07089
   R23        2.06415  -0.00020   0.00000  -0.00059  -0.00059   2.06356
   R24        2.06001   0.00025   0.00000   0.00071   0.00071   2.06072
   R25        2.84503   0.00018   0.00000   0.00057   0.00057   2.84559
   R26        2.07368  -0.00001   0.00000  -0.00002  -0.00002   2.07366
   R27        2.06909  -0.00027   0.00000  -0.00079  -0.00079   2.06829
    A1        1.82991   0.00202   0.00000   0.02221   0.02202   1.85193
    A2        1.90264  -0.00043   0.00000   0.00015   0.00015   1.90279
    A3        1.91996  -0.00190   0.00000  -0.01649  -0.01652   1.90344
    A4        1.93023   0.00052   0.00000   0.00885   0.00887   1.93909
    A5        1.91834  -0.00279   0.00000  -0.02165  -0.02168   1.89666
    A6        1.95840   0.00253   0.00000   0.00773   0.00777   1.96617
    A7        2.00834   0.00208   0.00000   0.00851   0.00792   2.01626
    A8        2.17066  -0.00541   0.00000  -0.02098  -0.02152   2.14914
    A9        2.10400   0.00335   0.00000   0.01359   0.01299   2.11700
   A10        1.92490   0.00154   0.00000   0.00801   0.00802   1.93292
   A11        1.92797   0.00210   0.00000   0.01063   0.01065   1.93863
   A12        1.95925  -0.00217   0.00000  -0.00964  -0.00963   1.94963
   A13        1.89506  -0.00316   0.00000  -0.02645  -0.02644   1.86863
   A14        1.87759   0.00107   0.00000   0.01076   0.01077   1.88836
   A15        1.87691   0.00050   0.00000   0.00578   0.00580   1.88271
   A16        2.06975  -0.00193   0.00000  -0.01372  -0.01372   2.05603
   A17        2.22505  -0.00234   0.00000  -0.01047  -0.01048   2.21458
   A18        1.98825   0.00428   0.00000   0.02427   0.02426   2.01251
   A19        1.91728   0.00376   0.00000   0.02178   0.02174   1.93902
   A20        1.90995   0.00245   0.00000   0.01598   0.01593   1.92588
   A21        1.98129  -0.00264   0.00000  -0.01586  -0.01578   1.96550
   A22        1.88709  -0.00318   0.00000  -0.02006  -0.02021   1.86688
   A23        1.89288  -0.00101   0.00000  -0.00788  -0.00780   1.88508
   A24        1.87272   0.00041   0.00000   0.00483   0.00489   1.87760
   A25        1.89480  -0.00317   0.00000  -0.02655  -0.02653   1.86826
   A26        1.87873   0.00086   0.00000   0.00808   0.00810   1.88684
   A27        1.92353   0.00164   0.00000   0.00788   0.00790   1.93143
   A28        1.87918   0.00089   0.00000   0.00957   0.00959   1.88877
   A29        1.92490   0.00201   0.00000   0.01088   0.01090   1.93580
   A30        1.96069  -0.00236   0.00000  -0.01077  -0.01075   1.94994
   A31        1.99476   0.00119   0.00000   0.00471   0.00471   1.99947
   A32        2.10577   0.00271   0.00000   0.01071   0.01070   2.11647
   A33        2.18260  -0.00390   0.00000  -0.01535  -0.01536   2.16724
   A34        1.92083   0.00012   0.00000  -0.00019  -0.00018   1.92065
   A35        1.92155   0.00213   0.00000   0.01035   0.01037   1.93192
   A36        1.97981  -0.00194   0.00000  -0.00814  -0.00812   1.97169
   A37        1.89066  -0.00249   0.00000  -0.02270  -0.02269   1.86797
   A38        1.86372   0.00189   0.00000   0.01674   0.01675   1.88047
   A39        1.88436   0.00019   0.00000   0.00305   0.00307   1.88743
   A40        2.06714  -0.00173   0.00000  -0.01226  -0.01267   2.05447
   A41        2.22715  -0.00241   0.00000  -0.01063  -0.01105   2.21609
   A42        1.98877   0.00416   0.00000   0.02370   0.02326   2.01203
   A43        1.94448   0.00335   0.00000   0.01421   0.01424   1.95872
   A44        1.92091  -0.00239   0.00000  -0.01469  -0.01491   1.90599
   A45        1.92596  -0.00276   0.00000  -0.02605  -0.02612   1.89984
   A46        1.88062   0.00066   0.00000   0.01802   0.01807   1.89868
   A47        1.94662  -0.00043   0.00000  -0.00138  -0.00132   1.94530
   A48        1.84192   0.00147   0.00000   0.01033   0.01004   1.85196
    D1        0.63948  -0.00068   0.00000   0.01306   0.01275   0.65222
    D2       -2.48159  -0.00171   0.00000  -0.05036  -0.05011  -2.53169
    D3        2.64260   0.00179   0.00000   0.04476   0.04451   2.68711
    D4       -0.47846   0.00075   0.00000  -0.01866  -0.01835  -0.49681
    D5       -1.49173   0.00036   0.00000   0.02873   0.02845  -1.46328
    D6        1.67039  -0.00067   0.00000  -0.03469  -0.03441   1.63599
    D7        1.01268   0.00026   0.00000  -0.01957  -0.01955   0.99313
    D8       -1.07229  -0.00114   0.00000  -0.04158  -0.04142  -1.11371
    D9       -3.09815   0.00011   0.00000  -0.03016  -0.03021  -3.12836
   D10       -0.99366   0.00051   0.00000  -0.02465  -0.02472  -1.01838
   D11       -3.07863  -0.00089   0.00000  -0.04666  -0.04659  -3.12522
   D12        1.17869   0.00035   0.00000  -0.03524  -0.03537   1.14331
   D13        3.13400   0.00009   0.00000  -0.02572  -0.02573   3.10826
   D14        1.04902  -0.00131   0.00000  -0.04772  -0.04760   1.00142
   D15       -0.97684  -0.00007   0.00000  -0.03630  -0.03639  -1.01323
   D16       -1.03842   0.00022   0.00000  -0.03784  -0.03824  -1.07666
   D17        1.05659  -0.00137   0.00000  -0.05880  -0.05920   0.99739
   D18       -3.13188  -0.00074   0.00000  -0.05058  -0.05098   3.10033
   D19        2.08350   0.00110   0.00000   0.02251   0.02291   2.10641
   D20       -2.10467  -0.00049   0.00000   0.00155   0.00195  -2.10272
   D21       -0.00996   0.00014   0.00000   0.00977   0.01017   0.00021
   D22        3.11712   0.00111   0.00000   0.05114   0.05100  -3.11506
   D23       -0.04336   0.00124   0.00000   0.05671   0.05651   0.01316
   D24       -0.00288   0.00004   0.00000  -0.01548  -0.01529  -0.01817
   D25        3.11983   0.00018   0.00000  -0.00992  -0.00978   3.11005
   D26        1.98422   0.00007   0.00000   0.01230   0.01219   1.99641
   D27       -2.22974  -0.00008   0.00000   0.01049   0.01056  -2.21918
   D28       -0.13832   0.00044   0.00000   0.01748   0.01747  -0.12085
   D29       -1.17552   0.00015   0.00000   0.01732   0.01724  -1.15827
   D30        0.89371   0.00000   0.00000   0.01551   0.01561   0.90932
   D31        2.98513   0.00052   0.00000   0.02250   0.02252   3.00765
   D32        1.04019  -0.00081   0.00000  -0.01465  -0.01469   1.02550
   D33       -2.11160  -0.00071   0.00000  -0.00705  -0.00701  -2.11861
   D34       -1.05165   0.00079   0.00000   0.00636   0.00632  -1.04533
   D35        2.07975   0.00089   0.00000   0.01396   0.01399   2.09375
   D36        3.13511  -0.00016   0.00000  -0.00613  -0.00617   3.12894
   D37       -0.01668  -0.00006   0.00000   0.00147   0.00151  -0.01517
   D38        0.92127  -0.00072   0.00000   0.00680   0.00677   0.92803
   D39       -1.16163   0.00095   0.00000   0.02848   0.02845  -1.13318
   D40        3.00791   0.00048   0.00000   0.02262   0.02260   3.03051
   D41       -2.20961  -0.00087   0.00000  -0.00137  -0.00134  -2.21096
   D42        1.99067   0.00080   0.00000   0.02031   0.02034   2.01101
   D43       -0.12297   0.00033   0.00000   0.01445   0.01448  -0.10849
   D44       -0.00907   0.00005   0.00000  -0.01113  -0.01082  -0.01990
   D45        3.11414   0.00118   0.00000   0.04668   0.04640  -3.12265
   D46        3.12117   0.00020   0.00000  -0.00252  -0.00224   3.11893
   D47       -0.03881   0.00133   0.00000   0.05529   0.05499   0.01618
   D48        1.80411  -0.00078   0.00000  -0.03088  -0.03115   1.77296
   D49       -2.37033  -0.00127   0.00000  -0.02871  -0.02884  -2.39917
   D50       -0.35657   0.00066   0.00000  -0.00641  -0.00659  -0.36316
   D51       -1.35516   0.00026   0.00000   0.02444   0.02456  -1.33060
   D52        0.75358  -0.00023   0.00000   0.02662   0.02688   0.78045
   D53        2.76734   0.00170   0.00000   0.04892   0.04913   2.81646
         Item               Value     Threshold  Converged?
 Maximum Force            0.014887     0.002500     NO 
 RMS     Force            0.002456     0.001667     NO 
 Maximum Displacement     0.213698     0.010000     NO 
 RMS     Displacement     0.041926     0.006667     NO 
 Predicted change in Energy=-1.807628D-03
 Lowest energy point so far.  Saving SCF results.
 GradGradGradGradGradGradGradGradGradGradGradGradGradGradGradGradGradGrad

 Leave Link  103 at Tue Jul  6 11:11:52 2021, MaxMem=   524288000 cpu:               3.3 elap:               0.7
 (Enter /opt/gaussian/g16_legacy/l202.exe)
                          Input orientation:                          
 ---------------------------------------------------------------------
 Center     Atomic      Atomic             Coordinates (Angstroms)
 Number     Number       Type             X           Y           Z
[...]
                 (A) (A) (A) (A) (A) (A) (A) (A) (A) (A) (A) (A)
                 (A) (A) (A) (A) (A) (A) (A) (A) (A) (A) (A) (A)
                 (A) (A) (A) (A) (A) (A) (A) (A) (A) (A) (A) (A)
                 (A) (A) (A) (A) (A) (A) (A) (A) (A) (A) (A) (A)
                 (A) (A) (A) (A) (A) (A) (A) (A) (A) (A) (A) (A)
                 (A) (A) (A) (A) (A) (A) (A) (A) (A) (A) (A) (A)
                 (A) (A) (A) (A) (A) (A) (A) (A) (A) (A) (A) (A)
                 (A) (A) (A) (A) (A) (A) (A) (A) (A) (A) (A) (A)
                 (A) (A) (A) (A) (A) (A) (A) (A) (A) (A) (A) (A)
                 (A) (A) (A) (A) (A) (A) (A) (A) (A) (A) (A) (A)
                 (A) (A) (A) (A) (A) (A) (A) (A) (A) (A) (A) (A)
                 (A) (A) (A) (A) (A) (A) (A) (A) (A) (A) (A) (A)
                 (A) (A) (A) (A) (A) (A) (A) (A) (A)
 The electronic state is 1-A.
 Alpha  occ. eigenvalues --  -10.54567 -10.54041 -10.53920 -10.53770 -10.53587
 Alpha  occ. eigenvalues --  -10.53429 -10.53397 -10.53303 -10.53198 -10.53071
 Alpha  occ. eigenvalues --   -0.92195  -0.90147  -0.84513  -0.81604  -0.77895
 Alpha  occ. eigenvalues --   -0.76185  -0.71952  -0.68642  -0.58709  -0.57844
 Alpha  occ. eigenvalues --   -0.54706  -0.51373  -0.50897  -0.49634  -0.48971
 Alpha  occ. eigenvalues --   -0.47706  -0.46312  -0.45719  -0.44371  -0.43357
 Alpha  occ. eigenvalues --   -0.43286  -0.42655  -0.41874  -0.40701  -0.39857
 Alpha  occ. eigenvalues --   -0.37790  -0.36448  -0.28907  -0.27213
 Alpha virt. eigenvalues --    0.06581   0.08335   0.11914   0.14545   0.15267
 Alpha virt. eigenvalues --    0.17190   0.17942   0.18670   0.19793   0.20457
 Alpha virt. eigenvalues --    0.20980   0.21764   0.22403   0.23075   0.23580
 Alpha virt. eigenvalues --    0.24218   0.24738   0.25627   0.27135   0.27912
 Alpha virt. eigenvalues --    0.28811   0.29407   0.30179   0.31520   0.32587
 Alpha virt. eigenvalues --    0.38713   0.40485   0.47176   0.48554   0.54518
 Alpha virt. eigenvalues --    0.55077   0.56661   0.57141   0.58784   0.59806
 Alpha virt. eigenvalues --    0.60142   0.61459   0.62495   0.63594   0.65354
 Alpha virt. eigenvalues --    0.66675   0.67769   0.71264   0.72735   0.72954
 Alpha virt. eigenvalues --    0.74755   0.75993   0.77714   0.78160   0.79632
 Alpha virt. eigenvalues --    0.79866   0.81259   0.82753   0.84527   0.86224
 Alpha virt. eigenvalues --    0.87485   0.88716   0.89930   0.92008   0.92761
 Alpha virt. eigenvalues --    0.93341   0.94241   0.95305   0.95835   0.96213
 Alpha virt. eigenvalues --    0.96431   0.97359   0.98588   0.99378   1.00842
 Alpha virt. eigenvalues --    1.01405   1.03372   1.04545   1.05758   1.07478
 Alpha virt. eigenvalues --    1.14126   1.21677   1.22792   1.24465   1.26244
 Alpha virt. eigenvalues --    1.28127   1.32791   1.34624   1.36807   1.37944
 Alpha virt. eigenvalues --    1.40639   1.42775   1.44933   1.47567   1.48642
 Alpha virt. eigenvalues --    1.52192   1.60233   1.68257   1.69808   1.73160
 Alpha virt. eigenvalues --    1.75593   1.78364   1.78855   1.79271   1.83568
 Alpha virt. eigenvalues --    1.84695   1.84976   1.86914   1.87903   1.89335
 Alpha virt. eigenvalues --    1.90275   1.91661   1.94300   1.98124   2.02514
 Alpha virt. eigenvalues --    2.03092   2.04266   2.06329   2.09563   2.09981
 Alpha virt. eigenvalues --    2.10176   2.10336   2.11716   2.13194   2.14624
 Alpha virt. eigenvalues --    2.15049   2.16250   2.17390   2.17490   2.18870
 Alpha virt. eigenvalues --    2.19924   2.21929   2.22626   2.23585   2.25896
 Alpha virt. eigenvalues --    2.29272   2.30551   2.33942   2.34512   2.34756
 Alpha virt. eigenvalues --    2.38496   2.39240   2.43572   2.44013   2.44609
 Alpha virt. eigenvalues --    2.46455   2.47383   2.50211   2.52459   2.54916
 Alpha virt. eigenvalues --    2.56962   2.59745   2.61171   2.62470   2.64191
 Alpha virt. eigenvalues --    2.66652   2.68538   2.69345   2.71225   2.73664
 Alpha virt. eigenvalues --    2.74332   2.75418   2.76809   2.80635   2.84443
 Alpha virt. eigenvalues --    2.84692   2.86547   2.86893   2.87815   2.89379
 Alpha virt. eigenvalues --    2.90913   2.91176   2.92832   2.93864   3.02436
 Alpha virt. eigenvalues --    3.04794   3.10021   3.10368   3.17320   3.19169
 Alpha virt. eigenvalues --    3.20668   3.23781   3.29043   3.36114   3.39350
 Alpha virt. eigenvalues --    3.40934   3.42106   3.43425   3.43869   3.44752
 Alpha virt. eigenvalues --    3.45534   3.47148   3.48066   3.50231   3.52209
 Alpha virt. eigenvalues --    3.57987   4.19399   4.23323   4.34333   4.41922
 Alpha virt. eigenvalues --    4.48539   4.52497   4.53330   4.67111   4.70271
 Alpha virt. eigenvalues --    4.76893
          Condensed to atoms (all electrons):
               1          2          3          4          5          6
     1  C    5.045932   0.388236   0.380605   0.356015  -0.067607  -0.004121
     2  H    0.388236   0.610713  -0.033013  -0.038489  -0.005913   0.003619
     3  H    0.380605  -0.033013   0.600619  -0.028345   0.004325   0.000044
     4  C    0.356015  -0.038489  -0.028345   4.756284   0.371736  -0.031717
     5  C   -0.067607  -0.005913   0.004325   0.371736   4.998075   0.379114
     6  H   -0.004121   0.003619   0.000044  -0.031717   0.379114   0.587643
     7  H    0.000447  -0.000278   0.000035  -0.038614   0.382203  -0.036477
     8  H    0.004678   0.000149  -0.000174  -0.034684   0.386062  -0.026776
     9  C   -0.051347   0.004173  -0.006956   0.719999  -0.043026  -0.000542
    10  H    0.006039  -0.000178  -0.000022  -0.031920  -0.013752   0.000312
    11  C   -0.014365   0.000323  -0.000690  -0.044886   0.006158  -0.000164
    12  H    0.000081   0.000011   0.000180   0.000593  -0.000139   0.000018
    13  H    0.000550  -0.000015  -0.000207  -0.000823  -0.000143  -0.000006
    14  H    0.004059  -0.000102   0.003155  -0.009110   0.000107   0.000005
    15  C   -0.000073  -0.000003  -0.000099   0.000002  -0.000000  -0.000000
    16  H   -0.000006   0.000000   0.000002   0.000000  -0.000000   0.000000
    17  H    0.000021  -0.000003  -0.000005  -0.000000   0.000000  -0.000000
    18  H   -0.000003   0.000003  -0.000001   0.000000   0.000000   0.000000
    19  C   -0.005218   0.000162   0.002353   0.000135  -0.000003   0.000000
    20  C    0.000250   0.000008   0.001169  -0.000015  -0.000000   0.000000
    21  H    0.000150  -0.000003  -0.000167  -0.000009   0.000000  -0.000000
    22  H   -0.000025  -0.000000   0.000025   0.000002   0.000000   0.000000
    23  H   -0.000816   0.000006  -0.000291  -0.000031  -0.000001  -0.000000
    24  C   -0.053166  -0.000900  -0.001465   0.006131  -0.000124   0.000017
    25  H    0.000026   0.002174  -0.000148  -0.000135   0.000007  -0.000002
    26  C    0.351438  -0.043391  -0.039709  -0.044395  -0.001912  -0.000019
    27  H   -0.044369  -0.004577   0.005825  -0.002368   0.001348   0.000042
    28  H   -0.040964   0.005809  -0.006320  -0.003401  -0.000016   0.000003
               7          8          9         10         11         12
     1  C    0.000447   0.004678  -0.051347   0.006039  -0.014365   0.000081
     2  H   -0.000278   0.000149   0.004173  -0.000178   0.000323   0.000011
     3  H    0.000035  -0.000174  -0.006956  -0.000022  -0.000690   0.000180
     4  C   -0.038614  -0.034684   0.719999  -0.031920  -0.044886   0.000593
     5  C    0.382203   0.386062  -0.043026  -0.013752   0.006158  -0.000139
     6  H   -0.036477  -0.026776  -0.000542   0.000312  -0.000164   0.000018
     7  H    0.594539  -0.027242  -0.001031   0.000166  -0.000165  -0.000004
     8  H   -0.027242   0.573470  -0.005289   0.006511   0.000073  -0.000007
     9  C   -0.001031  -0.005289   4.889579   0.377248   0.361912  -0.032588
    10  H    0.000166   0.006511   0.377248   0.611888  -0.053646  -0.002009
    11  C   -0.000165   0.000073   0.361912  -0.053646   4.978181   0.385274
    12  H   -0.000004  -0.000007  -0.032588  -0.002009   0.385274   0.576721
    13  H    0.000022  -0.000005  -0.033316  -0.000930   0.386311  -0.033567
    14  H   -0.000007   0.000008  -0.035233   0.004457   0.387823  -0.027071
    15  C   -0.000000   0.000000   0.000000   0.000000  -0.000000   0.000000
    16  H    0.000000   0.000000   0.000000   0.000000   0.000000   0.000000
    17  H    0.000000  -0.000000   0.000000  -0.000000  -0.000000  -0.000000
    18  H   -0.000000  -0.000000  -0.000000   0.000000   0.000000  -0.000000
    19  C   -0.000001   0.000000  -0.000007   0.000000   0.000020  -0.000000
    20  C   -0.000000  -0.000000   0.000025  -0.000000  -0.000431   0.000010
    21  H    0.000000  -0.000000   0.000001  -0.000000  -0.000018  -0.000001
    22  H   -0.000000   0.000000  -0.000000   0.000000   0.000010  -0.000000
    23  H    0.000000   0.000000  -0.000053   0.000001   0.000104  -0.000029
    24  C   -0.000194   0.000003   0.000231   0.000003  -0.000041   0.000002
    25  H    0.000015  -0.000000  -0.000002  -0.000000   0.000000   0.000000
    26  C    0.000971  -0.000066  -0.005922  -0.000090   0.000224   0.000001
    27  H    0.002025  -0.000138   0.000202  -0.000007  -0.000008  -0.000001
    28  H    0.000005   0.000004   0.002454  -0.000094   0.001427   0.000033
              13         14         15         16         17         18
     1  C    0.000550   0.004059  -0.000073  -0.000006   0.000021  -0.000003
     2  H   -0.000015  -0.000102  -0.000003   0.000000  -0.000003   0.000003
     3  H   -0.000207   0.003155  -0.000099   0.000002  -0.000005  -0.000001
     4  C   -0.000823  -0.009110   0.000002   0.000000  -0.000000   0.000000
     5  C   -0.000143   0.000107  -0.000000  -0.000000   0.000000   0.000000
     6  H   -0.000006   0.000005  -0.000000   0.000000  -0.000000   0.000000
     7  H    0.000022  -0.000007  -0.000000   0.000000   0.000000  -0.000000
     8  H   -0.000005   0.000008   0.000000   0.000000  -0.000000  -0.000000
     9  C   -0.033316  -0.035233   0.000000   0.000000   0.000000  -0.000000
    10  H   -0.000930   0.004457   0.000000   0.000000  -0.000000   0.000000
    11  C    0.386311   0.387823  -0.000000   0.000000  -0.000000   0.000000
    12  H   -0.033567  -0.027071   0.000000   0.000000  -0.000000  -0.000000
    13  H    0.579700  -0.030601  -0.000000  -0.000000   0.000000  -0.000000
    14  H   -0.030601   0.584764   0.000001  -0.000000  -0.000000  -0.000000
    15  C   -0.000000   0.000001   5.005487   0.381253   0.381472   0.385088
    16  H   -0.000000  -0.000000   0.381253   0.590173  -0.036760  -0.026266
    17  H    0.000000  -0.000000   0.381472  -0.036760   0.591105  -0.026434
    18  H   -0.000000  -0.000000   0.385088  -0.026266  -0.026434   0.569946
    19  C    0.000002  -0.000017   0.368511  -0.035682  -0.036211  -0.033473
    20  C   -0.000031  -0.000014  -0.078318  -0.001300  -0.001509   0.004740
    21  H   -0.000000   0.000134  -0.002491  -0.000740   0.003980  -0.000024
    22  H   -0.000001  -0.000022  -0.002876   0.004244  -0.000840  -0.000024
    23  H    0.000214   0.002363   0.004871  -0.000012  -0.000042  -0.000173
    24  C   -0.000016  -0.000013  -0.038405  -0.001371  -0.000707  -0.004952
    25  H    0.000000  -0.000002  -0.014235   0.000255   0.000237   0.006502
    26  C    0.000123  -0.001238   0.005768  -0.000207  -0.000105   0.000104
    27  H    0.000002   0.000016  -0.000169   0.000009  -0.000001  -0.000010
    28  H   -0.000059  -0.000452   0.000040   0.000012  -0.000008   0.000011
              19         20         21         22         23         24
     1  C   -0.005218   0.000250   0.000150  -0.000025  -0.000816  -0.053166
     2  H    0.000162   0.000008  -0.000003  -0.000000   0.000006  -0.000900
     3  H    0.002353   0.001169  -0.000167   0.000025  -0.000291  -0.001465
     4  C    0.000135  -0.000015  -0.000009   0.000002  -0.000031   0.006131
     5  C   -0.000003  -0.000000   0.000000   0.000000  -0.000001  -0.000124
     6  H    0.000000   0.000000  -0.000000   0.000000  -0.000000   0.000017
     7  H   -0.000001  -0.000000   0.000000  -0.000000   0.000000  -0.000194
     8  H    0.000000  -0.000000  -0.000000   0.000000   0.000000   0.000003
     9  C   -0.000007   0.000025   0.000001  -0.000000  -0.000053   0.000231
    10  H    0.000000  -0.000000  -0.000000   0.000000   0.000001   0.000003
    11  C    0.000020  -0.000431  -0.000018   0.000010   0.000104  -0.000041
    12  H   -0.000000   0.000010  -0.000001  -0.000000  -0.000029   0.000002
    13  H    0.000002  -0.000031  -0.000000  -0.000001   0.000214  -0.000016
    14  H   -0.000017  -0.000014   0.000134  -0.000022   0.002363  -0.000013
    15  C    0.368511  -0.078318  -0.002491  -0.002876   0.004871  -0.038405
    16  H   -0.035682  -0.001300  -0.000740   0.004244  -0.000012  -0.001371
    17  H   -0.036211  -0.001509   0.003980  -0.000840  -0.000042  -0.000707
    18  H   -0.033473   0.004740  -0.000024  -0.000024  -0.000173  -0.004952
    19  C    4.717598   0.378806  -0.034961  -0.035952  -0.027087   0.721755
    20  C    0.378806   5.008219   0.384259   0.382977   0.381532  -0.053986
    21  H   -0.034961   0.384259   0.583314  -0.034679  -0.028889  -0.000096
    22  H   -0.035952   0.382977  -0.034679   0.582306  -0.026145   0.001059
    23  H   -0.027087   0.381532  -0.028889  -0.026145   0.577460  -0.009663
    24  C    0.721755  -0.053986  -0.000096   0.001059  -0.009663   4.917805
    25  H   -0.033866   0.006446  -0.000169  -0.000155   0.000029   0.376131
    26  C   -0.039123  -0.014600   0.000611   0.000035   0.003035   0.349153
    27  H    0.002702   0.000412  -0.000015   0.000013  -0.000068  -0.029850
    28  H   -0.006761  -0.000264  -0.000226   0.000152   0.003090  -0.037078
              25         26         27         28
     1  C    0.000026   0.351438  -0.044369  -0.040964
     2  H    0.002174  -0.043391  -0.004577   0.005809
     3  H   -0.000148  -0.039709   0.005825  -0.006320
     4  C   -0.000135  -0.044395  -0.002368  -0.003401
     5  C    0.000007  -0.001912   0.001348  -0.000016
     6  H   -0.000002  -0.000019   0.000042   0.000003
     7  H    0.000015   0.000971   0.002025   0.000005
     8  H   -0.000000  -0.000066  -0.000138   0.000004
     9  C   -0.000002  -0.005922   0.000202   0.002454
    10  H   -0.000000  -0.000090  -0.000007  -0.000094
    11  C    0.000000   0.000224  -0.000008   0.001427
    12  H    0.000000   0.000001  -0.000001   0.000033
    13  H    0.000000   0.000123   0.000002  -0.000059
    14  H   -0.000002  -0.001238   0.000016  -0.000452
    15  C   -0.014235   0.005768  -0.000169   0.000040
    16  H    0.000255  -0.000207   0.000009   0.000012
    17  H    0.000237  -0.000105  -0.000001  -0.000008
    18  H    0.006502   0.000104  -0.000010   0.000011
    19  C   -0.033866  -0.039123   0.002702  -0.006761
    20  C    0.006446  -0.014600   0.000412  -0.000264
    21  H   -0.000169   0.000611  -0.000015  -0.000226
    22  H   -0.000155   0.000035   0.000013   0.000152
    23  H    0.000029   0.003035  -0.000068   0.003090
    24  C    0.376131   0.349153  -0.029850  -0.037078
    25  H    0.612655  -0.050353  -0.005117   0.004502
    26  C   -0.050353   4.996508   0.386758   0.390809
    27  H   -0.005117   0.386758   0.604010  -0.033183
    28  H    0.004502   0.390809  -0.033183   0.603552
 Mulliken charges:
               1
     1  C   -0.256447
     2  H    0.111479
     3  H    0.119273
     4  C    0.098044
     5  C   -0.396500
     6  H    0.129006
     7  H    0.123583
     8  H    0.123423
     9  C   -0.140512
    10  H    0.096021
    11  C   -0.393426
    12  H    0.132491
    13  H    0.132794
    14  H    0.116989
    15  C   -0.395824
    16  H    0.126395
    17  H    0.125809
    18  H    0.124968
    19  C    0.096320
    20  C   -0.398385
    21  H    0.130041
    22  H    0.129895
    23  H    0.120595
    24  C   -0.140264
    25  H    0.095205
    26  C   -0.244408
    27  H    0.116516
    28  H    0.116920
 Sum of Mulliken charges =  -0.00000
 Mulliken charges with hydrogens summed into heavy atoms:
               1
     1  C   -0.025695
     4  C    0.098044
     5  C   -0.020488
     9  C   -0.044491
    11  C   -0.011153
    15  C   -0.018651
    19  C    0.096320
    20  C   -0.017854
    24  C   -0.045060
    26  C   -0.010971
 Electronic spatial extent (au):  <R**2>=           2350.6166
 Charge=             -0.0000 electrons
 Dipole moment (field-independent basis, Debye):
    X=             -0.2943    Y=              0.1659    Z=              0.0688  Tot=              0.3448
 Quadrupole moment (field-independent basis, Debye-Ang):
   XX=            -62.9781   YY=            -62.2069   ZZ=            -66.5061
   XY=             -0.7394   XZ=             -1.2404   YZ=             -0.2318
 Traceless Quadrupole moment (field-independent basis, Debye-Ang):
   XX=              0.9189   YY=              1.6902   ZZ=             -2.6091
   XY=             -0.7394   XZ=             -1.2404   YZ=             -0.2318
 Octapole moment (field-independent basis, Debye-Ang**2):
  XXX=             -4.0700  YYY=             -1.9394  ZZZ=              1.3154  XYY=              1.2569
  XXY=              3.6192  XXZ=             -1.2898  XZZ=             -1.1203  YZZ=              1.4133
  YYZ=              0.0313  XYZ=             -0.1789
 Hexadecapole moment (field-independent basis, Debye-Ang**3):
 XXXX=          -2361.5081 YYYY=           -682.1383 ZZZZ=           -161.6356 XXXY=             -4.1287
 XXXZ=            -12.7887 YYYX=             12.8040 YYYZ=             -0.1867 ZZZX=             -4.3701
 ZZZY=             -0.9952 XXYY=           -503.5627 XXZZ=           -436.9170 YYZZ=           -135.9638
 XXYZ=             -4.1613 YYXZ=              1.5101 ZZXY=             -6.1838
 N-N= 5.206065227287D+02 E-N=-1.946262569901D+03  KE= 3.881384511096D+02
 No NMR shielding tensors so no spin-rotation constants.
 Leave Link  601 at Tue Jul  6 11:31:18 2021, MaxMem=   524288000 cpu:               7.9 elap:               1.6
 (Enter /opt/gaussian/g16_legacy/l9999.exe)
 1\1\GINC-TRUENO91\FOpt\RM062X\6-31G(d,p)\C10H18\JRAMOS\06-Jul-2021\0\\
 #p opt=loose m062x/6-31g(d,p)\\Conformer number 271. Energy MM = 23.24
 2 kcal/mol\\0,1\C,-0.6403498756,0.8237890796,-0.3770598371\H,-0.330257
 957,1.6659004194,-1.0078399943\H,-0.4224495229,1.117683142,0.654966948
 6\C,-2.1137537852,0.5529642923,-0.5790078735\C,-2.6552341609,0.9225162
 738,-1.9344745045\H,-2.5901330824,2.0044759703,-2.0975346107\H,-2.0680
 424876,0.4491912375,-2.7307497502\H,-3.6975791206,0.6181916482,-2.0529
 040011\C,-2.8860989744,-0.0260819847,0.3453058451\H,-3.9297529411,-0.2
 111631306,0.0913426189\C,-2.4662044795,-0.4728383666,1.7151132552\H,-3
 .103836943,-0.0279634759,2.4863212935\H,-2.561458057,-1.5599741778,1.8
 149656441\H,-1.4310137526,-0.2082481432,1.9417568051\C,3.9266476579,0.
 0829162952,0.441069683\H,4.5523075216,-0.7903232378,0.659995744\H,4.14
 74867509,0.8292718001,1.2131025119\H,4.2305266699,0.4888456724,-0.5261
 919105\C,2.4674888938,-0.2881501001,0.4567830779\C,1.9793951723,-0.847
 2927295,1.7668194648\H,2.1233176527,-0.1126981872,2.5677449953\H,2.559
 0793648,-1.7342461367,2.04745346\H,0.9237222774,-1.1224044465,1.748285
 6991\C,1.6941833642,-0.1139545537,-0.6197088336\H,2.1541637783,0.32736
 03827,-1.5041503012\C,0.2229615336,-0.4062312154,-0.726214237\H,-0.014
 5676371,-0.7287348882,-1.746841963\H,-0.0704478607,-1.2329014397,-0.07
 09492298\\Version=EM64L-G16RevA.03\State=1-A\HF=-391.6905457\RMSD=8.75
 5e-09\RMSF=1.642e-05\Dipole=0.1013737,-0.0098719,0.0895757\Quadrupole=
 0.5525712,-1.537977,0.9854058,0.6492666,0.6802363,-1.1754138\PG=C01 [X
 (C10H18)]\\@


 AN OPTIMIST IS A GUY
 THAT HAS NEVER HAD
 MUCH EXPERIENCE
   (CERTAIN MAXIMS OF ARCHY  -- DON MARQUIS)
 Job cpu time:       0 days  1 hours 56 minutes 25.8 seconds.
 Elapsed time:       0 days  0 hours 21 minutes  6.9 seconds.
 File lengths (MBytes):  RWF=     42 Int=      0 D2E=      0 Chk=      6 Scr=      1
 Normal termination of Gaussian 16 at Tue Jul  6 11:31:18 2021.
