 Entering Gaussian System, Link 0=/opt/gaussian/g16_legacy/g16
 Input=IsoP_rdkit_03_009_gaussian.com
 Output=IsoP_rdkit_03_009_gaussian.log
 Initial command:
 /opt/gaussian/g16_legacy/l1.exe "/scratch-local/jramos/2641329/Gau-20387.inp" -scrdir="/scratch-local/jramos/2641329/"
 Entering Link 1 = /opt/gaussian/g16_legacy/l1.exe PID=     20388.
  
 Copyright (c) 1988,1990,1992,1993,1995,1998,2003,2009,2016,
            Gaussian, Inc.  All Rights Reserved.
  
 This is part of the Gaussian(R) 16 program.  It is based on
 the Gaussian(R) 09 system (copyright 2009, Gaussian, Inc.),
 the Gaussian(R) 03 system (copyright 2003, Gaussian, Inc.),
 the Gaussian(R) 98 system (copyright 1998, Gaussian, Inc.),
 the Gaussian(R) 94 system (copyright 1995, Gaussian, Inc.),
 the Gaussian 92(TM) system (copyright 1992, Gaussian, Inc.),
 the Gaussian 90(TM) system (copyright 1990, Gaussian, Inc.),
 the Gaussian 88(TM) system (copyright 1988, Gaussian, Inc.),
 the Gaussian 86(TM) system (copyright 1986, Carnegie Mellon
 University), and the Gaussian 82(TM) system (copyright 1983,
 Carnegie Mellon University). Gaussian is a federally registered
 trademark of Gaussian, Inc.
  
 This software contains proprietary and confidential information,
 including trade secrets, belonging to Gaussian, Inc.
  
 This software is provided under written license and may be
 used, copied, transmitted, or stored only in accord with that
 written license.
  
 The following legend is applicable only to US Government
 contracts under FAR:
  
                    RESTRICTED RIGHTS LEGEND
  
 Use, reproduction and disclosure by the US Government is
 subject to restrictions as set forth in subparagraphs (a)
 and (c) of the Commercial Computer Software - Restricted
 Rights clause in FAR 52.227-19.
  
 Gaussian, Inc.
 340 Quinnipiac St., Bldg. 40, Wallingford CT 06492
  
  
 ---------------------------------------------------------------
 Warning -- This program may not be used in any manner that
 competes with the business of Gaussian, Inc. or will provide
 assistance to any competitor of Gaussian, Inc.  The licensee
 of this program is prohibited from giving any competitor of
 Gaussian, Inc. access to this program.  By using this program,
 the user acknowledges that Gaussian, Inc. is engaged in the
 business of creating and licensing software in the field of
 computational chemistry and represents and warrants to the
 licensee that it is not a competitor of Gaussian, Inc. and that
 it will not use this program in any manner prohibited above.
 ---------------------------------------------------------------
  

 Cite this work as:
 Gaussian 16, Revision A.03,
 M. J. Frisch, G. W. Trucks, H. B. Schlegel, G. E. Scuseria, 
 M. A. Robb, J. R. Cheeseman, G. Scalmani, V. Barone, 
 G. A. Petersson, H. Nakatsuji, X. Li, M. Caricato, A. V. Marenich, 
 J. Bloino, B. G. Janesko, R. Gomperts, B. Mennucci, H. P. Hratchian, 
 J. V. Ortiz, A. F. Izmaylov, J. L. Sonnenberg, D. Williams-Young, 
 F. Ding, F. Lipparini, F. Egidi, J. Goings, B. Peng, A. Petrone, 
 T. Henderson, D. Ranasinghe, V. G. Zakrzewski, J. Gao, N. Rega, 
 G. Zheng, W. Liang, M. Hada, M. Ehara, K. Toyota, R. Fukuda, 
 J. Hasegawa, M. Ishida, T. Nakajima, Y. Honda, O. Kitao, H. Nakai, 
 T. Vreven, K. Throssell, J. A. Montgomery, Jr., J. E. Peralta, 
 F. Ogliaro, M. J. Bearpark, J. J. Heyd, E. N. Brothers, K. N. Kudin, 
 V. N. Staroverov, T. A. Keith, R. Kobayashi, J. Normand, 
 K. Raghavachari, A. P. Rendell, J. C. Burant, S. S. Iyengar, 
 J. Tomasi, M. Cossi, J. M. Millam, M. Klene, C. Adamo, R. Cammi, 
 J. W. Ochterski, R. L. Martin, K. Morokuma, O. Farkas, 
 J. B. Foresman, and D. J. Fox, Gaussian, Inc., Wallingford CT, 2016.
 
 ******************************************
 Gaussian 16:  EM64L-G16RevA.03 25-Dec-2016
                 6-Jul-2021 
 ******************************************
 %chk=IsoP_rdkit_03_009_gaussian.chk
 %nproc=6
 Will use up to    6 processors via shared memory.
 %mem=4000Mb
 -----------------------------
 #p opt=loose m062x/6-31g(d,p)
 -----------------------------
 1/7=-1,18=20,19=15,26=3,38=1/1,3;
 2/9=110,12=2,17=6,18=5,40=1/2;
 3/5=1,6=6,7=101,11=2,25=1,30=1,71=1,74=-55/1,2,3;
 4//1;
 5/5=2,38=5/2;
 6/7=2,8=2,9=2,10=2,28=1/1;
 7//1,2,3,16;
 1/7=-1,18=20,19=15,26=3/3(2);
 2/9=110/2;
 99//99;
 2/9=110/2;
 3/5=1,6=6,7=101,11=2,25=1,30=1,71=1,74=-55/1,2,3;
 4/5=5,16=3,69=1/1;
 5/5=2,38=5/2;
 7//1,2,3,16;
 1/7=-1,18=20,19=15,26=3/3(-5);
 2/9=110/2;
 6/7=2,8=2,9=2,10=2,19=2,28=1/1;
 99/9=1/99;
 Leave Link    1 at Tue Jul  6 10:48:56 2021, MaxMem=   524288000 cpu:               1.7 elap:               0.4
 (Enter /opt/gaussian/g16_legacy/l101.exe)
 -------------------------------------------------
 Conformer number 009. Energy MM = 23.486 kcal/mol
 -------------------------------------------------
 Symbolic Z-matrix:
 Charge =  0 Multiplicity = 1
 C                    -1.2178   -0.6168    1.048 
 H                    -0.9201   -1.4849    0.4497 
 H                    -1.8272   -1.0357    1.86 
 C                    -2.0908    0.3327    0.2484 
 C                    -2.9512    1.2566    1.0734 
 H                    -2.3296    1.923     1.6791 
 H                    -3.5988    1.885     0.4527 
 H                    -3.5973    0.6782    1.7418 
 C                    -2.1559    0.3674   -1.0978 
 H                    -2.8364    1.0777   -1.5666 
 C                    -1.3768   -0.4523   -2.0775 
 H                    -2.0572   -1.093    -2.6468 
 H                    -0.617    -1.086    -1.6164 
 H                    -0.8653    0.2113   -2.7821 
 C                     2.6944   -1.4008    0.8256 
 H                     1.9791   -1.9081    1.4768 
 H                     2.9205   -2.0909    0.0055 
 H                     3.6126   -1.2338    1.398 
 C                     2.1834   -0.0978    0.2769 
 C                     3.075     0.5293   -0.7629 
 H                     4.0654    0.7293   -0.341 
 H                     2.6755    1.4779   -1.1368 
 H                     3.1901   -0.1431   -1.6194 
 C                     1.028     0.4953    0.6355 
 H                     0.753     1.4314    0.1485 
 C                     0.0305    0.0317    1.6642 
 H                     0.4871   -0.6781    2.3617 
 H                    -0.2531    0.8945    2.2792 
 
 ITRead=  0  0  0  0  0  0  0  0  0  0  0  0  0  0  0  0  0  0  0  0
 ITRead=  0  0  0  0  0  0  0  0
 MicOpt= -1 -1 -1 -1 -1 -1 -1 -1 -1 -1 -1 -1 -1 -1 -1 -1 -1 -1 -1 -1
 MicOpt= -1 -1 -1 -1 -1 -1 -1 -1
 NAtoms=     28 NQM=       28 NQMF=       0 NMMI=      0 NMMIF=      0
                NMic=       0 NMicF=      0.
                    Isotopes and Nuclear Properties:
 (Nuclear quadrupole moments (NQMom) in fm**2, nuclear magnetic moments (NMagM)
  in nuclear magnetons)

  Atom         1           2           3           4           5           6           7           8           9          10
 IAtWgt=          12           1           1          12          12           1           1           1          12           1
 AtmWgt=  12.0000000   1.0078250   1.0078250  12.0000000  12.0000000   1.0078250   1.0078250   1.0078250  12.0000000   1.0078250
 NucSpn=           0           1           1           0           0           1           1           1           0           1
 AtZEff=  -0.0000000  -0.0000000  -0.0000000  -0.0000000  -0.0000000  -0.0000000  -0.0000000  -0.0000000  -0.0000000  -0.0000000
 NQMom=    0.0000000   0.0000000   0.0000000   0.0000000   0.0000000   0.0000000   0.0000000   0.0000000   0.0000000   0.0000000
 NMagM=    0.0000000   2.7928460   2.7928460   0.0000000   0.0000000   2.7928460   2.7928460   2.7928460   0.0000000   2.7928460
 AtZNuc=   6.0000000   1.0000000   1.0000000   6.0000000   6.0000000   1.0000000   1.0000000   1.0000000   6.0000000   1.0000000

  Atom        11          12          13          14          15          16          17          18          19          20
 IAtWgt=          12           1           1           1          12           1           1           1          12          12
 AtmWgt=  12.0000000   1.0078250   1.0078250   1.0078250  12.0000000   1.0078250   1.0078250   1.0078250  12.0000000  12.0000000
 NucSpn=           0           1           1           1           0           1           1           1           0           0
 AtZEff=  -0.0000000  -0.0000000  -0.0000000  -0.0000000  -0.0000000  -0.0000000  -0.0000000  -0.0000000  -0.0000000  -0.0000000
 NQMom=    0.0000000   0.0000000   0.0000000   0.0000000   0.0000000   0.0000000   0.0000000   0.0000000   0.0000000   0.0000000
 NMagM=    0.0000000   2.7928460   2.7928460   2.7928460   0.0000000   2.7928460   2.7928460   2.7928460   0.0000000   0.0000000
 AtZNuc=   6.0000000   1.0000000   1.0000000   1.0000000   6.0000000   1.0000000   1.0000000   1.0000000   6.0000000   6.0000000

  Atom        21          22          23          24          25          26          27          28
 IAtWgt=           1           1           1          12           1          12           1           1
 AtmWgt=   1.0078250   1.0078250   1.0078250  12.0000000   1.0078250  12.0000000   1.0078250   1.0078250
 NucSpn=           1           1           1           0           1           0           1           1
 AtZEff=  -0.0000000  -0.0000000  -0.0000000  -0.0000000  -0.0000000  -0.0000000  -0.0000000  -0.0000000
 NQMom=    0.0000000   0.0000000   0.0000000   0.0000000   0.0000000   0.0000000   0.0000000   0.0000000
 NMagM=    2.7928460   2.7928460   2.7928460   0.0000000   2.7928460   0.0000000   2.7928460   2.7928460
 AtZNuc=   1.0000000   1.0000000   1.0000000   6.0000000   1.0000000   6.0000000   1.0000000   1.0000000
 Leave Link  101 at Tue Jul  6 10:48:56 2021, MaxMem=   524288000 cpu:               0.6 elap:               0.1
 (Enter /opt/gaussian/g16_legacy/l103.exe)

 GradGradGradGradGradGradGradGradGradGradGradGradGradGradGradGradGradGrad
 Berny optimization.
 Initialization pass.
                           ----------------------------
                           !    Initial Parameters    !
                           ! (Angstroms and Degrees)  !
 --------------------------                            --------------------------
 ! Name  Definition              Value          Derivative Info.                !
 --------------------------------------------------------------------------------
 ! R1    R(1,2)                  1.0955         estimate D2E/DX2                !
 ! R2    R(1,3)                  1.0983         estimate D2E/DX2                !
 ! R3    R(1,4)                  1.5176         estimate D2E/DX2                !
 ! R4    R(1,26)                 1.5357         estimate D2E/DX2                !
 ! R5    R(4,5)                  1.5081         estimate D2E/DX2                !
 ! R6    R(4,9)                  1.3482         estimate D2E/DX2                !
 ! R7    R(5,6)                  1.0942         estimate D2E/DX2                !
 ! R8    R(5,7)                  1.0952         estimate D2E/DX2                !
 ! R9    R(5,8)                  1.0949         estimate D2E/DX2                !
 ! R10   R(9,10)                 1.0897         estimate D2E/DX2                !
 ! R11   R(9,11)                 1.4962         estimate D2E/DX2                !
 ! R12   R(11,12)                1.0943         estimate D2E/DX2                !
 ! R13   R(11,13)                1.0916         estimate D2E/DX2                !
 ! R14   R(11,14)                1.0947         estimate D2E/DX2                !
 ! R15   R(15,16)                1.0923         estimate D2E/DX2                !
 ! R16   R(15,17)                1.0954         estimate D2E/DX2                !
 ! R17   R(15,18)                1.0948         estimate D2E/DX2                !
 ! R18   R(15,19)                1.5033         estimate D2E/DX2                !
 ! R19   R(19,20)                1.5064         estimate D2E/DX2                !
 ! R20   R(19,24)                1.3473         estimate D2E/DX2                !
 ! R21   R(20,21)                1.0949         estimate D2E/DX2                !
 ! R22   R(20,22)                1.0951         estimate D2E/DX2                !
 ! R23   R(20,23)                1.095          estimate D2E/DX2                !
 ! R24   R(24,25)                1.0904         estimate D2E/DX2                !
 ! R25   R(24,26)                1.506          estimate D2E/DX2                !
 ! R26   R(26,27)                1.0949         estimate D2E/DX2                !
 ! R27   R(26,28)                1.0968         estimate D2E/DX2                !
 ! A1    A(2,1,3)              104.615          estimate D2E/DX2                !
 ! A2    A(2,1,4)              111.3677         estimate D2E/DX2                !
 ! A3    A(2,1,26)             109.4423         estimate D2E/DX2                !
 ! A4    A(3,1,4)              107.9991         estimate D2E/DX2                !
 ! A5    A(3,1,26)             108.3866         estimate D2E/DX2                !
 ! A6    A(4,1,26)             114.5065         estimate D2E/DX2                !
 ! A7    A(1,4,5)              115.0399         estimate D2E/DX2                !
 ! A8    A(1,4,9)              124.7491         estimate D2E/DX2                !
 ! A9    A(5,4,9)              120.1918         estimate D2E/DX2                !
 ! A10   A(4,5,6)              110.5975         estimate D2E/DX2                !
 ! A11   A(4,5,7)              112.2595         estimate D2E/DX2                !
 ! A12   A(4,5,8)              110.303          estimate D2E/DX2                !
 ! A13   A(6,5,7)              107.468          estimate D2E/DX2                !
 ! A14   A(6,5,8)              108.6042         estimate D2E/DX2                !
 ! A15   A(7,5,8)              107.4668         estimate D2E/DX2                !
 ! A16   A(4,9,10)             118.4577         estimate D2E/DX2                !
 ! A17   A(4,9,11)             127.9195         estimate D2E/DX2                !
 ! A18   A(10,9,11)            113.6153         estimate D2E/DX2                !
 ! A19   A(9,11,12)            109.7326         estimate D2E/DX2                !
 ! A20   A(9,11,13)            113.8225         estimate D2E/DX2                !
 ! A21   A(9,11,14)            109.4288         estimate D2E/DX2                !
 ! A22   A(12,11,13)           108.2189         estimate D2E/DX2                !
 ! A23   A(12,11,14)           108.0936         estimate D2E/DX2                !
 ! A24   A(13,11,14)           107.3715         estimate D2E/DX2                !
 ! A25   A(16,15,17)           106.7933         estimate D2E/DX2                !
 ! A26   A(16,15,18)           107.961          estimate D2E/DX2                !
 ! A27   A(16,15,19)           113.4254         estimate D2E/DX2                !
 ! A28   A(17,15,18)           108.3254         estimate D2E/DX2                !
 ! A29   A(17,15,19)           110.0564         estimate D2E/DX2                !
 ! A30   A(18,15,19)           110.1021         estimate D2E/DX2                !
 ! A31   A(15,19,20)           114.3025         estimate D2E/DX2                !
 ! A32   A(15,19,24)           125.1618         estimate D2E/DX2                !
 ! A33   A(20,19,24)           120.5311         estimate D2E/DX2                !
 ! A34   A(19,20,21)           110.2078         estimate D2E/DX2                !
 ! A35   A(19,20,22)           112.3548         estimate D2E/DX2                !
 ! A36   A(19,20,23)           110.2731         estimate D2E/DX2                !
 ! A37   A(21,20,22)           107.6567         estimate D2E/DX2                !
 ! A38   A(21,20,23)           108.5714         estimate D2E/DX2                !
 ! A39   A(22,20,23)           107.6503         estimate D2E/DX2                !
 ! A40   A(19,24,25)           118.3783         estimate D2E/DX2                !
 ! A41   A(19,24,26)           127.899          estimate D2E/DX2                !
 ! A42   A(25,24,26)           113.7205         estimate D2E/DX2                !
 ! A43   A(1,26,24)            113.2214         estimate D2E/DX2                !
 ! A44   A(1,26,27)            108.713          estimate D2E/DX2                !
 ! A45   A(1,26,28)            110.3024         estimate D2E/DX2                !
 ! A46   A(24,26,27)           111.007          estimate D2E/DX2                !
 ! A47   A(24,26,28)           108.1855         estimate D2E/DX2                !
 ! A48   A(27,26,28)           105.1047         estimate D2E/DX2                !
 ! D1    D(2,1,4,5)            158.4944         estimate D2E/DX2                !
 ! D2    D(2,1,4,9)            -19.904          estimate D2E/DX2                !
 ! D3    D(3,1,4,5)             44.1635         estimate D2E/DX2                !
 ! D4    D(3,1,4,9)           -134.2349         estimate D2E/DX2                !
 ! D5    D(26,1,4,5)           -76.674          estimate D2E/DX2                !
 ! D6    D(26,1,4,9)           104.9277         estimate D2E/DX2                !
 ! D7    D(2,1,26,24)           59.461          estimate D2E/DX2                !
 ! D8    D(2,1,26,27)          -64.4005         estimate D2E/DX2                !
 ! D9    D(2,1,26,28)         -179.1511         estimate D2E/DX2                !
 ! D10   D(3,1,26,24)          172.9958         estimate D2E/DX2                !
 ! D11   D(3,1,26,27)           49.1344         estimate D2E/DX2                !
 ! D12   D(3,1,26,28)          -65.6162         estimate D2E/DX2                !
 ! D13   D(4,1,26,24)          -66.3809         estimate D2E/DX2                !
 ! D14   D(4,1,26,27)          169.7576         estimate D2E/DX2                !
 ! D15   D(4,1,26,28)           55.007          estimate D2E/DX2                !
 ! D16   D(1,4,5,6)             62.9033         estimate D2E/DX2                !
 ! D17   D(1,4,5,7)           -177.0755         estimate D2E/DX2                !
 ! D18   D(1,4,5,8)            -57.258          estimate D2E/DX2                !
 ! D19   D(9,4,5,6)           -118.6192         estimate D2E/DX2                !
 ! D20   D(9,4,5,7)              1.402          estimate D2E/DX2                !
 ! D21   D(9,4,5,8)            121.2195         estimate D2E/DX2                !
 ! D22   D(1,4,9,10)           178.6346         estimate D2E/DX2                !
 ! D23   D(1,4,9,11)            -2.4392         estimate D2E/DX2                !
 ! D24   D(5,4,9,10)             0.3135         estimate D2E/DX2                !
 ! D25   D(5,4,9,11)           179.2396         estimate D2E/DX2                !
 ! D26   D(4,9,11,12)          116.1201         estimate D2E/DX2                !
 ! D27   D(4,9,11,13)           -5.31           estimate D2E/DX2                !
 ! D28   D(4,9,11,14)         -125.4301         estimate D2E/DX2                !
 ! D29   D(10,9,11,12)         -64.9103         estimate D2E/DX2                !
 ! D30   D(10,9,11,13)         173.6596         estimate D2E/DX2                !
 ! D31   D(10,9,11,14)          53.5395         estimate D2E/DX2                !
 ! D32   D(16,15,19,20)       -172.3461         estimate D2E/DX2                !
 ! D33   D(16,15,19,24)          6.8719         estimate D2E/DX2                !
 ! D34   D(17,15,19,20)        -52.7831         estimate D2E/DX2                !
 ! D35   D(17,15,19,24)        126.4348         estimate D2E/DX2                !
 ! D36   D(18,15,19,20)         66.5602         estimate D2E/DX2                !
 ! D37   D(18,15,19,24)       -114.2219         estimate D2E/DX2                !
 ! D38   D(15,19,20,21)        -59.6671         estimate D2E/DX2                !
 ! D39   D(15,19,20,22)       -179.7231         estimate D2E/DX2                !
 ! D40   D(15,19,20,23)         60.1841         estimate D2E/DX2                !
 ! D41   D(24,19,20,21)        121.0752         estimate D2E/DX2                !
 ! D42   D(24,19,20,22)          1.0192         estimate D2E/DX2                !
 ! D43   D(24,19,20,23)       -119.0736         estimate D2E/DX2                !
 ! D44   D(15,19,24,25)       -178.6088         estimate D2E/DX2                !
 ! D45   D(15,19,24,26)          1.9614         estimate D2E/DX2                !
 ! D46   D(20,19,24,25)          0.5637         estimate D2E/DX2                !
 ! D47   D(20,19,24,26)       -178.8661         estimate D2E/DX2                !
 ! D48   D(19,24,26,1)        -102.9219         estimate D2E/DX2                !
 ! D49   D(19,24,26,27)         19.6746         estimate D2E/DX2                !
 ! D50   D(19,24,26,28)        134.5065         estimate D2E/DX2                !
 ! D51   D(25,24,26,1)          77.626          estimate D2E/DX2                !
 ! D52   D(25,24,26,27)       -159.7774         estimate D2E/DX2                !
 ! D53   D(25,24,26,28)        -44.9456         estimate D2E/DX2                !
 --------------------------------------------------------------------------------
 Trust Radius=3.00D-01 FncErr=1.00D-07 GrdErr=1.00D-06 EigMax=2.50D+02 EigMin=1.00D-04
 Number of steps in this run=    138 maximum allowed number of steps=    168.
 GradGradGradGradGradGradGradGradGradGradGradGradGradGradGradGradGradGrad

 Leave Link  103 at Tue Jul  6 10:48:56 2021, MaxMem=   524288000 cpu:               0.1 elap:               0.1
 (Enter /opt/gaussian/g16_legacy/l202.exe)
                          Input orientation:                          
 ---------------------------------------------------------------------
 Center     Atomic      Atomic             Coordinates (Angstroms)
 Number     Number       Type             X           Y           Z
 ---------------------------------------------------------------------
      1          6           0       -1.217800   -0.616800    1.048000
      2          1           0       -0.920100   -1.484900    0.449700
      3          1           0       -1.827200   -1.035700    1.860000
      4          6           0       -2.090800    0.332700    0.248400
      5          6           0       -2.951200    1.256600    1.073400
      6          1           0       -2.329600    1.923000    1.679100
      7          1           0       -3.598800    1.885000    0.452700
      8          1           0       -3.597300    0.678200    1.741800
      9          6           0       -2.155900    0.367400   -1.097800
     10          1           0       -2.836400    1.077700   -1.566600
     11          6           0       -1.376800   -0.452300   -2.077500
     12          1           0       -2.057200   -1.093000   -2.646800
     13          1           0       -0.617000   -1.086000   -1.616400
     14          1           0       -0.865300    0.211300   -2.782100
     15          6           0        2.694400   -1.400800    0.825600
     16          1           0        1.979100   -1.908100    1.476800
     17          1           0        2.920500   -2.090900    0.005500
     18          1           0        3.612600   -1.233800    1.398000
     19          6           0        2.183400   -0.097800    0.276900
     20          6           0        3.075000    0.529300   -0.762900
     21          1           0        4.065400    0.729300   -0.341000
     22          1           0        2.675500    1.477900   -1.136800
     23          1           0        3.190100   -0.143100   -1.619400
     24          6           0        1.028000    0.495300    0.635500
     25          1           0        0.753000    1.431400    0.148500
     26          6           0        0.030500    0.031700    1.664200
     27          1           0        0.487100   -0.678100    2.361700
     28          1           0       -0.253100    0.894500    2.279200
 ---------------------------------------------------------------------
                    Distance matrix (angstroms):
                    1          2          3          4          5
     1  C    0.000000
     2  H    1.095530   0.000000
     3  H    1.098267   1.735960   0.000000
     4  C    1.517577   2.171343   2.130553   0.000000
     5  C    2.552440   3.468457   2.671471   1.508146   0.000000
     6  H    2.843408   3.887402   3.006499   2.152436   1.094234
     7  H    3.504646   4.304842   3.694530   2.173807   1.095236
     8  H    2.796498   3.676401   2.466714   2.149222   1.094875
     9  C    2.540303   2.711637   3.290185   1.348220   2.477355
    10  H    3.511030   3.782141   4.150486   2.098850   2.648544
    11  C    3.133862   2.767955   4.005886   2.556527   3.915003
    12  H    3.818757   3.321881   4.513029   3.227372   4.489960
    13  H    2.771306   2.125973   3.681368   2.768081   4.262779
    14  H    3.934421   3.650292   4.901974   3.271165   4.506497
    15  C    3.996176   3.634967   4.652757   5.122140   6.244676
    16  H    3.474406   3.104737   3.923754   4.805646   5.872471
    17  H    4.515009   3.913407   5.205120   5.571891   6.842735
    18  H    4.882208   4.637639   5.462976   6.025303   7.027868
    19  C    3.525921   3.403765   4.412570   4.295920   5.369630
    20  C    4.798024   4.635539   5.775846   5.267530   6.341613
    21  H    5.626145   5.512087   6.533174   6.197054   7.177134
    22  H    4.931420   4.921738   5.964336   5.093906   6.049274
    23  H    5.173876   4.793260   6.170596   5.621652   6.850248
    24  C    2.539791   2.784027   3.463456   3.146935   4.074968
    25  H    2.981321   3.375617   3.958945   3.050298   3.821923
    26  C    1.535743   2.163036   2.151448   2.568074   3.277188
    27  H    2.153195   2.507366   2.394904   3.483292   4.150264
    28  H    2.174978   3.074655   2.525706   2.795874   2.977384
                    6          7          8          9         10
     6  H    0.000000
     7  H    1.765324   0.000000
     8  H    1.777786   1.765828   0.000000
     9  C    3.187669   2.605594   3.199619   0.000000
    10  H    3.392042   2.304465   3.418198   1.089670   0.000000
    11  C    4.545539   4.099045   4.560231   1.496234   2.175397
    12  H    5.280518   4.566390   4.976833   2.131176   2.546748
    13  H    4.779895   4.690325   4.824116   2.179342   3.099970
    14  H    4.997639   4.553814   5.305421   2.127647   2.472514
    15  C    6.084134   7.109142   6.689331   5.509211   6.515776
    16  H    5.769155   6.822709   6.152675   5.376308   6.431666
    17  H    6.817322   7.649120   7.291390   5.747203   6.756732
    18  H    6.734549   7.913583   7.467034   6.486020   7.464683
    19  C    5.139744   6.115246   6.013701   4.575559   5.475279
    20  C    6.092246   6.917746   7.128484   5.244109   5.990937
    21  H    6.811883   7.791378   7.940884   6.277602   7.018427
    22  H    5.760072   6.485297   6.947941   4.957535   5.543097
    23  H    6.753959   7.382137   7.618464   5.395590   6.149133
    24  C    3.794853   4.834456   4.759281   3.627383   4.485758
    25  H    3.476612   4.385938   4.693722   3.338721   3.993803
    26  C    3.024452   4.251385   3.685772   3.538599   4.444243
    27  H    3.894286   5.187325   4.348120   4.477350   5.436913
    28  H    2.393697   3.938388   3.394003   3.911855   4.636505
                   11         12         13         14         15
    11  C    0.000000
    12  H    1.094323   0.000000
    13  H    1.091552   1.770861   0.000000
    14  H    1.094741   1.772041   1.761674   0.000000
    15  C    5.089431   5.893217   4.126479   5.318442   0.000000
    16  H    5.100438   5.827537   4.121101   5.542625   1.092277
    17  H    5.048830   5.727827   4.019240   5.234799   1.095410
    18  H    6.130575   6.966123   5.195957   6.293897   1.094816
    19  C    4.282977   5.246059   3.521841   4.329849   1.503330
    20  C    4.744495   5.702667   4.119286   4.438948   2.528532
    21  H    5.833451   6.791445   5.181393   5.526219   2.788893
    22  H    4.586036   5.593575   4.200495   4.104699   3.484004
    23  H    4.600221   5.430655   3.922127   4.233644   2.793842
    24  C    3.747183   4.776468   3.205868   3.917299   2.531447
    25  H    3.611018   4.699311   3.365869   3.563138   3.499836
    26  C    4.026794   4.920179   3.525740   4.539196   3.138737
    27  H    4.819918   5.632999   4.148578   5.392467   2.784613
    28  H    4.696531   5.609849   4.385260   5.143764   4.008630
                   16         17         18         19         20
    16  H    0.000000
    17  H    1.756238   0.000000
    18  H    1.768958   1.775579   0.000000
    19  C    2.181441   2.142294   2.142422   0.000000
    20  C    3.486857   2.734914   2.840251   1.506449   0.000000
    21  H    3.822685   3.063395   2.661374   2.146583   1.094939
    22  H    4.333691   3.755157   3.828405   2.173371   1.095100
    23  H    3.764067   2.550864   3.236176   2.147429   1.094971
    24  C    2.718218   3.266020   3.201773   1.347335   2.479292
    25  H    3.797363   4.138249   4.103883   2.097852   2.652568
    26  C    2.755900   3.950799   3.808385   2.564440   3.925226
    27  H    2.126502   3.670030   3.317570   2.749650   4.232986
    28  H    3.671666   4.914678   4.499979   3.306115   4.523715
                   21         22         23         24         25
    21  H    0.000000
    22  H    1.767914   0.000000
    23  H    1.778072   1.767868   0.000000
    24  C    3.199079   2.611667   3.188543   0.000000
    25  H    3.421191   2.313042   3.397643   1.090448   0.000000
    26  C    4.559374   4.114987   4.560225   1.506039   2.185981
    27  H    4.699957   4.655849   4.841652   2.156202   3.069030
    28  H    5.053927   4.537192   5.303897   2.121869   2.416688
                   26         27         28
    26  C    0.000000
    27  H    1.094900   0.000000
    28  H    1.096849   1.740050   0.000000
 Stoichiometry    C10H18
 Framework group  C1[X(C10H18)]
 Deg. of freedom    78
 Full point group                 C1      NOp   1
 Largest Abelian subgroup         C1      NOp   1
 Largest concise Abelian subgroup C1      NOp   1
                         Standard orientation:                         
 ---------------------------------------------------------------------
 Center     Atomic      Atomic             Coordinates (Angstroms)
 Number     Number       Type             X           Y           Z
 ---------------------------------------------------------------------
      1          6           0        1.027966   -0.895942    0.833103
      2          1           0        0.608897   -0.279920    1.636274
      3          1           0        1.542948   -1.715350    1.352290
      4          6           0        2.060635   -0.128052    0.028755
      5          6           0        3.038578   -0.983628   -0.736832
      6          1           0        2.517972   -1.584469   -1.488702
      7          1           0        3.793076   -0.385457   -1.258813
      8          1           0        3.567541   -1.658170   -0.055700
      9          6           0        2.162085    1.215846   -0.007886
     10          1           0        2.958627    1.660372   -0.603954
     11          6           0        1.284731    2.222934    0.666458
     12          1           0        1.866628    2.785774    1.402767
     13          1           0        0.422420    1.786812    1.174102
     14          1           0        0.903114    2.929624   -0.077462
     15          6           0       -2.953034   -0.578509    0.975608
     16          1           0       -2.343968   -1.238295    1.597533
     17          1           0       -3.267660    0.255339    1.612498
     18          1           0       -3.845706   -1.133040    0.668600
     19          6           0       -2.226708   -0.058265   -0.233441
     20          6           0       -2.981369    0.992232   -1.005666
     21          1           0       -3.936449    0.589282   -1.358291
     22          1           0       -2.426074    1.344829   -1.881204
     23          1           0       -3.182769    1.859831   -0.368741
     24          6           0       -0.999824   -0.449613   -0.629565
     25          1           0       -0.566728    0.018909   -1.513868
     26          6           0       -0.114155   -1.493467   -0.001781
     27          1           0       -0.695059   -2.171477    0.631985
     28          1           0        0.289757   -2.125809   -0.801829
 ---------------------------------------------------------------------
 Rotational constants (GHZ):           1.8849498           0.6991680           0.6020984
 Leave Link  202 at Tue Jul  6 10:48:56 2021, MaxMem=   524288000 cpu:               0.1 elap:               0.1
 (Enter /opt/gaussian/g16_legacy/l301.exe)
 Standard basis: 6-31G(d,p) (6D, 7F)
 Ernie: Thresh=  0.10000D-02 Tol=  0.10000D-05 Strict=F.
 There are   240 symmetry adapted cartesian basis functions of A   symmetry.
 There are   240 symmetry adapted basis functions of A   symmetry.
   240 basis functions,   406 primitive gaussians,   240 cartesian basis functions
    39 alpha electrons       39 beta electrons
       nuclear repulsion energy       527.7281427842 Hartrees.
 IExCor= 4336 DFT=T Ex+Corr=M062X ExCW=0 ScaHFX=  0.540000
 ScaDFX=  1.000000  1.000000  1.000000  1.000000 ScalE2=  1.000000  1.000000
 IRadAn=      5 IRanWt=     -1 IRanGd=            0 ICorTp=0 IEmpDi=  4
 NAtoms=   28 NActive=   28 NUniq=   28 SFac= 1.00D+00 NAtFMM=   60 NAOKFM=F Big=F
 Integral buffers will be    131072 words long.
 Raffenetti 2 integral format.
 Two-electron integral symmetry is turned on.
 Leave Link  301 at Tue Jul  6 10:48:57 2021, MaxMem=   524288000 cpu:               0.4 elap:               0.1
 (Enter /opt/gaussian/g16_legacy/l302.exe)
 NPDir=0 NMtPBC=     1 NCelOv=     1 NCel=       1 NClECP=     1 NCelD=      1
         NCelK=      1 NCelE2=     1 NClLst=     1 CellRange=     0.0.
 One-electron integrals computed using PRISM.
 One-electron integral symmetry used in STVInt
 NBasis=   240 RedAO= T EigKep=  2.14D-03  NBF=   240
 NBsUse=   240 1.00D-06 EigRej= -1.00D+00 NBFU=   240
 Precomputing XC quadrature grid using
 IXCGrd= 4 IRadAn=           5 IRanWt=          -1 IRanGd=           0 AccXCQ= 0.00D+00.
 Generated NRdTot=       0 NPtTot=           0 NUsed=           0 NTot=          32
 NSgBfM=   240   240   240   240   240 MxSgAt=    28 MxSgA2=    28.
 Leave Link  302 at Tue Jul  6 10:48:57 2021, MaxMem=   524288000 cpu:               2.8 elap:               0.6
 (Enter /opt/gaussian/g16_legacy/l303.exe)
 DipDrv:  MaxL=1.
 Leave Link  303 at Tue Jul  6 10:48:58 2021, MaxMem=   524288000 cpu:               0.2 elap:               0.1
 (Enter /opt/gaussian/g16_legacy/l401.exe)
 ExpMin= 1.61D-01 ExpMax= 3.05D+03 ExpMxC= 4.57D+02 IAcc=3 IRadAn=         5 AccDes= 0.00D+00
 Harris functional with IExCor= 1009 and IRadAn=       5 diagonalized for initial guess.
 HarFok:  IExCor= 1009 AccDes= 0.00D+00 IRadAn=         5 IDoV= 1 UseB2=F ITyADJ=14
 ICtDFT=  3500011 ScaDFX=  1.000000  1.000000  1.000000  1.000000
 FoFCou: FMM=F IPFlag=           0 FMFlag=      100000 FMFlg1=           0
         NFxFlg=           0 DoJE=T BraDBF=F KetDBF=T FulRan=T
         wScrn=  0.000000 ICntrl=       500 IOpCl=  0 I1Cent=   200000004 NGrid=           0
         NMat0=    1 NMatS0=      1 NMatT0=    0 NMatD0=    1 NMtDS0=    0 NMtDT0=    0
 Petite list used in FoFCou.
 Harris En= -391.655237124225    
 JPrj=0 DoOrth=F DoCkMO=F.
 Leave Link  401 at Tue Jul  6 10:49:00 2021, MaxMem=   524288000 cpu:              12.7 elap:               2.2
 (Enter /opt/gaussian/g16_legacy/l502.exe)
 Integral symmetry usage will be decided dynamically.
 Closed shell SCF:
 Using DIIS extrapolation, IDIIS=  1040.
 NGot=   524288000 LenX=   524168546 LenY=   524110505
 Requested convergence on RMS density matrix=1.00D-08 within 128 cycles.
 Requested convergence on MAX density matrix=1.00D-06.
 Requested convergence on             energy=1.00D-06.
 No special actions if energy rises.
 Fock matrices will be formed incrementally for  20 cycles.
 Integral accuracy reduced to 1.0D-05 until final iterations.

 Cycle   1  Pass 0  IDiag  1:
 FoFJK:  IHMeth= 1 ICntrl=       0 DoSepK=F KAlg= 0 I1Cent=           0 FoldK=F
 IRaf= 880000000 NMat=       1 IRICut=       1 DoRegI=T DoRafI=F ISym2E= 0 IDoP0=0 IntGTp=1.
 FoFCou: FMM=F IPFlag=           0 FMFlag=      100000 FMFlg1=           0
         NFxFlg=           0 DoJE=F BraDBF=F KetDBF=F FulRan=T
         wScrn=  0.000000 ICntrl=         0 IOpCl=  0 I1Cent=           0 NGrid=           0
         NMat0=    1 NMatS0=      1 NMatT0=    0 NMatD0=    1 NMtDS0=    0 NMtDT0=    0
 Symmetry not used in FoFCou.
 E= -391.298310053953    
 DIIS: error= 3.06D-02 at cycle   1 NSaved=   1.
 NSaved= 1 IEnMin= 1 EnMin= -391.298310053953     IErMin= 1 ErrMin= 3.06D-02
 ErrMax= 3.06D-02  0.00D+00 EMaxC= 1.00D-01 BMatC= 3.71D-01 BMatP= 3.71D-01
 IDIUse=3 WtCom= 6.94D-01 WtEn= 3.06D-01
 Coeff-Com:  0.100D+01
 Coeff-En:   0.100D+01
 Coeff:      0.100D+01
 Gap=     0.344 Goal=   None    Shift=    0.000
 GapD=    0.344 DampG=1.000 DampE=0.500 DampFc=0.5000 IDamp=-1.
 Damping current iteration by 5.00D-01
 RMSDP=4.45D-03 MaxDP=1.09D-01              OVMax= 1.47D-01

 Cycle   2  Pass 0  IDiag  1:
 RMSU=  2.18D-03    CP:  9.75D-01
 E= -391.506863491613     Delta-E=       -0.208553437660 Rises=F Damp=T
 DIIS: error= 1.13D-02 at cycle   2 NSaved=   2.
 NSaved= 2 IEnMin= 2 EnMin= -391.506863491613     IErMin= 2 ErrMin= 1.13D-02
 ErrMax= 1.13D-02  0.00D+00 EMaxC= 1.00D-01 BMatC= 2.12D-02 BMatP= 3.71D-01
 IDIUse=3 WtCom= 8.87D-01 WtEn= 1.13D-01
 Coeff-Com: -0.145D+00 0.114D+01
 Coeff-En:   0.000D+00 0.100D+01
 Coeff:     -0.129D+00 0.113D+01
 Gap=     0.369 Goal=   None    Shift=    0.000
 RMSDP=8.91D-04 MaxDP=2.81D-02 DE=-2.09D-01 OVMax= 6.50D-02

 Cycle   3  Pass 0  IDiag  1:
 RMSU=  8.65D-04    CP:  9.69D-01  1.08D+00
 E= -391.687819574536     Delta-E=       -0.180956082923 Rises=F Damp=F
 DIIS: error= 1.47D-03 at cycle   3 NSaved=   3.
 NSaved= 3 IEnMin= 3 EnMin= -391.687819574536     IErMin= 3 ErrMin= 1.47D-03
 ErrMax= 1.47D-03  0.00D+00 EMaxC= 1.00D-01 BMatC= 1.05D-03 BMatP= 2.12D-02
 IDIUse=3 WtCom= 9.85D-01 WtEn= 1.47D-02
 Coeff-Com: -0.325D-01 0.163D+00 0.870D+00
 Coeff-En:   0.000D+00 0.000D+00 0.100D+01
 Coeff:     -0.320D-01 0.160D+00 0.872D+00
 Gap=     0.340 Goal=   None    Shift=    0.000
 RMSDP=2.51D-04 MaxDP=5.22D-03 DE=-1.81D-01 OVMax= 1.54D-02

 Cycle   4  Pass 0  IDiag  1:
 RMSU=  2.10D-04    CP:  9.69D-01  1.12D+00  8.80D-01
 E= -391.688309886907     Delta-E=       -0.000490312371 Rises=F Damp=F
 DIIS: error= 1.23D-03 at cycle   4 NSaved=   4.
 NSaved= 4 IEnMin= 4 EnMin= -391.688309886907     IErMin= 4 ErrMin= 1.23D-03
 ErrMax= 1.23D-03  0.00D+00 EMaxC= 1.00D-01 BMatC= 5.58D-04 BMatP= 1.05D-03
 IDIUse=3 WtCom= 9.88D-01 WtEn= 1.23D-02
 Coeff-Com: -0.864D-02 0.357D-01 0.431D+00 0.542D+00
 Coeff-En:   0.000D+00 0.000D+00 0.329D+00 0.671D+00
 Coeff:     -0.853D-02 0.352D-01 0.430D+00 0.544D+00
 Gap=     0.341 Goal=   None    Shift=    0.000
 RMSDP=1.17D-04 MaxDP=3.15D-03 DE=-4.90D-04 OVMax= 9.21D-03

 Cycle   5  Pass 0  IDiag  1:
 RMSU=  5.63D-05    CP:  9.69D-01  1.12D+00  9.38D-01  5.83D-01
 E= -391.688836719951     Delta-E=       -0.000526833044 Rises=F Damp=F
 DIIS: error= 3.53D-04 at cycle   5 NSaved=   5.
 NSaved= 5 IEnMin= 5 EnMin= -391.688836719951     IErMin= 5 ErrMin= 3.53D-04
 ErrMax= 3.53D-04  0.00D+00 EMaxC= 1.00D-01 BMatC= 3.94D-05 BMatP= 5.58D-04
 IDIUse=3 WtCom= 9.96D-01 WtEn= 3.53D-03
 Coeff-Com: -0.136D-03 0.403D-03 0.115D+00 0.255D+00 0.629D+00
 Coeff-En:   0.000D+00 0.000D+00 0.000D+00 0.000D+00 0.100D+01
 Coeff:     -0.136D-03 0.402D-03 0.115D+00 0.254D+00 0.631D+00
 Gap=     0.341 Goal=   None    Shift=    0.000
 RMSDP=2.86D-05 MaxDP=9.96D-04 DE=-5.27D-04 OVMax= 2.52D-03

 Cycle   6  Pass 0  IDiag  1:
 RMSU=  1.61D-05    CP:  9.69D-01  1.11D+00  9.48D-01  6.37D-01  6.77D-01
 E= -391.688875386843     Delta-E=       -0.000038666891 Rises=F Damp=F
 DIIS: error= 6.54D-05 at cycle   6 NSaved=   6.
 NSaved= 6 IEnMin= 6 EnMin= -391.688875386843     IErMin= 6 ErrMin= 6.54D-05
 ErrMax= 6.54D-05  0.00D+00 EMaxC= 1.00D-01 BMatC= 1.62D-06 BMatP= 3.94D-05
 IDIUse=1 WtCom= 1.00D+00 WtEn= 0.00D+00
 Coeff-Com:  0.847D-03-0.299D-02 0.949D-02 0.509D-01 0.221D+00 0.720D+00
 Coeff:      0.847D-03-0.299D-02 0.949D-02 0.509D-01 0.221D+00 0.720D+00
 Gap=     0.341 Goal=   None    Shift=    0.000
 RMSDP=6.01D-06 MaxDP=2.00D-04 DE=-3.87D-05 OVMax= 3.91D-04

 Initial convergence to 1.0D-05 achieved.  Increase integral accuracy.
 Cycle   7  Pass 1  IDiag  1:
 E= -391.688896752950     Delta-E=       -0.000021366108 Rises=F Damp=F
 DIIS: error= 2.04D-05 at cycle   1 NSaved=   1.
 NSaved= 1 IEnMin= 1 EnMin= -391.688896752950     IErMin= 1 ErrMin= 2.04D-05
 ErrMax= 2.04D-05  0.00D+00 EMaxC= 1.00D-01 BMatC= 2.38D-07 BMatP= 2.38D-07
 IDIUse=1 WtCom= 1.00D+00 WtEn= 0.00D+00
 Coeff-Com:  0.100D+01
 Coeff:      0.100D+01
 Gap=     0.341 Goal=   None    Shift=    0.000
 RMSDP=6.01D-06 MaxDP=2.00D-04 DE=-2.14D-05 OVMax= 1.47D-04

 Cycle   8  Pass 1  IDiag  1:
 RMSU=  6.09D-06    CP:  1.00D+00
 E= -391.688896892914     Delta-E=       -0.000000139963 Rises=F Damp=F
 DIIS: error= 1.98D-05 at cycle   2 NSaved=   2.
 NSaved= 2 IEnMin= 2 EnMin= -391.688896892914     IErMin= 2 ErrMin= 1.98D-05
 ErrMax= 1.98D-05  0.00D+00 EMaxC= 1.00D-01 BMatC= 1.17D-07 BMatP= 2.38D-07
 IDIUse=1 WtCom= 1.00D+00 WtEn= 0.00D+00
 Coeff-Com:  0.390D+00 0.610D+00
 Coeff:      0.390D+00 0.610D+00
 Gap=     0.341 Goal=   None    Shift=    0.000
 RMSDP=1.60D-06 MaxDP=6.74D-05 DE=-1.40D-07 OVMax= 1.26D-04

 Cycle   9  Pass 1  IDiag  1:
 RMSU=  1.53D-06    CP:  1.00D+00  9.23D-01
 E= -391.688896997035     Delta-E=       -0.000000104121 Rises=F Damp=F
 DIIS: error= 7.02D-06 at cycle   3 NSaved=   3.
 NSaved= 3 IEnMin= 3 EnMin= -391.688896997035     IErMin= 3 ErrMin= 7.02D-06
 ErrMax= 7.02D-06  0.00D+00 EMaxC= 1.00D-01 BMatC= 1.41D-08 BMatP= 1.17D-07
 IDIUse=1 WtCom= 1.00D+00 WtEn= 0.00D+00
 Coeff-Com:  0.653D-02 0.245D+00 0.749D+00
 Coeff:      0.653D-02 0.245D+00 0.749D+00
 Gap=     0.341 Goal=   None    Shift=    0.000
 RMSDP=5.94D-07 MaxDP=2.48D-05 DE=-1.04D-07 OVMax= 4.54D-05

 Cycle  10  Pass 1  IDiag  1:
 RMSU=  3.80D-07    CP:  1.00D+00  9.80D-01  8.08D-01
 E= -391.688897009324     Delta-E=       -0.000000012289 Rises=F Damp=F
 DIIS: error= 1.95D-06 at cycle   4 NSaved=   4.
 NSaved= 4 IEnMin= 4 EnMin= -391.688897009324     IErMin= 4 ErrMin= 1.95D-06
 ErrMax= 1.95D-06  0.00D+00 EMaxC= 1.00D-01 BMatC= 2.09D-09 BMatP= 1.41D-08
 IDIUse=1 WtCom= 1.00D+00 WtEn= 0.00D+00
 Coeff-Com: -0.247D-01 0.841D-01 0.384D+00 0.556D+00
 Coeff:     -0.247D-01 0.841D-01 0.384D+00 0.556D+00
 Gap=     0.341 Goal=   None    Shift=    0.000
 RMSDP=1.97D-07 MaxDP=8.26D-06 DE=-1.23D-08 OVMax= 1.74D-05

 Cycle  11  Pass 1  IDiag  1:
 RMSU=  1.47D-07    CP:  1.00D+00  9.86D-01  8.49D-01  7.10D-01
 E= -391.688897011440     Delta-E=       -0.000000002117 Rises=F Damp=F
 DIIS: error= 2.50D-07 at cycle   5 NSaved=   5.
 NSaved= 5 IEnMin= 5 EnMin= -391.688897011440     IErMin= 5 ErrMin= 2.50D-07
 ErrMax= 2.50D-07  0.00D+00 EMaxC= 1.00D-01 BMatC= 3.79D-11 BMatP= 2.09D-09
 IDIUse=1 WtCom= 1.00D+00 WtEn= 0.00D+00
 Coeff-Com: -0.500D-02 0.896D-04 0.160D-01 0.114D+00 0.875D+00
 Coeff:     -0.500D-02 0.896D-04 0.160D-01 0.114D+00 0.875D+00
 Gap=     0.341 Goal=   None    Shift=    0.000
 RMSDP=4.36D-08 MaxDP=1.15D-06 DE=-2.12D-09 OVMax= 2.79D-06

 Cycle  12  Pass 1  IDiag  1:
 RMSU=  3.31D-08    CP:  1.00D+00  9.88D-01  8.53D-01  7.77D-01  1.01D+00
 E= -391.688897011482     Delta-E=       -0.000000000041 Rises=F Damp=F
 DIIS: error= 1.30D-07 at cycle   6 NSaved=   6.
 NSaved= 6 IEnMin= 6 EnMin= -391.688897011482     IErMin= 6 ErrMin= 1.30D-07
 ErrMax= 1.30D-07  0.00D+00 EMaxC= 1.00D-01 BMatC= 8.66D-12 BMatP= 3.79D-11
 IDIUse=1 WtCom= 1.00D+00 WtEn= 0.00D+00
 Coeff-Com:  0.233D-03-0.812D-02-0.317D-01 0.118D-02 0.393D+00 0.646D+00
 Coeff:      0.233D-03-0.812D-02-0.317D-01 0.118D-02 0.393D+00 0.646D+00
 Gap=     0.341 Goal=   None    Shift=    0.000
 RMSDP=1.70D-08 MaxDP=5.82D-07 DE=-4.13D-11 OVMax= 1.38D-06

 Cycle  13  Pass 1  IDiag  1:
 RMSU=  1.02D-08    CP:  1.00D+00  9.88D-01  8.53D-01  7.87D-01  1.08D+00
                    CP:  7.66D-01
 E= -391.688897011487     Delta-E=       -0.000000000005 Rises=F Damp=F
 DIIS: error= 6.15D-08 at cycle   7 NSaved=   7.
 NSaved= 7 IEnMin= 7 EnMin= -391.688897011487     IErMin= 7 ErrMin= 6.15D-08
 ErrMax= 6.15D-08  0.00D+00 EMaxC= 1.00D-01 BMatC= 1.16D-12 BMatP= 8.66D-12
 IDIUse=1 WtCom= 1.00D+00 WtEn= 0.00D+00
 Coeff-Com:  0.623D-03-0.377D-02-0.170D-01-0.983D-02 0.971D-01 0.323D+00
 Coeff-Com:  0.610D+00
 Coeff:      0.623D-03-0.377D-02-0.170D-01-0.983D-02 0.971D-01 0.323D+00
 Coeff:      0.610D+00
 Gap=     0.341 Goal=   None    Shift=    0.000
 RMSDP=4.79D-09 MaxDP=1.84D-07 DE=-5.23D-12 OVMax= 4.66D-07

 SCF Done:  E(RM062X) =  -391.688897011     A.U. after   13 cycles
            NFock= 13  Conv=0.48D-08     -V/T= 2.0093
 KE= 3.880656294750D+02 PE=-1.960542804965D+03 EE= 6.530601356938D+02
 Leave Link  502 at Tue Jul  6 10:49:49 2021, MaxMem=   524288000 cpu:             294.9 elap:              49.3
 (Enter /opt/gaussian/g16_legacy/l601.exe)
 Copying SCF densities to generalized density rwf, IOpCl= 0 IROHF=0.

 **********************************************************************

            Population analysis using the SCF density.

 **********************************************************************

 Orbital symmetries:
       Occupied  (A) (A) (A) (A) (A) (A) (A) (A) (A) (A) (A) (A)
                 (A) (A) (A) (A) (A) (A) (A) (A) (A) (A) (A) (A)
                 (A) (A) (A) (A) (A) (A) (A) (A) (A) (A) (A) (A)
                 (A) (A) (A)
       Virtual   (A) (A) (A) (A) (A) (A) (A) (A) (A) (A) (A) (A)
                 (A) (A) (A) (A) (A) (A) (A) (A) (A) (A) (A) (A)
                 (A) (A) (A) (A) (A) (A) (A) (A) (A) (A) (A) (A)
                 (A) (A) (A) (A) (A) (A) (A) (A) (A) (A) (A) (A)
                 (A) (A) (A) (A) (A) (A) (A) (A) (A) (A) (A) (A)
                 (A) (A) (A) (A) (A) (A) (A) (A) (A) (A) (A) (A)
                 (A) (A) (A) (A) (A) (A) (A) (A) (A) (A) (A) (A)
                 (A) (A) (A) (A) (A) (A) (A) (A) (A) (A) (A) (A)
                 (A) (A) (A) (A) (A) (A) (A) (A) (A) (A) (A) (A)
                 (A) (A) (A) (A) (A) (A) (A) (A) (A) (A) (A) (A)
                 (A) (A) (A) (A) (A) (A) (A) (A) (A) (A) (A) (A)
                 (A) (A) (A) (A) (A) (A) (A) (A) (A) (A) (A) (A)
                 (A) (A) (A) (A) (A) (A) (A) (A) (A) (A) (A) (A)
                 (A) (A) (A) (A) (A) (A) (A) (A) (A) (A) (A) (A)
                 (A) (A) (A) (A) (A) (A) (A) (A) (A) (A) (A) (A)
                 (A) (A) (A) (A) (A) (A) (A) (A) (A) (A) (A) (A)
                 (A) (A) (A) (A) (A) (A) (A) (A) (A)
 The electronic state is 1-A.
 Alpha  occ. eigenvalues --  -10.54613 -10.54156 -10.53952 -10.53892 -10.53557
 Alpha  occ. eigenvalues --  -10.53261 -10.53254 -10.53160 -10.53056 -10.52909
 Alpha  occ. eigenvalues --   -0.91899  -0.89732  -0.84606  -0.81348  -0.77801
 Alpha  occ. eigenvalues --   -0.76114  -0.71766  -0.68335  -0.59365  -0.56802
 Alpha  occ. eigenvalues --   -0.53829  -0.52176  -0.49886  -0.49433  -0.49055
 Alpha  occ. eigenvalues --   -0.48542  -0.46355  -0.44942  -0.44650  -0.43973
 Alpha  occ. eigenvalues --   -0.42862  -0.42065  -0.41911  -0.40128  -0.40008
 Alpha  occ. eigenvalues --   -0.36970  -0.36422  -0.28484  -0.27170
 Alpha virt. eigenvalues --    0.06944   0.07646   0.13104   0.14919   0.16223
 Alpha virt. eigenvalues --    0.16719   0.18121   0.18586   0.19473   0.19913
 Alpha virt. eigenvalues --    0.21248   0.21862   0.22128   0.22845   0.23614
 Alpha virt. eigenvalues --    0.24642   0.24997   0.25924   0.26869   0.28063
 Alpha virt. eigenvalues --    0.28346   0.29295   0.29953   0.30659   0.33075
 Alpha virt. eigenvalues --    0.37832   0.39217   0.47515   0.49150   0.53214
 Alpha virt. eigenvalues --    0.54073   0.55398   0.58442   0.58995   0.59588
 Alpha virt. eigenvalues --    0.60066   0.62009   0.62524   0.63578   0.65214
 Alpha virt. eigenvalues --    0.66766   0.68464   0.70997   0.71730   0.74005
 Alpha virt. eigenvalues --    0.74861   0.76219   0.76996   0.79189   0.80383
 Alpha virt. eigenvalues --    0.80794   0.81621   0.82968   0.84858   0.86678
 Alpha virt. eigenvalues --    0.88299   0.88836   0.90258   0.91469   0.92427
 Alpha virt. eigenvalues --    0.94167   0.94696   0.95552   0.96118   0.96420
 Alpha virt. eigenvalues --    0.97314   0.97634   0.99134   0.99369   1.00071
 Alpha virt. eigenvalues --    1.01263   1.03229   1.03944   1.04951   1.05641
 Alpha virt. eigenvalues --    1.06949   1.11620   1.19222   1.21840   1.24970
 Alpha virt. eigenvalues --    1.25789   1.29057   1.35692   1.36652   1.38724
 Alpha virt. eigenvalues --    1.39155   1.41445   1.46043   1.50613   1.51742
 Alpha virt. eigenvalues --    1.54808   1.57656   1.68856   1.70177   1.72343
 Alpha virt. eigenvalues --    1.76041   1.78610   1.79375   1.80497   1.82391
 Alpha virt. eigenvalues --    1.83968   1.85414   1.87563   1.88942   1.90836
 Alpha virt. eigenvalues --    1.91160   1.92933   1.94535   2.00154   2.01574
 Alpha virt. eigenvalues --    2.03282   2.04763   2.05742   2.07321   2.09485
 Alpha virt. eigenvalues --    2.10068   2.10331   2.10775   2.13486   2.14815
 Alpha virt. eigenvalues --    2.15181   2.15721   2.16019   2.17409   2.18765
 Alpha virt. eigenvalues --    2.20475   2.21288   2.23103   2.23502   2.25726
 Alpha virt. eigenvalues --    2.29054   2.29991   2.31921   2.33887   2.34386
 Alpha virt. eigenvalues --    2.37997   2.41428   2.42957   2.43824   2.45342
 Alpha virt. eigenvalues --    2.47003   2.49213   2.50584   2.53229   2.53906
 Alpha virt. eigenvalues --    2.55621   2.58340   2.61817   2.61842   2.63638
 Alpha virt. eigenvalues --    2.65609   2.67629   2.68125   2.70424   2.72569
 Alpha virt. eigenvalues --    2.74051   2.74787   2.75838   2.79096   2.83726
 Alpha virt. eigenvalues --    2.84387   2.85880   2.87197   2.87950   2.88473
 Alpha virt. eigenvalues --    2.89401   2.91734   2.94142   2.95461   3.01600
 Alpha virt. eigenvalues --    3.03808   3.08515   3.09081   3.17914   3.19268
 Alpha virt. eigenvalues --    3.21423   3.22845   3.32132   3.32693   3.39992
 Alpha virt. eigenvalues --    3.41552   3.42215   3.42353   3.43905   3.44351
 Alpha virt. eigenvalues --    3.45319   3.47092   3.49668   3.51222   3.51941
 Alpha virt. eigenvalues --    3.55465   4.17956   4.21642   4.33448   4.42790
 Alpha virt. eigenvalues --    4.51448   4.52446   4.54183   4.68473   4.71260
 Alpha virt. eigenvalues --    4.73489
          Condensed to atoms (all electrons):
               1          2          3          4          5          6
     1  C    5.020158   0.384773   0.382431   0.382334  -0.074133  -0.001385
     2  H    0.384773   0.602727  -0.034509  -0.031332   0.004913  -0.000030
     3  H    0.382431  -0.034509   0.621007  -0.039559  -0.007126  -0.000532
     4  C    0.382334  -0.031332  -0.039559   4.752864   0.368480  -0.037613
     5  C   -0.074133   0.004913  -0.007126   0.368480   5.006364   0.382384
     6  H   -0.001385  -0.000030  -0.000532  -0.037613   0.382384   0.590835
     7  H    0.004503  -0.000163   0.000084  -0.033111   0.385724  -0.027380
     8  H   -0.002757   0.000046   0.005170  -0.035322   0.379384  -0.034610
     9  C   -0.045910  -0.007731   0.003021   0.711922  -0.042258  -0.001255
    10  H    0.005748   0.000030  -0.000171  -0.031215  -0.013568   0.000227
    11  C   -0.013953   0.000531   0.000229  -0.042314   0.006141  -0.000167
    12  H    0.000284   0.000125   0.000042  -0.000736  -0.000153  -0.000006
    13  H    0.001620   0.003490  -0.000034  -0.007541   0.000071   0.000001
    14  H    0.000408  -0.000149  -0.000017   0.000520  -0.000153   0.000020
    15  C    0.000131   0.000407  -0.000035   0.000026  -0.000000   0.000000
    16  H   -0.000134   0.000335   0.000031   0.000010   0.000000  -0.000000
    17  H    0.000084  -0.000049  -0.000004   0.000001   0.000000  -0.000000
    18  H   -0.000037   0.000005   0.000002  -0.000000   0.000000   0.000000
    19  C   -0.003113   0.001261   0.000095   0.000057  -0.000013  -0.000010
    20  C   -0.000105  -0.000063   0.000003  -0.000004   0.000000  -0.000000
    21  H   -0.000005   0.000001   0.000000  -0.000000  -0.000000   0.000000
    22  H   -0.000005  -0.000002   0.000000  -0.000001  -0.000000   0.000000
    23  H    0.000022  -0.000001  -0.000000   0.000001   0.000000  -0.000000
    24  C   -0.054729  -0.005890   0.006154  -0.003743  -0.000611  -0.000052
    25  H   -0.001846   0.000046  -0.000106   0.005073   0.000198  -0.000016
    26  C    0.342018  -0.037287  -0.041009  -0.051937  -0.001315   0.002123
    27  H   -0.033298  -0.003368  -0.005041   0.005030  -0.000026  -0.000083
    28  H   -0.042608   0.005317  -0.002667  -0.006775   0.001789   0.002208
               7          8          9         10         11         12
     1  C    0.004503  -0.002757  -0.045910   0.005748  -0.013953   0.000284
     2  H   -0.000163   0.000046  -0.007731   0.000030   0.000531   0.000125
     3  H    0.000084   0.005170   0.003021  -0.000171   0.000229   0.000042
     4  C   -0.033111  -0.035322   0.711922  -0.031215  -0.042314  -0.000736
     5  C    0.385724   0.379384  -0.042258  -0.013568   0.006141  -0.000153
     6  H   -0.027380  -0.034610  -0.001255   0.000227  -0.000167  -0.000006
     7  H    0.573263  -0.027579  -0.005253   0.006169   0.000118  -0.000004
     8  H   -0.027579   0.591424  -0.000523   0.000294  -0.000171   0.000023
     9  C   -0.005253  -0.000523   4.895621   0.376778   0.361730  -0.036756
    10  H    0.006169   0.000294   0.376778   0.615072  -0.056337  -0.000786
    11  C    0.000118  -0.000171   0.361730  -0.056337   4.977697   0.382585
    12  H   -0.000004   0.000023  -0.036756  -0.000786   0.382585   0.585488
    13  H    0.000009  -0.000001  -0.033110   0.004565   0.387322  -0.027348
    14  H   -0.000011  -0.000004  -0.033482  -0.002636   0.385762  -0.032485
    15  C   -0.000000   0.000000  -0.000003  -0.000000  -0.000001   0.000000
    16  H   -0.000000   0.000000  -0.000000  -0.000000   0.000000   0.000000
    17  H   -0.000000  -0.000000  -0.000000   0.000000   0.000009  -0.000000
    18  H    0.000000   0.000000   0.000000   0.000000  -0.000000   0.000000
    19  C    0.000000   0.000001   0.000383   0.000000  -0.000576   0.000022
    20  C   -0.000000  -0.000000   0.000003  -0.000000   0.000006   0.000000
    21  H    0.000000  -0.000000   0.000000   0.000000  -0.000000   0.000000
    22  H    0.000000  -0.000000  -0.000007  -0.000000   0.000007  -0.000000
    23  H   -0.000000  -0.000000  -0.000004  -0.000000   0.000035  -0.000002
    24  C    0.000003   0.000056   0.002822  -0.000022  -0.000681   0.000073
    25  H   -0.000007   0.000004   0.000788   0.000016   0.000074   0.000013
    26  C   -0.000002  -0.000719  -0.003624  -0.000120   0.000354  -0.000048
    27  H    0.000003  -0.000008  -0.000083   0.000004  -0.000016   0.000001
    28  H   -0.000115   0.000139   0.000159  -0.000003  -0.000022   0.000000
              13         14         15         16         17         18
     1  C    0.001620   0.000408   0.000131  -0.000134   0.000084  -0.000037
     2  H    0.003490  -0.000149   0.000407   0.000335  -0.000049   0.000005
     3  H   -0.000034  -0.000017  -0.000035   0.000031  -0.000004   0.000002
     4  C   -0.007541   0.000520   0.000026   0.000010   0.000001  -0.000000
     5  C    0.000071  -0.000153  -0.000000   0.000000   0.000000   0.000000
     6  H    0.000001   0.000020   0.000000  -0.000000  -0.000000   0.000000
     7  H    0.000009  -0.000011  -0.000000  -0.000000  -0.000000   0.000000
     8  H   -0.000001  -0.000004   0.000000   0.000000  -0.000000   0.000000
     9  C   -0.033110  -0.033482  -0.000003  -0.000000  -0.000000   0.000000
    10  H    0.004565  -0.002636  -0.000000  -0.000000   0.000000   0.000000
    11  C    0.387322   0.385762  -0.000001   0.000000   0.000009  -0.000000
    12  H   -0.027348  -0.032485   0.000000   0.000000  -0.000000   0.000000
    13  H    0.571485  -0.028402   0.000002  -0.000007  -0.000024   0.000003
    14  H   -0.028402   0.581332   0.000000  -0.000000  -0.000000  -0.000000
    15  C    0.000002   0.000000   5.005330   0.383036   0.384875   0.383165
    16  H   -0.000007  -0.000000   0.383036   0.575425  -0.029178  -0.027217
    17  H   -0.000024  -0.000000   0.384875  -0.029178   0.583821  -0.032644
    18  H    0.000003  -0.000000   0.383165  -0.027217  -0.032644   0.579327
    19  C    0.001476  -0.000051   0.376095  -0.027021  -0.036136  -0.036292
    20  C   -0.000007   0.000015  -0.079140   0.004787  -0.003521  -0.001980
    21  H    0.000004  -0.000000  -0.000396  -0.000006  -0.000863   0.003749
    22  H   -0.000004   0.000029   0.004673  -0.000168   0.000030  -0.000067
    23  H   -0.000049   0.000017  -0.002313  -0.000054   0.004497  -0.000687
    24  C    0.003041   0.000022  -0.051438  -0.007863   0.000924  -0.000248
    25  H   -0.000022  -0.000027   0.006068   0.000026  -0.000154  -0.000152
    26  C   -0.000661   0.000083  -0.013392   0.001517   0.000394   0.000207
    27  H    0.000036  -0.000001   0.001087   0.003033  -0.000149   0.000043
    28  H    0.000019   0.000002   0.000298  -0.000068  -0.000015   0.000035
              19         20         21         22         23         24
     1  C   -0.003113  -0.000105  -0.000005  -0.000005   0.000022  -0.054729
     2  H    0.001261  -0.000063   0.000001  -0.000002  -0.000001  -0.005890
     3  H    0.000095   0.000003   0.000000   0.000000  -0.000000   0.006154
     4  C    0.000057  -0.000004  -0.000000  -0.000001   0.000001  -0.003743
     5  C   -0.000013   0.000000  -0.000000  -0.000000   0.000000  -0.000611
     6  H   -0.000010  -0.000000   0.000000   0.000000  -0.000000  -0.000052
     7  H    0.000000  -0.000000   0.000000   0.000000  -0.000000   0.000003
     8  H    0.000001  -0.000000  -0.000000  -0.000000  -0.000000   0.000056
     9  C    0.000383   0.000003   0.000000  -0.000007  -0.000004   0.002822
    10  H    0.000000  -0.000000   0.000000  -0.000000  -0.000000  -0.000022
    11  C   -0.000576   0.000006  -0.000000   0.000007   0.000035  -0.000681
    12  H    0.000022   0.000000   0.000000  -0.000000  -0.000002   0.000073
    13  H    0.001476  -0.000007   0.000004  -0.000004  -0.000049   0.003041
    14  H   -0.000051   0.000015  -0.000000   0.000029   0.000017   0.000022
    15  C    0.376095  -0.079140  -0.000396   0.004673  -0.002313  -0.051438
    16  H   -0.027021   0.004787  -0.000006  -0.000168  -0.000054  -0.007863
    17  H   -0.036136  -0.003521  -0.000863   0.000030   0.004497   0.000924
    18  H   -0.036292  -0.001980   0.003749  -0.000067  -0.000687  -0.000248
    19  C    4.738721   0.368290  -0.038259  -0.032746  -0.036265   0.716876
    20  C    0.368290   5.003173   0.382620   0.385185   0.380580  -0.038211
    21  H   -0.038259   0.382620   0.590423  -0.027193  -0.034357  -0.001525
    22  H   -0.032746   0.385185  -0.027193   0.570466  -0.027102  -0.004723
    23  H   -0.036265   0.380580  -0.034357  -0.027102   0.591077  -0.000543
    24  C    0.716876  -0.038211  -0.001525  -0.004723  -0.000543   4.905430
    25  H   -0.032260  -0.013685   0.000237   0.006057   0.000271   0.376308
    26  C   -0.039263   0.005722  -0.000206   0.000116  -0.000125   0.360496
    27  H   -0.006481   0.000078   0.000005   0.000010  -0.000004  -0.040306
    28  H    0.001927  -0.000173   0.000015  -0.000012  -0.000003  -0.035898
              25         26         27         28
     1  C   -0.001846   0.342018  -0.033298  -0.042608
     2  H    0.000046  -0.037287  -0.003368   0.005317
     3  H   -0.000106  -0.041009  -0.005041  -0.002667
     4  C    0.005073  -0.051937   0.005030  -0.006775
     5  C    0.000198  -0.001315  -0.000026   0.001789
     6  H   -0.000016   0.002123  -0.000083   0.002208
     7  H   -0.000007  -0.000002   0.000003  -0.000115
     8  H    0.000004  -0.000719  -0.000008   0.000139
     9  C    0.000788  -0.003624  -0.000083   0.000159
    10  H    0.000016  -0.000120   0.000004  -0.000003
    11  C    0.000074   0.000354  -0.000016  -0.000022
    12  H    0.000013  -0.000048   0.000001   0.000000
    13  H   -0.000022  -0.000661   0.000036   0.000019
    14  H   -0.000027   0.000083  -0.000001   0.000002
    15  C    0.006068  -0.013392   0.001087   0.000298
    16  H    0.000026   0.001517   0.003033  -0.000068
    17  H   -0.000154   0.000394  -0.000149  -0.000015
    18  H   -0.000152   0.000207   0.000043   0.000035
    19  C   -0.032260  -0.039263  -0.006481   0.001927
    20  C   -0.013685   0.005722   0.000078  -0.000173
    21  H    0.000237  -0.000206   0.000005   0.000015
    22  H    0.006057   0.000116   0.000010  -0.000012
    23  H    0.000271  -0.000125  -0.000004  -0.000003
    24  C    0.376308   0.360496  -0.040306  -0.035898
    25  H    0.606453  -0.053219   0.004912  -0.004586
    26  C   -0.053219   5.009708   0.387231   0.389102
    27  H    0.004912   0.387231   0.607856  -0.033742
    28  H   -0.004586   0.389102  -0.033742   0.607456
 Mulliken charges:
               1
     1  C   -0.250495
     2  H    0.116566
     3  H    0.112542
     4  C    0.094888
     5  C   -0.396093
     6  H    0.125342
     7  H    0.123746
     8  H    0.125156
     9  C   -0.143227
    10  H    0.095957
    11  C   -0.388362
    12  H    0.129667
    13  H    0.124066
    14  H    0.129210
    15  C   -0.398476
    16  H    0.123516
    17  H    0.128103
    18  H    0.132790
    19  C    0.083281
    20  C   -0.393573
    21  H    0.125756
    22  H    0.125456
    23  H    0.125009
    24  C   -0.125719
    25  H    0.099537
    26  C   -0.256142
    27  H    0.113278
    28  H    0.118223
 Sum of Mulliken charges =  -0.00000
 Mulliken charges with hydrogens summed into heavy atoms:
               1
     1  C   -0.021386
     4  C    0.094888
     5  C   -0.021849
     9  C   -0.047271
    11  C   -0.005419
    15  C   -0.014067
    19  C    0.083281
    20  C   -0.017352
    24  C   -0.026183
    26  C   -0.024641
 Electronic spatial extent (au):  <R**2>=           2108.9317
 Charge=              0.0000 electrons
 Dipole moment (field-independent basis, Debye):
    X=             -0.3581    Y=             -0.0651    Z=              0.1766  Tot=              0.4045
 Quadrupole moment (field-independent basis, Debye-Ang):
   XX=            -63.3139   YY=            -63.4280   ZZ=            -64.6003
   XY=             -0.6303   XZ=             -1.5847   YZ=             -0.7900
 Traceless Quadrupole moment (field-independent basis, Debye-Ang):
   XX=              0.4668   YY=              0.3527   ZZ=             -0.8195
   XY=             -0.6303   XZ=             -1.5847   YZ=             -0.7900
 Octapole moment (field-independent basis, Debye-Ang**2):
  XXX=             -7.9861  YYY=              2.1933  ZZZ=              0.0167  XYY=              2.9511
  XXY=              0.7733  XXZ=             -2.1914  XZZ=             -0.4035  YZZ=              0.7701
  YYZ=              1.2721  XYZ=             -0.1412
 Hexadecapole moment (field-independent basis, Debye-Ang**3):
 XXXX=          -1922.9568 YYYY=           -657.0228 ZZZZ=           -316.1583 XXXY=              7.1233
 XXXZ=            -12.1325 YYYX=              3.8363 YYYZ=             -2.9991 ZZZX=             -1.5412
 ZZZY=             -0.6267 XXYY=           -428.1581 XXZZ=           -380.3663 YYZZ=           -159.0257
 XXYZ=             -4.2470 YYXZ=             -1.2245 ZZXY=             -2.2753
 N-N= 5.277281427842D+02 E-N=-1.960542804946D+03  KE= 3.880656294750D+02
 No NMR shielding tensors so no spin-rotation constants.
 Leave Link  601 at Tue Jul  6 10:49:50 2021, MaxMem=   524288000 cpu:               2.4 elap:               0.7
 (Enter /opt/gaussian/g16_legacy/l701.exe)
 ... and contract with generalized density number  0.
 Compute integral first derivatives.
 Leave Link  701 at Tue Jul  6 10:49:50 2021, MaxMem=   524288000 cpu:               0.8 elap:               0.3
 (Enter /opt/gaussian/g16_legacy/l702.exe)
 L702 exits ... SP integral derivatives will be done elsewhere.
 Leave Link  702 at Tue Jul  6 10:49:51 2021, MaxMem=   524288000 cpu:               0.1 elap:               0.0
 (Enter /opt/gaussian/g16_legacy/l703.exe)
 Integral derivatives from FoFJK, PRISM(SPDF).
 Compute integral first derivatives, UseDBF=F ICtDFT=           0.
 Calling FoFJK, ICntrl=      2127 FMM=F ISym2X=0 I1Cent= 0 IOpClX= 0 NMat=1 NMatS=1 NMatT=0.
 FoFJK:  IHMeth= 1 ICntrl=    2127 DoSepK=F KAlg= 0 I1Cent=           0 FoldK=F
 IRaf=         0 NMat=       1 IRICut=       1 DoRegI=T DoRafI=F ISym2E= 0 IDoP0=0 IntGTp=1.
 FoFCou: FMM=F IPFlag=           0 FMFlag=      100000 FMFlg1=         800
         NFxFlg=           0 DoJE=F BraDBF=F KetDBF=F FulRan=T
         wScrn=  0.000000 ICntrl=      2127 IOpCl=  0 I1Cent=           0 NGrid=           0
         NMat0=    1 NMatS0=      1 NMatT0=    0 NMatD0=    1 NMtDS0=    0 NMtDT0=    0
 Symmetry not used in FoFCou.
 Leave Link  703 at Tue Jul  6 10:49:59 2021, MaxMem=   524288000 cpu:              52.1 elap:               8.8
 (Enter /opt/gaussian/g16_legacy/l716.exe)
 Dipole        =-1.40871226D-01-2.55955070D-02 6.94857363D-02
 ***** Axes restored to original set *****
 -------------------------------------------------------------------
 Center     Atomic                   Forces (Hartrees/Bohr)
 Number     Number              X              Y              Z
 -------------------------------------------------------------------
      1        6          -0.006486557   -0.002577735   -0.001967246
      2        1           0.002017060    0.002783855   -0.001653710
      3        1          -0.000777013    0.002037070    0.001033994
      4        6          -0.002435452   -0.000675266   -0.013055363
      5        6          -0.000455183    0.000687386   -0.003083792
      6        1          -0.000882105   -0.000123936    0.003206673
      7        1           0.002186521   -0.001333854   -0.000470660
      8        1           0.000971238    0.000844362    0.002605004
      9        6           0.004210066   -0.000565530    0.013763770
     10        1          -0.001415332    0.000972126    0.002782049
     11        6           0.001355362   -0.001304182    0.000746986
     12        1           0.000938435   -0.000293691   -0.002781865
     13        1          -0.000243631    0.000773533    0.001483525
     14        1          -0.000205511   -0.001380849   -0.001674129
     15        6          -0.003879039   -0.000939261    0.002520769
     16        1          -0.000252307    0.001712054    0.000383781
     17        1           0.002495224    0.000742009    0.000047239
     18        1           0.001816631   -0.001707180   -0.001051528
     19        6          -0.013503983    0.007831082   -0.000085625
     20        6          -0.002817537    0.002583377   -0.000188427
     21        1           0.001892373   -0.001596531   -0.001688664
     22        1          -0.000641665   -0.001662389    0.001702815
     23        1           0.002950280   -0.000478358   -0.000058180
     24        6           0.006614748   -0.003746201    0.000029626
     25        1           0.002011067   -0.000779725   -0.002173150
     26        6           0.006486800   -0.001102795    0.001497209
     27        1           0.000390926   -0.000803986   -0.001186009
     28        1          -0.002341416    0.000104613   -0.000685093
 -------------------------------------------------------------------
 Cartesian Forces:  Max     0.013763770 RMS     0.003393966
 Leave Link  716 at Tue Jul  6 10:50:00 2021, MaxMem=   524288000 cpu:               0.2 elap:               0.1
 (Enter /opt/gaussian/g16_legacy/l103.exe)

 GradGradGradGradGradGradGradGradGradGradGradGradGradGradGradGradGradGrad
 Berny optimization.
 FormGI is forming the generalized inverse of G from B-inverse, IUseBI=4.
 Internal  Forces:  Max     0.014568163 RMS     0.002487875
 Search for a local minimum.
 Step number   1 out of a maximum of  138
 All quantities printed in internal units (Hartrees-Bohrs-Radians)
 RMS Force = .24879D-02 SwitMx=.10000D-02 MixMth= 1
 Mixed Optimization -- RFO/linear search
 Second derivative matrix not updated -- first step.
 ITU=  0
     Eigenvalues ---    0.00293   0.00533   0.00658   0.00681   0.00686
     Eigenvalues ---    0.00722   0.00816   0.01200   0.01290   0.01566
     Eigenvalues ---    0.01639   0.02774   0.02785   0.03744   0.03947
     Eigenvalues ---    0.05331   0.05348   0.06983   0.07002   0.07080
     Eigenvalues ---    0.07091   0.07245   0.07302   0.07351   0.07509
     Eigenvalues ---    0.09521   0.09666   0.12946   0.13079   0.15999
     Eigenvalues ---    0.16000   0.16000   0.16000   0.16000   0.16000
     Eigenvalues ---    0.16000   0.16000   0.16000   0.16000   0.16000
     Eigenvalues ---    0.16000   0.16000   0.16000   0.21889   0.21904
     Eigenvalues ---    0.22000   0.22000   0.24989   0.24994   0.24997
     Eigenvalues ---    0.24999   0.28899   0.30601   0.31538   0.31710
     Eigenvalues ---    0.31752   0.32030   0.32776   0.33875   0.34033
     Eigenvalues ---    0.34181   0.34195   0.34215   0.34230   0.34244
     Eigenvalues ---    0.34248   0.34252   0.34255   0.34262   0.34270
     Eigenvalues ---    0.34318   0.34328   0.34551   0.34634   0.34761
     Eigenvalues ---    0.34851   0.55402   0.55592
 RFO step:  Lambda=-3.92942641D-03 EMin= 2.93131776D-03
 Linear search not attempted -- first point.
 Iteration  1 RMS(Cart)=  0.14129207 RMS(Int)=  0.00283818
 Iteration  2 RMS(Cart)=  0.00573806 RMS(Int)=  0.00022017
 Iteration  3 RMS(Cart)=  0.00001315 RMS(Int)=  0.00022008
 Iteration  4 RMS(Cart)=  0.00000000 RMS(Int)=  0.00022008
 ITry= 1 IFail=0 DXMaxC= 6.07D-01 DCOld= 1.00D+10 DXMaxT= 3.00D-01 DXLimC= 3.00D+00 Rises=F
 Variable       Old X    -DE/DX   Delta X   Delta X   Delta X     New X
                                 (Linear)    (Quad)   (Total)
    R1        2.07025  -0.00075   0.00000  -0.00218  -0.00218   2.06807
    R2        2.07542   0.00042   0.00000   0.00122   0.00122   2.07664
    R3        2.86780  -0.00567   0.00000  -0.01830  -0.01830   2.84951
    R4        2.90213   0.00068   0.00000   0.00233   0.00233   2.90447
    R5        2.84998   0.00024   0.00000   0.00076   0.00076   2.85074
    R6        2.54777  -0.01457   0.00000  -0.02611  -0.02611   2.52166
    R7        2.06780   0.00120   0.00000   0.00345   0.00345   2.07125
    R8        2.06970  -0.00179   0.00000  -0.00518  -0.00518   2.06452
    R9        2.06901   0.00057   0.00000   0.00165   0.00165   2.07066
   R10        2.05918   0.00032   0.00000   0.00091   0.00091   2.06009
   R11        2.82747   0.00363   0.00000   0.01093   0.01093   2.83840
   R12        2.06797   0.00104   0.00000   0.00298   0.00298   2.07095
   R13        2.06273   0.00001   0.00000   0.00002   0.00002   2.06276
   R14        2.06876   0.00015   0.00000   0.00042   0.00042   2.06918
   R15        2.06410  -0.00040   0.00000  -0.00115  -0.00115   2.06296
   R16        2.07003   0.00001   0.00000   0.00004   0.00004   2.07006
   R17        2.06890   0.00071   0.00000   0.00206   0.00206   2.07096
   R18        2.84088   0.00092   0.00000   0.00284   0.00284   2.84373
   R19        2.84678   0.00050   0.00000   0.00155   0.00155   2.84833
   R20        2.54609  -0.01351   0.00000  -0.02414  -0.02414   2.52195
   R21        2.06914   0.00077   0.00000   0.00222   0.00222   2.07136
   R22        2.06944  -0.00179   0.00000  -0.00516  -0.00516   2.06428
   R23        2.06920   0.00065   0.00000   0.00187   0.00187   2.07107
   R24        2.06065  -0.00021   0.00000  -0.00059  -0.00059   2.06006
   R25        2.84600  -0.00121   0.00000  -0.00376  -0.00376   2.84224
   R26        2.06906  -0.00007   0.00000  -0.00020  -0.00020   2.06886
   R27        2.07274   0.00030   0.00000   0.00088   0.00088   2.07362
    A1        1.82588   0.00133   0.00000   0.03414   0.03433   1.86021
    A2        1.94373   0.00086   0.00000  -0.01396  -0.01503   1.92870
    A3        1.91013  -0.00056   0.00000  -0.02105  -0.02190   1.88823
    A4        1.88494   0.00118   0.00000   0.01478   0.01502   1.89996
    A5        1.89170   0.00175   0.00000   0.01955   0.01980   1.91150
    A6        1.99852  -0.00400   0.00000  -0.02603  -0.02658   1.97194
    A7        2.00783   0.00073   0.00000   0.00325   0.00279   2.01061
    A8        2.17728  -0.00498   0.00000  -0.01915  -0.01960   2.15768
    A9        2.09774   0.00427   0.00000   0.01727   0.01679   2.11453
   A10        1.93029   0.00246   0.00000   0.01286   0.01289   1.94318
   A11        1.95930  -0.00272   0.00000  -0.01317  -0.01314   1.94616
   A12        1.92515   0.00161   0.00000   0.00858   0.00860   1.93375
   A13        1.87567   0.00053   0.00000   0.00558   0.00561   1.88128
   A14        1.89550  -0.00331   0.00000  -0.02681  -0.02680   1.86870
   A15        1.87565   0.00130   0.00000   0.01208   0.01211   1.88776
   A16        2.06748  -0.00228   0.00000  -0.01562  -0.01562   2.05185
   A17        2.23262  -0.00209   0.00000  -0.00937  -0.00937   2.22325
   A18        1.98296   0.00437   0.00000   0.02493   0.02493   2.00789
   A19        1.91520   0.00334   0.00000   0.02119   0.02118   1.93638
   A20        1.98658  -0.00325   0.00000  -0.01942  -0.01935   1.96723
   A21        1.90989   0.00235   0.00000   0.01313   0.01310   1.92299
   A22        1.88878   0.00022   0.00000   0.00345   0.00354   1.89232
   A23        1.88659  -0.00295   0.00000  -0.01883  -0.01895   1.86764
   A24        1.87399   0.00014   0.00000  -0.00056  -0.00051   1.87348
   A25        1.86390   0.00177   0.00000   0.01577   0.01578   1.87967
   A26        1.88427   0.00022   0.00000   0.00359   0.00360   1.88788
   A27        1.97965  -0.00182   0.00000  -0.00729  -0.00728   1.97237
   A28        1.89063  -0.00253   0.00000  -0.02307  -0.02306   1.86758
   A29        1.92085   0.00017   0.00000  -0.00004  -0.00003   1.92081
   A30        1.92164   0.00208   0.00000   0.01009   0.01010   1.93175
   A31        1.99495   0.00098   0.00000   0.00388   0.00386   1.99881
   A32        2.18449  -0.00352   0.00000  -0.01380  -0.01382   2.17067
   A33        2.10366   0.00254   0.00000   0.01005   0.01004   2.11370
   A34        1.92349   0.00184   0.00000   0.00932   0.00934   1.93283
   A35        1.96096  -0.00253   0.00000  -0.01187  -0.01184   1.94912
   A36        1.92463   0.00189   0.00000   0.00995   0.00997   1.93460
   A37        1.87896   0.00090   0.00000   0.00864   0.00867   1.88763
   A38        1.89493  -0.00319   0.00000  -0.02648  -0.02647   1.86846
   A39        1.87885   0.00097   0.00000   0.00957   0.00959   1.88844
   A40        2.06609  -0.00138   0.00000  -0.01087  -0.01124   2.05485
   A41        2.23226  -0.00323   0.00000  -0.01432  -0.01470   2.21756
   A42        1.98480   0.00461   0.00000   0.02560   0.02521   2.01001
   A43        1.97609  -0.00442   0.00000  -0.02428  -0.02441   1.95168
   A44        1.89740   0.00163   0.00000   0.00856   0.00865   1.90605
   A45        1.92514  -0.00086   0.00000  -0.01572  -0.01579   1.90935
   A46        1.93744   0.00113   0.00000   0.00667   0.00666   1.94410
   A47        1.88819   0.00245   0.00000   0.00978   0.00938   1.89757
   A48        1.83442   0.00040   0.00000   0.01782   0.01779   1.85221
    D1        2.76625   0.00196   0.00000   0.00757   0.00708   2.77333
    D2       -0.34739   0.00098   0.00000  -0.04972  -0.04961  -0.39700
    D3        0.77080  -0.00077   0.00000  -0.03443  -0.03475   0.73605
    D4       -2.34284  -0.00175   0.00000  -0.09172  -0.09143  -2.43427
    D5       -1.33821  -0.00126   0.00000  -0.05319  -0.05329  -1.39150
    D6        1.83133  -0.00224   0.00000  -0.11048  -0.10997   1.72136
    D7        1.03779  -0.00124   0.00000   0.00762   0.00777   1.04556
    D8       -1.12400  -0.00084   0.00000   0.00953   0.00977  -1.11423
    D9       -3.12678  -0.00177   0.00000  -0.00808  -0.00769  -3.13446
   D10        3.01935   0.00096   0.00000   0.04737   0.04726   3.06661
   D11        0.85756   0.00137   0.00000   0.04928   0.04927   0.90682
   D12       -1.14522   0.00043   0.00000   0.03167   0.03181  -1.11341
   D13       -1.15857   0.00112   0.00000   0.06342   0.06304  -1.09553
   D14        2.96283   0.00152   0.00000   0.06533   0.06505   3.02787
   D15        0.96005   0.00059   0.00000   0.04772   0.04758   1.00764
   D16        1.09787  -0.00125   0.00000  -0.05286  -0.05320   1.04467
   D17       -3.09055  -0.00070   0.00000  -0.04573  -0.04608  -3.13663
   D18       -0.99934   0.00025   0.00000  -0.03327  -0.03363  -1.03297
   D19       -2.07030  -0.00047   0.00000   0.00097   0.00133  -2.06896
   D20        0.02447   0.00007   0.00000   0.00810   0.00845   0.03292
   D21        2.11568   0.00102   0.00000   0.02056   0.02090   2.13658
   D22        3.11776   0.00012   0.00000   0.01948   0.01940   3.13716
   D23       -0.04257   0.00007   0.00000   0.01571   0.01567  -0.02690
   D24        0.00547  -0.00085   0.00000  -0.04032  -0.04028  -0.03481
   D25        3.12832  -0.00090   0.00000  -0.04409  -0.04401   3.08431
   D26        2.02668   0.00031   0.00000   0.00780   0.00773   2.03441
   D27       -0.09268  -0.00018   0.00000   0.00113   0.00116  -0.09151
   D28       -2.18917   0.00012   0.00000   0.00535   0.00544  -2.18373
   D29       -1.13290   0.00021   0.00000   0.00383   0.00373  -1.12917
   D30        3.03093  -0.00029   0.00000  -0.00284  -0.00284   3.02809
   D31        0.93444   0.00002   0.00000   0.00138   0.00143   0.93587
   D32       -3.00801  -0.00047   0.00000  -0.02284  -0.02280  -3.03081
   D33        0.11994  -0.00027   0.00000  -0.01174  -0.01178   0.10816
   D34       -0.92124   0.00070   0.00000  -0.00758  -0.00754  -0.92878
   D35        2.20670   0.00091   0.00000   0.00351   0.00348   2.21018
   D36        1.16169  -0.00102   0.00000  -0.02978  -0.02975   1.13195
   D37       -1.99355  -0.00081   0.00000  -0.01869  -0.01873  -2.01227
   D38       -1.04139   0.00087   0.00000   0.01736   0.01740  -1.02399
   D39       -3.13676   0.00014   0.00000   0.00786   0.00790  -3.12885
   D40        1.05041  -0.00072   0.00000  -0.00325  -0.00320   1.04721
   D41        2.11316   0.00072   0.00000   0.00703   0.00697   2.12014
   D42        0.01779  -0.00001   0.00000  -0.00247  -0.00252   0.01527
   D43       -2.07823  -0.00086   0.00000  -0.01358  -0.01362  -2.09185
   D44       -3.11731  -0.00017   0.00000   0.00243   0.00216  -3.11515
   D45        0.03423  -0.00126   0.00000  -0.05244  -0.05214  -0.01791
   D46        0.00984   0.00004   0.00000   0.01411   0.01381   0.02365
   D47       -3.12180  -0.00105   0.00000  -0.04076  -0.04049   3.12089
   D48       -1.79633  -0.00030   0.00000   0.00466   0.00482  -1.79151
   D49        0.34339  -0.00054   0.00000   0.00319   0.00332   0.34671
   D50        2.34758   0.00196   0.00000   0.03379   0.03407   2.38165
   D51        1.35483  -0.00132   0.00000  -0.04790  -0.04812   1.30671
   D52       -2.78864  -0.00156   0.00000  -0.04937  -0.04962  -2.83826
   D53       -0.78445   0.00094   0.00000  -0.01877  -0.01886  -0.80331
         Item               Value     Threshold  Converged?
 Maximum Force            0.014568     0.002500     NO 
 RMS     Force            0.002488     0.001667     NO 
 Maximum Displacement     0.606668     0.010000     NO 
 RMS     Displacement     0.143684     0.006667     NO 
 Predicted change in Energy=-2.113577D-03
 Lowest energy point so far.  Saving SCF results.
 GradGradGradGradGradGradGradGradGradGradGradGradGradGradGradGradGradGrad

 Leave Link  103 at Tue Jul  6 10:50:00 2021, MaxMem=   524288000 cpu:               0.7 elap:               0.2
 (Enter /opt/gaussian/g16_legacy/l202.exe)
                          Input orientation:                          
 ---------------------------------------------------------------------
 Center     Atomic      Atomic             Coordinates (Angstroms)
[...]
                 (A) (A) (A) (A) (A) (A) (A) (A) (A) (A) (A) (A)
                 (A) (A) (A) (A) (A) (A) (A) (A) (A) (A) (A) (A)
                 (A) (A) (A) (A) (A) (A) (A) (A) (A) (A) (A) (A)
                 (A) (A) (A) (A) (A) (A) (A) (A) (A) (A) (A) (A)
                 (A) (A) (A) (A) (A) (A) (A) (A) (A) (A) (A) (A)
                 (A) (A) (A) (A) (A) (A) (A) (A) (A) (A) (A) (A)
                 (A) (A) (A) (A) (A) (A) (A) (A) (A) (A) (A) (A)
                 (A) (A) (A) (A) (A) (A) (A) (A) (A) (A) (A) (A)
                 (A) (A) (A) (A) (A) (A) (A) (A) (A) (A) (A) (A)
                 (A) (A) (A) (A) (A) (A) (A) (A) (A) (A) (A) (A)
                 (A) (A) (A) (A) (A) (A) (A) (A) (A) (A) (A) (A)
                 (A) (A) (A) (A) (A) (A) (A) (A) (A) (A) (A) (A)
                 (A) (A) (A) (A) (A) (A) (A) (A) (A)
 The electronic state is 1-A.
 Alpha  occ. eigenvalues --  -10.54427 -10.54008 -10.53901 -10.53830 -10.53627
 Alpha  occ. eigenvalues --  -10.53369 -10.53195 -10.53066 -10.52970 -10.52920
 Alpha  occ. eigenvalues --   -0.92282  -0.89781  -0.84433  -0.81248  -0.77894
 Alpha  occ. eigenvalues --   -0.76152  -0.71942  -0.68577  -0.59196  -0.56623
 Alpha  occ. eigenvalues --   -0.54334  -0.52006  -0.49883  -0.49862  -0.49104
 Alpha  occ. eigenvalues --   -0.48274  -0.46089  -0.45072  -0.44371  -0.44054
 Alpha  occ. eigenvalues --   -0.42787  -0.42322  -0.42065  -0.40588  -0.39775
 Alpha  occ. eigenvalues --   -0.37201  -0.36391  -0.28327  -0.27456
 Alpha virt. eigenvalues --    0.06875   0.07882   0.12095   0.14105   0.15761
 Alpha virt. eigenvalues --    0.16603   0.17932   0.19027   0.19379   0.20455
 Alpha virt. eigenvalues --    0.21076   0.21673   0.22181   0.23474   0.23563
 Alpha virt. eigenvalues --    0.24916   0.25853   0.26210   0.27017   0.28595
 Alpha virt. eigenvalues --    0.28922   0.29292   0.29993   0.31898   0.33122
 Alpha virt. eigenvalues --    0.37925   0.39617   0.47311   0.48667   0.52575
 Alpha virt. eigenvalues --    0.54799   0.55247   0.57907   0.58280   0.59327
 Alpha virt. eigenvalues --    0.59953   0.61102   0.62884   0.64205   0.66228
 Alpha virt. eigenvalues --    0.67210   0.69700   0.71332   0.71646   0.73402
 Alpha virt. eigenvalues --    0.74914   0.76090   0.78069   0.79143   0.80775
 Alpha virt. eigenvalues --    0.81819   0.82510   0.82842   0.84993   0.87120
 Alpha virt. eigenvalues --    0.88335   0.88673   0.91731   0.92775   0.93034
 Alpha virt. eigenvalues --    0.94058   0.94679   0.95524   0.96048   0.96251
 Alpha virt. eigenvalues --    0.97665   0.99127   0.99594   1.00155   1.01706
 Alpha virt. eigenvalues --    1.02960   1.03915   1.05480   1.06518   1.08514
 Alpha virt. eigenvalues --    1.10804   1.12032   1.20537   1.22792   1.26597
 Alpha virt. eigenvalues --    1.26889   1.29654   1.35956   1.37235   1.38190
 Alpha virt. eigenvalues --    1.39268   1.43599   1.47385   1.50625   1.52745
 Alpha virt. eigenvalues --    1.53093   1.56446   1.69745   1.70409   1.74250
 Alpha virt. eigenvalues --    1.76522   1.77015   1.80375   1.81289   1.82512
 Alpha virt. eigenvalues --    1.84329   1.85235   1.87414   1.88611   1.90936
 Alpha virt. eigenvalues --    1.92086   1.92921   1.94620   2.01379   2.03819
 Alpha virt. eigenvalues --    2.04468   2.05623   2.06222   2.08761   2.09823
 Alpha virt. eigenvalues --    2.10178   2.10366   2.10613   2.13534   2.15191
 Alpha virt. eigenvalues --    2.15793   2.16229   2.17701   2.18330   2.19348
 Alpha virt. eigenvalues --    2.21044   2.22823   2.23125   2.23715   2.25593
 Alpha virt. eigenvalues --    2.29520   2.31279   2.32042   2.33853   2.34680
 Alpha virt. eigenvalues --    2.39030   2.41818   2.43307   2.43848   2.44584
 Alpha virt. eigenvalues --    2.47856   2.48057   2.50335   2.53176   2.53958
 Alpha virt. eigenvalues --    2.55317   2.59432   2.61003   2.61681   2.64686
 Alpha virt. eigenvalues --    2.66447   2.66954   2.67601   2.69968   2.71525
 Alpha virt. eigenvalues --    2.74119   2.74769   2.76818   2.79782   2.83717
 Alpha virt. eigenvalues --    2.85459   2.85732   2.87302   2.87748   2.88926
 Alpha virt. eigenvalues --    2.90206   2.92384   2.92684   2.95144   3.02988
 Alpha virt. eigenvalues --    3.04466   3.09973   3.10586   3.17383   3.19123
 Alpha virt. eigenvalues --    3.21984   3.23924   3.31399   3.32770   3.40278
 Alpha virt. eigenvalues --    3.42143   3.42544   3.43321   3.44290   3.45079
 Alpha virt. eigenvalues --    3.46257   3.47560   3.48161   3.50062   3.52327
 Alpha virt. eigenvalues --    3.57033   4.18655   4.24047   4.35566   4.43072
 Alpha virt. eigenvalues --    4.51897   4.53564   4.54240   4.69605   4.71873
 Alpha virt. eigenvalues --    4.75077
          Condensed to atoms (all electrons):
               1          2          3          4          5          6
     1  C    5.019811   0.385551   0.382311   0.380322  -0.073546  -0.001121
     2  H    0.385551   0.607648  -0.032080  -0.033080   0.004967   0.000013
     3  H    0.382311  -0.032080   0.617738  -0.039538  -0.006494  -0.000641
     4  C    0.380322  -0.033080  -0.039538   4.747365   0.369983  -0.037933
     5  C   -0.073546   0.004967  -0.006494   0.369983   5.006391   0.382454
     6  H   -0.001121   0.000013  -0.000641  -0.037933   0.382454   0.595535
     7  H    0.004757  -0.000178   0.000108  -0.033914   0.385470  -0.027037
     8  H   -0.002978   0.000024   0.004446  -0.033051   0.378632  -0.037024
     9  C   -0.047877  -0.007338   0.003651   0.719720  -0.041894  -0.000866
    10  H    0.006278  -0.000010  -0.000181  -0.032431  -0.014570   0.000203
    11  C   -0.015401  -0.000218   0.000293  -0.042301   0.006177  -0.000162
    12  H    0.000255   0.000100   0.000020   0.000898  -0.000148  -0.000003
    13  H    0.002243   0.003594  -0.000043  -0.008008   0.000059  -0.000006
    14  H    0.000594  -0.000283  -0.000020  -0.001518  -0.000146   0.000023
    15  C   -0.000819   0.001312  -0.000059   0.000112  -0.000001   0.000000
    16  H   -0.001276   0.001052   0.000106   0.000072   0.000000  -0.000000
    17  H    0.000183  -0.000091  -0.000016   0.000005  -0.000000  -0.000000
    18  H   -0.000006   0.000015   0.000002  -0.000002   0.000000   0.000000
    19  C   -0.005642   0.001863   0.000178  -0.001000  -0.000005   0.000000
    20  C   -0.000124  -0.000076   0.000003   0.000006   0.000000   0.000000
    21  H   -0.000006   0.000001   0.000000  -0.000001  -0.000000   0.000000
    22  H   -0.000003  -0.000002  -0.000000  -0.000001  -0.000000   0.000000
    23  H    0.000030   0.000002  -0.000001   0.000004   0.000000   0.000000
    24  C   -0.053987  -0.008118   0.006294  -0.005749  -0.000642   0.000017
    25  H    0.000164  -0.000056  -0.000144   0.002884   0.000150   0.000014
    26  C    0.347927  -0.038705  -0.039978  -0.052904  -0.001816   0.001781
    27  H   -0.034854  -0.004920  -0.003379   0.005319  -0.000041  -0.000113
    28  H   -0.040903   0.005500  -0.003189  -0.006435   0.001528   0.002523
               7          8          9         10         11         12
     1  C    0.004757  -0.002978  -0.047877   0.006278  -0.015401   0.000255
     2  H   -0.000178   0.000024  -0.007338  -0.000010  -0.000218   0.000100
     3  H    0.000108   0.004446   0.003651  -0.000181   0.000293   0.000020
     4  C   -0.033914  -0.033051   0.719720  -0.032431  -0.042301   0.000898
     5  C    0.385470   0.378632  -0.041894  -0.014570   0.006177  -0.000148
     6  H   -0.027037  -0.037024  -0.000866   0.000203  -0.000162  -0.000003
     7  H    0.572451  -0.026554  -0.005398   0.006768   0.000081  -0.000007
     8  H   -0.026554   0.590774  -0.000915   0.000314  -0.000161   0.000017
     9  C   -0.005398  -0.000915   4.880213   0.375923   0.365340  -0.033308
    10  H    0.006768   0.000314   0.375923   0.618000  -0.054905  -0.002479
    11  C    0.000081  -0.000161   0.365340  -0.054905   4.965475   0.381083
    12  H   -0.000007   0.000017  -0.033308  -0.002479   0.381083   0.590313
    13  H    0.000010   0.000006  -0.034169   0.004595   0.387952  -0.027890
    14  H   -0.000005  -0.000006  -0.032807  -0.000588   0.384698  -0.033969
    15  C   -0.000000   0.000000   0.000032  -0.000000  -0.000624   0.000005
    16  H   -0.000000   0.000000  -0.000003  -0.000000   0.000012   0.000001
    17  H   -0.000000   0.000000   0.000012   0.000000   0.000067  -0.000044
    18  H   -0.000000  -0.000000  -0.000000   0.000000   0.000012   0.000000
    19  C    0.000000  -0.000000   0.000361   0.000002  -0.000989   0.000207
    20  C    0.000000  -0.000000   0.000022  -0.000001  -0.000307   0.000006
    21  H    0.000000  -0.000000  -0.000001   0.000000   0.000017   0.000000
    22  H   -0.000000  -0.000000  -0.000012  -0.000000  -0.000067   0.000000
    23  H   -0.000000  -0.000000  -0.000021   0.000001   0.000336  -0.000064
    24  C    0.000004   0.000037   0.003636  -0.000075   0.000507   0.000245
    25  H   -0.000005  -0.000000   0.000302   0.000024  -0.000062   0.000006
    26  C   -0.000028  -0.000428  -0.006285  -0.000111   0.000481  -0.000053
    27  H    0.000004  -0.000001  -0.000024   0.000005  -0.000018   0.000001
    28  H   -0.000137   0.000075   0.000104  -0.000005  -0.000016   0.000001
              13         14         15         16         17         18
     1  C    0.002243   0.000594  -0.000819  -0.001276   0.000183  -0.000006
     2  H    0.003594  -0.000283   0.001312   0.001052  -0.000091   0.000015
     3  H   -0.000043  -0.000020  -0.000059   0.000106  -0.000016   0.000002
     4  C   -0.008008  -0.001518   0.000112   0.000072   0.000005  -0.000002
     5  C    0.000059  -0.000146  -0.000001   0.000000  -0.000000   0.000000
     6  H   -0.000006   0.000023   0.000000  -0.000000  -0.000000   0.000000
     7  H    0.000010  -0.000005  -0.000000  -0.000000  -0.000000  -0.000000
     8  H    0.000006  -0.000006   0.000000   0.000000   0.000000  -0.000000
     9  C   -0.034169  -0.032807   0.000032  -0.000003   0.000012  -0.000000
    10  H    0.004595  -0.000588  -0.000000  -0.000000   0.000000   0.000000
    11  C    0.387952   0.384698  -0.000624   0.000012   0.000067   0.000012
    12  H   -0.027890  -0.033969   0.000005   0.000001  -0.000044   0.000000
    13  H    0.586064  -0.030108   0.000312  -0.000122   0.001209   0.000004
    14  H   -0.030108   0.583182  -0.000020  -0.000002  -0.000035   0.000000
    15  C    0.000312  -0.000020   5.009669   0.383323   0.381457   0.384174
    16  H   -0.000122  -0.000002   0.383323   0.575473  -0.028336  -0.026827
    17  H    0.001209  -0.000035   0.381457  -0.028336   0.587195  -0.034412
    18  H    0.000004   0.000000   0.384174  -0.026827  -0.034412   0.581483
    19  C    0.000942  -0.000052   0.379070  -0.027458  -0.035956  -0.035553
    20  C   -0.000355   0.000300  -0.078309   0.004866  -0.002218  -0.003279
    21  H    0.000010   0.000008  -0.001542  -0.000021  -0.000754   0.004303
    22  H   -0.000001   0.000290   0.004781  -0.000171  -0.000042  -0.000015
    23  H    0.000061   0.000774  -0.001606  -0.000045   0.004154  -0.000882
    24  C   -0.000024   0.000047  -0.055290  -0.009778  -0.000661   0.001561
    25  H    0.000074   0.000070   0.006445   0.000041  -0.000175  -0.000148
    26  C   -0.000918   0.000207  -0.013074   0.003336   0.000501   0.000007
    27  H    0.000076  -0.000006   0.000106   0.002671  -0.000242   0.000205
    28  H   -0.000001   0.000002   0.000341  -0.000035  -0.000017   0.000008
              19         20         21         22         23         24
     1  C   -0.005642  -0.000124  -0.000006  -0.000003   0.000030  -0.053987
     2  H    0.001863  -0.000076   0.000001  -0.000002   0.000002  -0.008118
     3  H    0.000178   0.000003   0.000000  -0.000000  -0.000001   0.006294
     4  C   -0.001000   0.000006  -0.000001  -0.000001   0.000004  -0.005749
     5  C   -0.000005   0.000000  -0.000000  -0.000000   0.000000  -0.000642
     6  H    0.000000   0.000000   0.000000   0.000000   0.000000   0.000017
     7  H    0.000000   0.000000   0.000000  -0.000000  -0.000000   0.000004
     8  H   -0.000000  -0.000000  -0.000000  -0.000000  -0.000000   0.000037
     9  C    0.000361   0.000022  -0.000001  -0.000012  -0.000021   0.003636
    10  H    0.000002  -0.000001   0.000000  -0.000000   0.000001  -0.000075
    11  C   -0.000989  -0.000307   0.000017  -0.000067   0.000336   0.000507
    12  H    0.000207   0.000006   0.000000   0.000000  -0.000064   0.000245
    13  H    0.000942  -0.000355   0.000010  -0.000001   0.000061  -0.000024
    14  H   -0.000052   0.000300   0.000008   0.000290   0.000774   0.000047
    15  C    0.379070  -0.078309  -0.001542   0.004781  -0.001606  -0.055290
    16  H   -0.027458   0.004866  -0.000021  -0.000171  -0.000045  -0.009778
    17  H   -0.035956  -0.002218  -0.000754  -0.000042   0.004154  -0.000661
    18  H   -0.035553  -0.003279   0.004303  -0.000015  -0.000882   0.001561
    19  C    4.727099   0.371421  -0.035155  -0.033436  -0.037138   0.718811
    20  C    0.371421   5.001599   0.381103   0.385387   0.379841  -0.039108
    21  H   -0.035155   0.381103   0.590190  -0.026177  -0.036763  -0.000810
    22  H   -0.033436   0.385387  -0.026177   0.569515  -0.026940  -0.004999
    23  H   -0.037138   0.379841  -0.036763  -0.026940   0.596679  -0.001147
    24  C    0.718811  -0.039108  -0.000810  -0.004999  -0.001147   4.912656
    25  H   -0.034970  -0.014092   0.000255   0.006446   0.000200   0.378969
    26  C   -0.042667   0.005905  -0.000201   0.000104  -0.000109   0.355975
    27  H   -0.007482   0.000004   0.000016   0.000009  -0.000011  -0.037123
    28  H    0.003819  -0.000161   0.000006  -0.000010  -0.000001  -0.032028
              25         26         27         28
     1  C    0.000164   0.347927  -0.034854  -0.040903
     2  H   -0.000056  -0.038705  -0.004920   0.005500
     3  H   -0.000144  -0.039978  -0.003379  -0.003189
     4  C    0.002884  -0.052904   0.005319  -0.006435
     5  C    0.000150  -0.001816  -0.000041   0.001528
     6  H    0.000014   0.001781  -0.000113   0.002523
     7  H   -0.000005  -0.000028   0.000004  -0.000137
     8  H   -0.000000  -0.000428  -0.000001   0.000075
     9  C    0.000302  -0.006285  -0.000024   0.000104
    10  H    0.000024  -0.000111   0.000005  -0.000005
    11  C   -0.000062   0.000481  -0.000018  -0.000016
    12  H    0.000006  -0.000053   0.000001   0.000001
    13  H    0.000074  -0.000918   0.000076  -0.000001
    14  H    0.000070   0.000207  -0.000006   0.000002
    15  C    0.006445  -0.013074   0.000106   0.000341
    16  H    0.000041   0.003336   0.002671  -0.000035
    17  H   -0.000175   0.000501  -0.000242  -0.000017
    18  H   -0.000148   0.000007   0.000205   0.000008
    19  C   -0.034970  -0.042667  -0.007482   0.003819
    20  C   -0.014092   0.005905   0.000004  -0.000161
    21  H    0.000255  -0.000201   0.000016   0.000006
    22  H    0.006446   0.000104   0.000009  -0.000010
    23  H    0.000200  -0.000109  -0.000011  -0.000001
    24  C    0.378969   0.355975  -0.037123  -0.032028
    25  H    0.605658  -0.048953   0.004372  -0.005924
    26  C   -0.048953   5.010907   0.387056   0.387192
    27  H    0.004372   0.387056   0.601130  -0.032405
    28  H   -0.005924   0.387192  -0.032405   0.605410
 Mulliken charges:
               1
     1  C   -0.251883
     2  H    0.113512
     3  H    0.110613
     4  C    0.101175
     5  C   -0.396509
     6  H    0.122343
     7  H    0.123612
     8  H    0.126793
     9  C   -0.138397
    10  H    0.093244
    11  C   -0.377301
    12  H    0.124807
    13  H    0.114432
    14  H    0.129371
    15  C   -0.399795
    16  H    0.123121
    17  H    0.128214
    18  H    0.129351
    19  C    0.093734
    20  C   -0.392432
    21  H    0.125522
    22  H    0.125344
    23  H    0.122644
    24  C   -0.129223
    25  H    0.098454
    26  C   -0.255147
    27  H    0.119644
    28  H    0.114755
 Sum of Mulliken charges =  -0.00000
 Mulliken charges with hydrogens summed into heavy atoms:
               1
     1  C   -0.027758
     4  C    0.101175
     5  C   -0.023762
     9  C   -0.045153
    11  C   -0.008691
    15  C   -0.019108
    19  C    0.093734
    20  C   -0.018921
    24  C   -0.030768
    26  C   -0.020748
 Electronic spatial extent (au):  <R**2>=           1884.6000
 Charge=             -0.0000 electrons
 Dipole moment (field-independent basis, Debye):
    X=             -0.3225    Y=             -0.0678    Z=              0.1451  Tot=              0.3601
 Quadrupole moment (field-independent basis, Debye-Ang):
   XX=            -63.4851   YY=            -63.8448   ZZ=            -64.8175
   XY=             -1.4426   XZ=             -1.7335   YZ=             -1.0786
 Traceless Quadrupole moment (field-independent basis, Debye-Ang):
   XX=              0.5640   YY=              0.2043   ZZ=             -0.7684
   XY=             -1.4426   XZ=             -1.7335   YZ=             -1.0786
 Octapole moment (field-independent basis, Debye-Ang**2):
  XXX=             -5.9895  YYY=              2.7659  ZZZ=             -1.6741  XYY=              3.1069
  XXY=             -0.4522  XXZ=             -1.2247  XZZ=             -0.6293  YZZ=              0.4344
  YYZ=              1.4669  XYZ=             -0.0818
 Hexadecapole moment (field-independent basis, Debye-Ang**3):
 XXXX=          -1624.5247 YYYY=           -631.2935 ZZZZ=           -324.0076 XXXY=              0.8876
 XXXZ=             -8.5523 YYYX=              2.3434 YYYZ=             -1.1901 ZZZX=             -1.3219
 ZZZY=             -1.3636 XXYY=           -380.7052 XXZZ=           -334.3950 YYZZ=           -158.6015
 XXYZ=             -9.4502 YYXZ=             -4.7484 ZZXY=             -4.4111
 N-N= 5.421442528621D+02 E-N=-1.989414265960D+03  KE= 3.881291940852D+02
 No NMR shielding tensors so no spin-rotation constants.
 Leave Link  601 at Tue Jul  6 11:13:23 2021, MaxMem=   524288000 cpu:               0.7 elap:               0.1
 (Enter /opt/gaussian/g16_legacy/l9999.exe)
 1\1\GINC-TRUENO95\FOpt\RM062X\6-31G(d,p)\C10H18\JRAMOS\06-Jul-2021\0\\
 #p opt=loose m062x/6-31g(d,p)\\Conformer number 009. Energy MM = 23.48
 6 kcal/mol\\0,1\C,-1.1392694752,-0.5908928618,1.2279842977\H,-0.742161
 5206,-1.4686228737,0.7090151278\H,-1.7711083196,-0.9615895121,2.045112
 3451\C,-1.97910001,0.2530421564,0.2974952185\C,-2.9985987568,1.1267057
 055,0.9821186861\H,-2.525713475,1.7762089652,1.7284210978\H,-3.5305794
 365,1.7616514795,0.2701896107\H,-3.7355692575,0.5176804658,1.518533297
 9\C,-1.8317507077,0.2798843916,-1.0312091072\H,-2.483295703,0.95187991
 9,-1.5906735088\C,-0.8565346806,-0.4974956098,-1.8659548219\H,-1.37126
 23734,-1.0151829214,-2.6822649129\H,-0.2978851378,-1.2346606458,-1.286
 390601\H,-0.1230391404,0.1765033707,-2.3241011294\C,2.2922488596,-1.44
 28889474,0.5475608267\H,1.7049615603,-1.8176452964,1.3873498247\H,2.10
 79163035,-2.0991017656,-0.3123895349\H,3.3542396577,-1.5466429968,0.79
 75855617\C,1.9665600718,-0.0172680085,0.1892942992\C,2.8028796347,0.55
 76089637,-0.9220327284\H,3.8683640851,0.5367567179,-0.6650004185\H,2.5
 218969049,1.5891236211,-1.1459046961\H,2.6875939263,-0.0364393629,-1.8
 371740106\C,0.9912782379,0.6921548589,0.7653765084\H,0.815892884,1.702
 0104322,0.397331452\C,0.0452421825,0.1977779012,1.8289605057\H,0.56623
 85946,-0.4412652602,2.5496497771\H,-0.3393449088,1.0507071138,2.398817
 0326\\Version=EM64L-G16RevA.03\State=1-A\HF=-391.6915321\RMSD=4.940e-0
 9\RMSF=9.912e-06\Dipole=0.1180228,-0.0770711,0.0140333\Quadrupole=-0.2
 658003,-0.1254972,0.3912975,-1.4299554,-1.1530431,-0.4722676\PG=C01 [X
 (C10H18)]\\@


 A successful marriage requires falling in love
 many times, always with the same person.
                           -- Mignon McLaughlin
 Job cpu time:       0 days  2 hours 25 minutes 48.9 seconds.
 Elapsed time:       0 days  0 hours 24 minutes 24.6 seconds.
 File lengths (MBytes):  RWF=     42 Int=      0 D2E=      0 Chk=      6 Scr=      1
 Normal termination of Gaussian 16 at Tue Jul  6 11:13:23 2021.
