 Entering Gaussian System, Link 0=/opt/gaussian/g16_legacy/g16
 Input=IsoP_rdkit_03_078_gaussian.com
 Output=IsoP_rdkit_03_078_gaussian.log
 Initial command:
 /opt/gaussian/g16_legacy/l1.exe "/scratch-local/jramos/2641332/Gau-6105.inp" -scrdir="/scratch-local/jramos/2641332/"
 Entering Link 1 = /opt/gaussian/g16_legacy/l1.exe PID=      6108.
  
 Copyright (c) 1988,1990,1992,1993,1995,1998,2003,2009,2016,
            Gaussian, Inc.  All Rights Reserved.
  
 This is part of the Gaussian(R) 16 program.  It is based on
 the Gaussian(R) 09 system (copyright 2009, Gaussian, Inc.),
 the Gaussian(R) 03 system (copyright 2003, Gaussian, Inc.),
 the Gaussian(R) 98 system (copyright 1998, Gaussian, Inc.),
 the Gaussian(R) 94 system (copyright 1995, Gaussian, Inc.),
 the Gaussian 92(TM) system (copyright 1992, Gaussian, Inc.),
 the Gaussian 90(TM) system (copyright 1990, Gaussian, Inc.),
 the Gaussian 88(TM) system (copyright 1988, Gaussian, Inc.),
 the Gaussian 86(TM) system (copyright 1986, Carnegie Mellon
 University), and the Gaussian 82(TM) system (copyright 1983,
 Carnegie Mellon University). Gaussian is a federally registered
 trademark of Gaussian, Inc.
  
 This software contains proprietary and confidential information,
 including trade secrets, belonging to Gaussian, Inc.
  
 This software is provided under written license and may be
 used, copied, transmitted, or stored only in accord with that
 written license.
  
 The following legend is applicable only to US Government
 contracts under FAR:
  
                    RESTRICTED RIGHTS LEGEND
  
 Use, reproduction and disclosure by the US Government is
 subject to restrictions as set forth in subparagraphs (a)
 and (c) of the Commercial Computer Software - Restricted
 Rights clause in FAR 52.227-19.
  
 Gaussian, Inc.
 340 Quinnipiac St., Bldg. 40, Wallingford CT 06492
  
  
 ---------------------------------------------------------------
 Warning -- This program may not be used in any manner that
 competes with the business of Gaussian, Inc. or will provide
 assistance to any competitor of Gaussian, Inc.  The licensee
 of this program is prohibited from giving any competitor of
 Gaussian, Inc. access to this program.  By using this program,
 the user acknowledges that Gaussian, Inc. is engaged in the
 business of creating and licensing software in the field of
 computational chemistry and represents and warrants to the
 licensee that it is not a competitor of Gaussian, Inc. and that
 it will not use this program in any manner prohibited above.
 ---------------------------------------------------------------
  

 Cite this work as:
 Gaussian 16, Revision A.03,
 M. J. Frisch, G. W. Trucks, H. B. Schlegel, G. E. Scuseria, 
 M. A. Robb, J. R. Cheeseman, G. Scalmani, V. Barone, 
 G. A. Petersson, H. Nakatsuji, X. Li, M. Caricato, A. V. Marenich, 
 J. Bloino, B. G. Janesko, R. Gomperts, B. Mennucci, H. P. Hratchian, 
 J. V. Ortiz, A. F. Izmaylov, J. L. Sonnenberg, D. Williams-Young, 
 F. Ding, F. Lipparini, F. Egidi, J. Goings, B. Peng, A. Petrone, 
 T. Henderson, D. Ranasinghe, V. G. Zakrzewski, J. Gao, N. Rega, 
 G. Zheng, W. Liang, M. Hada, M. Ehara, K. Toyota, R. Fukuda, 
 J. Hasegawa, M. Ishida, T. Nakajima, Y. Honda, O. Kitao, H. Nakai, 
 T. Vreven, K. Throssell, J. A. Montgomery, Jr., J. E. Peralta, 
 F. Ogliaro, M. J. Bearpark, J. J. Heyd, E. N. Brothers, K. N. Kudin, 
 V. N. Staroverov, T. A. Keith, R. Kobayashi, J. Normand, 
 K. Raghavachari, A. P. Rendell, J. C. Burant, S. S. Iyengar, 
 J. Tomasi, M. Cossi, J. M. Millam, M. Klene, C. Adamo, R. Cammi, 
 J. W. Ochterski, R. L. Martin, K. Morokuma, O. Farkas, 
 J. B. Foresman, and D. J. Fox, Gaussian, Inc., Wallingford CT, 2016.
 
 ******************************************
 Gaussian 16:  EM64L-G16RevA.03 25-Dec-2016
                 6-Jul-2021 
 ******************************************
 %chk=IsoP_rdkit_03_078_gaussian.chk
 %nproc=6
 Will use up to    6 processors via shared memory.
 %mem=4000Mb
 -----------------------------
 #p opt=loose m062x/6-31g(d,p)
 -----------------------------
 1/7=-1,18=20,19=15,26=3,38=1/1,3;
 2/9=110,12=2,17=6,18=5,40=1/2;
 3/5=1,6=6,7=101,11=2,25=1,30=1,71=1,74=-55/1,2,3;
 4//1;
 5/5=2,38=5/2;
 6/7=2,8=2,9=2,10=2,28=1/1;
 7//1,2,3,16;
 1/7=-1,18=20,19=15,26=3/3(2);
 2/9=110/2;
 99//99;
 2/9=110/2;
 3/5=1,6=6,7=101,11=2,25=1,30=1,71=1,74=-55/1,2,3;
 4/5=5,16=3,69=1/1;
 5/5=2,38=5/2;
 7//1,2,3,16;
 1/7=-1,18=20,19=15,26=3/3(-5);
 2/9=110/2;
 6/7=2,8=2,9=2,10=2,19=2,28=1/1;
 99/9=1/99;
 Leave Link    1 at Tue Jul  6 10:48:56 2021, MaxMem=   524288000 cpu:               0.4 elap:               0.1
 (Enter /opt/gaussian/g16_legacy/l101.exe)
 -------------------------------------------------
 Conformer number 078. Energy MM = 23.287 kcal/mol
 -------------------------------------------------
 Symbolic Z-matrix:
 Charge =  0 Multiplicity = 1
 C                    -0.8302    0.176     0.6298 
 H                    -0.3509    0.971     1.2168 
 H                    -1.107    -0.5886    1.3655 
 C                    -2.0637    0.739    -0.0456 
 C                    -1.931     2.1595   -0.5325 
 H                    -2.8501    2.5242   -1.0032 
 H                    -1.7005    2.8274    0.304 
 H                    -1.1281    2.2377   -1.2722 
 C                    -3.2223    0.0679   -0.1992 
 H                    -4.0584    0.5752   -0.6801 
 C                    -3.5181   -1.3431    0.1999 
 H                    -4.2612   -1.3541    1.003 
 H                    -2.6372   -1.8943    0.5361 
 H                    -3.9339   -1.8844   -0.6561 
 C                     3.7151   -1.1746    1.1156 
 H                     3.3928   -2.1508    1.493 
 H                     4.5521   -1.3435    0.4301 
 H                     4.0756   -0.5909    1.9689 
 C                     2.6056   -0.4387    0.4106 
 C                     3.0033    0.9053   -0.1344 
 H                     3.4662    1.5085    0.6542 
 H                     3.729     0.783    -0.9449 
 H                     2.1608    1.4837   -0.5202 
 C                     1.3752   -0.9794    0.3151 
 H                     1.2006   -1.9562    0.7668 
 C                     0.1687   -0.4033   -0.3771 
 H                    -0.3068   -1.2094   -0.9508 
 H                     0.4543    0.3526   -1.1155 
 
 ITRead=  0  0  0  0  0  0  0  0  0  0  0  0  0  0  0  0  0  0  0  0
 ITRead=  0  0  0  0  0  0  0  0
 MicOpt= -1 -1 -1 -1 -1 -1 -1 -1 -1 -1 -1 -1 -1 -1 -1 -1 -1 -1 -1 -1
 MicOpt= -1 -1 -1 -1 -1 -1 -1 -1
 NAtoms=     28 NQM=       28 NQMF=       0 NMMI=      0 NMMIF=      0
                NMic=       0 NMicF=      0.
                    Isotopes and Nuclear Properties:
 (Nuclear quadrupole moments (NQMom) in fm**2, nuclear magnetic moments (NMagM)
  in nuclear magnetons)

  Atom         1           2           3           4           5           6           7           8           9          10
 IAtWgt=          12           1           1          12          12           1           1           1          12           1
 AtmWgt=  12.0000000   1.0078250   1.0078250  12.0000000  12.0000000   1.0078250   1.0078250   1.0078250  12.0000000   1.0078250
 NucSpn=           0           1           1           0           0           1           1           1           0           1
 AtZEff=  -0.0000000  -0.0000000  -0.0000000  -0.0000000  -0.0000000  -0.0000000  -0.0000000  -0.0000000  -0.0000000  -0.0000000
 NQMom=    0.0000000   0.0000000   0.0000000   0.0000000   0.0000000   0.0000000   0.0000000   0.0000000   0.0000000   0.0000000
 NMagM=    0.0000000   2.7928460   2.7928460   0.0000000   0.0000000   2.7928460   2.7928460   2.7928460   0.0000000   2.7928460
 AtZNuc=   6.0000000   1.0000000   1.0000000   6.0000000   6.0000000   1.0000000   1.0000000   1.0000000   6.0000000   1.0000000

  Atom        11          12          13          14          15          16          17          18          19          20
 IAtWgt=          12           1           1           1          12           1           1           1          12          12
 AtmWgt=  12.0000000   1.0078250   1.0078250   1.0078250  12.0000000   1.0078250   1.0078250   1.0078250  12.0000000  12.0000000
 NucSpn=           0           1           1           1           0           1           1           1           0           0
 AtZEff=  -0.0000000  -0.0000000  -0.0000000  -0.0000000  -0.0000000  -0.0000000  -0.0000000  -0.0000000  -0.0000000  -0.0000000
 NQMom=    0.0000000   0.0000000   0.0000000   0.0000000   0.0000000   0.0000000   0.0000000   0.0000000   0.0000000   0.0000000
 NMagM=    0.0000000   2.7928460   2.7928460   2.7928460   0.0000000   2.7928460   2.7928460   2.7928460   0.0000000   0.0000000
 AtZNuc=   6.0000000   1.0000000   1.0000000   1.0000000   6.0000000   1.0000000   1.0000000   1.0000000   6.0000000   6.0000000

  Atom        21          22          23          24          25          26          27          28
 IAtWgt=           1           1           1          12           1          12           1           1
 AtmWgt=   1.0078250   1.0078250   1.0078250  12.0000000   1.0078250  12.0000000   1.0078250   1.0078250
 NucSpn=           1           1           1           0           1           0           1           1
 AtZEff=  -0.0000000  -0.0000000  -0.0000000  -0.0000000  -0.0000000  -0.0000000  -0.0000000  -0.0000000
 NQMom=    0.0000000   0.0000000   0.0000000   0.0000000   0.0000000   0.0000000   0.0000000   0.0000000
 NMagM=    2.7928460   2.7928460   2.7928460   0.0000000   2.7928460   0.0000000   2.7928460   2.7928460
 AtZNuc=   1.0000000   1.0000000   1.0000000   6.0000000   1.0000000   6.0000000   1.0000000   1.0000000
 Leave Link  101 at Tue Jul  6 10:48:56 2021, MaxMem=   524288000 cpu:               2.2 elap:               0.4
 (Enter /opt/gaussian/g16_legacy/l103.exe)

 GradGradGradGradGradGradGradGradGradGradGradGradGradGradGradGradGradGrad
 Berny optimization.
 Initialization pass.
                           ----------------------------
                           !    Initial Parameters    !
                           ! (Angstroms and Degrees)  !
 --------------------------                            --------------------------
 ! Name  Definition              Value          Derivative Info.                !
 --------------------------------------------------------------------------------
 ! R1    R(1,2)                  1.0983         estimate D2E/DX2                !
 ! R2    R(1,3)                  1.0966         estimate D2E/DX2                !
 ! R3    R(1,4)                  1.5148         estimate D2E/DX2                !
 ! R4    R(1,26)                 1.5321         estimate D2E/DX2                !
 ! R5    R(4,5)                  1.5075         estimate D2E/DX2                !
 ! R6    R(4,9)                  1.3477         estimate D2E/DX2                !
 ! R7    R(5,6)                  1.0951         estimate D2E/DX2                !
 ! R8    R(5,7)                  1.095          estimate D2E/DX2                !
 ! R9    R(5,8)                  1.0945         estimate D2E/DX2                !
 ! R10   R(9,10)                 1.0898         estimate D2E/DX2                !
 ! R11   R(9,11)                 1.4959         estimate D2E/DX2                !
 ! R12   R(11,12)                1.0942         estimate D2E/DX2                !
 ! R13   R(11,13)                1.0922         estimate D2E/DX2                !
 ! R14   R(11,14)                1.0948         estimate D2E/DX2                !
 ! R15   R(15,16)                1.0951         estimate D2E/DX2                !
 ! R16   R(15,17)                1.095          estimate D2E/DX2                !
 ! R17   R(15,18)                1.0949         estimate D2E/DX2                !
 ! R18   R(15,19)                1.5065         estimate D2E/DX2                !
 ! R19   R(19,20)                1.5038         estimate D2E/DX2                !
 ! R20   R(19,24)                1.3474         estimate D2E/DX2                !
 ! R21   R(20,21)                1.0955         estimate D2E/DX2                !
 ! R22   R(20,22)                1.0948         estimate D2E/DX2                !
 ! R23   R(20,23)                1.0923         estimate D2E/DX2                !
 ! R24   R(24,25)                1.0903         estimate D2E/DX2                !
 ! R25   R(24,26)                1.5055         estimate D2E/DX2                !
 ! R26   R(26,27)                1.0977         estimate D2E/DX2                !
 ! R27   R(26,28)                1.0946         estimate D2E/DX2                !
 ! A1    A(2,1,3)              104.8498         estimate D2E/DX2                !
 ! A2    A(2,1,4)              108.9426         estimate D2E/DX2                !
 ! A3    A(2,1,26)             109.9022         estimate D2E/DX2                !
 ! A4    A(3,1,4)              110.6546         estimate D2E/DX2                !
 ! A5    A(3,1,26)             109.9903         estimate D2E/DX2                !
 ! A6    A(4,1,26)             112.2356         estimate D2E/DX2                !
 ! A7    A(1,4,5)              114.9955         estimate D2E/DX2                !
 ! A8    A(1,4,9)              124.4561         estimate D2E/DX2                !
 ! A9    A(5,4,9)              120.5366         estimate D2E/DX2                !
 ! A10   A(4,5,6)              112.2563         estimate D2E/DX2                !
 ! A11   A(4,5,7)              110.2771         estimate D2E/DX2                !
 ! A12   A(4,5,8)              110.4989         estimate D2E/DX2                !
 ! A13   A(6,5,7)              107.5714         estimate D2E/DX2                !
 ! A14   A(6,5,8)              107.541          estimate D2E/DX2                !
 ! A15   A(7,5,8)              108.5601         estimate D2E/DX2                !
 ! A16   A(4,9,10)             118.5576         estimate D2E/DX2                !
 ! A17   A(4,9,11)             127.5377         estimate D2E/DX2                !
 ! A18   A(10,9,11)            113.8974         estimate D2E/DX2                !
 ! A19   A(9,11,12)            109.8519         estimate D2E/DX2                !
 ! A20   A(9,11,13)            113.4956         estimate D2E/DX2                !
 ! A21   A(9,11,14)            109.4425         estimate D2E/DX2                !
 ! A22   A(12,11,13)           108.4663         estimate D2E/DX2                !
 ! A23   A(12,11,14)           108.1171         estimate D2E/DX2                !
 ! A24   A(13,11,14)           107.3061         estimate D2E/DX2                !
 ! A25   A(16,15,17)           107.6506         estimate D2E/DX2                !
 ! A26   A(16,15,18)           107.6707         estimate D2E/DX2                !
 ! A27   A(16,15,19)           112.3313         estimate D2E/DX2                !
 ! A28   A(17,15,18)           108.5691         estimate D2E/DX2                !
 ! A29   A(17,15,19)           110.2022         estimate D2E/DX2                !
 ! A30   A(18,15,19)           110.2907         estimate D2E/DX2                !
 ! A31   A(15,19,20)           114.2923         estimate D2E/DX2                !
 ! A32   A(15,19,24)           120.6428         estimate D2E/DX2                !
 ! A33   A(20,19,24)           125.0623         estimate D2E/DX2                !
 ! A34   A(19,20,21)           110.0582         estimate D2E/DX2                !
 ! A35   A(19,20,22)           110.1066         estimate D2E/DX2                !
 ! A36   A(19,20,23)           113.4067         estimate D2E/DX2                !
 ! A37   A(21,20,22)           108.3224         estimate D2E/DX2                !
 ! A38   A(21,20,23)           106.7744         estimate D2E/DX2                !
 ! A39   A(22,20,23)           107.9956         estimate D2E/DX2                !
 ! A40   A(19,24,25)           118.4521         estimate D2E/DX2                !
 ! A41   A(19,24,26)           127.65           estimate D2E/DX2                !
 ! A42   A(25,24,26)           113.8899         estimate D2E/DX2                !
 ! A43   A(1,26,24)            111.4081         estimate D2E/DX2                !
 ! A44   A(1,26,27)            109.7986         estimate D2E/DX2                !
 ! A45   A(1,26,28)            110.6306         estimate D2E/DX2                !
 ! A46   A(24,26,27)           107.8433         estimate D2E/DX2                !
 ! A47   A(24,26,28)           111.4262         estimate D2E/DX2                !
 ! A48   A(27,26,28)           105.5198         estimate D2E/DX2                !
 ! D1    D(2,1,4,5)             36.9569         estimate D2E/DX2                !
 ! D2    D(2,1,4,9)           -141.7937         estimate D2E/DX2                !
 ! D3    D(3,1,4,5)            151.7251         estimate D2E/DX2                !
 ! D4    D(3,1,4,9)            -27.0254         estimate D2E/DX2                !
 ! D5    D(26,1,4,5)           -84.9898         estimate D2E/DX2                !
 ! D6    D(26,1,4,9)            96.2596         estimate D2E/DX2                !
 ! D7    D(2,1,26,24)           59.6204         estimate D2E/DX2                !
 ! D8    D(2,1,26,27)          179.0228         estimate D2E/DX2                !
 ! D9    D(2,1,26,28)          -64.9116         estimate D2E/DX2                !
 ! D10   D(3,1,26,24)          -55.3241         estimate D2E/DX2                !
 ! D11   D(3,1,26,27)           64.0783         estimate D2E/DX2                !
 ! D12   D(3,1,26,28)         -179.8561         estimate D2E/DX2                !
 ! D13   D(4,1,26,24)         -178.9813         estimate D2E/DX2                !
 ! D14   D(4,1,26,27)          -59.5789         estimate D2E/DX2                !
 ! D15   D(4,1,26,28)           56.4867         estimate D2E/DX2                !
 ! D16   D(1,4,5,6)           -179.4088         estimate D2E/DX2                !
 ! D17   D(1,4,5,7)            -59.4788         estimate D2E/DX2                !
 ! D18   D(1,4,5,8)             60.5472         estimate D2E/DX2                !
 ! D19   D(9,4,5,6)             -0.605          estimate D2E/DX2                !
 ! D20   D(9,4,5,7)            119.3251         estimate D2E/DX2                !
 ! D21   D(9,4,5,8)           -120.6489         estimate D2E/DX2                !
 ! D22   D(1,4,9,10)           178.565          estimate D2E/DX2                !
 ! D23   D(1,4,9,11)            -2.4811         estimate D2E/DX2                !
 ! D24   D(5,4,9,10)            -0.1202         estimate D2E/DX2                !
 ! D25   D(5,4,9,11)           178.8337         estimate D2E/DX2                !
 ! D26   D(4,9,11,12)          113.5736         estimate D2E/DX2                !
 ! D27   D(4,9,11,13)           -8.038          estimate D2E/DX2                !
 ! D28   D(4,9,11,14)         -127.8685         estimate D2E/DX2                !
 ! D29   D(10,9,11,12)         -67.4313         estimate D2E/DX2                !
 ! D30   D(10,9,11,13)         170.9571         estimate D2E/DX2                !
 ! D31   D(10,9,11,14)          51.1265         estimate D2E/DX2                !
 ! D32   D(16,15,19,20)       -179.5987         estimate D2E/DX2                !
 ! D33   D(16,15,19,24)          0.9626         estimate D2E/DX2                !
 ! D34   D(17,15,19,20)        -59.57           estimate D2E/DX2                !
 ! D35   D(17,15,19,24)        120.9914         estimate D2E/DX2                !
 ! D36   D(18,15,19,20)         60.286          estimate D2E/DX2                !
 ! D37   D(18,15,19,24)       -119.1526         estimate D2E/DX2                !
 ! D38   D(15,19,20,21)        -52.5838         estimate D2E/DX2                !
 ! D39   D(15,19,20,22)         66.7598         estimate D2E/DX2                !
 ! D40   D(15,19,20,23)       -172.1114         estimate D2E/DX2                !
 ! D41   D(24,19,20,21)        126.8262         estimate D2E/DX2                !
 ! D42   D(24,19,20,22)       -113.8302         estimate D2E/DX2                !
 ! D43   D(24,19,20,23)          7.2985         estimate D2E/DX2                !
 ! D44   D(15,19,24,25)          0.513          estimate D2E/DX2                !
 ! D45   D(15,19,24,26)       -178.3863         estimate D2E/DX2                !
 ! D46   D(20,19,24,25)       -178.8619         estimate D2E/DX2                !
 ! D47   D(20,19,24,26)          2.2388         estimate D2E/DX2                !
 ! D48   D(19,24,26,1)        -103.6628         estimate D2E/DX2                !
 ! D49   D(19,24,26,27)        135.7795         estimate D2E/DX2                !
 ! D50   D(19,24,26,28)         20.421          estimate D2E/DX2                !
 ! D51   D(25,24,26,1)          77.3956         estimate D2E/DX2                !
 ! D52   D(25,24,26,27)        -43.1621         estimate D2E/DX2                !
 ! D53   D(25,24,26,28)       -158.5206         estimate D2E/DX2                !
 --------------------------------------------------------------------------------
 Trust Radius=3.00D-01 FncErr=1.00D-07 GrdErr=1.00D-06 EigMax=2.50D+02 EigMin=1.00D-04
 Number of steps in this run=    138 maximum allowed number of steps=    168.
 GradGradGradGradGradGradGradGradGradGradGradGradGradGradGradGradGradGrad

 Leave Link  103 at Tue Jul  6 10:48:57 2021, MaxMem=   524288000 cpu:               1.0 elap:               0.3
 (Enter /opt/gaussian/g16_legacy/l202.exe)
                          Input orientation:                          
 ---------------------------------------------------------------------
 Center     Atomic      Atomic             Coordinates (Angstroms)
 Number     Number       Type             X           Y           Z
 ---------------------------------------------------------------------
      1          6           0       -0.830200    0.176000    0.629800
      2          1           0       -0.350900    0.971000    1.216800
      3          1           0       -1.107000   -0.588600    1.365500
      4          6           0       -2.063700    0.739000   -0.045600
      5          6           0       -1.931000    2.159500   -0.532500
      6          1           0       -2.850100    2.524200   -1.003200
      7          1           0       -1.700500    2.827400    0.304000
      8          1           0       -1.128100    2.237700   -1.272200
      9          6           0       -3.222300    0.067900   -0.199200
     10          1           0       -4.058400    0.575200   -0.680100
     11          6           0       -3.518100   -1.343100    0.199900
     12          1           0       -4.261200   -1.354100    1.003000
     13          1           0       -2.637200   -1.894300    0.536100
     14          1           0       -3.933900   -1.884400   -0.656100
     15          6           0        3.715100   -1.174600    1.115600
     16          1           0        3.392800   -2.150800    1.493000
     17          1           0        4.552100   -1.343500    0.430100
     18          1           0        4.075600   -0.590900    1.968900
     19          6           0        2.605600   -0.438700    0.410600
     20          6           0        3.003300    0.905300   -0.134400
     21          1           0        3.466200    1.508500    0.654200
     22          1           0        3.729000    0.783000   -0.944900
     23          1           0        2.160800    1.483700   -0.520200
     24          6           0        1.375200   -0.979400    0.315100
     25          1           0        1.200600   -1.956200    0.766800
     26          6           0        0.168700   -0.403300   -0.377100
     27          1           0       -0.306800   -1.209400   -0.950800
     28          1           0        0.454300    0.352600   -1.115500
 ---------------------------------------------------------------------
                    Distance matrix (angstroms):
                    1          2          3          4          5
     1  C    0.000000
     2  H    1.098327   0.000000
     3  H    1.096579   1.739584   0.000000
     4  C    1.514812   2.140365   2.160787   0.000000
     5  C    2.548916   2.639943   3.439976   1.507482   0.000000
     6  H    3.501532   3.686032   4.282366   2.173100   1.095130
     7  H    2.809535   2.469989   3.626028   2.148383   1.094967
     8  H    2.820808   2.898912   3.865990   2.150813   1.094495
     9  C    2.533983   3.326497   2.711784   1.347710   2.480592
    10  H    3.506633   4.183353   3.774874   2.099583   2.656619
    11  C    3.117256   4.052197   2.782319   2.551605   3.914525
    12  H    3.775215   4.554366   3.265942   3.210862   4.486979
    13  H    2.749576   3.728333   2.175838   2.757090   4.251343
    14  H    3.941033   4.949642   3.709087   3.279114   4.514423
    15  C    4.766537   4.598499   4.864000   6.197159   6.760984
    16  H    4.898249   4.882337   4.764969   6.363303   7.143121
    17  H    5.596241   5.478614   5.785349   6.952115   7.431567
    18  H    5.142781   4.753850   5.217609   6.596806   7.064060
    19  C    3.497231   3.373145   3.836366   4.837092   5.312327
    20  C    3.976381   3.616727   4.623419   5.070506   5.106742
    21  H    4.498356   3.895597   5.081135   5.626868   5.564335
    22  H    4.861526   4.621025   5.532281   5.862256   5.839557
    23  H    3.461020   3.096557   4.304510   4.315811   4.147250
    24  C    2.509537   2.756183   2.723487   3.861222   4.637033
    25  H    2.947744   3.343374   2.748416   4.310424   5.332362
    26  C    1.532070   2.167764   2.167580   2.529496   3.316750
    27  H    2.166005   3.074830   2.528034   2.775310   3.763308
    28  H    2.174212   2.543696   3.078778   2.763026   3.048677
                    6          7          8          9         10
     6  H    0.000000
     7  H    1.766998   0.000000
     8  H    1.766275   1.777581   0.000000
     9  C    2.611199   3.191226   3.200787   0.000000
    10  H    2.315812   3.405958   3.420694   1.089808   0.000000
    11  C    4.104837   4.550558   4.549869   1.495894   2.178577
    12  H    4.588818   4.952850   5.281466   2.132295   2.568297
    13  H    4.683793   4.819308   4.756128   2.175600   3.097964
    14  H    4.553115   5.301974   5.024321   2.127583   2.462866
    15  C    7.827662   6.782582   6.387642   7.169381   8.167842
    16  H    8.189044   7.220658   6.880683   7.179535   8.226410
    17  H    8.473843   7.517135   6.927300   7.926498   8.891269
    18  H    8.154909   6.915201   6.751607   7.641598   8.633594
    19  C    6.367281   5.405670   4.892387   5.881574   6.828361
    20  C    6.134977   5.100235   4.487577   6.282001   7.090442
    21  H    6.608651   5.343868   5.034912   6.894900   7.698767
    22  H    6.805860   5.934542   5.080817   7.027660   7.794671
    23  H    5.140530   4.170668   3.457005   5.575419   6.287240
    24  C    5.645023   4.894056   4.374444   4.743242   5.738572
    25  H    6.294049   5.613679   5.212405   4.959050   6.013201
    26  C    4.251519   3.794104   3.075350   3.428201   4.349442
    27  H    4.517841   4.451143   3.558136   3.270556   4.163241
    28  H    3.955694   3.575301   2.466201   3.799743   4.539117
                   11         12         13         14         15
    11  C    0.000000
    12  H    1.094207   0.000000
    13  H    1.092171   1.774031   0.000000
    14  H    1.094820   1.772274   1.761496   0.000000
    15  C    7.292879   7.979114   6.419151   7.883523   0.000000
    16  H    7.077077   7.710937   6.110839   7.640035   1.095114
    17  H    8.073483   8.831907   7.211148   8.572316   1.094992
    18  H    7.833227   8.427198   6.986662   8.527359   1.094891
    19  C    6.193709   6.952829   5.442561   6.781811   1.506507
    20  C    6.906209   7.692303   6.332659   7.495288   2.528862
    21  H    7.557675   8.247960   6.988883   8.245613   2.733837
    22  H    7.638804   8.497341   7.063271   8.119019   2.842191
    23  H    6.384297   7.184381   5.962169   6.964764   3.486868
    24  C    4.908150   5.690572   4.121315   5.472549   2.480733
    25  H    4.792014   5.499961   3.845226   5.328498   2.656176
    26  C    3.848201   4.736318   3.306069   4.370678   3.924285
    27  H    3.413859   4.413111   2.847933   3.701125   4.521825
    28  H    4.515046   5.443970   4.163378   4.946869   4.235914
                   16         17         18         19         20
    16  H    0.000000
    17  H    1.767899   0.000000
    18  H    1.768045   1.778023   0.000000
    19  C    2.173145   2.146603   2.147641   0.000000
    20  C    3.484234   2.788287   2.795051   1.503837   0.000000
    21  H    3.754923   3.059952   2.550938   2.142793   1.095453
    22  H    3.829304   2.662728   3.240056   2.142886   1.094764
    23  H    4.333635   3.822884   3.763780   2.181710   1.092334
    24  C    2.613491   3.199764   3.190321   1.347353   2.530781
    25  H    2.317537   3.423641   3.402163   2.098502   3.500010
    26  C    4.116534   4.555189   4.561006   2.561290   3.131500
    27  H    4.532707   5.053096   5.302134   3.305974   4.011886
    28  H    4.658977   4.696552   4.849488   2.753766   2.786653
                   21         22         23         24         25
    21  H    0.000000
    22  H    1.775538   0.000000
    23  H    1.756104   1.769351   0.000000
    24  C    3.267555   3.199067   2.716939   0.000000
    25  H    4.141228   4.101943   3.796217   1.090255   0.000000
    26  C    3.948679   3.795450   2.747673   1.505548   2.187424
    27  H    4.919201   4.500819   3.677942   2.117670   2.404187
    28  H    3.679604   3.307266   2.132114   2.160763   3.070924
                   26         27         28
    26  C    0.000000
    27  H    1.097738   0.000000
    28  H    1.094617   1.745349   0.000000
 Stoichiometry    C10H18
 Framework group  C1[X(C10H18)]
 Deg. of freedom    78
 Full point group                 C1      NOp   1
 Largest Abelian subgroup         C1      NOp   1
 Largest concise Abelian subgroup C1      NOp   1
                         Standard orientation:                         
 ---------------------------------------------------------------------
 Center     Atomic      Atomic             Coordinates (Angstroms)
 Number     Number       Type             X           Y           Z
 ---------------------------------------------------------------------
      1          6           0       -0.745865   -0.045473    0.580361
      2          1           0       -0.286581    0.606568    1.335492
      3          1           0       -0.871525   -1.012099    1.082686
      4          6           0       -2.090223    0.530313    0.185613
      5          6           0       -2.144071    2.035403    0.119984
      6          1           0       -3.137212    2.403154   -0.158835
      7          1           0       -1.893383    2.466945    1.094602
      8          1           0       -1.432594    2.412421   -0.621351
      9          6           0       -3.189330   -0.206059   -0.071373
     10          1           0       -4.114908    0.310419   -0.324825
     11          6           0       -3.306906   -1.697320   -0.075194
     12          1           0       -3.959048   -2.020733    0.741753
     13          1           0       -2.347672   -2.209982    0.024229
     14          1           0       -3.755118   -2.025119   -1.018744
     15          6           0        3.933079   -0.920073    0.330489
     16          1           0        3.745659   -1.994150    0.432985
     17          1           0        4.707406   -0.789496   -0.432645
     18          1           0        4.322225   -0.557780    1.287618
     19          6           0        2.692001   -0.156349   -0.051631
     20          6           0        2.901845    1.323928   -0.213717
     21          1           0        3.383871    1.735138    0.679912
     22          1           0        3.548682    1.520276   -1.074855
     23          1           0        1.972944    1.880934   -0.355426
     24          6           0        1.515368   -0.793270   -0.210463
     25          1           0        1.481888   -1.870794   -0.047746
     26          6           0        0.194769   -0.197073   -0.619416
     27          1           0       -0.258328   -0.862934   -1.365312
     28          1           0        0.329693    0.763073   -1.127453
 ---------------------------------------------------------------------
 Rotational constants (GHZ):           2.4778547           0.5324332           0.4581613
 Leave Link  202 at Tue Jul  6 10:48:57 2021, MaxMem=   524288000 cpu:               0.4 elap:               0.1
 (Enter /opt/gaussian/g16_legacy/l301.exe)
 Standard basis: 6-31G(d,p) (6D, 7F)
 Ernie: Thresh=  0.10000D-02 Tol=  0.10000D-05 Strict=F.
 There are   240 symmetry adapted cartesian basis functions of A   symmetry.
 There are   240 symmetry adapted basis functions of A   symmetry.
   240 basis functions,   406 primitive gaussians,   240 cartesian basis functions
    39 alpha electrons       39 beta electrons
       nuclear repulsion energy       513.2775352309 Hartrees.
 IExCor= 4336 DFT=T Ex+Corr=M062X ExCW=0 ScaHFX=  0.540000
 ScaDFX=  1.000000  1.000000  1.000000  1.000000 ScalE2=  1.000000  1.000000
 IRadAn=      5 IRanWt=     -1 IRanGd=            0 ICorTp=0 IEmpDi=  4
 NAtoms=   28 NActive=   28 NUniq=   28 SFac= 1.00D+00 NAtFMM=   60 NAOKFM=F Big=F
 Integral buffers will be    131072 words long.
 Raffenetti 2 integral format.
 Two-electron integral symmetry is turned on.
 Leave Link  301 at Tue Jul  6 10:48:57 2021, MaxMem=   524288000 cpu:               1.0 elap:               0.3
 (Enter /opt/gaussian/g16_legacy/l302.exe)
 NPDir=0 NMtPBC=     1 NCelOv=     1 NCel=       1 NClECP=     1 NCelD=      1
         NCelK=      1 NCelE2=     1 NClLst=     1 CellRange=     0.0.
 One-electron integrals computed using PRISM.
 One-electron integral symmetry used in STVInt
 NBasis=   240 RedAO= T EigKep=  2.09D-03  NBF=   240
 NBsUse=   240 1.00D-06 EigRej= -1.00D+00 NBFU=   240
 Precomputing XC quadrature grid using
 IXCGrd= 4 IRadAn=           5 IRanWt=          -1 IRanGd=           0 AccXCQ= 0.00D+00.
 Generated NRdTot=       0 NPtTot=           0 NUsed=           0 NTot=          32
 NSgBfM=   240   240   240   240   240 MxSgAt=    28 MxSgA2=    28.
 Leave Link  302 at Tue Jul  6 10:48:58 2021, MaxMem=   524288000 cpu:               5.1 elap:               1.1
 (Enter /opt/gaussian/g16_legacy/l303.exe)
 DipDrv:  MaxL=1.
 Leave Link  303 at Tue Jul  6 10:48:59 2021, MaxMem=   524288000 cpu:               1.1 elap:               0.5
 (Enter /opt/gaussian/g16_legacy/l401.exe)
 ExpMin= 1.61D-01 ExpMax= 3.05D+03 ExpMxC= 4.57D+02 IAcc=3 IRadAn=         5 AccDes= 0.00D+00
 Harris functional with IExCor= 1009 and IRadAn=       5 diagonalized for initial guess.
 HarFok:  IExCor= 1009 AccDes= 0.00D+00 IRadAn=         5 IDoV= 1 UseB2=F ITyADJ=14
 ICtDFT=  3500011 ScaDFX=  1.000000  1.000000  1.000000  1.000000
 FoFCou: FMM=F IPFlag=           0 FMFlag=      100000 FMFlg1=           0
         NFxFlg=           0 DoJE=T BraDBF=F KetDBF=T FulRan=T
         wScrn=  0.000000 ICntrl=       500 IOpCl=  0 I1Cent=   200000004 NGrid=           0
         NMat0=    1 NMatS0=      1 NMatT0=    0 NMatD0=    1 NMtDS0=    0 NMtDT0=    0
 Petite list used in FoFCou.
 Harris En= -391.655789373204    
 JPrj=0 DoOrth=F DoCkMO=F.
 Leave Link  401 at Tue Jul  6 10:49:03 2021, MaxMem=   524288000 cpu:              20.6 elap:               3.7
 (Enter /opt/gaussian/g16_legacy/l502.exe)
 Integral symmetry usage will be decided dynamically.
 Closed shell SCF:
 Using DIIS extrapolation, IDIIS=  1040.
 NGot=   524288000 LenX=   524168546 LenY=   524110505
 Requested convergence on RMS density matrix=1.00D-08 within 128 cycles.
 Requested convergence on MAX density matrix=1.00D-06.
 Requested convergence on             energy=1.00D-06.
 No special actions if energy rises.
 Fock matrices will be formed incrementally for  20 cycles.
 Integral accuracy reduced to 1.0D-05 until final iterations.

 Cycle   1  Pass 0  IDiag  1:
 FoFJK:  IHMeth= 1 ICntrl=       0 DoSepK=F KAlg= 0 I1Cent=           0 FoldK=F
 IRaf= 850000000 NMat=       1 IRICut=       1 DoRegI=T DoRafI=F ISym2E= 0 IDoP0=0 IntGTp=1.
 FoFCou: FMM=F IPFlag=           0 FMFlag=      100000 FMFlg1=           0
         NFxFlg=           0 DoJE=F BraDBF=F KetDBF=F FulRan=T
         wScrn=  0.000000 ICntrl=         0 IOpCl=  0 I1Cent=           0 NGrid=           0
         NMat0=    1 NMatS0=      1 NMatT0=    0 NMatD0=    1 NMtDS0=    0 NMtDT0=    0
 Symmetry not used in FoFCou.
 E= -391.298986805242    
 DIIS: error= 3.07D-02 at cycle   1 NSaved=   1.
 NSaved= 1 IEnMin= 1 EnMin= -391.298986805242     IErMin= 1 ErrMin= 3.07D-02
 ErrMax= 3.07D-02  0.00D+00 EMaxC= 1.00D-01 BMatC= 3.70D-01 BMatP= 3.70D-01
 IDIUse=3 WtCom= 6.93D-01 WtEn= 3.07D-01
 Coeff-Com:  0.100D+01
 Coeff-En:   0.100D+01
 Coeff:      0.100D+01
 Gap=     0.341 Goal=   None    Shift=    0.000
 GapD=    0.341 DampG=1.000 DampE=0.500 DampFc=0.5000 IDamp=-1.
 Damping current iteration by 5.00D-01
 RMSDP=4.36D-03 MaxDP=1.15D-01              OVMax= 1.45D-01

 Cycle   2  Pass 0  IDiag  1:
 RMSU=  2.14D-03    CP:  9.75D-01
 E= -391.507924272115     Delta-E=       -0.208937466872 Rises=F Damp=T
 DIIS: error= 1.07D-02 at cycle   2 NSaved=   2.
 NSaved= 2 IEnMin= 2 EnMin= -391.507924272115     IErMin= 2 ErrMin= 1.07D-02
 ErrMax= 1.07D-02  0.00D+00 EMaxC= 1.00D-01 BMatC= 2.10D-02 BMatP= 3.70D-01
 IDIUse=3 WtCom= 8.93D-01 WtEn= 1.07D-01
 Coeff-Com: -0.154D+00 0.115D+01
 Coeff-En:   0.000D+00 0.100D+01
 Coeff:     -0.137D+00 0.114D+01
 Gap=     0.370 Goal=   None    Shift=    0.000
 RMSDP=8.26D-04 MaxDP=2.55D-02 DE=-2.09D-01 OVMax= 6.04D-02

 Cycle   3  Pass 0  IDiag  1:
 RMSU=  7.77D-04    CP:  9.69D-01  1.12D+00
 E= -391.687663979495     Delta-E=       -0.179739707380 Rises=F Damp=F
 DIIS: error= 1.24D-03 at cycle   3 NSaved=   3.
 NSaved= 3 IEnMin= 3 EnMin= -391.687663979495     IErMin= 3 ErrMin= 1.24D-03
 ErrMax= 1.24D-03  0.00D+00 EMaxC= 1.00D-01 BMatC= 5.82D-04 BMatP= 2.10D-02
 IDIUse=3 WtCom= 9.88D-01 WtEn= 1.24D-02
 Coeff-Com: -0.255D-01 0.119D+00 0.907D+00
 Coeff-En:   0.000D+00 0.000D+00 0.100D+01
 Coeff:     -0.252D-01 0.117D+00 0.908D+00
 Gap=     0.338 Goal=   None    Shift=    0.000
 RMSDP=1.85D-04 MaxDP=5.92D-03 DE=-1.80D-01 OVMax= 8.21D-03

 Cycle   4  Pass 0  IDiag  1:
 RMSU=  1.70D-04    CP:  9.68D-01  1.15D+00  9.43D-01
 E= -391.688001509528     Delta-E=       -0.000337530033 Rises=F Damp=F
 DIIS: error= 9.84D-04 at cycle   4 NSaved=   4.
 NSaved= 4 IEnMin= 4 EnMin= -391.688001509528     IErMin= 4 ErrMin= 9.84D-04
 ErrMax= 9.84D-04  0.00D+00 EMaxC= 1.00D-01 BMatC= 2.42D-04 BMatP= 5.82D-04
 IDIUse=3 WtCom= 9.90D-01 WtEn= 9.84D-03
 Coeff-Com: -0.596D-02 0.243D-01 0.398D+00 0.583D+00
 Coeff-En:   0.000D+00 0.000D+00 0.233D+00 0.767D+00
 Coeff:     -0.590D-02 0.241D-01 0.397D+00 0.585D+00
 Gap=     0.338 Goal=   None    Shift=    0.000
 RMSDP=8.53D-05 MaxDP=3.14D-03 DE=-3.38D-04 OVMax= 6.45D-03

 Cycle   5  Pass 0  IDiag  1:
 RMSU=  4.35D-05    CP:  9.68D-01  1.14D+00  9.82D-01  6.11D-01
 E= -391.688225769738     Delta-E=       -0.000224260210 Rises=F Damp=F
 DIIS: error= 2.97D-04 at cycle   5 NSaved=   5.
 NSaved= 5 IEnMin= 5 EnMin= -391.688225769738     IErMin= 5 ErrMin= 2.97D-04
 ErrMax= 2.97D-04  0.00D+00 EMaxC= 1.00D-01 BMatC= 2.62D-05 BMatP= 2.42D-04
 IDIUse=3 WtCom= 9.97D-01 WtEn= 2.97D-03
 Coeff-Com:  0.534D-03-0.168D-02 0.928D-01 0.279D+00 0.629D+00
 Coeff-En:   0.000D+00 0.000D+00 0.000D+00 0.000D+00 0.100D+01
 Coeff:      0.533D-03-0.168D-02 0.925D-01 0.278D+00 0.630D+00
 Gap=     0.339 Goal=   None    Shift=    0.000
 RMSDP=2.25D-05 MaxDP=1.05D-03 DE=-2.24D-04 OVMax= 1.95D-03

 Cycle   6  Pass 0  IDiag  1:
 RMSU=  1.35D-05    CP:  9.68D-01  1.14D+00  9.89D-01  6.78D-01  7.11D-01
 E= -391.688251017502     Delta-E=       -0.000025247764 Rises=F Damp=F
 DIIS: error= 5.88D-05 at cycle   6 NSaved=   6.
 NSaved= 6 IEnMin= 6 EnMin= -391.688251017502     IErMin= 6 ErrMin= 5.88D-05
 ErrMax= 5.88D-05  0.00D+00 EMaxC= 1.00D-01 BMatC= 1.55D-06 BMatP= 2.62D-05
 IDIUse=1 WtCom= 1.00D+00 WtEn= 0.00D+00
 Coeff-Com:  0.886D-03-0.301D-02 0.597D-02 0.710D-01 0.258D+00 0.668D+00
 Coeff:      0.886D-03-0.301D-02 0.597D-02 0.710D-01 0.258D+00 0.668D+00
 Gap=     0.339 Goal=   None    Shift=    0.000
 RMSDP=5.99D-06 MaxDP=2.01D-04 DE=-2.52D-05 OVMax= 4.27D-04

 Initial convergence to 1.0D-05 achieved.  Increase integral accuracy.
 Cycle   7  Pass 1  IDiag  1:
 E= -391.688234740295     Delta-E=        0.000016277207 Rises=F Damp=F
 DIIS: error= 2.00D-05 at cycle   1 NSaved=   1.
 NSaved= 1 IEnMin= 1 EnMin= -391.688234740295     IErMin= 1 ErrMin= 2.00D-05
 ErrMax= 2.00D-05  0.00D+00 EMaxC= 1.00D-01 BMatC= 2.17D-07 BMatP= 2.17D-07
 IDIUse=1 WtCom= 1.00D+00 WtEn= 0.00D+00
 Coeff-Com:  0.100D+01
 Coeff:      0.100D+01
 Gap=     0.339 Goal=   None    Shift=    0.000
 RMSDP=5.99D-06 MaxDP=2.01D-04 DE= 1.63D-05 OVMax= 1.80D-04

 Cycle   8  Pass 1  IDiag  1:
 RMSU=  8.37D-06    CP:  1.00D+00
 E= -391.688234877618     Delta-E=       -0.000000137323 Rises=F Damp=F
 DIIS: error= 1.27D-05 at cycle   2 NSaved=   2.
 NSaved= 2 IEnMin= 2 EnMin= -391.688234877618     IErMin= 2 ErrMin= 1.27D-05
 ErrMax= 1.27D-05  0.00D+00 EMaxC= 1.00D-01 BMatC= 9.81D-08 BMatP= 2.17D-07
 IDIUse=1 WtCom= 1.00D+00 WtEn= 0.00D+00
 Coeff-Com:  0.374D+00 0.626D+00
 Coeff:      0.374D+00 0.626D+00
 Gap=     0.339 Goal=   None    Shift=    0.000
 RMSDP=1.47D-06 MaxDP=6.37D-05 DE=-1.37D-07 OVMax= 1.22D-04

 Cycle   9  Pass 1  IDiag  1:
 RMSU=  1.47D-06    CP:  1.00D+00  9.91D-01
 E= -391.688234959495     Delta-E=       -0.000000081877 Rises=F Damp=F
 DIIS: error= 5.93D-06 at cycle   3 NSaved=   3.
 NSaved= 3 IEnMin= 3 EnMin= -391.688234959495     IErMin= 3 ErrMin= 5.93D-06
 ErrMax= 5.93D-06  0.00D+00 EMaxC= 1.00D-01 BMatC= 1.51D-08 BMatP= 9.81D-08
 IDIUse=1 WtCom= 1.00D+00 WtEn= 0.00D+00
 Coeff-Com: -0.578D-04 0.270D+00 0.730D+00
 Coeff:     -0.578D-04 0.270D+00 0.730D+00
 Gap=     0.339 Goal=   None    Shift=    0.000
 RMSDP=5.54D-07 MaxDP=2.61D-05 DE=-8.19D-08 OVMax= 5.30D-05

 Cycle  10  Pass 1  IDiag  1:
 RMSU=  3.54D-07    CP:  1.00D+00  1.02D+00  7.61D-01
 E= -391.688234972857     Delta-E=       -0.000000013362 Rises=F Damp=F
 DIIS: error= 2.43D-06 at cycle   4 NSaved=   4.
 NSaved= 4 IEnMin= 4 EnMin= -391.688234972857     IErMin= 4 ErrMin= 2.43D-06
 ErrMax= 2.43D-06  0.00D+00 EMaxC= 1.00D-01 BMatC= 1.80D-09 BMatP= 1.51D-08
 IDIUse=1 WtCom= 1.00D+00 WtEn= 0.00D+00
 Coeff-Com: -0.209D-01 0.105D+00 0.380D+00 0.536D+00
 Coeff:     -0.209D-01 0.105D+00 0.380D+00 0.536D+00
 Gap=     0.339 Goal=   None    Shift=    0.000
 RMSDP=1.88D-07 MaxDP=7.13D-06 DE=-1.34D-08 OVMax= 1.50D-05

 Cycle  11  Pass 1  IDiag  1:
 RMSU=  1.37D-07    CP:  1.00D+00  1.02D+00  8.00D-01  6.80D-01
 E= -391.688234974702     Delta-E=       -0.000000001845 Rises=F Damp=F
 DIIS: error= 2.20D-07 at cycle   5 NSaved=   5.
 NSaved= 5 IEnMin= 5 EnMin= -391.688234974702     IErMin= 5 ErrMin= 2.20D-07
 ErrMax= 2.20D-07  0.00D+00 EMaxC= 1.00D-01 BMatC= 2.53D-11 BMatP= 1.80D-09
 IDIUse=1 WtCom= 1.00D+00 WtEn= 0.00D+00
 Coeff-Com: -0.262D-02-0.676D-02-0.106D-01 0.767D-01 0.943D+00
 Coeff:     -0.262D-02-0.676D-02-0.106D-01 0.767D-01 0.943D+00
 Gap=     0.339 Goal=   None    Shift=    0.000
 RMSDP=3.81D-08 MaxDP=1.04D-06 DE=-1.84D-09 OVMax= 1.95D-06

 Cycle  12  Pass 1  IDiag  1:
 RMSU=  2.67D-08    CP:  1.00D+00  1.02D+00  8.02D-01  7.55D-01  1.02D+00
 E= -391.688234974731     Delta-E=       -0.000000000029 Rises=F Damp=F
 DIIS: error= 7.38D-08 at cycle   6 NSaved=   6.
 NSaved= 6 IEnMin= 6 EnMin= -391.688234974731     IErMin= 6 ErrMin= 7.38D-08
 ErrMax= 7.38D-08  0.00D+00 EMaxC= 1.00D-01 BMatC= 2.45D-12 BMatP= 2.53D-11
 IDIUse=1 WtCom= 1.00D+00 WtEn= 0.00D+00
 Coeff-Com:  0.771D-03-0.975D-02-0.315D-01-0.138D-01 0.292D+00 0.762D+00
 Coeff:      0.771D-03-0.975D-02-0.315D-01-0.138D-01 0.292D+00 0.762D+00
 Gap=     0.339 Goal=   None    Shift=    0.000
 RMSDP=1.05D-08 MaxDP=2.03D-07 DE=-2.92D-11 OVMax= 5.22D-07

 Cycle  13  Pass 1  IDiag  1:
 RMSU=  5.38D-09    CP:  1.00D+00  1.02D+00  8.02D-01  7.65D-01  1.08D+00
                    CP:  8.86D-01
 E= -391.688234974735     Delta-E=       -0.000000000004 Rises=F Damp=F
 DIIS: error= 1.67D-08 at cycle   7 NSaved=   7.
 NSaved= 7 IEnMin= 7 EnMin= -391.688234974735     IErMin= 7 ErrMin= 1.67D-08
 ErrMax= 1.67D-08  0.00D+00 EMaxC= 1.00D-01 BMatC= 1.45D-13 BMatP= 2.45D-12
 IDIUse=1 WtCom= 1.00D+00 WtEn= 0.00D+00
 Coeff-Com:  0.343D-03-0.288D-02-0.992D-02-0.724D-02 0.578D-01 0.261D+00
 Coeff-Com:  0.701D+00
 Coeff:      0.343D-03-0.288D-02-0.992D-02-0.724D-02 0.578D-01 0.261D+00
 Coeff:      0.701D+00
 Gap=     0.339 Goal=   None    Shift=    0.000
 RMSDP=1.84D-09 MaxDP=5.03D-08 DE=-3.52D-12 OVMax= 1.30D-07

 SCF Done:  E(RM062X) =  -391.688234975     A.U. after   13 cycles
            NFock= 13  Conv=0.18D-08     -V/T= 2.0093
 KE= 3.880861590369D+02 PE=-1.931590328772D+03 EE= 6.385383995290D+02
 Leave Link  502 at Tue Jul  6 10:50:20 2021, MaxMem=   524288000 cpu:             462.0 elap:              77.2
 (Enter /opt/gaussian/g16_legacy/l601.exe)
 Copying SCF densities to generalized density rwf, IOpCl= 0 IROHF=0.

 **********************************************************************

            Population analysis using the SCF density.

 **********************************************************************

 Orbital symmetries:
       Occupied  (A) (A) (A) (A) (A) (A) (A) (A) (A) (A) (A) (A)
                 (A) (A) (A) (A) (A) (A) (A) (A) (A) (A) (A) (A)
                 (A) (A) (A) (A) (A) (A) (A) (A) (A) (A) (A) (A)
                 (A) (A) (A)
       Virtual   (A) (A) (A) (A) (A) (A) (A) (A) (A) (A) (A) (A)
                 (A) (A) (A) (A) (A) (A) (A) (A) (A) (A) (A) (A)
                 (A) (A) (A) (A) (A) (A) (A) (A) (A) (A) (A) (A)
                 (A) (A) (A) (A) (A) (A) (A) (A) (A) (A) (A) (A)
                 (A) (A) (A) (A) (A) (A) (A) (A) (A) (A) (A) (A)
                 (A) (A) (A) (A) (A) (A) (A) (A) (A) (A) (A) (A)
                 (A) (A) (A) (A) (A) (A) (A) (A) (A) (A) (A) (A)
                 (A) (A) (A) (A) (A) (A) (A) (A) (A) (A) (A) (A)
                 (A) (A) (A) (A) (A) (A) (A) (A) (A) (A) (A) (A)
                 (A) (A) (A) (A) (A) (A) (A) (A) (A) (A) (A) (A)
                 (A) (A) (A) (A) (A) (A) (A) (A) (A) (A) (A) (A)
                 (A) (A) (A) (A) (A) (A) (A) (A) (A) (A) (A) (A)
                 (A) (A) (A) (A) (A) (A) (A) (A) (A) (A) (A) (A)
                 (A) (A) (A) (A) (A) (A) (A) (A) (A) (A) (A) (A)
                 (A) (A) (A) (A) (A) (A) (A) (A) (A) (A) (A) (A)
                 (A) (A) (A) (A) (A) (A) (A) (A) (A) (A) (A) (A)
                 (A) (A) (A) (A) (A) (A) (A) (A) (A)
 The electronic state is 1-A.
 Alpha  occ. eigenvalues --  -10.54668 -10.54128 -10.53909 -10.53826 -10.53602
 Alpha  occ. eigenvalues --  -10.53345 -10.53283 -10.53240 -10.53213 -10.53189
 Alpha  occ. eigenvalues --   -0.91975  -0.89944  -0.84709  -0.81578  -0.77855
 Alpha  occ. eigenvalues --   -0.76075  -0.71673  -0.68495  -0.58976  -0.57816
 Alpha  occ. eigenvalues --   -0.54142  -0.51424  -0.50688  -0.49850  -0.48755
 Alpha  occ. eigenvalues --   -0.47781  -0.46549  -0.45927  -0.44711  -0.43432
 Alpha  occ. eigenvalues --   -0.43080  -0.42488  -0.41507  -0.40992  -0.38899
 Alpha  occ. eigenvalues --   -0.38209  -0.36248  -0.28647  -0.27097
 Alpha virt. eigenvalues --    0.06769   0.08030   0.12291   0.14617   0.15193
 Alpha virt. eigenvalues --    0.17130   0.18451   0.18632   0.19910   0.20224
 Alpha virt. eigenvalues --    0.21017   0.21730   0.22288   0.22963   0.23188
 Alpha virt. eigenvalues --    0.23877   0.25119   0.25821   0.27020   0.27680
 Alpha virt. eigenvalues --    0.28916   0.29076   0.29461   0.30840   0.31824
 Alpha virt. eigenvalues --    0.38709   0.40163   0.47068   0.48100   0.53699
 Alpha virt. eigenvalues --    0.55459   0.55572   0.57844   0.59256   0.59902
 Alpha virt. eigenvalues --    0.60715   0.61648   0.62562   0.63573   0.65041
 Alpha virt. eigenvalues --    0.66035   0.68083   0.71263   0.71803   0.73718
 Alpha virt. eigenvalues --    0.74889   0.76088   0.77015   0.78273   0.79022
 Alpha virt. eigenvalues --    0.80350   0.82356   0.83294   0.84890   0.86284
 Alpha virt. eigenvalues --    0.87491   0.88530   0.88951   0.91446   0.92572
 Alpha virt. eigenvalues --    0.93691   0.94249   0.94567   0.95822   0.96142
 Alpha virt. eigenvalues --    0.96352   0.96701   0.98016   0.99213   1.00257
 Alpha virt. eigenvalues --    1.01197   1.02470   1.03272   1.05126   1.07098
 Alpha virt. eigenvalues --    1.08616   1.19415   1.21044   1.23651   1.24774
 Alpha virt. eigenvalues --    1.25719   1.32951   1.34802   1.37078   1.37882
 Alpha virt. eigenvalues --    1.40582   1.41531   1.44467   1.47394   1.49372
 Alpha virt. eigenvalues --    1.53140   1.60775   1.68028   1.69930   1.72661
 Alpha virt. eigenvalues --    1.74733   1.77997   1.79039   1.80556   1.83438
 Alpha virt. eigenvalues --    1.84681   1.86255   1.87305   1.88100   1.89027
 Alpha virt. eigenvalues --    1.90328   1.92774   1.93268   1.97961   2.01640
 Alpha virt. eigenvalues --    2.01767   2.03505   2.05364   2.09291   2.09979
 Alpha virt. eigenvalues --    2.10038   2.10188   2.12655   2.13407   2.13531
 Alpha virt. eigenvalues --    2.14748   2.15578   2.16248   2.17857   2.18544
 Alpha virt. eigenvalues --    2.20068   2.21706   2.22302   2.22511   2.25498
 Alpha virt. eigenvalues --    2.28308   2.30967   2.32300   2.34159   2.35779
 Alpha virt. eigenvalues --    2.37364   2.39216   2.43297   2.44270   2.45028
 Alpha virt. eigenvalues --    2.46968   2.48387   2.51119   2.52481   2.53882
 Alpha virt. eigenvalues --    2.56634   2.59943   2.62148   2.63189   2.63301
 Alpha virt. eigenvalues --    2.66073   2.68507   2.70221   2.71243   2.72986
 Alpha virt. eigenvalues --    2.74595   2.75256   2.77596   2.79017   2.83998
 Alpha virt. eigenvalues --    2.84941   2.85438   2.87310   2.88021   2.88314
 Alpha virt. eigenvalues --    2.89480   2.92188   2.93489   2.94583   3.01773
 Alpha virt. eigenvalues --    3.03769   3.08483   3.09910   3.17721   3.19500
 Alpha virt. eigenvalues --    3.20616   3.22728   3.29849   3.35034   3.39821
 Alpha virt. eigenvalues --    3.40240   3.41687   3.42634   3.43611   3.44259
 Alpha virt. eigenvalues --    3.44903   3.47029   3.49240   3.50338   3.51926
 Alpha virt. eigenvalues --    3.56797   4.18842   4.21974   4.34259   4.42290
 Alpha virt. eigenvalues --    4.48974   4.52370   4.53105   4.66739   4.69697
 Alpha virt. eigenvalues --    4.75977
          Condensed to atoms (all electrons):
               1          2          3          4          5          6
     1  C    5.038498   0.386610   0.384646   0.359848  -0.070610   0.004467
     2  H    0.386610   0.607872  -0.034914  -0.037509  -0.006195   0.000116
     3  H    0.384646  -0.034914   0.603132  -0.030245   0.004674  -0.000171
     4  C    0.359848  -0.037509  -0.030245   4.771178   0.369776  -0.034100
     5  C   -0.070610  -0.006195   0.004674   0.369776   4.998194   0.386536
     6  H    0.004467   0.000116  -0.000171  -0.034100   0.386536   0.573911
     7  H   -0.003916   0.004542   0.000053  -0.034204   0.380257  -0.027488
     8  H    0.000239  -0.000419  -0.000008  -0.039040   0.381796  -0.027680
     9  C   -0.046997   0.003258  -0.008124   0.713227  -0.041210  -0.005138
    10  H    0.005625  -0.000171   0.000027  -0.030687  -0.013320   0.006123
    11  C   -0.012989   0.000248   0.001099  -0.044786   0.006083   0.000107
    12  H    0.000180   0.000031   0.000184  -0.000754  -0.000148  -0.000004
    13  H    0.002323  -0.000082   0.002085  -0.008097   0.000089   0.000007
    14  H    0.000385  -0.000013  -0.000128   0.000849  -0.000151  -0.000011
    15  C   -0.000093  -0.000066   0.000001   0.000002   0.000000   0.000000
    16  H   -0.000002  -0.000002   0.000002   0.000000  -0.000000  -0.000000
    17  H   -0.000005   0.000002   0.000000   0.000000  -0.000000   0.000000
    18  H    0.000020  -0.000005  -0.000001  -0.000000   0.000000  -0.000000
    19  C   -0.002807   0.001605   0.000106   0.000015   0.000007  -0.000000
    20  C    0.000217   0.000441   0.000011  -0.000025  -0.000018   0.000000
    21  H    0.000069  -0.000087   0.000000  -0.000003   0.000000  -0.000000
    22  H   -0.000036   0.000012  -0.000000   0.000002  -0.000000   0.000000
    23  H    0.000029   0.000316  -0.000010  -0.000071   0.000095  -0.000001
    24  C   -0.053535  -0.000336  -0.002112   0.005678  -0.000029   0.000002
    25  H   -0.001060  -0.000093   0.002813  -0.000083  -0.000002   0.000000
    26  C    0.345527  -0.041513  -0.040041  -0.046988  -0.002386  -0.000027
    27  H   -0.042347   0.005618  -0.005409  -0.002345  -0.000024  -0.000004
    28  H   -0.039864  -0.005008   0.005537  -0.002732   0.001312  -0.000103
               7          8          9         10         11         12
     1  C   -0.003916   0.000239  -0.046997   0.005625  -0.012989   0.000180
     2  H    0.004542  -0.000419   0.003258  -0.000171   0.000248   0.000031
     3  H    0.000053  -0.000008  -0.008124   0.000027   0.001099   0.000184
     4  C   -0.034204  -0.039040   0.713227  -0.030687  -0.044786  -0.000754
     5  C    0.380257   0.381796  -0.041210  -0.013320   0.006083  -0.000148
     6  H   -0.027488  -0.027680  -0.005138   0.006123   0.000107  -0.000004
     7  H    0.588935  -0.034527  -0.000671   0.000317  -0.000172   0.000025
     8  H   -0.034527   0.594622  -0.001175   0.000186  -0.000170  -0.000006
     9  C   -0.000671  -0.001175   4.896251   0.377728   0.360967  -0.036517
    10  H    0.000317   0.000186   0.377728   0.612637  -0.056003  -0.000440
    11  C   -0.000172  -0.000170   0.360967  -0.056003   4.975032   0.385651
    12  H    0.000025  -0.000006  -0.036517  -0.000440   0.385651   0.577440
    13  H   -0.000002   0.000001  -0.034161   0.004538   0.390026  -0.028022
    14  H   -0.000004   0.000019  -0.033123  -0.003128   0.386356  -0.031814
    15  C    0.000000  -0.000000  -0.000000   0.000000   0.000000   0.000000
    16  H   -0.000000  -0.000000   0.000000  -0.000000  -0.000000  -0.000000
    17  H    0.000000   0.000000  -0.000000   0.000000  -0.000000   0.000000
    18  H   -0.000000   0.000000   0.000000  -0.000000  -0.000000  -0.000000
    19  C   -0.000002   0.000018  -0.000002   0.000000  -0.000000  -0.000000
    20  C   -0.000003  -0.000041  -0.000000  -0.000000  -0.000000   0.000000
    21  H    0.000000  -0.000001   0.000000  -0.000000   0.000000  -0.000000
    22  H    0.000000  -0.000000   0.000000   0.000000   0.000000   0.000000
    23  H    0.000008   0.000256  -0.000001   0.000000  -0.000000  -0.000000
    24  C    0.000012  -0.000138   0.000047   0.000003  -0.000048   0.000002
    25  H    0.000000   0.000000   0.000006  -0.000000   0.000000  -0.000000
    26  C   -0.000213   0.001352  -0.003234  -0.000104   0.000138  -0.000038
    27  H    0.000014   0.000028   0.002184  -0.000056   0.000523   0.000014
    28  H    0.000062   0.001618  -0.000023  -0.000002   0.000011  -0.000001
              13         14         15         16         17         18
     1  C    0.002323   0.000385  -0.000093  -0.000002  -0.000005   0.000020
     2  H   -0.000082  -0.000013  -0.000066  -0.000002   0.000002  -0.000005
     3  H    0.002085  -0.000128   0.000001   0.000002   0.000000  -0.000001
     4  C   -0.008097   0.000849   0.000002   0.000000   0.000000  -0.000000
     5  C    0.000089  -0.000151   0.000000  -0.000000  -0.000000   0.000000
     6  H    0.000007  -0.000011   0.000000  -0.000000   0.000000  -0.000000
     7  H   -0.000002  -0.000004   0.000000  -0.000000   0.000000  -0.000000
     8  H    0.000001   0.000019  -0.000000  -0.000000   0.000000   0.000000
     9  C   -0.034161  -0.033123  -0.000000   0.000000  -0.000000   0.000000
    10  H    0.004538  -0.003128   0.000000  -0.000000   0.000000  -0.000000
    11  C    0.390026   0.386356   0.000000  -0.000000  -0.000000  -0.000000
    12  H   -0.028022  -0.031814   0.000000  -0.000000   0.000000  -0.000000
    13  H    0.580003  -0.029318  -0.000000  -0.000000   0.000000  -0.000000
    14  H   -0.029318   0.578882  -0.000000   0.000000  -0.000000   0.000000
    15  C   -0.000000  -0.000000   5.004643   0.385141   0.382977   0.380460
    16  H   -0.000000   0.000000   0.385141   0.572093  -0.027291  -0.027114
    17  H    0.000000  -0.000000   0.382977  -0.027291   0.589323  -0.034278
    18  H   -0.000000   0.000000   0.380460  -0.027114  -0.034278   0.590015
    19  C    0.000001   0.000000   0.366169  -0.033016  -0.038155  -0.035850
    20  C    0.000000  -0.000000  -0.078889   0.004668  -0.000493  -0.002171
    21  H   -0.000000   0.000000  -0.003582   0.000034  -0.000852   0.004474
    22  H    0.000000  -0.000000  -0.001925  -0.000070   0.003690  -0.000674
    23  H   -0.000000   0.000000   0.004798  -0.000168  -0.000008  -0.000049
    24  C    0.000024  -0.000003  -0.036860  -0.004820  -0.001413  -0.000858
    25  H    0.000041  -0.000000  -0.013574   0.006103   0.000223   0.000278
    26  C   -0.000022   0.000067   0.005675   0.000115  -0.000206  -0.000121
    27  H    0.000570  -0.000081  -0.000175  -0.000012   0.000014  -0.000002
    28  H   -0.000011   0.000002   0.000077   0.000010   0.000005  -0.000004
              19         20         21         22         23         24
     1  C   -0.002807   0.000217   0.000069  -0.000036   0.000029  -0.053535
     2  H    0.001605   0.000441  -0.000087   0.000012   0.000316  -0.000336
     3  H    0.000106   0.000011   0.000000  -0.000000  -0.000010  -0.002112
     4  C    0.000015  -0.000025  -0.000003   0.000002  -0.000071   0.005678
     5  C    0.000007  -0.000018   0.000000  -0.000000   0.000095  -0.000029
     6  H   -0.000000   0.000000  -0.000000   0.000000  -0.000001   0.000002
     7  H   -0.000002  -0.000003   0.000000   0.000000   0.000008   0.000012
     8  H    0.000018  -0.000041  -0.000001  -0.000000   0.000256  -0.000138
     9  C   -0.000002  -0.000000   0.000000   0.000000  -0.000001   0.000047
    10  H    0.000000  -0.000000  -0.000000   0.000000   0.000000   0.000003
    11  C   -0.000000  -0.000000   0.000000   0.000000  -0.000000  -0.000048
    12  H   -0.000000   0.000000  -0.000000   0.000000  -0.000000   0.000002
    13  H    0.000001   0.000000  -0.000000   0.000000  -0.000000   0.000024
    14  H    0.000000  -0.000000   0.000000  -0.000000   0.000000  -0.000003
    15  C    0.366169  -0.078889  -0.003582  -0.001925   0.004798  -0.036860
    16  H   -0.033016   0.004668   0.000034  -0.000070  -0.000168  -0.004820
    17  H   -0.038155  -0.000493  -0.000852   0.003690  -0.000008  -0.001413
    18  H   -0.035850  -0.002171   0.004474  -0.000674  -0.000049  -0.000858
    19  C    4.735301   0.378154  -0.036090  -0.036072  -0.026723   0.714112
    20  C    0.378154   5.002292   0.385297   0.383094   0.382578  -0.052348
    21  H   -0.036090   0.385297   0.582887  -0.032574  -0.029200   0.000908
    22  H   -0.036072   0.383094  -0.032574   0.578757  -0.027429   0.000071
    23  H   -0.026723   0.382578  -0.029200  -0.027429   0.577991  -0.008373
    24  C    0.714112  -0.052348   0.000908   0.000071  -0.008373   4.918749
    25  H   -0.031615   0.006077  -0.000155  -0.000157   0.000023   0.376103
    26  C   -0.038400  -0.013465   0.000444   0.000174   0.001620   0.355015
    27  H    0.001884   0.000315  -0.000015   0.000033  -0.000059  -0.033084
    28  H   -0.006619   0.001190  -0.000142   0.000038   0.002439  -0.037041
              25         26         27         28
     1  C   -0.001060   0.345527  -0.042347  -0.039864
     2  H   -0.000093  -0.041513   0.005618  -0.005008
     3  H    0.002813  -0.040041  -0.005409   0.005537
     4  C   -0.000083  -0.046988  -0.002345  -0.002732
     5  C   -0.000002  -0.002386  -0.000024   0.001312
     6  H    0.000000  -0.000027  -0.000004  -0.000103
     7  H    0.000000  -0.000213   0.000014   0.000062
     8  H    0.000000   0.001352   0.000028   0.001618
     9  C    0.000006  -0.003234   0.002184  -0.000023
    10  H   -0.000000  -0.000104  -0.000056  -0.000002
    11  C    0.000000   0.000138   0.000523   0.000011
    12  H   -0.000000  -0.000038   0.000014  -0.000001
    13  H    0.000041  -0.000022   0.000570  -0.000011
    14  H   -0.000000   0.000067  -0.000081   0.000002
    15  C   -0.013574   0.005675  -0.000175   0.000077
    16  H    0.006103   0.000115  -0.000012   0.000010
    17  H    0.000223  -0.000206   0.000014   0.000005
    18  H    0.000278  -0.000121  -0.000002  -0.000004
    19  C   -0.031615  -0.038400   0.001884  -0.006619
    20  C    0.006077  -0.013465   0.000315   0.001190
    21  H   -0.000155   0.000444  -0.000015  -0.000142
    22  H   -0.000157   0.000174   0.000033   0.000038
    23  H    0.000023   0.001620  -0.000059   0.002439
    24  C    0.376103   0.355015  -0.033084  -0.037041
    25  H    0.613434  -0.053629  -0.004981   0.004771
    26  C   -0.053629   4.993305   0.388831   0.390853
    27  H   -0.004981   0.388831   0.600001  -0.034543
    28  H    0.004771   0.390853  -0.034543   0.605676
 Mulliken charges:
               1
     1  C   -0.254426
     2  H    0.115742
     3  H    0.116794
     4  C    0.091095
     5  C   -0.394724
     6  H    0.123457
     7  H    0.126975
     8  H    0.123069
     9  C   -0.143292
    10  H    0.096727
    11  C   -0.392072
    12  H    0.134216
    13  H    0.120007
    14  H    0.131213
    15  C   -0.394777
    16  H    0.124330
    17  H    0.126466
    18  H    0.125882
    19  C    0.087980
    20  C   -0.396881
    21  H    0.128588
    22  H    0.133068
    23  H    0.121941
    24  C   -0.139727
    25  H    0.095477
    26  C   -0.242727
    27  H    0.123109
    28  H    0.112492
 Sum of Mulliken charges =  -0.00000
 Mulliken charges with hydrogens summed into heavy atoms:
               1
     1  C   -0.021890
     4  C    0.091095
     5  C   -0.021223
     9  C   -0.046565
    11  C   -0.006636
    15  C   -0.018100
    19  C    0.087980
    20  C   -0.013284
    24  C   -0.044250
    26  C   -0.007126
 Electronic spatial extent (au):  <R**2>=           2542.3091
 Charge=             -0.0000 electrons
 Dipole moment (field-independent basis, Debye):
    X=              0.3333    Y=              0.1283    Z=              0.0226  Tot=              0.3579
 Quadrupole moment (field-independent basis, Debye-Ang):
   XX=            -62.3242   YY=            -62.8589   ZZ=            -66.2067
   XY=              1.1580   XZ=              0.8690   YZ=             -0.1666
 Traceless Quadrupole moment (field-independent basis, Debye-Ang):
   XX=              1.4724   YY=              0.9377   ZZ=             -2.4101
   XY=              1.1580   XZ=              0.8690   YZ=             -0.1666
 Octapole moment (field-independent basis, Debye-Ang**2):
  XXX=              2.0838  YYY=             -2.4474  ZZZ=              0.8488  XYY=             -0.9990
  XXY=              0.6789  XXZ=             -2.4176  XZZ=              1.7558  YZZ=              1.2719
  YYZ=              0.5211  XYZ=             -0.5145
 Hexadecapole moment (field-independent basis, Debye-Ang**3):
 XXXX=          -2661.6115 YYYY=           -634.6142 ZZZZ=           -158.8803 XXXY=             12.8555
 XXXZ=             10.5144 YYYX=             -6.7462 YYYZ=             -0.8346 ZZZX=              2.7622
 ZZZY=              2.1751 XXYY=           -553.2164 XXZZ=           -483.8243 YYZZ=           -128.8057
 XXYZ=             -2.7775 YYXZ=              1.5587 ZZXY=              8.3768
 N-N= 5.132775352309D+02 E-N=-1.931590324768D+03  KE= 3.880861590369D+02
 No NMR shielding tensors so no spin-rotation constants.
 Leave Link  601 at Tue Jul  6 10:50:21 2021, MaxMem=   524288000 cpu:               2.5 elap:               0.6
 (Enter /opt/gaussian/g16_legacy/l701.exe)
 ... and contract with generalized density number  0.
 Compute integral first derivatives.
 Leave Link  701 at Tue Jul  6 10:50:21 2021, MaxMem=   524288000 cpu:               1.9 elap:               0.5
 (Enter /opt/gaussian/g16_legacy/l702.exe)
 L702 exits ... SP integral derivatives will be done elsewhere.
 Leave Link  702 at Tue Jul  6 10:50:21 2021, MaxMem=   524288000 cpu:               0.2 elap:               0.1
 (Enter /opt/gaussian/g16_legacy/l703.exe)
 Integral derivatives from FoFJK, PRISM(SPDF).
 Compute integral first derivatives, UseDBF=F ICtDFT=           0.
 Calling FoFJK, ICntrl=      2127 FMM=F ISym2X=0 I1Cent= 0 IOpClX= 0 NMat=1 NMatS=1 NMatT=0.
 FoFJK:  IHMeth= 1 ICntrl=    2127 DoSepK=F KAlg= 0 I1Cent=           0 FoldK=F
 IRaf=         0 NMat=       1 IRICut=       1 DoRegI=T DoRafI=F ISym2E= 0 IDoP0=0 IntGTp=1.
 FoFCou: FMM=F IPFlag=           0 FMFlag=      100000 FMFlg1=         800
         NFxFlg=           0 DoJE=F BraDBF=F KetDBF=F FulRan=T
         wScrn=  0.000000 ICntrl=      2127 IOpCl=  0 I1Cent=           0 NGrid=           0
         NMat0=    1 NMatS0=      1 NMatT0=    0 NMatD0=    1 NMtDS0=    0 NMtDT0=    0
 Symmetry not used in FoFCou.
 Leave Link  703 at Tue Jul  6 10:50:34 2021, MaxMem=   524288000 cpu:              77.5 elap:              13.1
 (Enter /opt/gaussian/g16_legacy/l716.exe)
 Dipole        = 1.31138680D-01 5.04908783D-02 8.87673948D-03
 ***** Axes restored to original set *****
 -------------------------------------------------------------------
 Center     Atomic                   Forces (Hartrees/Bohr)
 Number     Number              X              Y              Z
 -------------------------------------------------------------------
      1        6          -0.009212142    0.000632353    0.000843283
      2        1           0.001928255   -0.000042422   -0.002824909
      3        1           0.000519339   -0.001325780   -0.002279317
      4        6          -0.014428843   -0.002397493    0.001801721
      5        6          -0.003606207   -0.000970763   -0.000916425
      6        1           0.000908840   -0.002029545    0.000433005
      7        1           0.002475272    0.000892935   -0.000811558
      8        1           0.002224374    0.002185097    0.000832970
      9        6           0.013463964    0.005661243   -0.000148785
     10        1           0.001695516    0.002401989   -0.000595884
     11        6           0.001566061   -0.000926793    0.000077538
     12        1          -0.001336094   -0.002839894    0.000012214
     13        1           0.000349714    0.001155449    0.000760365
     14        1          -0.001475480   -0.001063271    0.001504261
     15        6          -0.002901787   -0.002400690    0.000893437
     16        1          -0.000884126    0.001759688   -0.001288362
     17        1           0.002191999    0.001391436    0.001261053
     18        1           0.002947448    0.000392541   -0.000654555
     19        6          -0.013033064   -0.008232517    0.003050887
     20        6          -0.004451836    0.000986507   -0.001109649
     21        1           0.002302810   -0.000840882   -0.000800079
     22        1           0.002047196    0.001545275    0.000623306
     23        1          -0.000558559   -0.001606429   -0.000470151
     24        6           0.010595287    0.005635211   -0.004647790
     25        1           0.002350135    0.000169338    0.001571193
     26        6           0.007194460   -0.003019157    0.000234116
     27        1          -0.002858674    0.001454691    0.001329002
     28        1          -0.000013859    0.001431885    0.001319116
 -------------------------------------------------------------------
 Cartesian Forces:  Max     0.014428843 RMS     0.003743816
 Leave Link  716 at Tue Jul  6 10:50:35 2021, MaxMem=   524288000 cpu:               0.4 elap:               0.1
 (Enter /opt/gaussian/g16_legacy/l103.exe)

 GradGradGradGradGradGradGradGradGradGradGradGradGradGradGradGradGradGrad
 Berny optimization.
 FormGI is forming the generalized inverse of G from B-inverse, IUseBI=4.
 Internal  Forces:  Max     0.014631233 RMS     0.002415529
 Search for a local minimum.
 Step number   1 out of a maximum of  138
 All quantities printed in internal units (Hartrees-Bohrs-Radians)
 RMS Force = .24155D-02 SwitMx=.10000D-02 MixMth= 1
 Mixed Optimization -- RFO/linear search
 Second derivative matrix not updated -- first step.
 ITU=  0
     Eigenvalues ---    0.00342   0.00570   0.00667   0.00680   0.00693
     Eigenvalues ---    0.00715   0.00820   0.01219   0.01287   0.01570
     Eigenvalues ---    0.01643   0.02780   0.02785   0.04014   0.04133
     Eigenvalues ---    0.05350   0.05403   0.06981   0.07038   0.07087
     Eigenvalues ---    0.07093   0.07265   0.07301   0.07347   0.07506
     Eigenvalues ---    0.09278   0.09365   0.12769   0.12846   0.15999
     Eigenvalues ---    0.15999   0.16000   0.16000   0.16000   0.16000
     Eigenvalues ---    0.16000   0.16000   0.16000   0.16000   0.16000
     Eigenvalues ---    0.16000   0.16000   0.16000   0.21859   0.21867
     Eigenvalues ---    0.22000   0.22000   0.24993   0.24996   0.24998
     Eigenvalues ---    0.24999   0.29233   0.30872   0.31605   0.31704
     Eigenvalues ---    0.31802   0.31978   0.32812   0.33868   0.33933
     Eigenvalues ---    0.34063   0.34190   0.34226   0.34228   0.34242
     Eigenvalues ---    0.34245   0.34253   0.34261   0.34268   0.34284
     Eigenvalues ---    0.34298   0.34331   0.34544   0.34563   0.34783
     Eigenvalues ---    0.34835   0.55511   0.55588
 RFO step:  Lambda=-3.26190586D-03 EMin= 3.41727980D-03
 Linear search not attempted -- first point.
 Iteration  1 RMS(Cart)=  0.04541288 RMS(Int)=  0.00069912
 Iteration  2 RMS(Cart)=  0.00107762 RMS(Int)=  0.00016497
 Iteration  3 RMS(Cart)=  0.00000058 RMS(Int)=  0.00016497
 ITry= 1 IFail=0 DXMaxC= 1.53D-01 DCOld= 1.00D+10 DXMaxT= 3.00D-01 DXLimC= 3.00D+00 Rises=F
 Variable       Old X    -DE/DX   Delta X   Delta X   Delta X     New X
                                 (Linear)    (Quad)   (Total)
    R1        2.07554  -0.00070   0.00000  -0.00204  -0.00204   2.07349
    R2        2.07223  -0.00074   0.00000  -0.00214  -0.00214   2.07009
    R3        2.86258  -0.00204   0.00000  -0.00655  -0.00655   2.85603
    R4        2.89519   0.00286   0.00000   0.00967   0.00967   2.90486
    R5        2.84873   0.00040   0.00000   0.00125   0.00125   2.84998
    R6        2.54680  -0.01463   0.00000  -0.02620  -0.02620   2.52060
    R7        2.06950  -0.00162   0.00000  -0.00470  -0.00470   2.06479
    R8        2.06919   0.00045   0.00000   0.00129   0.00129   2.07048
    R9        2.06830   0.00122   0.00000   0.00354   0.00354   2.07183
   R10        2.05944   0.00008   0.00000   0.00023   0.00023   2.05967
   R11        2.82683   0.00427   0.00000   0.01289   0.01289   2.83972
   R12        2.06775   0.00095   0.00000   0.00273   0.00273   2.07048
   R13        2.06390  -0.00007   0.00000  -0.00019  -0.00019   2.06371
   R14        2.06891  -0.00009   0.00000  -0.00026  -0.00026   2.06865
   R15        2.06947  -0.00175   0.00000  -0.00507  -0.00507   2.06439
   R16        2.06923   0.00067   0.00000   0.00194   0.00194   2.07118
   R17        2.06904   0.00067   0.00000   0.00194   0.00194   2.07098
   R18        2.84689   0.00054   0.00000   0.00168   0.00168   2.84856
   R19        2.84184   0.00054   0.00000   0.00167   0.00167   2.84351
   R20        2.54613  -0.01397   0.00000  -0.02499  -0.02499   2.52114
   R21        2.07011  -0.00007   0.00000  -0.00019  -0.00019   2.06991
   R22        2.06880   0.00072   0.00000   0.00209   0.00209   2.07089
   R23        2.06421  -0.00025   0.00000  -0.00073  -0.00073   2.06349
   R24        2.06028   0.00012   0.00000   0.00035   0.00035   2.06063
   R25        2.84507   0.00022   0.00000   0.00069   0.00069   2.84576
   R26        2.07442  -0.00052   0.00000  -0.00153  -0.00153   2.07289
   R27        2.06853   0.00010   0.00000   0.00028   0.00028   2.06880
    A1        1.82997   0.00200   0.00000   0.02191   0.02172   1.85169
    A2        1.90141   0.00020   0.00000   0.00341   0.00339   1.90480
    A3        1.91815  -0.00283   0.00000  -0.02507  -0.02511   1.89305
    A4        1.93129  -0.00010   0.00000   0.00583   0.00584   1.93713
    A5        1.91969  -0.00187   0.00000  -0.01330  -0.01334   1.90635
    A6        1.95888   0.00253   0.00000   0.00784   0.00788   1.96676
    A7        2.00705   0.00126   0.00000   0.00530   0.00474   2.01179
    A8        2.17217  -0.00444   0.00000  -0.01715  -0.01768   2.15449
    A9        2.10376   0.00320   0.00000   0.01302   0.01245   2.11621
   A10        1.95924  -0.00220   0.00000  -0.00981  -0.00979   1.94945
   A11        1.92470   0.00153   0.00000   0.00803   0.00804   1.93274
   A12        1.92857   0.00209   0.00000   0.01055   0.01057   1.93914
   A13        1.87747   0.00109   0.00000   0.01099   0.01101   1.88848
   A14        1.87695   0.00051   0.00000   0.00576   0.00578   1.88273
   A15        1.89473  -0.00315   0.00000  -0.02642  -0.02640   1.86833
   A16        2.06922  -0.00201   0.00000  -0.01406  -0.01406   2.05516
   A17        2.22595  -0.00214   0.00000  -0.00955  -0.00956   2.21639
   A18        1.98788   0.00415   0.00000   0.02370   0.02370   2.01158
   A19        1.91728   0.00367   0.00000   0.02133   0.02129   1.93857
   A20        1.98087  -0.00246   0.00000  -0.01469  -0.01462   1.96625
   A21        1.91013   0.00241   0.00000   0.01552   0.01547   1.92561
   A22        1.89309  -0.00099   0.00000  -0.00739  -0.00732   1.88578
   A23        1.88700  -0.00314   0.00000  -0.02005  -0.02019   1.86681
   A24        1.87284   0.00031   0.00000   0.00403   0.00408   1.87693
   A25        1.87886   0.00084   0.00000   0.00793   0.00795   1.88681
   A26        1.87921   0.00088   0.00000   0.00952   0.00954   1.88875
   A27        1.96055  -0.00234   0.00000  -0.01070  -0.01068   1.94987
   A28        1.89489  -0.00318   0.00000  -0.02668  -0.02666   1.86822
   A29        1.92339   0.00167   0.00000   0.00806   0.00808   1.93147
   A30        1.92494   0.00202   0.00000   0.01096   0.01097   1.93591
   A31        1.99478   0.00123   0.00000   0.00486   0.00485   1.99963
   A32        2.10561   0.00281   0.00000   0.01112   0.01111   2.11672
   A33        2.18275  -0.00403   0.00000  -0.01591  -0.01592   2.16683
   A34        1.92088   0.00012   0.00000  -0.00033  -0.00032   1.92056
   A35        1.92172   0.00208   0.00000   0.01021   0.01022   1.93194
   A36        1.97932  -0.00188   0.00000  -0.00782  -0.00781   1.97151
   A37        1.89058  -0.00246   0.00000  -0.02255  -0.02254   1.86805
   A38        1.86357   0.00180   0.00000   0.01593   0.01593   1.87950
   A39        1.88488   0.00024   0.00000   0.00368   0.00369   1.88857
   A40        2.06738  -0.00175   0.00000  -0.01211  -0.01251   2.05487
   A41        2.22791  -0.00211   0.00000  -0.00927  -0.00968   2.21823
   A42        1.98775   0.00387   0.00000   0.02221   0.02180   2.00955
   A43        1.94444   0.00338   0.00000   0.01444   0.01448   1.95892
   A44        1.91635  -0.00350   0.00000  -0.02383  -0.02406   1.89229
   A45        1.93087  -0.00166   0.00000  -0.01718  -0.01727   1.91360
   A46        1.88222   0.00154   0.00000   0.02425   0.02438   1.90660
   A47        1.94475  -0.00133   0.00000  -0.00748  -0.00741   1.93735
   A48        1.84167   0.00146   0.00000   0.01003   0.00974   1.85141
    D1        0.64502  -0.00091   0.00000   0.01248   0.01218   0.65720
    D2       -2.47477  -0.00192   0.00000  -0.04978  -0.04956  -2.52432
    D3        2.64810   0.00155   0.00000   0.04400   0.04377   2.69187
    D4       -0.47168   0.00055   0.00000  -0.01826  -0.01797  -0.48966
    D5       -1.48335   0.00087   0.00000   0.03667   0.03643  -1.44693
    D6        1.68005  -0.00014   0.00000  -0.02559  -0.02532   1.65473
    D7        1.04057  -0.00091   0.00000  -0.01820  -0.01811   1.02246
    D8        3.12454   0.00086   0.00000   0.00565   0.00554   3.13007
    D9       -1.13292  -0.00041   0.00000  -0.00637  -0.00624  -1.13916
   D10       -0.96559  -0.00064   0.00000  -0.02278  -0.02278  -0.98837
   D11        1.11838   0.00113   0.00000   0.00107   0.00087   1.11925
   D12       -3.13908  -0.00014   0.00000  -0.01095  -0.01090   3.13320
   D13       -3.12381  -0.00093   0.00000  -0.02612  -0.02606   3.13331
   D14       -1.03985   0.00084   0.00000  -0.00227  -0.00241  -1.04226
   D15        0.98588  -0.00043   0.00000  -0.01429  -0.01418   0.97170
   D16       -3.13127  -0.00076   0.00000  -0.05201  -0.05234   3.09957
   D17       -1.03810   0.00022   0.00000  -0.03907  -0.03940  -1.07751
   D18        1.05675  -0.00137   0.00000  -0.06003  -0.06036   0.99639
   D19       -0.01056   0.00010   0.00000   0.00719   0.00751  -0.00304
   D20        2.08262   0.00108   0.00000   0.02012   0.02045   2.10306
   D21       -2.10572  -0.00051   0.00000  -0.00084  -0.00051  -2.10623
   D22        3.11655   0.00111   0.00000   0.05121   0.05114  -3.11550
   D23       -0.04330   0.00127   0.00000   0.05800   0.05786   0.01456
   D24       -0.00210   0.00009   0.00000  -0.01419  -0.01405  -0.01615
   D25        3.12124   0.00025   0.00000  -0.00740  -0.00733   3.11391
   D26        1.98223   0.00009   0.00000   0.01224   0.01213   1.99436
   D27       -0.14029   0.00039   0.00000   0.01631   0.01630  -0.12399
   D28       -2.23173  -0.00009   0.00000   0.00990   0.00996  -2.22177
   D29       -1.17690   0.00020   0.00000   0.01844   0.01838  -1.15852
   D30        2.98376   0.00049   0.00000   0.02252   0.02255   3.00631
   D31        0.89233   0.00001   0.00000   0.01611   0.01621   0.90853
   D32       -3.13459   0.00016   0.00000   0.00621   0.00625  -3.12834
   D33        0.01680   0.00006   0.00000  -0.00127  -0.00131   0.01549
   D34       -1.03969   0.00081   0.00000   0.01471   0.01475  -1.02494
   D35        2.11170   0.00072   0.00000   0.00723   0.00719   2.11889
   D36        1.05219  -0.00079   0.00000  -0.00631  -0.00626   1.04592
   D37       -2.07961  -0.00089   0.00000  -0.01379  -0.01382  -2.09343
   D38       -0.91776   0.00072   0.00000  -0.00489  -0.00485  -0.92262
   D39        1.16518  -0.00094   0.00000  -0.02656  -0.02653   1.13865
   D40       -3.00391  -0.00041   0.00000  -0.01978  -0.01976  -3.02367
   D41        2.21353   0.00087   0.00000   0.00316   0.00313   2.21667
   D42       -1.98671  -0.00079   0.00000  -0.01851  -0.01854  -2.00525
   D43        0.12738  -0.00026   0.00000  -0.01174  -0.01177   0.11561
   D44        0.00895  -0.00001   0.00000   0.01224   0.01195   0.02090
   D45       -3.11343  -0.00111   0.00000  -0.04457  -0.04430   3.12545
   D46       -3.12173  -0.00016   0.00000   0.00376   0.00350  -3.11823
   D47        0.03907  -0.00126   0.00000  -0.05304  -0.05275  -0.01368
   D48       -1.80926   0.00026   0.00000   0.02734   0.02762  -1.78164
   D49        2.36980   0.00154   0.00000   0.03232   0.03241   2.40221
   D50        0.35641  -0.00040   0.00000   0.01008   0.01026   0.36668
   D51        1.35081  -0.00075   0.00000  -0.02698  -0.02707   1.32374
   D52       -0.75332   0.00052   0.00000  -0.02199  -0.02227  -0.77559
   D53       -2.76671  -0.00141   0.00000  -0.04424  -0.04442  -2.81113
         Item               Value     Threshold  Converged?
 Maximum Force            0.014631     0.002500     NO 
 RMS     Force            0.002416     0.001667     NO 
 Maximum Displacement     0.153399     0.010000     NO 
 RMS     Displacement     0.045502     0.006667     NO 
 Predicted change in Energy=-1.710559D-03
 Lowest energy point so far.  Saving SCF results.
 GradGradGradGradGradGradGradGradGradGradGradGradGradGradGradGradGradGrad

 Leave Link  103 at Tue Jul  6 10:50:35 2021, MaxMem=   524288000 cpu:               0.4 elap:               0.1
 (Enter /opt/gaussian/g16_legacy/l202.exe)
                          Input orientation:                          
 ---------------------------------------------------------------------
 Center     Atomic      Atomic             Coordinates (Angstroms)
 Number     Number       Type             X           Y           Z
[...]
                 (A) (A) (A) (A) (A) (A) (A) (A) (A) (A) (A) (A)
                 (A) (A) (A) (A) (A) (A) (A) (A) (A) (A) (A) (A)
                 (A) (A) (A) (A) (A) (A) (A) (A) (A) (A) (A) (A)
                 (A) (A) (A) (A) (A) (A) (A) (A) (A) (A) (A) (A)
                 (A) (A) (A) (A) (A) (A) (A) (A) (A) (A) (A) (A)
                 (A) (A) (A) (A) (A) (A) (A) (A) (A) (A) (A) (A)
                 (A) (A) (A) (A) (A) (A) (A) (A) (A) (A) (A) (A)
                 (A) (A) (A) (A) (A) (A) (A) (A) (A) (A) (A) (A)
                 (A) (A) (A) (A) (A) (A) (A) (A) (A) (A) (A) (A)
                 (A) (A) (A) (A) (A) (A) (A) (A) (A) (A) (A) (A)
                 (A) (A) (A) (A) (A) (A) (A) (A) (A)
 The electronic state is 1-A.
 Alpha  occ. eigenvalues --  -10.54542 -10.54030 -10.53909 -10.53756 -10.53600
 Alpha  occ. eigenvalues --  -10.53403 -10.53353 -10.53348 -10.53194 -10.53045
 Alpha  occ. eigenvalues --   -0.92194  -0.90138  -0.84460  -0.81586  -0.77904
 Alpha  occ. eigenvalues --   -0.76182  -0.71939  -0.68655  -0.58598  -0.57921
 Alpha  occ. eigenvalues --   -0.54500  -0.51551  -0.50932  -0.49608  -0.48994
 Alpha  occ. eigenvalues --   -0.47692  -0.46289  -0.45527  -0.44399  -0.43480
 Alpha  occ. eigenvalues --   -0.43176  -0.42593  -0.41789  -0.41309  -0.39017
 Alpha  occ. eigenvalues --   -0.38359  -0.36242  -0.28918  -0.27197
 Alpha virt. eigenvalues --    0.06486   0.08350   0.11743   0.14530   0.15312
 Alpha virt. eigenvalues --    0.17087   0.18272   0.18534   0.19658   0.20456
 Alpha virt. eigenvalues --    0.21087   0.22225   0.22294   0.23156   0.23505
 Alpha virt. eigenvalues --    0.24583   0.25118   0.25785   0.27508   0.27597
 Alpha virt. eigenvalues --    0.28378   0.28886   0.29545   0.30776   0.32058
 Alpha virt. eigenvalues --    0.39119   0.40264   0.46528   0.48605   0.53720
 Alpha virt. eigenvalues --    0.55689   0.55797   0.58127   0.59017   0.59474
 Alpha virt. eigenvalues --    0.60184   0.61828   0.62380   0.63594   0.65583
 Alpha virt. eigenvalues --    0.66235   0.68601   0.71351   0.72470   0.73425
 Alpha virt. eigenvalues --    0.74430   0.75507   0.77481   0.78647   0.78985
 Alpha virt. eigenvalues --    0.80358   0.82389   0.82925   0.84784   0.86485
 Alpha virt. eigenvalues --    0.87308   0.88601   0.89257   0.91441   0.92537
 Alpha virt. eigenvalues --    0.93534   0.94488   0.94956   0.95814   0.96232
 Alpha virt. eigenvalues --    0.96336   0.96602   0.98407   0.99309   1.00314
 Alpha virt. eigenvalues --    1.01587   1.03239   1.04747   1.06518   1.07977
 Alpha virt. eigenvalues --    1.09719   1.20373   1.21494   1.24482   1.25800
 Alpha virt. eigenvalues --    1.27702   1.33759   1.35451   1.37120   1.37859
 Alpha virt. eigenvalues --    1.40177   1.41906   1.43969   1.46886   1.48962
 Alpha virt. eigenvalues --    1.51439   1.60823   1.68438   1.69155   1.74263
 Alpha virt. eigenvalues --    1.74636   1.78282   1.78758   1.80615   1.83455
 Alpha virt. eigenvalues --    1.84707   1.84951   1.86745   1.87988   1.89375
 Alpha virt. eigenvalues --    1.90476   1.92640   1.93953   1.97833   2.02607
 Alpha virt. eigenvalues --    2.03418   2.04147   2.06143   2.09524   2.09918
 Alpha virt. eigenvalues --    2.10161   2.10220   2.12443   2.13159   2.13741
 Alpha virt. eigenvalues --    2.15214   2.16364   2.16907   2.17475   2.18856
 Alpha virt. eigenvalues --    2.20060   2.21904   2.22724   2.23008   2.26125
 Alpha virt. eigenvalues --    2.28152   2.31648   2.32742   2.34630   2.35361
 Alpha virt. eigenvalues --    2.38698   2.39420   2.43026   2.43923   2.45365
 Alpha virt. eigenvalues --    2.46309   2.47906   2.50024   2.52988   2.53467
 Alpha virt. eigenvalues --    2.56451   2.60322   2.61668   2.62977   2.63917
 Alpha virt. eigenvalues --    2.66378   2.67906   2.69962   2.71339   2.72904
 Alpha virt. eigenvalues --    2.74531   2.75504   2.76941   2.79960   2.84049
 Alpha virt. eigenvalues --    2.84402   2.86252   2.86907   2.87222   2.89083
 Alpha virt. eigenvalues --    2.90605   2.92145   2.92517   2.94269   3.02935
 Alpha virt. eigenvalues --    3.04687   3.09871   3.10670   3.17217   3.19433
 Alpha virt. eigenvalues --    3.20395   3.23637   3.29556   3.35403   3.39856
 Alpha virt. eigenvalues --    3.40595   3.42033   3.43642   3.44043   3.44674
 Alpha virt. eigenvalues --    3.45022   3.46910   3.48696   3.49277   3.51797
 Alpha virt. eigenvalues --    3.58339   4.19697   4.23055   4.34484   4.41868
 Alpha virt. eigenvalues --    4.48848   4.52212   4.53169   4.66107   4.70284
 Alpha virt. eigenvalues --    4.77020
          Condensed to atoms (all electrons):
               1          2          3          4          5          6
     1  C    5.044168   0.387942   0.382631   0.355880  -0.067995   0.004666
     2  H    0.387942   0.612866  -0.032976  -0.038314  -0.006015   0.000169
     3  H    0.382631  -0.032976   0.598887  -0.028674   0.004463  -0.000174
     4  C    0.355880  -0.038314  -0.028674   4.757269   0.371874  -0.034633
     5  C   -0.067995  -0.006015   0.004463   0.371874   4.998352   0.386349
     6  H    0.004666   0.000169  -0.000174  -0.034633   0.386349   0.572235
     7  H   -0.004103   0.003798   0.000033  -0.031830   0.379445  -0.026716
     8  H    0.000369  -0.000603   0.000040  -0.038920   0.381317  -0.027092
     9  C   -0.050885   0.004032  -0.007458   0.718839  -0.042833  -0.005314
    10  H    0.006061  -0.000178  -0.000019  -0.031690  -0.013794   0.006475
    11  C   -0.013991   0.000301   0.000107  -0.044381   0.006120   0.000075
    12  H    0.000107   0.000014   0.000174   0.000234  -0.000139  -0.000007
    13  H    0.003274  -0.000076   0.002453  -0.008813   0.000101   0.000008
    14  H    0.000484  -0.000014  -0.000176  -0.000446  -0.000145  -0.000005
    15  C   -0.000078  -0.000118   0.000001   0.000002  -0.000000   0.000000
    16  H   -0.000001  -0.000001   0.000002   0.000000  -0.000000  -0.000000
    17  H   -0.000006   0.000003   0.000000   0.000000  -0.000000   0.000000
    18  H    0.000022  -0.000004  -0.000003  -0.000000   0.000000  -0.000000
    19  C   -0.005874   0.002588  -0.000022   0.000152   0.000005  -0.000000
    20  C   -0.000465   0.001077   0.000039  -0.000055  -0.000079   0.000002
    21  H    0.000161  -0.000108  -0.000003  -0.000013   0.000004  -0.000000
    22  H   -0.000022   0.000037  -0.000001   0.000004  -0.000001   0.000000
    23  H   -0.000341   0.000731  -0.000006  -0.000248   0.000304  -0.000004
    24  C   -0.051860  -0.001892  -0.001207   0.006215  -0.000064   0.000002
    25  H    0.000664  -0.000097   0.001655  -0.000093  -0.000001  -0.000000
    26  C    0.350818  -0.044558  -0.039110  -0.044969  -0.002685  -0.000058
    27  H   -0.041247   0.005807  -0.006217  -0.003497  -0.000011   0.000005
    28  H   -0.043772  -0.005167   0.005849  -0.002278   0.001413  -0.000145
               7          8          9         10         11         12
     1  C   -0.004103   0.000369  -0.050885   0.006061  -0.013991   0.000107
     2  H    0.003798  -0.000603   0.004032  -0.000178   0.000301   0.000014
     3  H    0.000033   0.000040  -0.007458  -0.000019   0.000107   0.000174
     4  C   -0.031830  -0.038920   0.718839  -0.031690  -0.044381   0.000234
     5  C    0.379445   0.381317  -0.042833  -0.013794   0.006120  -0.000139
     6  H   -0.026716  -0.027092  -0.005314   0.006475   0.000075  -0.000007
     7  H    0.587404  -0.036800  -0.000669   0.000314  -0.000162   0.000020
     8  H   -0.036800   0.598541  -0.000914   0.000176  -0.000165  -0.000004
     9  C   -0.000669  -0.000914   4.889992   0.376640   0.362374  -0.033306
    10  H    0.000314   0.000176   0.376640   0.612834  -0.053710  -0.001566
    11  C   -0.000162  -0.000165   0.362374  -0.053710   4.974906   0.385634
    12  H    0.000020  -0.000004  -0.033306  -0.001566   0.385634   0.578191
    13  H    0.000001  -0.000003  -0.035227   0.004463   0.389769  -0.028066
    14  H   -0.000005   0.000020  -0.032764  -0.001385   0.385454  -0.033674
    15  C    0.000000  -0.000000  -0.000000   0.000000   0.000000  -0.000000
    16  H   -0.000000  -0.000000   0.000000  -0.000000   0.000000  -0.000000
    17  H    0.000000   0.000000   0.000000   0.000000  -0.000000   0.000000
    18  H   -0.000000   0.000000   0.000000  -0.000000   0.000000  -0.000000
    19  C   -0.000003   0.000033  -0.000003   0.000000  -0.000000   0.000000
    20  C   -0.000007  -0.000169  -0.000001  -0.000000  -0.000000   0.000000
    21  H    0.000000  -0.000004   0.000000  -0.000000   0.000000  -0.000000
    22  H    0.000000  -0.000000   0.000000   0.000000   0.000000   0.000000
    23  H    0.000012   0.001051  -0.000003   0.000000  -0.000000  -0.000000
    24  C    0.000020  -0.000216   0.000161   0.000004  -0.000060   0.000002
    25  H    0.000000   0.000001   0.000000  -0.000000   0.000004  -0.000000
    26  C   -0.000031   0.000981  -0.004572  -0.000104  -0.000167  -0.000010
    27  H    0.000002   0.000006   0.002504  -0.000067   0.001001   0.000017
    28  H    0.000027   0.001924  -0.000012  -0.000008   0.000028  -0.000001
              13         14         15         16         17         18
     1  C    0.003274   0.000484  -0.000078  -0.000001  -0.000006   0.000022
     2  H   -0.000076  -0.000014  -0.000118  -0.000001   0.000003  -0.000004
     3  H    0.002453  -0.000176   0.000001   0.000002   0.000000  -0.000003
     4  C   -0.008813  -0.000446   0.000002   0.000000   0.000000  -0.000000
     5  C    0.000101  -0.000145  -0.000000  -0.000000  -0.000000   0.000000
     6  H    0.000008  -0.000005   0.000000  -0.000000   0.000000  -0.000000
     7  H    0.000001  -0.000005   0.000000  -0.000000   0.000000  -0.000000
     8  H   -0.000003   0.000020  -0.000000  -0.000000   0.000000   0.000000
     9  C   -0.035227  -0.032764  -0.000000   0.000000   0.000000   0.000000
    10  H    0.004463  -0.001385   0.000000  -0.000000   0.000000  -0.000000
    11  C    0.389769   0.385454   0.000000   0.000000  -0.000000   0.000000
    12  H   -0.028066  -0.033674  -0.000000  -0.000000   0.000000  -0.000000
    13  H    0.581515  -0.028901  -0.000000  -0.000000   0.000000  -0.000000
    14  H   -0.028901   0.578953  -0.000000   0.000000  -0.000000   0.000000
    15  C   -0.000000  -0.000000   5.004565   0.385045   0.381530   0.381124
    16  H   -0.000000   0.000000   0.385045   0.569813  -0.026271  -0.026439
    17  H    0.000000  -0.000000   0.381530  -0.026271   0.590434  -0.036786
    18  H   -0.000000   0.000000   0.381124  -0.026439  -0.036786   0.591017
    19  C    0.000001   0.000000   0.369130  -0.033352  -0.035998  -0.035852
    20  C   -0.000000  -0.000000  -0.078030   0.004739  -0.001100  -0.001683
    21  H   -0.000000   0.000000  -0.002702  -0.000016  -0.000759   0.004028
    22  H    0.000000  -0.000000  -0.002686  -0.000038   0.004040  -0.000753
    23  H   -0.000000   0.000000   0.004886  -0.000172  -0.000025  -0.000038
    24  C    0.000060  -0.000009  -0.038524  -0.004969  -0.001396  -0.000615
    25  H    0.000015   0.000000  -0.013983   0.006454   0.000239   0.000232
    26  C   -0.000648   0.000107   0.005754   0.000100  -0.000205  -0.000104
    27  H    0.000651  -0.000040  -0.000162  -0.000010   0.000007  -0.000000
    28  H   -0.000006   0.000003   0.000015   0.000010   0.000017  -0.000009
              19         20         21         22         23         24
     1  C   -0.005874  -0.000465   0.000161  -0.000022  -0.000341  -0.051860
     2  H    0.002588   0.001077  -0.000108   0.000037   0.000731  -0.001892
     3  H   -0.000022   0.000039  -0.000003  -0.000001  -0.000006  -0.001207
     4  C    0.000152  -0.000055  -0.000013   0.000004  -0.000248   0.006215
     5  C    0.000005  -0.000079   0.000004  -0.000001   0.000304  -0.000064
     6  H   -0.000000   0.000002  -0.000000   0.000000  -0.000004   0.000002
     7  H   -0.000003  -0.000007   0.000000   0.000000   0.000012   0.000020
     8  H    0.000033  -0.000169  -0.000004  -0.000000   0.001051  -0.000216
     9  C   -0.000003  -0.000001   0.000000   0.000000  -0.000003   0.000161
    10  H    0.000000  -0.000000  -0.000000   0.000000   0.000000   0.000004
    11  C   -0.000000  -0.000000   0.000000   0.000000  -0.000000  -0.000060
    12  H    0.000000   0.000000  -0.000000   0.000000  -0.000000   0.000002
    13  H    0.000001  -0.000000  -0.000000   0.000000  -0.000000   0.000060
    14  H    0.000000  -0.000000   0.000000  -0.000000   0.000000  -0.000009
    15  C    0.369130  -0.078030  -0.002702  -0.002686   0.004886  -0.038524
    16  H   -0.033352   0.004739  -0.000016  -0.000038  -0.000172  -0.004969
    17  H   -0.035998  -0.001100  -0.000759   0.004040  -0.000025  -0.001396
    18  H   -0.035852  -0.001683   0.004028  -0.000753  -0.000038  -0.000615
    19  C    4.721081   0.379184  -0.034977  -0.035611  -0.026823   0.717771
    20  C    0.379184   5.004459   0.383785   0.383734   0.382286  -0.055279
    21  H   -0.034977   0.383785   0.582722  -0.034310  -0.028167   0.000390
    22  H   -0.035611   0.383734  -0.034310   0.581646  -0.027302   0.000857
    23  H   -0.026823   0.382286  -0.028167  -0.027302   0.581191  -0.010588
    24  C    0.717771  -0.055279   0.000390   0.000857  -0.010588   4.923774
    25  H   -0.034125   0.006424  -0.000169  -0.000153   0.000035   0.377802
    26  C   -0.040442  -0.013591   0.000520   0.000003   0.003179   0.347782
    27  H    0.003299   0.000363  -0.000013   0.000011  -0.000030  -0.028156
    28  H   -0.007573   0.000389  -0.000201   0.000240   0.001622  -0.037001
              25         26         27         28
     1  C    0.000664   0.350818  -0.041247  -0.043772
     2  H   -0.000097  -0.044558   0.005807  -0.005167
     3  H    0.001655  -0.039110  -0.006217   0.005849
     4  C   -0.000093  -0.044969  -0.003497  -0.002278
     5  C   -0.000001  -0.002685  -0.000011   0.001413
     6  H   -0.000000  -0.000058   0.000005  -0.000145
     7  H    0.000000  -0.000031   0.000002   0.000027
     8  H    0.000001   0.000981   0.000006   0.001924
     9  C    0.000000  -0.004572   0.002504  -0.000012
    10  H   -0.000000  -0.000104  -0.000067  -0.000008
    11  C    0.000004  -0.000167   0.001001   0.000028
    12  H   -0.000000  -0.000010   0.000017  -0.000001
    13  H    0.000015  -0.000648   0.000651  -0.000006
    14  H    0.000000   0.000107  -0.000040   0.000003
    15  C   -0.013983   0.005754  -0.000162   0.000015
    16  H    0.006454   0.000100  -0.000010   0.000010
    17  H    0.000239  -0.000205   0.000007   0.000017
    18  H    0.000232  -0.000104  -0.000000  -0.000009
    19  C   -0.034125  -0.040442   0.003299  -0.007573
    20  C    0.006424  -0.013591   0.000363   0.000389
    21  H   -0.000169   0.000520  -0.000013  -0.000201
    22  H   -0.000153   0.000003   0.000011   0.000240
    23  H    0.000035   0.003179  -0.000030   0.001622
    24  C    0.377802   0.347782  -0.028156  -0.037001
    25  H    0.610163  -0.049728  -0.005714   0.004397
    26  C   -0.049728   4.998619   0.386429   0.391921
    27  H   -0.005714   0.386429   0.599711  -0.033542
    28  H    0.004397   0.391921  -0.033542   0.606244
 Mulliken charges:
               1
     1  C   -0.256608
     2  H    0.110757
     3  H    0.119711
     4  C    0.098386
     5  C   -0.395984
     6  H    0.124163
     7  H    0.129250
     8  H    0.120433
     9  C   -0.140581
    10  H    0.095555
    11  C   -0.393135
    12  H    0.132380
    13  H    0.119429
    14  H    0.132545
    15  C   -0.395769
    16  H    0.125105
    17  H    0.126277
    18  H    0.125863
    19  C    0.097409
    20  C   -0.396020
    21  H    0.129830
    22  H    0.130303
    23  H    0.118450
    24  C   -0.143004
    25  H    0.095979
    26  C   -0.245232
    27  H    0.118892
    28  H    0.115614
 Sum of Mulliken charges =   0.00000
 Mulliken charges with hydrogens summed into heavy atoms:
               1
     1  C   -0.026139
     4  C    0.098386
     5  C   -0.022138
     9  C   -0.045026
    11  C   -0.008780
    15  C   -0.018525
    19  C    0.097409
    20  C   -0.017438
    24  C   -0.047025
    26  C   -0.010725
 Electronic spatial extent (au):  <R**2>=           2433.0617
 Charge=             -0.0000 electrons
 Dipole moment (field-independent basis, Debye):
    X=              0.3314    Y=              0.1539    Z=              0.0704  Tot=              0.3721
 Quadrupole moment (field-independent basis, Debye-Ang):
   XX=            -62.3629   YY=            -62.6715   ZZ=            -66.4997
   XY=              1.2694   XZ=              1.2306   YZ=             -0.2298
 Traceless Quadrupole moment (field-independent basis, Debye-Ang):
   XX=              1.4818   YY=              1.1732   ZZ=             -2.6550
   XY=              1.2694   XZ=              1.2306   YZ=             -0.2298
 Octapole moment (field-independent basis, Debye-Ang**2):
  XXX=              2.9195  YYY=             -2.9858  ZZZ=              1.2663  XYY=             -1.0451
  XXY=              0.6151  XXZ=             -1.7577  XZZ=              1.3287  YZZ=              1.4041
  YYZ=              0.3507  XYZ=             -0.1893
 Hexadecapole moment (field-independent basis, Debye-Ang**3):
 XXXX=          -2506.3836 YYYY=           -636.8624 ZZZZ=           -161.4558 XXXY=             15.5148
 XXXZ=             11.2695 YYYX=             -7.0452 YYYZ=              0.8986 ZZZX=              4.7854
 ZZZY=              1.6543 XXYY=           -524.1112 XXZZ=           -461.3165 YYZZ=           -129.5316
 XXYZ=             -5.5859 YYXZ=              1.6377 ZZXY=              8.4547
 N-N= 5.184516617877D+02 E-N=-1.941959994736D+03  KE= 3.881379220866D+02
 No NMR shielding tensors so no spin-rotation constants.
 Leave Link  601 at Tue Jul  6 11:09:03 2021, MaxMem=   524288000 cpu:               1.2 elap:               0.2
 (Enter /opt/gaussian/g16_legacy/l9999.exe)
 1\1\GINC-TRUENO91\FOpt\RM062X\6-31G(d,p)\C10H18\JRAMOS\06-Jul-2021\0\\
 #p opt=loose m062x/6-31g(d,p)\\Conformer number 078. Energy MM = 23.28
 7 kcal/mol\\0,1\C,-0.768399134,0.1618493535,0.6256941568\H,-0.16157215
 52,0.9494708571,1.0895035757\H,-1.047744299,-0.5238087993,1.4318437812
 \C,-1.9847057021,0.7774341936,-0.0267925113\C,-1.7890680384,2.18040539
 96,-0.5385123358\H,-2.6635849867,2.5403421716,-1.085170424\H,-1.589326
 9546,2.8715711389,0.2884311455\H,-0.9221458659,2.2340094979,-1.2088574
 728\C,-3.1406701389,0.1292905678,-0.1982626384\H,-3.946112094,0.656524
 4967,-0.7095823527\C,-3.4591403763,-1.2730228166,0.2307500456\H,-4.318
 1274297,-1.2908385948,0.9101549393\H,-2.6203339033,-1.7573658142,0.734
 5110961\H,-3.7278695375,-1.8894960717,-0.6339886765\C,3.7037641441,-1.
 1240228214,1.0637987073\H,3.4899928026,-2.1528212481,1.3615266311\H,4.
 5701332051,-1.1330426493,0.392017208\H,4.003530543,-0.5619444449,1.956
 0006266\C,2.5179758037,-0.4793303841,0.3971889961\C,2.7413979479,0.943
 0623169,-0.044110992\H,3.0286490809,1.5636814099,0.8125487433\H,3.5671
 509347,0.9991144472,-0.7628897348\H,1.8581105504,1.3920083358,-0.50166
 9076\C,1.3679016669,-1.1392519048,0.2280051875\H,1.3087019707,-2.15827
 18534,0.6097702981\C,0.1117020804,-0.5906587319,-0.3941102013\H,-0.478
 9661731,-1.4069772971,-0.8240566731\H,0.3486560581,0.0817892451,-1.226
 1420495\\Version=EM64L-G16RevA.03\State=1-A\HF=-391.6902065\RMSD=3.089
 e-09\RMSF=1.106e-05\Dipole=0.1347644,0.050909,0.0260896\Quadrupole=1.1
 92558,0.3634379,-1.5559959,1.1545896,0.8629983,-0.7916914\PG=C01 [X(C1
 0H18)]\\@


 AND THIS OUR LIFE, EXEMPT FROM PUBLIC HAUNT,
 FINDS TONGUES IN TREES, BOOKS IN THE RUNNING BROOKS,
 SERMONS IN STONES, AND GOOD IN EVERYTHING.
 I WOULD NOT CHANGE IT. -- W. SHAKESPEARE
 AS YOU LIKE IT, ACT II, SCENE 1.
 Job cpu time:       0 days  1 hours 59 minutes 55.3 seconds.
 Elapsed time:       0 days  0 hours 20 minutes  5.2 seconds.
 File lengths (MBytes):  RWF=     42 Int=      0 D2E=      0 Chk=      6 Scr=      1
 Normal termination of Gaussian 16 at Tue Jul  6 11:09:03 2021.
