 Entering Gaussian System, Link 0=/opt/gaussian/g16_legacy/g16
 Input=IsoP_rdkit_03_038_gaussian.com
 Output=IsoP_rdkit_03_038_gaussian.log
 Initial command:
 /opt/gaussian/g16_legacy/l1.exe "/scratch-local/jramos/2641330/Gau-6033.inp" -scrdir="/scratch-local/jramos/2641330/"
 Entering Link 1 = /opt/gaussian/g16_legacy/l1.exe PID=      6035.
  
 Copyright (c) 1988,1990,1992,1993,1995,1998,2003,2009,2016,
            Gaussian, Inc.  All Rights Reserved.
  
 This is part of the Gaussian(R) 16 program.  It is based on
 the Gaussian(R) 09 system (copyright 2009, Gaussian, Inc.),
 the Gaussian(R) 03 system (copyright 2003, Gaussian, Inc.),
 the Gaussian(R) 98 system (copyright 1998, Gaussian, Inc.),
 the Gaussian(R) 94 system (copyright 1995, Gaussian, Inc.),
 the Gaussian 92(TM) system (copyright 1992, Gaussian, Inc.),
 the Gaussian 90(TM) system (copyright 1990, Gaussian, Inc.),
 the Gaussian 88(TM) system (copyright 1988, Gaussian, Inc.),
 the Gaussian 86(TM) system (copyright 1986, Carnegie Mellon
 University), and the Gaussian 82(TM) system (copyright 1983,
 Carnegie Mellon University). Gaussian is a federally registered
 trademark of Gaussian, Inc.
  
 This software contains proprietary and confidential information,
 including trade secrets, belonging to Gaussian, Inc.
  
 This software is provided under written license and may be
 used, copied, transmitted, or stored only in accord with that
 written license.
  
 The following legend is applicable only to US Government
 contracts under FAR:
  
                    RESTRICTED RIGHTS LEGEND
  
 Use, reproduction and disclosure by the US Government is
 subject to restrictions as set forth in subparagraphs (a)
 and (c) of the Commercial Computer Software - Restricted
 Rights clause in FAR 52.227-19.
  
 Gaussian, Inc.
 340 Quinnipiac St., Bldg. 40, Wallingford CT 06492
  
  
 ---------------------------------------------------------------
 Warning -- This program may not be used in any manner that
 competes with the business of Gaussian, Inc. or will provide
 assistance to any competitor of Gaussian, Inc.  The licensee
 of this program is prohibited from giving any competitor of
 Gaussian, Inc. access to this program.  By using this program,
 the user acknowledges that Gaussian, Inc. is engaged in the
 business of creating and licensing software in the field of
 computational chemistry and represents and warrants to the
 licensee that it is not a competitor of Gaussian, Inc. and that
 it will not use this program in any manner prohibited above.
 ---------------------------------------------------------------
  

 Cite this work as:
 Gaussian 16, Revision A.03,
 M. J. Frisch, G. W. Trucks, H. B. Schlegel, G. E. Scuseria, 
 M. A. Robb, J. R. Cheeseman, G. Scalmani, V. Barone, 
 G. A. Petersson, H. Nakatsuji, X. Li, M. Caricato, A. V. Marenich, 
 J. Bloino, B. G. Janesko, R. Gomperts, B. Mennucci, H. P. Hratchian, 
 J. V. Ortiz, A. F. Izmaylov, J. L. Sonnenberg, D. Williams-Young, 
 F. Ding, F. Lipparini, F. Egidi, J. Goings, B. Peng, A. Petrone, 
 T. Henderson, D. Ranasinghe, V. G. Zakrzewski, J. Gao, N. Rega, 
 G. Zheng, W. Liang, M. Hada, M. Ehara, K. Toyota, R. Fukuda, 
 J. Hasegawa, M. Ishida, T. Nakajima, Y. Honda, O. Kitao, H. Nakai, 
 T. Vreven, K. Throssell, J. A. Montgomery, Jr., J. E. Peralta, 
 F. Ogliaro, M. J. Bearpark, J. J. Heyd, E. N. Brothers, K. N. Kudin, 
 V. N. Staroverov, T. A. Keith, R. Kobayashi, J. Normand, 
 K. Raghavachari, A. P. Rendell, J. C. Burant, S. S. Iyengar, 
 J. Tomasi, M. Cossi, J. M. Millam, M. Klene, C. Adamo, R. Cammi, 
 J. W. Ochterski, R. L. Martin, K. Morokuma, O. Farkas, 
 J. B. Foresman, and D. J. Fox, Gaussian, Inc., Wallingford CT, 2016.
 
 ******************************************
 Gaussian 16:  EM64L-G16RevA.03 25-Dec-2016
                 6-Jul-2021 
 ******************************************
 %chk=IsoP_rdkit_03_038_gaussian.chk
 %nproc=6
 Will use up to    6 processors via shared memory.
 %mem=4000Mb
 -----------------------------
 #p opt=loose m062x/6-31g(d,p)
 -----------------------------
 1/7=-1,18=20,19=15,26=3,38=1/1,3;
 2/9=110,12=2,17=6,18=5,40=1/2;
 3/5=1,6=6,7=101,11=2,25=1,30=1,71=1,74=-55/1,2,3;
 4//1;
 5/5=2,38=5/2;
 6/7=2,8=2,9=2,10=2,28=1/1;
 7//1,2,3,16;
 1/7=-1,18=20,19=15,26=3/3(2);
 2/9=110/2;
 99//99;
 2/9=110/2;
 3/5=1,6=6,7=101,11=2,25=1,30=1,71=1,74=-55/1,2,3;
 4/5=5,16=3,69=1/1;
 5/5=2,38=5/2;
 7//1,2,3,16;
 1/7=-1,18=20,19=15,26=3/3(-5);
 2/9=110/2;
 6/7=2,8=2,9=2,10=2,19=2,28=1/1;
 99/9=1/99;
 Leave Link    1 at Tue Jul  6 10:48:56 2021, MaxMem=   524288000 cpu:               0.4 elap:               0.1
 (Enter /opt/gaussian/g16_legacy/l101.exe)
 -------------------------------------------------
 Conformer number 038. Energy MM = 24.629 kcal/mol
 -------------------------------------------------
 Symbolic Z-matrix:
 Charge =  0 Multiplicity = 1
 C                    -0.97      1.1717   -1.0217 
 H                    -1.6522    2.0313   -1.0729 
 H                    -0.7931    0.8842   -2.0661 
 C                    -1.6596    0.0322   -0.2894 
 C                    -1.0765   -1.338    -0.5078 
 H                    -0.2482   -1.5183    0.1824 
 H                    -1.8146   -2.1333   -0.3713 
 H                    -0.7048   -1.441    -1.533 
 C                    -2.7535    0.2722    0.4618 
 H                    -3.1205    1.2954    0.536 
 C                    -3.5451   -0.713     1.2622 
 H                    -4.5375   -0.8405    0.8195 
 H                    -3.0698   -1.6933    1.339 
 H                    -3.6733   -0.3343    2.2815 
 C                     3.4644   -0.7117   -0.2725 
 H                     3.3315   -1.7677   -0.0152 
 H                     4.3886   -0.3531    0.1925 
 H                     3.5926   -0.6482   -1.3582 
 C                     2.2889    0.0958    0.2142 
 C                     2.0799    0.0403    1.7025 
 H                     1.9942   -1.0015    2.0301 
 H                     1.1769    0.5537    2.0377 
 H                     2.9324    0.494     2.2185 
 C                     1.5212    0.7801   -0.6566 
 H                     1.7786    0.7329   -1.7151 
 C                     0.331     1.6554   -0.362 
 H                     0.5656    2.6483   -0.768 
 H                     0.1726    1.8063    0.7094 
 
 ITRead=  0  0  0  0  0  0  0  0  0  0  0  0  0  0  0  0  0  0  0  0
 ITRead=  0  0  0  0  0  0  0  0
 MicOpt= -1 -1 -1 -1 -1 -1 -1 -1 -1 -1 -1 -1 -1 -1 -1 -1 -1 -1 -1 -1
 MicOpt= -1 -1 -1 -1 -1 -1 -1 -1
 NAtoms=     28 NQM=       28 NQMF=       0 NMMI=      0 NMMIF=      0
                NMic=       0 NMicF=      0.
                    Isotopes and Nuclear Properties:
 (Nuclear quadrupole moments (NQMom) in fm**2, nuclear magnetic moments (NMagM)
  in nuclear magnetons)

  Atom         1           2           3           4           5           6           7           8           9          10
 IAtWgt=          12           1           1          12          12           1           1           1          12           1
 AtmWgt=  12.0000000   1.0078250   1.0078250  12.0000000  12.0000000   1.0078250   1.0078250   1.0078250  12.0000000   1.0078250
 NucSpn=           0           1           1           0           0           1           1           1           0           1
 AtZEff=  -0.0000000  -0.0000000  -0.0000000  -0.0000000  -0.0000000  -0.0000000  -0.0000000  -0.0000000  -0.0000000  -0.0000000
 NQMom=    0.0000000   0.0000000   0.0000000   0.0000000   0.0000000   0.0000000   0.0000000   0.0000000   0.0000000   0.0000000
 NMagM=    0.0000000   2.7928460   2.7928460   0.0000000   0.0000000   2.7928460   2.7928460   2.7928460   0.0000000   2.7928460
 AtZNuc=   6.0000000   1.0000000   1.0000000   6.0000000   6.0000000   1.0000000   1.0000000   1.0000000   6.0000000   1.0000000

  Atom        11          12          13          14          15          16          17          18          19          20
 IAtWgt=          12           1           1           1          12           1           1           1          12          12
 AtmWgt=  12.0000000   1.0078250   1.0078250   1.0078250  12.0000000   1.0078250   1.0078250   1.0078250  12.0000000  12.0000000
 NucSpn=           0           1           1           1           0           1           1           1           0           0
 AtZEff=  -0.0000000  -0.0000000  -0.0000000  -0.0000000  -0.0000000  -0.0000000  -0.0000000  -0.0000000  -0.0000000  -0.0000000
 NQMom=    0.0000000   0.0000000   0.0000000   0.0000000   0.0000000   0.0000000   0.0000000   0.0000000   0.0000000   0.0000000
 NMagM=    0.0000000   2.7928460   2.7928460   2.7928460   0.0000000   2.7928460   2.7928460   2.7928460   0.0000000   0.0000000
 AtZNuc=   6.0000000   1.0000000   1.0000000   1.0000000   6.0000000   1.0000000   1.0000000   1.0000000   6.0000000   6.0000000

  Atom        21          22          23          24          25          26          27          28
 IAtWgt=           1           1           1          12           1          12           1           1
 AtmWgt=   1.0078250   1.0078250   1.0078250  12.0000000   1.0078250  12.0000000   1.0078250   1.0078250
 NucSpn=           1           1           1           0           1           0           1           1
 AtZEff=  -0.0000000  -0.0000000  -0.0000000  -0.0000000  -0.0000000  -0.0000000  -0.0000000  -0.0000000
 NQMom=    0.0000000   0.0000000   0.0000000   0.0000000   0.0000000   0.0000000   0.0000000   0.0000000
 NMagM=    2.7928460   2.7928460   2.7928460   0.0000000   2.7928460   0.0000000   2.7928460   2.7928460
 AtZNuc=   1.0000000   1.0000000   1.0000000   6.0000000   1.0000000   6.0000000   1.0000000   1.0000000
 Leave Link  101 at Tue Jul  6 10:48:56 2021, MaxMem=   524288000 cpu:               1.8 elap:               0.4
 (Enter /opt/gaussian/g16_legacy/l103.exe)

 GradGradGradGradGradGradGradGradGradGradGradGradGradGradGradGradGradGrad
 Berny optimization.
 Initialization pass.
                           ----------------------------
                           !    Initial Parameters    !
                           ! (Angstroms and Degrees)  !
 --------------------------                            --------------------------
 ! Name  Definition              Value          Derivative Info.                !
 --------------------------------------------------------------------------------
 ! R1    R(1,2)                  1.0986         estimate D2E/DX2                !
 ! R2    R(1,3)                  1.0976         estimate D2E/DX2                !
 ! R3    R(1,4)                  1.52           estimate D2E/DX2                !
 ! R4    R(1,26)                 1.5368         estimate D2E/DX2                !
 ! R5    R(4,5)                  1.505          estimate D2E/DX2                !
 ! R6    R(4,9)                  1.3485         estimate D2E/DX2                !
 ! R7    R(5,6)                  1.0931         estimate D2E/DX2                !
 ! R8    R(5,7)                  1.0936         estimate D2E/DX2                !
 ! R9    R(5,8)                  1.0954         estimate D2E/DX2                !
 ! R10   R(9,10)                 1.0896         estimate D2E/DX2                !
 ! R11   R(9,11)                 1.496          estimate D2E/DX2                !
 ! R12   R(11,12)                1.0941         estimate D2E/DX2                !
 ! R13   R(11,13)                1.0922         estimate D2E/DX2                !
 ! R14   R(11,14)                1.0949         estimate D2E/DX2                !
 ! R15   R(15,16)                1.095          estimate D2E/DX2                !
 ! R16   R(15,17)                1.095          estimate D2E/DX2                !
 ! R17   R(15,18)                1.0951         estimate D2E/DX2                !
 ! R18   R(15,19)                1.5069         estimate D2E/DX2                !
 ! R19   R(19,20)                1.5039         estimate D2E/DX2                !
 ! R20   R(19,24)                1.3476         estimate D2E/DX2                !
 ! R21   R(20,21)                1.0955         estimate D2E/DX2                !
 ! R22   R(20,22)                1.0915         estimate D2E/DX2                !
 ! R23   R(20,23)                1.0949         estimate D2E/DX2                !
 ! R24   R(24,25)                1.0904         estimate D2E/DX2                !
 ! R25   R(24,26)                1.5065         estimate D2E/DX2                !
 ! R26   R(26,27)                1.0981         estimate D2E/DX2                !
 ! R27   R(26,28)                1.0935         estimate D2E/DX2                !
 ! A1    A(2,1,3)              105.1108         estimate D2E/DX2                !
 ! A2    A(2,1,4)              109.106          estimate D2E/DX2                !
 ! A3    A(2,1,26)             107.423          estimate D2E/DX2                !
 ! A4    A(3,1,4)              109.5841         estimate D2E/DX2                !
 ! A5    A(3,1,26)             110.7606         estimate D2E/DX2                !
 ! A6    A(4,1,26)             114.4077         estimate D2E/DX2                !
 ! A7    A(1,4,5)              115.9021         estimate D2E/DX2                !
 ! A8    A(1,4,9)              120.198          estimate D2E/DX2                !
 ! A9    A(5,4,9)              123.8582         estimate D2E/DX2                !
 ! A10   A(4,5,6)              110.616          estimate D2E/DX2                !
 ! A11   A(4,5,7)              112.4875         estimate D2E/DX2                !
 ! A12   A(4,5,8)              110.6647         estimate D2E/DX2                !
 ! A13   A(6,5,7)              108.2194         estimate D2E/DX2                !
 ! A14   A(6,5,8)              108.561          estimate D2E/DX2                !
 ! A15   A(7,5,8)              106.1095         estimate D2E/DX2                !
 ! A16   A(4,9,10)             118.5747         estimate D2E/DX2                !
 ! A17   A(4,9,11)             127.5956         estimate D2E/DX2                !
 ! A18   A(10,9,11)            113.8153         estimate D2E/DX2                !
 ! A19   A(9,11,12)            109.8904         estimate D2E/DX2                !
 ! A20   A(9,11,13)            113.4821         estimate D2E/DX2                !
 ! A21   A(9,11,14)            109.4066         estimate D2E/DX2                !
 ! A22   A(12,11,13)           108.5777         estimate D2E/DX2                !
 ! A23   A(12,11,14)           108.1063         estimate D2E/DX2                !
 ! A24   A(13,11,14)           107.2141         estimate D2E/DX2                !
 ! A25   A(16,15,17)           108.5716         estimate D2E/DX2                !
 ! A26   A(16,15,18)           107.6436         estimate D2E/DX2                !
 ! A27   A(16,15,19)           110.256          estimate D2E/DX2                !
 ! A28   A(17,15,18)           107.6516         estimate D2E/DX2                !
 ! A29   A(17,15,19)           110.2284         estimate D2E/DX2                !
 ! A30   A(18,15,19)           112.3624         estimate D2E/DX2                !
 ! A31   A(15,19,20)           114.0954         estimate D2E/DX2                !
 ! A32   A(15,19,24)           120.5184         estimate D2E/DX2                !
 ! A33   A(20,19,24)           125.3844         estimate D2E/DX2                !
 ! A34   A(19,20,21)           109.9936         estimate D2E/DX2                !
 ! A35   A(19,20,22)           113.6736         estimate D2E/DX2                !
 ! A36   A(19,20,23)           110.0522         estimate D2E/DX2                !
 ! A37   A(21,20,22)           106.9038         estimate D2E/DX2                !
 ! A38   A(21,20,23)           108.3035         estimate D2E/DX2                !
 ! A39   A(22,20,23)           107.7285         estimate D2E/DX2                !
 ! A40   A(19,24,25)           118.0894         estimate D2E/DX2                !
 ! A41   A(19,24,26)           128.2259         estimate D2E/DX2                !
 ! A42   A(25,24,26)           113.6716         estimate D2E/DX2                !
 ! A43   A(1,26,24)            113.7037         estimate D2E/DX2                !
 ! A44   A(1,26,27)            107.8636         estimate D2E/DX2                !
 ! A45   A(1,26,28)            109.9618         estimate D2E/DX2                !
 ! A46   A(24,26,27)           106.5158         estimate D2E/DX2                !
 ! A47   A(24,26,28)           112.7196         estimate D2E/DX2                !
 ! A48   A(27,26,28)           105.5713         estimate D2E/DX2                !
 ! D1    D(2,1,4,5)            160.8969         estimate D2E/DX2                !
 ! D2    D(2,1,4,9)            -16.843          estimate D2E/DX2                !
 ! D3    D(3,1,4,5)             46.3107         estimate D2E/DX2                !
 ! D4    D(3,1,4,9)           -131.4292         estimate D2E/DX2                !
 ! D5    D(26,1,4,5)           -78.7606         estimate D2E/DX2                !
 ! D6    D(26,1,4,9)           103.4996         estimate D2E/DX2                !
 ! D7    D(2,1,26,24)         -159.0233         estimate D2E/DX2                !
 ! D8    D(2,1,26,27)          -41.1384         estimate D2E/DX2                !
 ! D9    D(2,1,26,28)           73.5146         estimate D2E/DX2                !
 ! D10   D(3,1,26,24)          -44.7457         estimate D2E/DX2                !
 ! D11   D(3,1,26,27)           73.1392         estimate D2E/DX2                !
 ! D12   D(3,1,26,28)         -172.2078         estimate D2E/DX2                !
 ! D13   D(4,1,26,24)           79.7027         estimate D2E/DX2                !
 ! D14   D(4,1,26,27)         -162.4124         estimate D2E/DX2                !
 ! D15   D(4,1,26,28)          -47.7594         estimate D2E/DX2                !
 ! D16   D(1,4,5,6)             85.2487         estimate D2E/DX2                !
 ! D17   D(1,4,5,7)           -153.6022         estimate D2E/DX2                !
 ! D18   D(1,4,5,8)            -35.1068         estimate D2E/DX2                !
 ! D19   D(9,4,5,6)            -97.1037         estimate D2E/DX2                !
 ! D20   D(9,4,5,7)             24.0454         estimate D2E/DX2                !
 ! D21   D(9,4,5,8)            142.5407         estimate D2E/DX2                !
 ! D22   D(1,4,9,10)            -0.5314         estimate D2E/DX2                !
 ! D23   D(1,4,9,11)          -179.0561         estimate D2E/DX2                !
 ! D24   D(5,4,9,10)          -178.083          estimate D2E/DX2                !
 ! D25   D(5,4,9,11)             3.3923         estimate D2E/DX2                !
 ! D26   D(4,9,11,12)         -112.246          estimate D2E/DX2                !
 ! D27   D(4,9,11,13)            9.5285         estimate D2E/DX2                !
 ! D28   D(4,9,11,14)          129.2081         estimate D2E/DX2                !
 ! D29   D(10,9,11,12)          69.1703         estimate D2E/DX2                !
 ! D30   D(10,9,11,13)        -169.0552         estimate D2E/DX2                !
 ! D31   D(10,9,11,14)         -49.3757         estimate D2E/DX2                !
 ! D32   D(16,15,19,20)         60.144          estimate D2E/DX2                !
 ! D33   D(16,15,19,24)       -119.3893         estimate D2E/DX2                !
 ! D34   D(17,15,19,20)        -59.7097         estimate D2E/DX2                !
 ! D35   D(17,15,19,24)        120.757          estimate D2E/DX2                !
 ! D36   D(18,15,19,20)       -179.7783         estimate D2E/DX2                !
 ! D37   D(18,15,19,24)          0.6883         estimate D2E/DX2                !
 ! D38   D(15,19,20,21)        -55.0362         estimate D2E/DX2                !
 ! D39   D(15,19,20,22)       -174.8618         estimate D2E/DX2                !
 ! D40   D(15,19,20,23)         64.2098         estimate D2E/DX2                !
 ! D41   D(24,19,20,21)        124.4707         estimate D2E/DX2                !
 ! D42   D(24,19,20,22)          4.6451         estimate D2E/DX2                !
 ! D43   D(24,19,20,23)       -116.2833         estimate D2E/DX2                !
 ! D44   D(15,19,24,25)         -0.1874         estimate D2E/DX2                !
 ! D45   D(15,19,24,26)       -178.7804         estimate D2E/DX2                !
 ! D46   D(20,19,24,25)       -179.6648         estimate D2E/DX2                !
 ! D47   D(20,19,24,26)          1.7421         estimate D2E/DX2                !
 ! D48   D(19,24,26,1)        -119.2165         estimate D2E/DX2                !
 ! D49   D(19,24,26,27)        122.1232         estimate D2E/DX2                !
 ! D50   D(19,24,26,28)          6.8019         estimate D2E/DX2                !
 ! D51   D(25,24,26,1)          62.1387         estimate D2E/DX2                !
 ! D52   D(25,24,26,27)        -56.5215         estimate D2E/DX2                !
 ! D53   D(25,24,26,28)       -171.8428         estimate D2E/DX2                !
 --------------------------------------------------------------------------------
 Trust Radius=3.00D-01 FncErr=1.00D-07 GrdErr=1.00D-06 EigMax=2.50D+02 EigMin=1.00D-04
 Number of steps in this run=    138 maximum allowed number of steps=    168.
 GradGradGradGradGradGradGradGradGradGradGradGradGradGradGradGradGradGrad

 Leave Link  103 at Tue Jul  6 10:48:56 2021, MaxMem=   524288000 cpu:               0.5 elap:               0.2
 (Enter /opt/gaussian/g16_legacy/l202.exe)
                          Input orientation:                          
 ---------------------------------------------------------------------
 Center     Atomic      Atomic             Coordinates (Angstroms)
 Number     Number       Type             X           Y           Z
 ---------------------------------------------------------------------
      1          6           0       -0.970000    1.171700   -1.021700
      2          1           0       -1.652200    2.031300   -1.072900
      3          1           0       -0.793100    0.884200   -2.066100
      4          6           0       -1.659600    0.032200   -0.289400
      5          6           0       -1.076500   -1.338000   -0.507800
      6          1           0       -0.248200   -1.518300    0.182400
      7          1           0       -1.814600   -2.133300   -0.371300
      8          1           0       -0.704800   -1.441000   -1.533000
      9          6           0       -2.753500    0.272200    0.461800
     10          1           0       -3.120500    1.295400    0.536000
     11          6           0       -3.545100   -0.713000    1.262200
     12          1           0       -4.537500   -0.840500    0.819500
     13          1           0       -3.069800   -1.693300    1.339000
     14          1           0       -3.673300   -0.334300    2.281500
     15          6           0        3.464400   -0.711700   -0.272500
     16          1           0        3.331500   -1.767700   -0.015200
     17          1           0        4.388600   -0.353100    0.192500
     18          1           0        3.592600   -0.648200   -1.358200
     19          6           0        2.288900    0.095800    0.214200
     20          6           0        2.079900    0.040300    1.702500
     21          1           0        1.994200   -1.001500    2.030100
     22          1           0        1.176900    0.553700    2.037700
     23          1           0        2.932400    0.494000    2.218500
     24          6           0        1.521200    0.780100   -0.656600
     25          1           0        1.778600    0.732900   -1.715100
     26          6           0        0.331000    1.655400   -0.362000
     27          1           0        0.565600    2.648300   -0.768000
     28          1           0        0.172600    1.806300    0.709400
 ---------------------------------------------------------------------
                    Distance matrix (angstroms):
                    1          2          3          4          5
     1  C    0.000000
     2  H    1.098604   0.000000
     3  H    1.097598   1.743656   0.000000
     4  C    1.519958   2.147167   2.152531   0.000000
     5  C    2.563987   3.464528   2.728880   1.505042   0.000000
     6  H    3.034296   4.018290   3.335367   2.149115   1.093145
     7  H    3.472664   4.226406   3.608478   2.172584   1.093584
     8  H    2.675436   3.628516   2.387163   2.151395   1.095356
     9  C    2.488121   2.581201   3.256991   1.348525   2.518967
    10  H    2.658267   2.299133   3.515224   2.100283   3.493172
    11  C    3.924211   4.070251   4.604577   2.553017   3.101211
    12  H    4.490659   4.489250   5.032078   3.205241   3.740020
    13  H    4.265008   4.658272   4.839584   2.760018   2.740466
    14  H    4.526256   4.575249   5.355550   3.286158   3.940936
    15  C    4.875695   5.860400   4.887761   5.177746   4.589923
    16  H    5.306224   6.355187   5.315175   5.312806   4.456205
    17  H    5.702095   6.616484   5.786381   6.079589   5.597121
    18  H    4.923676   5.896528   4.699334   5.402859   4.795779
    19  C    3.647662   4.575484   3.914086   3.980994   3.728670
    20  C    4.243020   5.059199   4.813382   4.236932   4.092432
    21  H    4.777318   5.667691   5.301298   4.449592   3.997920
    22  H    3.788276   4.456786   4.564132   3.705818   3.890490
    23  H    5.117314   5.849373   5.691169   5.252550   5.182684
    24  C    2.548083   3.436463   2.711736   3.288112   3.355076
    25  H    2.868475   3.724064   2.599949   3.787456   3.727975
    26  C    1.536805   2.140038   2.182271   2.569540   3.311006
    27  H    2.145409   2.322130   2.577436   3.467644   4.319118
    28  H    2.169092   2.560686   3.079975   2.738976   3.595615
                    6          7          8          9         10
     6  H    0.000000
     7  H    1.771558   0.000000
     8  H    1.776811   1.749423   0.000000
     9  C    3.092003   2.713304   3.333385   0.000000
    10  H    4.036341   3.779491   4.195742   1.089556   0.000000
    11  C    3.561464   2.771318   4.050979   1.495958   2.177458
    12  H    4.389009   3.240914   4.537008   2.132770   2.578823
    13  H    3.054468   2.166623   3.728976   2.175481   3.095110
    14  H    4.188005   3.705201   4.958547   2.127248   2.451179
    15  C    3.826348   5.467957   4.416216   6.337944   6.931308
    16  H    3.593814   5.171346   4.324600   6.435522   7.163428
    17  H    4.780973   6.478169   5.486675   7.174477   7.695591
    18  H    4.228743   5.693620   4.373412   6.665772   7.240945
    19  C    3.007192   4.706422   3.791662   5.051556   5.550153
    20  C    3.187474   4.918568   4.518547   4.995485   5.475414
    21  H    2.951175   4.642699   4.491486   5.159703   5.802434
    22  H    3.125097   4.687464   4.502169   4.243907   4.612252
    23  H    4.279167   6.011970   5.572002   5.955220   6.333297
    24  C    3.019493   4.438114   3.264420   4.447678   4.820084
    25  H    3.574399   4.788735   3.305492   5.048868   5.420797
    26  C    3.271730   4.354071   3.468691   3.479372   3.584530
    27  H    4.350412   5.355971   4.349887   4.263178   4.137401
    28  H    3.392310   4.542832   4.042666   3.313130   3.337004
                   11         12         13         14         15
    11  C    0.000000
    12  H    1.094119   0.000000
    13  H    1.092152   1.775188   0.000000
    14  H    1.094907   1.772152   1.760511   0.000000
    15  C    7.175542   8.077095   6.801194   7.590264   0.000000
    16  H    7.073314   7.967282   6.543396   7.509773   1.094989
    17  H    8.013575   8.961359   7.664093   8.328175   1.094972
    18  H    7.603779   8.418900   7.263243   8.132604   1.095085
    19  C    5.982309   6.916848   5.760358   6.325073   1.506895
    20  C    5.692271   6.733905   5.445816   5.794383   2.526454
    21  H    5.599710   6.644891   5.157548   5.712172   2.747260
    22  H    4.950072   6.006844   4.855065   4.936843   3.488684
    23  H    6.658030   7.716055   6.448582   6.657727   2.818123
    24  C    5.619478   6.443063   5.583673   6.071009   2.479723
    25  H    6.268710   6.985192   6.222616   6.843606   2.647619
    26  C    4.824054   5.597120   5.066817   5.194364   3.928023
    27  H    5.684884   6.382281   6.041943   6.013620   4.465217
    28  H    4.524793   5.403954   4.812147   4.673822   4.259155
                   16         17         18         19         20
    16  H    0.000000
    17  H    1.778115   0.000000
    18  H    1.767796   1.767872   0.000000
    19  C    2.147620   2.147259   2.173847   0.000000
    20  C    2.790315   2.786568   3.482841   1.503928   0.000000
    21  H    2.560993   3.087126   3.763015   2.142057   1.095451
    22  H    3.774334   3.813406   4.337316   2.184346   1.091489
    23  H    3.203745   2.634914   3.812252   2.142399   1.094923
    24  C    3.190590   3.197983   2.612084   1.347562   2.534719
    25  H    3.399141   3.410342   2.307685   2.094875   3.500067
    26  C    4.565182   4.561322   4.115461   2.568605   3.151089
    27  H    5.264786   4.954421   4.514197   3.232605   3.898479
    28  H    4.824642   4.764961   4.689983   2.765820   2.782588
                   21         22         23         24         25
    21  H    0.000000
    22  H    1.756896   0.000000
    23  H    1.775453   1.765795   0.000000
    24  C    3.258249   2.725629   3.215515   0.000000
    25  H    4.132935   3.804952   4.106280   1.090369   0.000000
    26  C    3.943031   2.772697   3.843841   1.506491   2.185734
    27  H    4.815735   3.554292   4.377435   2.101369   2.457056
    28  H    3.598085   2.083748   3.408227   2.176641   3.099939
                   26         27         28
    26  C    0.000000
    27  H    1.098054   0.000000
    28  H    1.093508   1.745315   0.000000
 Stoichiometry    C10H18
 Framework group  C1[X(C10H18)]
 Deg. of freedom    78
 Full point group                 C1      NOp   1
 Largest Abelian subgroup         C1      NOp   1
 Largest concise Abelian subgroup C1      NOp   1
                         Standard orientation:                         
 ---------------------------------------------------------------------
 Center     Atomic      Atomic             Coordinates (Angstroms)
 Number     Number       Type             X           Y           Z
 ---------------------------------------------------------------------
      1          6           0        0.850842    1.601633    0.154582
      2          1           0        1.499337    2.330366   -0.350722
      3          1           0        0.628253    2.046715    1.132885
      4          6           0        1.617475    0.303506    0.347997
      5          6           0        1.071007   -0.633584    1.391255
      6          1           0        0.287560   -1.267064    0.967134
      7          1           0        1.842287   -1.281984    1.816263
      8          1           0        0.648693   -0.072374    2.231790
      9          6           0        2.741134    0.067521   -0.359267
     10          1           0        3.076157    0.820546   -1.071900
     11          6           0        3.607899   -1.150969   -0.315791
     12          1           0        4.578961   -0.901586    0.122323
     13          1           0        3.171408   -1.975483    0.252054
     14          1           0        3.777404   -1.513404   -1.334972
     15          6           0       -3.469629   -0.585559    0.722144
     16          1           0       -3.286881   -1.547228    1.212855
     17          1           0       -4.379387   -0.669337    0.118583
     18          1           0       -3.657906    0.156259    1.505387
     19          6           0       -2.298230   -0.213882   -0.149873
     20          6           0       -2.008028   -1.204750   -1.243382
     21          1           0       -1.869107   -2.203898   -0.816280
     22          1           0       -1.106571   -0.975603   -1.814535
     23          1           0       -2.846772   -1.244739   -1.946067
     24          6           0       -1.602275    0.916083    0.084110
     25          1           0       -1.914224    1.548225    0.915968
     26          6           0       -0.428828    1.464334   -0.685279
     27          1           0       -0.718863    2.467846   -1.023757
     28          1           0       -0.218555    0.896740   -1.595982
 ---------------------------------------------------------------------
 Rotational constants (GHZ):           2.1134275           0.6313887           0.5856232
 Leave Link  202 at Tue Jul  6 10:48:57 2021, MaxMem=   524288000 cpu:               0.4 elap:               0.4
 (Enter /opt/gaussian/g16_legacy/l301.exe)
 Standard basis: 6-31G(d,p) (6D, 7F)
 Ernie: Thresh=  0.10000D-02 Tol=  0.10000D-05 Strict=F.
 There are   240 symmetry adapted cartesian basis functions of A   symmetry.
 There are   240 symmetry adapted basis functions of A   symmetry.
   240 basis functions,   406 primitive gaussians,   240 cartesian basis functions
    39 alpha electrons       39 beta electrons
       nuclear repulsion energy       525.9889116428 Hartrees.
 IExCor= 4336 DFT=T Ex+Corr=M062X ExCW=0 ScaHFX=  0.540000
 ScaDFX=  1.000000  1.000000  1.000000  1.000000 ScalE2=  1.000000  1.000000
 IRadAn=      5 IRanWt=     -1 IRanGd=            0 ICorTp=0 IEmpDi=  4
 NAtoms=   28 NActive=   28 NUniq=   28 SFac= 1.00D+00 NAtFMM=   60 NAOKFM=F Big=F
 Integral buffers will be    131072 words long.
 Raffenetti 2 integral format.
 Two-electron integral symmetry is turned on.
 Leave Link  301 at Tue Jul  6 10:48:57 2021, MaxMem=   524288000 cpu:               0.8 elap:               0.2
 (Enter /opt/gaussian/g16_legacy/l302.exe)
 NPDir=0 NMtPBC=     1 NCelOv=     1 NCel=       1 NClECP=     1 NCelD=      1
         NCelK=      1 NCelE2=     1 NClLst=     1 CellRange=     0.0.
 One-electron integrals computed using PRISM.
 One-electron integral symmetry used in STVInt
 NBasis=   240 RedAO= T EigKep=  2.19D-03  NBF=   240
 NBsUse=   240 1.00D-06 EigRej= -1.00D+00 NBFU=   240
 Precomputing XC quadrature grid using
 IXCGrd= 4 IRadAn=           5 IRanWt=          -1 IRanGd=           0 AccXCQ= 0.00D+00.
 Generated NRdTot=       0 NPtTot=           0 NUsed=           0 NTot=          32
 NSgBfM=   240   240   240   240   240 MxSgAt=    28 MxSgA2=    28.
 Leave Link  302 at Tue Jul  6 10:48:58 2021, MaxMem=   524288000 cpu:               6.2 elap:               1.3
 (Enter /opt/gaussian/g16_legacy/l303.exe)
 DipDrv:  MaxL=1.
 Leave Link  303 at Tue Jul  6 10:48:58 2021, MaxMem=   524288000 cpu:               0.3 elap:               0.1
 (Enter /opt/gaussian/g16_legacy/l401.exe)
 ExpMin= 1.61D-01 ExpMax= 3.05D+03 ExpMxC= 4.57D+02 IAcc=3 IRadAn=         5 AccDes= 0.00D+00
 Harris functional with IExCor= 1009 and IRadAn=       5 diagonalized for initial guess.
 HarFok:  IExCor= 1009 AccDes= 0.00D+00 IRadAn=         5 IDoV= 1 UseB2=F ITyADJ=14
 ICtDFT=  3500011 ScaDFX=  1.000000  1.000000  1.000000  1.000000
 FoFCou: FMM=F IPFlag=           0 FMFlag=      100000 FMFlg1=           0
         NFxFlg=           0 DoJE=T BraDBF=F KetDBF=T FulRan=T
         wScrn=  0.000000 ICntrl=       500 IOpCl=  0 I1Cent=   200000004 NGrid=           0
         NMat0=    1 NMatS0=      1 NMatT0=    0 NMatD0=    1 NMtDS0=    0 NMtDT0=    0
 Petite list used in FoFCou.
 Harris En= -391.654003830150    
 JPrj=0 DoOrth=F DoCkMO=F.
 Leave Link  401 at Tue Jul  6 10:49:02 2021, MaxMem=   524288000 cpu:              20.9 elap:               3.5
 (Enter /opt/gaussian/g16_legacy/l502.exe)
 Integral symmetry usage will be decided dynamically.
 Closed shell SCF:
 Using DIIS extrapolation, IDIIS=  1040.
 NGot=   524288000 LenX=   524168546 LenY=   524110505
 Requested convergence on RMS density matrix=1.00D-08 within 128 cycles.
 Requested convergence on MAX density matrix=1.00D-06.
 Requested convergence on             energy=1.00D-06.
 No special actions if energy rises.
 Fock matrices will be formed incrementally for  20 cycles.
 Integral accuracy reduced to 1.0D-05 until final iterations.

 Cycle   1  Pass 0  IDiag  1:
 FoFJK:  IHMeth= 1 ICntrl=       0 DoSepK=F KAlg= 0 I1Cent=           0 FoldK=F
 IRaf= 880000000 NMat=       1 IRICut=       1 DoRegI=T DoRafI=F ISym2E= 0 IDoP0=0 IntGTp=1.
 FoFCou: FMM=F IPFlag=           0 FMFlag=      100000 FMFlg1=           0
         NFxFlg=           0 DoJE=F BraDBF=F KetDBF=F FulRan=T
         wScrn=  0.000000 ICntrl=         0 IOpCl=  0 I1Cent=           0 NGrid=           0
         NMat0=    1 NMatS0=      1 NMatT0=    0 NMatD0=    1 NMtDS0=    0 NMtDT0=    0
 Symmetry not used in FoFCou.
 E= -391.296855035780    
 DIIS: error= 2.63D-02 at cycle   1 NSaved=   1.
 NSaved= 1 IEnMin= 1 EnMin= -391.296855035780     IErMin= 1 ErrMin= 2.63D-02
 ErrMax= 2.63D-02  0.00D+00 EMaxC= 1.00D-01 BMatC= 3.71D-01 BMatP= 3.71D-01
 IDIUse=3 WtCom= 7.37D-01 WtEn= 2.63D-01
 Coeff-Com:  0.100D+01
 Coeff-En:   0.100D+01
 Coeff:      0.100D+01
 Gap=     0.344 Goal=   None    Shift=    0.000
 GapD=    0.344 DampG=1.000 DampE=0.500 DampFc=0.5000 IDamp=-1.
 Damping current iteration by 5.00D-01
 RMSDP=4.44D-03 MaxDP=1.15D-01              OVMax= 1.40D-01

 Cycle   2  Pass 0  IDiag  1:
 RMSU=  2.17D-03    CP:  9.75D-01
 E= -391.505194425376     Delta-E=       -0.208339389596 Rises=F Damp=T
 DIIS: error= 1.04D-02 at cycle   2 NSaved=   2.
 NSaved= 2 IEnMin= 2 EnMin= -391.505194425376     IErMin= 2 ErrMin= 1.04D-02
 ErrMax= 1.04D-02  0.00D+00 EMaxC= 1.00D-01 BMatC= 2.13D-02 BMatP= 3.71D-01
 IDIUse=3 WtCom= 8.96D-01 WtEn= 1.04D-01
 Coeff-Com: -0.145D+00 0.115D+01
 Coeff-En:   0.000D+00 0.100D+01
 Coeff:     -0.130D+00 0.113D+01
 Gap=     0.352 Goal=   None    Shift=    0.000
 RMSDP=8.98D-04 MaxDP=2.62D-02 DE=-2.08D-01 OVMax= 6.62D-02

 Cycle   3  Pass 0  IDiag  1:
 RMSU=  8.73D-04    CP:  9.69D-01  1.08D+00
 E= -391.685939671627     Delta-E=       -0.180745246251 Rises=F Damp=F
 DIIS: error= 1.70D-03 at cycle   3 NSaved=   3.
 NSaved= 3 IEnMin= 3 EnMin= -391.685939671627     IErMin= 3 ErrMin= 1.70D-03
 ErrMax= 1.70D-03  0.00D+00 EMaxC= 1.00D-01 BMatC= 1.18D-03 BMatP= 2.13D-02
 IDIUse=3 WtCom= 9.83D-01 WtEn= 1.70D-02
 Coeff-Com: -0.350D-01 0.174D+00 0.861D+00
 Coeff-En:   0.000D+00 0.000D+00 0.100D+01
 Coeff:     -0.344D-01 0.171D+00 0.863D+00
 Gap=     0.338 Goal=   None    Shift=    0.000
 RMSDP=2.62D-04 MaxDP=6.55D-03 DE=-1.81D-01 OVMax= 1.46D-02

 Cycle   4  Pass 0  IDiag  1:
 RMSU=  2.16D-04    CP:  9.69D-01  1.13D+00  8.69D-01
 E= -391.686496050709     Delta-E=       -0.000556379082 Rises=F Damp=F
 DIIS: error= 1.16D-03 at cycle   4 NSaved=   4.
 NSaved= 4 IEnMin= 4 EnMin= -391.686496050709     IErMin= 4 ErrMin= 1.16D-03
 ErrMax= 1.16D-03  0.00D+00 EMaxC= 1.00D-01 BMatC= 6.13D-04 BMatP= 1.18D-03
 IDIUse=3 WtCom= 9.88D-01 WtEn= 1.16D-02
 Coeff-Com: -0.969D-02 0.394D-01 0.429D+00 0.542D+00
 Coeff-En:   0.000D+00 0.000D+00 0.325D+00 0.675D+00
 Coeff:     -0.958D-02 0.389D-01 0.428D+00 0.543D+00
 Gap=     0.338 Goal=   None    Shift=    0.000
 RMSDP=1.20D-04 MaxDP=4.40D-03 DE=-5.56D-04 OVMax= 1.05D-02

 Cycle   5  Pass 0  IDiag  1:
 RMSU=  5.92D-05    CP:  9.69D-01  1.12D+00  9.31D-01  6.01D-01
 E= -391.687068929792     Delta-E=       -0.000572879083 Rises=F Damp=F
 DIIS: error= 3.10D-04 at cycle   5 NSaved=   5.
 NSaved= 5 IEnMin= 5 EnMin= -391.687068929792     IErMin= 5 ErrMin= 3.10D-04
 ErrMax= 3.10D-04  0.00D+00 EMaxC= 1.00D-01 BMatC= 4.37D-05 BMatP= 6.13D-04
 IDIUse=3 WtCom= 9.97D-01 WtEn= 3.10D-03
 Coeff-Com: -0.248D-03 0.438D-03 0.114D+00 0.257D+00 0.628D+00
 Coeff-En:   0.000D+00 0.000D+00 0.000D+00 0.000D+00 0.100D+01
 Coeff:     -0.248D-03 0.437D-03 0.114D+00 0.257D+00 0.629D+00
 Gap=     0.338 Goal=   None    Shift=    0.000
 RMSDP=2.85D-05 MaxDP=1.14D-03 DE=-5.73D-04 OVMax= 2.31D-03

 Cycle   6  Pass 0  IDiag  1:
 RMSU=  1.52D-05    CP:  9.69D-01  1.12D+00  9.40D-01  6.51D-01  6.69D-01
 E= -391.687111655174     Delta-E=       -0.000042725382 Rises=F Damp=F
 DIIS: error= 3.60D-05 at cycle   6 NSaved=   6.
 NSaved= 6 IEnMin= 6 EnMin= -391.687111655174     IErMin= 6 ErrMin= 3.60D-05
 ErrMax= 3.60D-05  0.00D+00 EMaxC= 1.00D-01 BMatC= 1.16D-06 BMatP= 4.37D-05
 IDIUse=1 WtCom= 1.00D+00 WtEn= 0.00D+00
 Coeff-Com:  0.790D-03-0.281D-02 0.779D-02 0.452D-01 0.185D+00 0.764D+00
 Coeff:      0.790D-03-0.281D-02 0.779D-02 0.452D-01 0.185D+00 0.764D+00
 Gap=     0.338 Goal=   None    Shift=    0.000
 RMSDP=5.83D-06 MaxDP=2.26D-04 DE=-4.27D-05 OVMax= 3.79D-04

 Initial convergence to 1.0D-05 achieved.  Increase integral accuracy.
 Cycle   7  Pass 1  IDiag  1:
 E= -391.687119987678     Delta-E=       -0.000008332504 Rises=F Damp=F
 DIIS: error= 1.89D-05 at cycle   1 NSaved=   1.
 NSaved= 1 IEnMin= 1 EnMin= -391.687119987678     IErMin= 1 ErrMin= 1.89D-05
 ErrMax= 1.89D-05  0.00D+00 EMaxC= 1.00D-01 BMatC= 2.93D-07 BMatP= 2.93D-07
 IDIUse=1 WtCom= 1.00D+00 WtEn= 0.00D+00
 Coeff-Com:  0.100D+01
 Coeff:      0.100D+01
 Gap=     0.338 Goal=   None    Shift=    0.000
 RMSDP=5.83D-06 MaxDP=2.26D-04 DE=-8.33D-06 OVMax= 2.66D-04

 Cycle   8  Pass 1  IDiag  1:
 RMSU=  5.92D-06    CP:  1.00D+00
 E= -391.687120082917     Delta-E=       -0.000000095239 Rises=F Damp=F
 DIIS: error= 1.77D-05 at cycle   2 NSaved=   2.
 NSaved= 2 IEnMin= 2 EnMin= -391.687120082917     IErMin= 2 ErrMin= 1.77D-05
 ErrMax= 1.77D-05  0.00D+00 EMaxC= 1.00D-01 BMatC= 2.11D-07 BMatP= 2.93D-07
 IDIUse=1 WtCom= 1.00D+00 WtEn= 0.00D+00
 Coeff-Com:  0.451D+00 0.549D+00
 Coeff:      0.451D+00 0.549D+00
 Gap=     0.338 Goal=   None    Shift=    0.000
 RMSDP=1.96D-06 MaxDP=1.06D-04 DE=-9.52D-08 OVMax= 1.68D-04

 Cycle   9  Pass 1  IDiag  1:
 RMSU=  1.73D-06    CP:  1.00D+00  8.43D-01
 E= -391.687120268976     Delta-E=       -0.000000186059 Rises=F Damp=F
 DIIS: error= 5.07D-06 at cycle   3 NSaved=   3.
 NSaved= 3 IEnMin= 3 EnMin= -391.687120268976     IErMin= 3 ErrMin= 5.07D-06
 ErrMax= 5.07D-06  0.00D+00 EMaxC= 1.00D-01 BMatC= 1.55D-08 BMatP= 2.11D-07
 IDIUse=1 WtCom= 1.00D+00 WtEn= 0.00D+00
 Coeff-Com:  0.226D-01 0.206D+00 0.771D+00
 Coeff:      0.226D-01 0.206D+00 0.771D+00
 Gap=     0.338 Goal=   None    Shift=    0.000
 RMSDP=6.38D-07 MaxDP=2.31D-05 DE=-1.86D-07 OVMax= 5.96D-05

 Cycle  10  Pass 1  IDiag  1:
 RMSU=  4.09D-07    CP:  1.00D+00  9.04D-01  8.10D-01
 E= -391.687120282708     Delta-E=       -0.000000013732 Rises=F Damp=F
 DIIS: error= 2.43D-06 at cycle   4 NSaved=   4.
 NSaved= 4 IEnMin= 4 EnMin= -391.687120282708     IErMin= 4 ErrMin= 2.43D-06
 ErrMax= 2.43D-06  0.00D+00 EMaxC= 1.00D-01 BMatC= 2.52D-09 BMatP= 1.55D-08
 IDIUse=1 WtCom= 1.00D+00 WtEn= 0.00D+00
 Coeff-Com: -0.230D-01 0.603D-01 0.393D+00 0.570D+00
 Coeff:     -0.230D-01 0.603D-01 0.393D+00 0.570D+00
 Gap=     0.338 Goal=   None    Shift=    0.000
 RMSDP=2.11D-07 MaxDP=6.72D-06 DE=-1.37D-08 OVMax= 1.40D-05

 Cycle  11  Pass 1  IDiag  1:
 RMSU=  1.34D-07    CP:  1.00D+00  9.09D-01  8.60D-01  6.68D-01
 E= -391.687120285271     Delta-E=       -0.000000002563 Rises=F Damp=F
 DIIS: error= 2.52D-07 at cycle   5 NSaved=   5.
 NSaved= 5 IEnMin= 5 EnMin= -391.687120285271     IErMin= 5 ErrMin= 2.52D-07
 ErrMax= 2.52D-07  0.00D+00 EMaxC= 1.00D-01 BMatC= 3.06D-11 BMatP= 2.52D-09
 IDIUse=1 WtCom= 1.00D+00 WtEn= 0.00D+00
 Coeff-Com: -0.536D-02 0.214D-03 0.382D-01 0.105D+00 0.862D+00
 Coeff:     -0.536D-02 0.214D-03 0.382D-01 0.105D+00 0.862D+00
 Gap=     0.338 Goal=   None    Shift=    0.000
 RMSDP=4.19D-08 MaxDP=1.30D-06 DE=-2.56D-09 OVMax= 2.81D-06

 Cycle  12  Pass 1  IDiag  1:
 RMSU=  3.79D-08    CP:  1.00D+00  9.09D-01  8.64D-01  7.06D-01  1.03D+00
 E= -391.687120285276     Delta-E=       -0.000000000005 Rises=F Damp=F
 DIIS: error= 2.26D-07 at cycle   6 NSaved=   6.
 NSaved= 6 IEnMin= 6 EnMin= -391.687120285276     IErMin= 6 ErrMin= 2.26D-07
 ErrMax= 2.26D-07  0.00D+00 EMaxC= 1.00D-01 BMatC= 1.48D-11 BMatP= 3.06D-11
 IDIUse=1 WtCom= 1.00D+00 WtEn= 0.00D+00
 Coeff-Com:  0.144D-05-0.702D-02-0.256D-01-0.119D-01 0.454D+00 0.591D+00
 Coeff:      0.144D-05-0.702D-02-0.256D-01-0.119D-01 0.454D+00 0.591D+00
 Gap=     0.338 Goal=   None    Shift=    0.000
 RMSDP=1.85D-08 MaxDP=7.89D-07 DE=-4.77D-12 OVMax= 1.90D-06

 Cycle  13  Pass 1  IDiag  1:
 RMSU=  1.00D-08    CP:  1.00D+00  9.10D-01  8.66D-01  7.13D-01  1.10D+00
                    CP:  7.15D-01
 E= -391.687120285291     Delta-E=       -0.000000000015 Rises=F Damp=F
 DIIS: error= 4.70D-08 at cycle   7 NSaved=   7.
 NSaved= 7 IEnMin= 7 EnMin= -391.687120285291     IErMin= 7 ErrMin= 4.70D-08
 ErrMax= 4.70D-08  0.00D+00 EMaxC= 1.00D-01 BMatC= 8.08D-13 BMatP= 1.48D-11
 IDIUse=1 WtCom= 1.00D+00 WtEn= 0.00D+00
 Coeff-Com:  0.551D-03-0.306D-02-0.146D-01-0.160D-01 0.984D-01 0.247D+00
 Coeff-Com:  0.688D+00
 Coeff:      0.551D-03-0.306D-02-0.146D-01-0.160D-01 0.984D-01 0.247D+00
 Coeff:      0.688D+00
 Gap=     0.338 Goal=   None    Shift=    0.000
 RMSDP=4.54D-09 MaxDP=1.46D-07 DE=-1.52D-11 OVMax= 2.58D-07

 SCF Done:  E(RM062X) =  -391.687120285     A.U. after   13 cycles
            NFock= 13  Conv=0.45D-08     -V/T= 2.0093
 KE= 3.880726741216D+02 PE=-1.957083206022D+03 EE= 6.513344999722D+02
 Leave Link  502 at Tue Jul  6 10:50:24 2021, MaxMem=   524288000 cpu:             488.2 elap:              81.6
 (Enter /opt/gaussian/g16_legacy/l601.exe)
 Copying SCF densities to generalized density rwf, IOpCl= 0 IROHF=0.

 **********************************************************************

            Population analysis using the SCF density.

 **********************************************************************

 Orbital symmetries:
       Occupied  (A) (A) (A) (A) (A) (A) (A) (A) (A) (A) (A) (A)
                 (A) (A) (A) (A) (A) (A) (A) (A) (A) (A) (A) (A)
                 (A) (A) (A) (A) (A) (A) (A) (A) (A) (A) (A) (A)
                 (A) (A) (A)
       Virtual   (A) (A) (A) (A) (A) (A) (A) (A) (A) (A) (A) (A)
                 (A) (A) (A) (A) (A) (A) (A) (A) (A) (A) (A) (A)
                 (A) (A) (A) (A) (A) (A) (A) (A) (A) (A) (A) (A)
                 (A) (A) (A) (A) (A) (A) (A) (A) (A) (A) (A) (A)
                 (A) (A) (A) (A) (A) (A) (A) (A) (A) (A) (A) (A)
                 (A) (A) (A) (A) (A) (A) (A) (A) (A) (A) (A) (A)
                 (A) (A) (A) (A) (A) (A) (A) (A) (A) (A) (A) (A)
                 (A) (A) (A) (A) (A) (A) (A) (A) (A) (A) (A) (A)
                 (A) (A) (A) (A) (A) (A) (A) (A) (A) (A) (A) (A)
                 (A) (A) (A) (A) (A) (A) (A) (A) (A) (A) (A) (A)
                 (A) (A) (A) (A) (A) (A) (A) (A) (A) (A) (A) (A)
                 (A) (A) (A) (A) (A) (A) (A) (A) (A) (A) (A) (A)
                 (A) (A) (A) (A) (A) (A) (A) (A) (A) (A) (A) (A)
                 (A) (A) (A) (A) (A) (A) (A) (A) (A) (A) (A) (A)
                 (A) (A) (A) (A) (A) (A) (A) (A) (A) (A) (A) (A)
                 (A) (A) (A) (A) (A) (A) (A) (A) (A) (A) (A) (A)
                 (A) (A) (A) (A) (A) (A) (A) (A) (A)
 The electronic state is 1-A.
 Alpha  occ. eigenvalues --  -10.54610 -10.54082 -10.53832 -10.53735 -10.53485
 Alpha  occ. eigenvalues --  -10.53326 -10.53274 -10.53172 -10.53130 -10.52874
 Alpha  occ. eigenvalues --   -0.91816  -0.89715  -0.84898  -0.80706  -0.77778
 Alpha  occ. eigenvalues --   -0.76607  -0.72182  -0.67507  -0.58707  -0.58074
 Alpha  occ. eigenvalues --   -0.53604  -0.52203  -0.50142  -0.49754  -0.48299
 Alpha  occ. eigenvalues --   -0.47993  -0.46460  -0.45512  -0.44590  -0.43468
 Alpha  occ. eigenvalues --   -0.43097  -0.42537  -0.41363  -0.40009  -0.39784
 Alpha  occ. eigenvalues --   -0.37148  -0.36630  -0.28860  -0.26672
 Alpha virt. eigenvalues --    0.07142   0.07336   0.12640   0.15502   0.16392
 Alpha virt. eigenvalues --    0.16856   0.17965   0.17996   0.19152   0.20600
 Alpha virt. eigenvalues --    0.21486   0.21677   0.22200   0.22669   0.23512
 Alpha virt. eigenvalues --    0.24303   0.25649   0.25937   0.27309   0.27571
 Alpha virt. eigenvalues --    0.28409   0.28778   0.29219   0.31214   0.32543
 Alpha virt. eigenvalues --    0.39129   0.39341   0.46962   0.48868   0.52369
 Alpha virt. eigenvalues --    0.53751   0.55546   0.57923   0.59682   0.60445
 Alpha virt. eigenvalues --    0.60545   0.61471   0.63798   0.64043   0.66176
 Alpha virt. eigenvalues --    0.66632   0.67477   0.69316   0.71098   0.72610
 Alpha virt. eigenvalues --    0.74925   0.76956   0.77681   0.78800   0.80769
 Alpha virt. eigenvalues --    0.81443   0.83168   0.83425   0.84632   0.87315
 Alpha virt. eigenvalues --    0.88409   0.89103   0.90556   0.92082   0.92471
 Alpha virt. eigenvalues --    0.94117   0.94308   0.95304   0.96065   0.96399
 Alpha virt. eigenvalues --    0.96833   0.98568   0.99008   1.00462   1.00611
 Alpha virt. eigenvalues --    1.01224   1.02554   1.03471   1.05412   1.07166
 Alpha virt. eigenvalues --    1.08839   1.11085   1.20684   1.22501   1.24097
 Alpha virt. eigenvalues --    1.26107   1.28493   1.35388   1.36091   1.38904
 Alpha virt. eigenvalues --    1.40997   1.45684   1.47168   1.49392   1.52584
 Alpha virt. eigenvalues --    1.54364   1.57560   1.67019   1.70313   1.71702
 Alpha virt. eigenvalues --    1.74201   1.76160   1.78858   1.81116   1.83211
 Alpha virt. eigenvalues --    1.84334   1.85629   1.85884   1.87322   1.88346
 Alpha virt. eigenvalues --    1.91187   1.93249   1.94624   1.99445   2.00972
 Alpha virt. eigenvalues --    2.03416   2.04655   2.07995   2.09275   2.09866
 Alpha virt. eigenvalues --    2.10187   2.10386   2.12804   2.13697   2.13976
 Alpha virt. eigenvalues --    2.16215   2.16558   2.16811   2.18010   2.18674
 Alpha virt. eigenvalues --    2.19377   2.20139   2.23162   2.24738   2.26979
 Alpha virt. eigenvalues --    2.28180   2.30104   2.31332   2.35883   2.36663
 Alpha virt. eigenvalues --    2.37995   2.40877   2.42495   2.43280   2.44695
 Alpha virt. eigenvalues --    2.46514   2.49149   2.49574   2.53040   2.55384
 Alpha virt. eigenvalues --    2.56003   2.58284   2.60315   2.62309   2.63472
 Alpha virt. eigenvalues --    2.65200   2.68444   2.69527   2.70072   2.72817
 Alpha virt. eigenvalues --    2.74268   2.75047   2.78530   2.79973   2.80184
 Alpha virt. eigenvalues --    2.84964   2.85918   2.86758   2.87694   2.88199
 Alpha virt. eigenvalues --    2.90146   2.90924   2.94078   2.94540   3.03179
 Alpha virt. eigenvalues --    3.03365   3.07516   3.08535   3.17814   3.18839
 Alpha virt. eigenvalues --    3.23027   3.24978   3.29262   3.32036   3.39958
 Alpha virt. eigenvalues --    3.40745   3.42387   3.42718   3.44403   3.44670
 Alpha virt. eigenvalues --    3.44852   3.47033   3.48759   3.51503   3.52960
 Alpha virt. eigenvalues --    3.55507   4.19028   4.21470   4.33815   4.45327
 Alpha virt. eigenvalues --    4.51112   4.52108   4.53619   4.65390   4.71335
 Alpha virt. eigenvalues --    4.75814
          Condensed to atoms (all electrons):
               1          2          3          4          5          6
     1  C    5.022880   0.382671   0.381248   0.380689  -0.070992   0.000598
     2  H    0.382671   0.612651  -0.033612  -0.042133   0.005330  -0.000104
     3  H    0.381248  -0.033612   0.618472  -0.034028  -0.006426  -0.000237
     4  C    0.380689  -0.042133  -0.034028   4.747579   0.374464  -0.032933
     5  C   -0.070992   0.005330  -0.006426   0.374464   5.000888   0.381097
     6  H    0.000598  -0.000104  -0.000237  -0.032933   0.381097   0.571998
     7  H    0.004200  -0.000165   0.000074  -0.029530   0.380679  -0.028066
     8  H   -0.006563   0.000107   0.005794  -0.032907   0.384612  -0.030217
     9  C   -0.036057  -0.006995   0.001954   0.709499  -0.057048  -0.002773
    10  H   -0.013336   0.006207   0.000299  -0.034651   0.006051  -0.000171
    11  C    0.005506   0.000189  -0.000201  -0.041880  -0.013437   0.000674
    12  H   -0.000163   0.000004   0.000017  -0.001726   0.000394  -0.000072
    13  H    0.000107   0.000005  -0.000000  -0.007611   0.002326   0.000119
    14  H   -0.000127  -0.000017  -0.000002   0.001462   0.000294   0.000087
    15  C   -0.000125   0.000003  -0.000009  -0.000018   0.000007  -0.000117
    16  H    0.000017  -0.000000  -0.000000   0.000000   0.000055   0.000028
    17  H   -0.000004   0.000000   0.000000   0.000000  -0.000000   0.000007
    18  H   -0.000004   0.000000   0.000003  -0.000001  -0.000001  -0.000004
    19  C    0.000262  -0.000113   0.000455   0.000746  -0.001518   0.001314
    20  C    0.000270  -0.000010  -0.000004   0.000006  -0.000241   0.000526
    21  H    0.000035  -0.000001   0.000000  -0.000036   0.000026   0.000442
    22  H   -0.000264   0.000016   0.000006   0.000567  -0.000022  -0.000112
    23  H   -0.000021   0.000000   0.000000   0.000001   0.000011   0.000011
    24  C   -0.048675   0.004691  -0.005320  -0.003876   0.002195   0.001183
    25  H   -0.002219  -0.000048   0.003842  -0.000268   0.000021   0.000024
    26  C    0.338833  -0.032498  -0.047169  -0.052307   0.001342   0.001323
    27  H   -0.039550  -0.007563  -0.000904   0.005093  -0.000150   0.000007
    28  H   -0.037945  -0.001026   0.005337  -0.003268  -0.000076  -0.000104
               7          8          9         10         11         12
     1  C    0.004200  -0.006563  -0.036057  -0.013336   0.005506  -0.000163
     2  H   -0.000165   0.000107  -0.006995   0.006207   0.000189   0.000004
     3  H    0.000074   0.005794   0.001954   0.000299  -0.000201   0.000017
     4  C   -0.029530  -0.032907   0.709499  -0.034651  -0.041880  -0.001726
     5  C    0.380679   0.384612  -0.057048   0.006051  -0.013437   0.000394
     6  H   -0.028066  -0.030217  -0.002773  -0.000171   0.000674  -0.000072
     7  H    0.586693  -0.030326  -0.008681   0.000025   0.000922   0.000377
     8  H   -0.030326   0.585250   0.003254  -0.000152   0.000284   0.000028
     9  C   -0.008681   0.003254   4.911456   0.379659   0.358243  -0.036479
    10  H    0.000025  -0.000152   0.379659   0.614091  -0.055997  -0.000036
    11  C    0.000922   0.000284   0.358243  -0.055997   4.977549   0.385745
    12  H    0.000377   0.000028  -0.036479  -0.000036   0.385745   0.577830
    13  H    0.002047  -0.000121  -0.034039   0.004499   0.390795  -0.028180
    14  H   -0.000167  -0.000013  -0.033031  -0.003520   0.385635  -0.031753
    15  C   -0.000000   0.000005   0.000000  -0.000000   0.000000   0.000000
    16  H   -0.000005  -0.000002  -0.000000  -0.000000  -0.000000  -0.000000
    17  H    0.000000   0.000000   0.000000  -0.000000   0.000000   0.000000
    18  H    0.000000   0.000005  -0.000000  -0.000000   0.000000   0.000000
    19  C    0.000141   0.000116   0.000051  -0.000001   0.000000   0.000000
    20  C   -0.000004   0.000001  -0.000051   0.000000  -0.000000  -0.000000
    21  H   -0.000020  -0.000006  -0.000005  -0.000000  -0.000000  -0.000000
    22  H   -0.000000   0.000006   0.000146   0.000000  -0.000001   0.000000
    23  H    0.000000  -0.000000   0.000001  -0.000000   0.000000   0.000000
    24  C    0.000199   0.000756   0.000029   0.000010   0.000003   0.000000
    25  H   -0.000003   0.000187  -0.000009   0.000000  -0.000000   0.000000
    26  C   -0.000054  -0.001301  -0.007000   0.000346  -0.000072  -0.000007
    27  H    0.000004  -0.000005   0.000136  -0.000056   0.000004   0.000000
    28  H   -0.000006   0.000108   0.002492   0.000393  -0.000119   0.000002
              13         14         15         16         17         18
     1  C    0.000107  -0.000127  -0.000125   0.000017  -0.000004  -0.000004
     2  H    0.000005  -0.000017   0.000003  -0.000000   0.000000   0.000000
     3  H   -0.000000  -0.000002  -0.000009  -0.000000   0.000000   0.000003
     4  C   -0.007611   0.001462  -0.000018   0.000000   0.000000  -0.000001
     5  C    0.002326   0.000294   0.000007   0.000055  -0.000000  -0.000001
     6  H    0.000119   0.000087  -0.000117   0.000028   0.000007  -0.000004
     7  H    0.002047  -0.000167  -0.000000  -0.000005   0.000000   0.000000
     8  H   -0.000121  -0.000013   0.000005  -0.000002   0.000000   0.000005
     9  C   -0.034039  -0.033031   0.000000  -0.000000   0.000000  -0.000000
    10  H    0.004499  -0.003520  -0.000000  -0.000000  -0.000000  -0.000000
    11  C    0.390795   0.385635   0.000000  -0.000000   0.000000   0.000000
    12  H   -0.028180  -0.031753   0.000000  -0.000000   0.000000   0.000000
    13  H    0.576465  -0.028961  -0.000000   0.000000  -0.000000  -0.000000
    14  H   -0.028961   0.580367  -0.000000   0.000000  -0.000000  -0.000000
    15  C   -0.000000  -0.000000   5.004843   0.380893   0.382249   0.384989
    16  H    0.000000   0.000000   0.380893   0.591168  -0.034467  -0.027131
    17  H   -0.000000  -0.000000   0.382249  -0.034467   0.590088  -0.027355
    18  H   -0.000000  -0.000000   0.384989  -0.027131  -0.027355   0.572856
    19  C   -0.000001  -0.000000   0.364256  -0.036249  -0.037826  -0.033070
    20  C    0.000000   0.000000  -0.079451  -0.002059  -0.000709   0.004661
    21  H    0.000001   0.000000  -0.003295   0.004647  -0.000927   0.000019
    22  H   -0.000001  -0.000002   0.004810  -0.000047  -0.000013  -0.000167
    23  H   -0.000000  -0.000000  -0.002362  -0.000723   0.003917  -0.000049
    24  C   -0.000001  -0.000000  -0.034977  -0.001316  -0.001246  -0.004823
    25  H    0.000000   0.000000  -0.013717   0.000264   0.000245   0.006217
    26  C   -0.000002   0.000022   0.005800  -0.000131  -0.000201   0.000110
    27  H    0.000000  -0.000000  -0.000185  -0.000005   0.000024  -0.000011
    28  H    0.000002  -0.000004   0.000098  -0.000001  -0.000001   0.000010
              19         20         21         22         23         24
     1  C    0.000262   0.000270   0.000035  -0.000264  -0.000021  -0.048675
     2  H   -0.000113  -0.000010  -0.000001   0.000016   0.000000   0.004691
     3  H    0.000455  -0.000004   0.000000   0.000006   0.000000  -0.005320
     4  C    0.000746   0.000006  -0.000036   0.000567   0.000001  -0.003876
     5  C   -0.001518  -0.000241   0.000026  -0.000022   0.000011   0.002195
     6  H    0.001314   0.000526   0.000442  -0.000112   0.000011   0.001183
     7  H    0.000141  -0.000004  -0.000020  -0.000000   0.000000   0.000199
     8  H    0.000116   0.000001  -0.000006   0.000006  -0.000000   0.000756
     9  C    0.000051  -0.000051  -0.000005   0.000146   0.000001   0.000029
    10  H   -0.000001   0.000000  -0.000000   0.000000  -0.000000   0.000010
    11  C    0.000000  -0.000000  -0.000000  -0.000001   0.000000   0.000003
    12  H    0.000000  -0.000000  -0.000000   0.000000   0.000000   0.000000
    13  H   -0.000001   0.000000   0.000001  -0.000001  -0.000000  -0.000001
    14  H   -0.000000   0.000000   0.000000  -0.000002  -0.000000  -0.000000
    15  C    0.364256  -0.079451  -0.003295   0.004810  -0.002362  -0.034977
    16  H   -0.036249  -0.002059   0.004647  -0.000047  -0.000723  -0.001316
    17  H   -0.037826  -0.000709  -0.000927  -0.000013   0.003917  -0.001246
    18  H   -0.033070   0.004661   0.000019  -0.000167  -0.000049  -0.004823
    19  C    4.748480   0.377573  -0.037267  -0.027152  -0.035813   0.712814
    20  C    0.377573   5.004191   0.383424   0.383096   0.383655  -0.050681
    21  H   -0.037267   0.383424   0.588230  -0.028751  -0.032945   0.000418
    22  H   -0.027152   0.383096  -0.028751   0.568884  -0.026999  -0.006839
    23  H   -0.035813   0.383655  -0.032945  -0.026999   0.579597   0.000096
    24  C    0.712814  -0.050681   0.000418  -0.006839   0.000096   4.896398
    25  H   -0.032376   0.006151  -0.000158   0.000010  -0.000159   0.374680
    26  C   -0.040079  -0.014345   0.000475   0.000998   0.000300   0.370186
    27  H    0.000408   0.000344  -0.000025  -0.000105   0.000061  -0.038864
    28  H   -0.005442   0.000504  -0.000118   0.004096  -0.000117  -0.037548
              25         26         27         28
     1  C   -0.002219   0.338833  -0.039550  -0.037945
     2  H   -0.000048  -0.032498  -0.007563  -0.001026
     3  H    0.003842  -0.047169  -0.000904   0.005337
     4  C   -0.000268  -0.052307   0.005093  -0.003268
     5  C    0.000021   0.001342  -0.000150  -0.000076
     6  H    0.000024   0.001323   0.000007  -0.000104
     7  H   -0.000003  -0.000054   0.000004  -0.000006
     8  H    0.000187  -0.001301  -0.000005   0.000108
     9  C   -0.000009  -0.007000   0.000136   0.002492
    10  H    0.000000   0.000346  -0.000056   0.000393
    11  C   -0.000000  -0.000072   0.000004  -0.000119
    12  H    0.000000  -0.000007   0.000000   0.000002
    13  H    0.000000  -0.000002   0.000000   0.000002
    14  H    0.000000   0.000022  -0.000000  -0.000004
    15  C   -0.013717   0.005800  -0.000185   0.000098
    16  H    0.000264  -0.000131  -0.000005  -0.000001
    17  H    0.000245  -0.000201   0.000024  -0.000001
    18  H    0.006217   0.000110  -0.000011   0.000010
    19  C   -0.032376  -0.040079   0.000408  -0.005442
    20  C    0.006151  -0.014345   0.000344   0.000504
    21  H   -0.000158   0.000475  -0.000025  -0.000118
    22  H    0.000010   0.000998  -0.000105   0.004096
    23  H   -0.000159   0.000300   0.000061  -0.000117
    24  C    0.374680   0.370186  -0.038864  -0.037548
    25  H    0.618402  -0.055286  -0.003435   0.004777
    26  C   -0.055286   5.006459   0.381991   0.385680
    27  H   -0.003435   0.381991   0.611151  -0.031842
    28  H    0.004777   0.385680  -0.031842   0.598551
 Mulliken charges:
               1
     1  C   -0.261271
     2  H    0.112411
     3  H    0.110410
     4  C    0.097066
     5  C   -0.389880
     6  H    0.135472
     7  H    0.121667
     8  H    0.121100
     9  C   -0.144752
    10  H    0.096338
    11  C   -0.393841
    12  H    0.134019
    13  H    0.122551
    14  H    0.129729
    15  C   -0.393696
    16  H    0.125066
    17  H    0.126219
    18  H    0.123744
    19  C    0.080290
    20  C   -0.396848
    21  H    0.125836
    22  H    0.127839
    23  H    0.131538
    24  C   -0.129494
    25  H    0.092857
    26  C   -0.243415
    27  H    0.123478
    28  H    0.115566
 Sum of Mulliken charges =  -0.00000
 Mulliken charges with hydrogens summed into heavy atoms:
               1
     1  C   -0.038450
     4  C    0.097066
     5  C   -0.011641
     9  C   -0.048414
    11  C   -0.007541
    15  C   -0.018666
    19  C    0.080290
    20  C   -0.011635
    24  C   -0.036637
    26  C   -0.004371
 Electronic spatial extent (au):  <R**2>=           2180.0988
 Charge=              0.0000 electrons
 Dipole moment (field-independent basis, Debye):
    X=             -0.2215    Y=             -0.2757    Z=             -0.0778  Tot=              0.3621
 Quadrupole moment (field-independent basis, Debye-Ang):
   XX=            -64.0428   YY=            -63.4183   ZZ=            -64.1543
   XY=              0.2909   XZ=             -1.1131   YZ=              0.1598
 Traceless Quadrupole moment (field-independent basis, Debye-Ang):
   XX=             -0.1710   YY=              0.4535   ZZ=             -0.2825
   XY=              0.2909   XZ=             -1.1131   YZ=              0.1598
 Octapole moment (field-independent basis, Debye-Ang**2):
  XXX=              0.7041  YYY=              0.6811  ZZZ=             -0.3928  XYY=             -0.2553
  XXY=             -6.0443  XXZ=             -3.2918  XZZ=             -0.3183  YZZ=              0.4343
  YYZ=              0.8480  XYZ=             -3.7695
 Hexadecapole moment (field-independent basis, Debye-Ang**3):
 XXXX=          -2103.6277 YYYY=           -528.4886 ZZZZ=           -351.2590 XXXY=              1.9568
 XXXZ=             -6.3958 YYYX=              0.6488 YYYZ=             -4.7806 ZZZX=             -2.5308
 ZZZY=              4.1646 XXYY=           -449.0971 XXZZ=           -408.5497 YYZZ=           -146.5663
 XXYZ=              2.1895 YYXZ=             -4.4220 ZZXY=             -2.4446
 N-N= 5.259889116428D+02 E-N=-1.957083205937D+03  KE= 3.880726741216D+02
 No NMR shielding tensors so no spin-rotation constants.
 Leave Link  601 at Tue Jul  6 10:50:24 2021, MaxMem=   524288000 cpu:               1.3 elap:               0.3
 (Enter /opt/gaussian/g16_legacy/l701.exe)
 ... and contract with generalized density number  0.
 Compute integral first derivatives.
 Leave Link  701 at Tue Jul  6 10:50:25 2021, MaxMem=   524288000 cpu:               2.3 elap:               0.5
 (Enter /opt/gaussian/g16_legacy/l702.exe)
 L702 exits ... SP integral derivatives will be done elsewhere.
 Leave Link  702 at Tue Jul  6 10:50:25 2021, MaxMem=   524288000 cpu:               0.2 elap:               0.1
 (Enter /opt/gaussian/g16_legacy/l703.exe)
 Integral derivatives from FoFJK, PRISM(SPDF).
 Compute integral first derivatives, UseDBF=F ICtDFT=           0.
 Calling FoFJK, ICntrl=      2127 FMM=F ISym2X=0 I1Cent= 0 IOpClX= 0 NMat=1 NMatS=1 NMatT=0.
 FoFJK:  IHMeth= 1 ICntrl=    2127 DoSepK=F KAlg= 0 I1Cent=           0 FoldK=F
 IRaf=         0 NMat=       1 IRICut=       1 DoRegI=T DoRafI=F ISym2E= 0 IDoP0=0 IntGTp=1.
 FoFCou: FMM=F IPFlag=           0 FMFlag=      100000 FMFlg1=         800
         NFxFlg=           0 DoJE=F BraDBF=F KetDBF=F FulRan=T
         wScrn=  0.000000 ICntrl=      2127 IOpCl=  0 I1Cent=           0 NGrid=           0
         NMat0=    1 NMatS0=      1 NMatT0=    0 NMatD0=    1 NMtDS0=    0 NMtDT0=    0
 Symmetry not used in FoFCou.
 Leave Link  703 at Tue Jul  6 10:50:39 2021, MaxMem=   524288000 cpu:              83.6 elap:              14.0
 (Enter /opt/gaussian/g16_legacy/l716.exe)
 Dipole        =-8.71593773D-02-1.08462373D-01-3.05953790D-02
 ***** Axes restored to original set *****
 -------------------------------------------------------------------
 Center     Atomic                   Forces (Hartrees/Bohr)
 Number     Number              X              Y              Z
 -------------------------------------------------------------------
      1        6          -0.010682790    0.004003456    0.003773249
      2        1          -0.000556275   -0.002182330    0.001932359
      3        1           0.003567935   -0.001062734    0.000621455
      4        6          -0.011746770    0.006938177   -0.000640984
      5        6          -0.003181268   -0.003732118    0.000742571
      6        1           0.003148184   -0.001462056   -0.001539584
      7        1          -0.000019902    0.001165699    0.002388471
      8        1           0.002915664    0.001738962    0.001921217
      9        6           0.013826857   -0.001387193   -0.006104287
     10        1           0.001848414    0.001383547   -0.002386138
     11        6           0.001681052   -0.001499776    0.001027856
     12        1          -0.001943885   -0.001067524    0.002117044
     13        1          -0.000116887    0.000422016   -0.001454397
     14        1          -0.002283096   -0.000863553   -0.000111555
     15        6          -0.001146034    0.001550440   -0.003411899
     16        1           0.002284311   -0.000565121    0.001751036
     17        1           0.001052079   -0.002453405    0.001419276
     18        1          -0.001392279    0.000923591    0.001595521
     19        6          -0.006831721    0.005013691   -0.012160490
     20        6          -0.004039945    0.002143525   -0.000481005
     21        1           0.002512146   -0.000339228    0.000841834
     22        1          -0.000104576    0.000754620   -0.001630127
     23        1           0.000954895   -0.001974843    0.001398455
     24        6           0.003154649   -0.004481782    0.013025297
     25        1           0.001024923   -0.001641817   -0.000154357
     26        6           0.007943695    0.000654311   -0.003981646
     27        1          -0.001082606    0.000605434   -0.000579872
     28        1          -0.000786773   -0.002583990    0.000080702
 -------------------------------------------------------------------
 Cartesian Forces:  Max     0.013826857 RMS     0.003886666
 Leave Link  716 at Tue Jul  6 10:50:39 2021, MaxMem=   524288000 cpu:               0.3 elap:               0.1
 (Enter /opt/gaussian/g16_legacy/l103.exe)

 GradGradGradGradGradGradGradGradGradGradGradGradGradGradGradGradGradGrad
 Berny optimization.
 FormGI is forming the generalized inverse of G from B-inverse, IUseBI=4.
 GSVD:  received Info=                   1 from GESDD.
 Internal  Forces:  Max     0.014942662 RMS     0.002435352
 Search for a local minimum.
 Step number   1 out of a maximum of  138
 All quantities printed in internal units (Hartrees-Bohrs-Radians)
 RMS Force = .24354D-02 SwitMx=.10000D-02 MixMth= 1
 Mixed Optimization -- RFO/linear search
 Second derivative matrix not updated -- first step.
 ITU=  0
     Eigenvalues ---    0.00279   0.00502   0.00675   0.00680   0.00699
     Eigenvalues ---    0.00714   0.00819   0.01198   0.01286   0.01560
     Eigenvalues ---    0.01639   0.02770   0.02782   0.03758   0.03840
     Eigenvalues ---    0.05314   0.05439   0.06952   0.07037   0.07054
     Eigenvalues ---    0.07087   0.07237   0.07298   0.07353   0.07508
     Eigenvalues ---    0.09554   0.09637   0.13018   0.13051   0.15997
     Eigenvalues ---    0.15998   0.16000   0.16000   0.16000   0.16000
     Eigenvalues ---    0.16000   0.16000   0.16000   0.16000   0.16000
     Eigenvalues ---    0.16000   0.16000   0.16000   0.21920   0.21927
     Eigenvalues ---    0.22001   0.22001   0.24977   0.24987   0.24999
     Eigenvalues ---    0.24999   0.28804   0.30371   0.31665   0.31706
     Eigenvalues ---    0.31854   0.31969   0.32805   0.33837   0.33898
     Eigenvalues ---    0.33949   0.34190   0.34201   0.34232   0.34242
     Eigenvalues ---    0.34244   0.34250   0.34252   0.34341   0.34402
     Eigenvalues ---    0.34410   0.34452   0.34565   0.34641   0.34770
     Eigenvalues ---    0.34864   0.55336   0.55543
 RFO step:  Lambda=-4.85820221D-03 EMin= 2.79082892D-03
 Linear search not attempted -- first point.
 Iteration  1 RMS(Cart)=  0.16800303 RMS(Int)=  0.00340827
 Iteration  2 RMS(Cart)=  0.00676678 RMS(Int)=  0.00030157
 Iteration  3 RMS(Cart)=  0.00001497 RMS(Int)=  0.00030150
 Iteration  4 RMS(Cart)=  0.00000001 RMS(Int)=  0.00030150
 ITry= 1 IFail=0 DXMaxC= 5.26D-01 DCOld= 1.00D+10 DXMaxT= 3.00D-01 DXLimC= 3.00D+00 Rises=F
 Variable       Old X    -DE/DX   Delta X   Delta X   Delta X     New X
                                 (Linear)    (Quad)   (Total)
    R1        2.07606  -0.00145   0.00000  -0.00423  -0.00423   2.07183
    R2        2.07416   0.00026   0.00000   0.00076   0.00076   2.07492
    R3        2.87230  -0.00504   0.00000  -0.01633  -0.01633   2.85597
    R4        2.90414   0.00127   0.00000   0.00432   0.00432   2.90846
    R5        2.84412   0.00269   0.00000   0.00831   0.00831   2.85243
    R6        2.54834  -0.01494   0.00000  -0.02677  -0.02677   2.52157
    R7        2.06574   0.00166   0.00000   0.00474   0.00474   2.07048
    R8        2.06657  -0.00054   0.00000  -0.00154  -0.00154   2.06504
    R9        2.06992  -0.00097   0.00000  -0.00280  -0.00280   2.06712
   R10        2.05896   0.00051   0.00000   0.00145   0.00145   2.06042
   R11        2.82695   0.00424   0.00000   0.01273   0.01273   2.83968
   R12        2.06759   0.00103   0.00000   0.00296   0.00296   2.07055
   R13        2.06387  -0.00053   0.00000  -0.00152  -0.00152   2.06235
   R14        2.06907  -0.00014   0.00000  -0.00039  -0.00039   2.06869
   R15        2.06923   0.00068   0.00000   0.00195   0.00195   2.07118
   R16        2.06920   0.00069   0.00000   0.00198   0.00198   2.07118
   R17        2.06941  -0.00169   0.00000  -0.00487  -0.00487   2.06454
   R18        2.84762   0.00048   0.00000   0.00148   0.00148   2.84910
   R19        2.84201   0.00020   0.00000   0.00062   0.00062   2.84263
   R20        2.54652  -0.01329   0.00000  -0.02372  -0.02372   2.52280
   R21        2.07010   0.00038   0.00000   0.00109   0.00109   2.07119
   R22        2.06261  -0.00006   0.00000  -0.00017  -0.00017   2.06245
   R23        2.06910   0.00058   0.00000   0.00168   0.00168   2.07079
   R24        2.06050   0.00046   0.00000   0.00131   0.00131   2.06181
   R25        2.84686  -0.00181   0.00000  -0.00563  -0.00563   2.84122
   R26        2.07502   0.00053   0.00000   0.00154   0.00154   2.07657
   R27        2.06643  -0.00016   0.00000  -0.00047  -0.00047   2.06596
    A1        1.83453   0.00094   0.00000   0.02831   0.02875   1.86328
    A2        1.90426   0.00023   0.00000   0.01113   0.01135   1.91561
    A3        1.87489   0.00360   0.00000   0.03632   0.03669   1.91157
    A4        1.91260   0.00218   0.00000  -0.00746  -0.00900   1.90360
    A5        1.93314  -0.00224   0.00000  -0.03599  -0.03680   1.89634
    A6        1.99679  -0.00422   0.00000  -0.02581  -0.02653   1.97027
    A7        2.02287   0.00159   0.00000   0.00711   0.00598   2.02885
    A8        2.09785  -0.00076   0.00000  -0.00198  -0.00309   2.09476
    A9        2.16173  -0.00078   0.00000  -0.00200  -0.00311   2.15862
   A10        1.93061   0.00295   0.00000   0.01325   0.01325   1.94386
   A11        1.96328  -0.00145   0.00000  -0.00302  -0.00303   1.96025
   A12        1.93146  -0.00094   0.00000  -0.00681  -0.00681   1.92465
   A13        1.88878  -0.00045   0.00000  -0.00056  -0.00057   1.88821
   A14        1.89475  -0.00312   0.00000  -0.03010  -0.03010   1.86465
   A15        1.85196   0.00290   0.00000   0.02648   0.02648   1.87844
   A16        2.06952  -0.00271   0.00000  -0.01732  -0.01735   2.05217
   A17        2.22696  -0.00123   0.00000  -0.00543  -0.00546   2.22151
   A18        1.98645   0.00395   0.00000   0.02304   0.02301   2.00947
   A19        1.91795   0.00339   0.00000   0.01901   0.01898   1.93693
   A20        1.98064  -0.00217   0.00000  -0.01257  -0.01252   1.96811
   A21        1.90950   0.00247   0.00000   0.01596   0.01592   1.92543
   A22        1.89504  -0.00105   0.00000  -0.00801  -0.00795   1.88709
   A23        1.88681  -0.00314   0.00000  -0.02034  -0.02046   1.86635
   A24        1.87124   0.00029   0.00000   0.00468   0.00472   1.87596
   A25        1.89493  -0.00319   0.00000  -0.02638  -0.02637   1.86856
   A26        1.87874   0.00094   0.00000   0.00911   0.00913   1.88787
   A27        1.92433   0.00171   0.00000   0.00860   0.00861   1.93295
   A28        1.87887   0.00080   0.00000   0.00823   0.00825   1.88713
   A29        1.92385   0.00197   0.00000   0.01017   0.01019   1.93404
   A30        1.96109  -0.00234   0.00000  -0.01064  -0.01062   1.95048
   A31        1.99134   0.00113   0.00000   0.00441   0.00441   1.99575
   A32        2.10344   0.00249   0.00000   0.00975   0.00975   2.11319
   A33        2.18837  -0.00361   0.00000  -0.01419  -0.01420   2.17417
   A34        1.91975   0.00048   0.00000   0.00135   0.00136   1.92111
   A35        1.98398  -0.00229   0.00000  -0.01015  -0.01014   1.97384
   A36        1.92077   0.00170   0.00000   0.00829   0.00830   1.92908
   A37        1.86582   0.00167   0.00000   0.01404   0.01406   1.87988
   A38        1.89025  -0.00249   0.00000  -0.02259  -0.02258   1.86767
   A39        1.88022   0.00085   0.00000   0.00825   0.00827   1.88849
   A40        2.06105  -0.00139   0.00000  -0.00885  -0.00899   2.05205
   A41        2.23796  -0.00079   0.00000  -0.00338  -0.00352   2.23444
   A42        1.98394   0.00219   0.00000   0.01286   0.01271   1.99665
   A43        1.98450  -0.00089   0.00000  -0.00817  -0.00886   1.97565
   A44        1.88257   0.00009   0.00000   0.01454   0.01446   1.89703
   A45        1.91920  -0.00107   0.00000  -0.02645  -0.02719   1.89200
   A46        1.85905   0.00222   0.00000   0.03538   0.03538   1.89443
   A47        1.96733  -0.00082   0.00000  -0.02510  -0.02590   1.94143
   A48        1.84257   0.00078   0.00000   0.01632   0.01672   1.85929
    D1        2.80818   0.00149   0.00000   0.10569   0.10577   2.91395
    D2       -0.29397   0.00008   0.00000   0.02112   0.02109  -0.27288
    D3        0.80827  -0.00094   0.00000   0.06987   0.07003   0.87830
    D4       -2.29387  -0.00235   0.00000  -0.01470  -0.01466  -2.30853
    D5       -1.37463   0.00347   0.00000   0.14325   0.14319  -1.23145
    D6        1.80641   0.00206   0.00000   0.05868   0.05850   1.86491
    D7       -2.77548  -0.00279   0.00000  -0.10969  -0.10947  -2.88495
    D8       -0.71800  -0.00050   0.00000  -0.06083  -0.06070  -0.77870
    D9        1.28307  -0.00008   0.00000  -0.04732  -0.04747   1.23560
   D10       -0.78096  -0.00082   0.00000  -0.07439  -0.07472  -0.85568
   D11        1.27652   0.00147   0.00000  -0.02552  -0.02595   1.25057
   D12       -3.00559   0.00188   0.00000  -0.01201  -0.01272  -3.01832
   D13        1.39107  -0.00296   0.00000  -0.13346  -0.13288   1.25819
   D14       -2.83463  -0.00067   0.00000  -0.08460  -0.08412  -2.91875
   D15       -0.83356  -0.00026   0.00000  -0.07109  -0.07088  -0.90444
   D16        1.48787  -0.00208   0.00000  -0.08325  -0.08330   1.40457
   D17       -2.68086  -0.00156   0.00000  -0.07663  -0.07667  -2.75754
   D18       -0.61273   0.00051   0.00000  -0.04973  -0.04978  -0.66251
   D19       -1.69478  -0.00061   0.00000   0.00478   0.00482  -1.68995
   D20        0.41967  -0.00009   0.00000   0.01140   0.01145   0.43112
   D21        2.48781   0.00198   0.00000   0.03831   0.03835   2.52616
   D22       -0.00928   0.00083   0.00000   0.04903   0.04878   0.03950
   D23       -3.12512   0.00046   0.00000   0.03363   0.03355  -3.09157
   D24       -3.10813  -0.00076   0.00000  -0.04279  -0.04271   3.13234
   D25        0.05921  -0.00113   0.00000  -0.05820  -0.05794   0.00126
   D26       -1.95906  -0.00004   0.00000  -0.00790  -0.00778  -1.96684
   D27        0.16630  -0.00042   0.00000  -0.01301  -0.01296   0.15335
   D28        2.25511   0.00027   0.00000  -0.00409  -0.00409   2.25101
   D29        1.20725  -0.00032   0.00000  -0.02221  -0.02220   1.18505
   D30       -2.95057  -0.00069   0.00000  -0.02731  -0.02738  -2.97795
   D31       -0.86177  -0.00001   0.00000  -0.01839  -0.01851  -0.88028
   D32        1.04971  -0.00082   0.00000  -0.00960  -0.00961   1.04010
   D33       -2.08374  -0.00073   0.00000  -0.00566  -0.00564  -2.08938
   D34       -1.04213   0.00080   0.00000   0.01120   0.01118  -1.03095
   D35        2.10761   0.00089   0.00000   0.01514   0.01515   2.12276
   D36       -3.13772  -0.00001   0.00000   0.00082   0.00080  -3.13692
   D37        0.01201   0.00008   0.00000   0.00475   0.00477   0.01679
   D38       -0.96056   0.00091   0.00000   0.01284   0.01282  -0.94774
   D39       -3.05191  -0.00004   0.00000   0.00069   0.00067  -3.05124
   D40        1.12067  -0.00080   0.00000  -0.00902  -0.00903   1.11164
   D41        2.17242   0.00085   0.00000   0.00881   0.00882   2.18125
   D42        0.08107  -0.00010   0.00000  -0.00334  -0.00332   0.07775
   D43       -2.02953  -0.00086   0.00000  -0.01304  -0.01303  -2.04255
   D44       -0.00327   0.00060   0.00000   0.02333   0.02323   0.01996
   D45       -3.12031  -0.00012   0.00000  -0.01077  -0.01066  -3.13097
   D46       -3.13574   0.00067   0.00000   0.02763   0.02752  -3.10822
   D47        0.03041  -0.00005   0.00000  -0.00647  -0.00637   0.02403
   D48       -2.08072   0.00197   0.00000   0.07781   0.07776  -2.00296
   D49        2.13145   0.00091   0.00000   0.04113   0.04105   2.17250
   D50        0.11872  -0.00093   0.00000   0.01332   0.01366   0.13237
   D51        1.08453   0.00132   0.00000   0.04521   0.04502   1.12955
   D52       -0.98649   0.00026   0.00000   0.00853   0.00831  -0.97818
   D53       -2.99922  -0.00159   0.00000  -0.01928  -0.01909  -3.01831
         Item               Value     Threshold  Converged?
 Maximum Force            0.014943     0.002500     NO 
 RMS     Force            0.002435     0.001667     NO 
 Maximum Displacement     0.526175     0.010000     NO 
 RMS     Displacement     0.170028     0.006667     NO 
 Predicted change in Energy=-2.772597D-03
 Lowest energy point so far.  Saving SCF results.
 GradGradGradGradGradGradGradGradGradGradGradGradGradGradGradGradGradGrad

 Leave Link  103 at Tue Jul  6 10:50:39 2021, MaxMem=   524288000 cpu:               0.8 elap:               0.2
 (Enter /opt/gaussian/g16_legacy/l202.exe)
                          Input orientation:                          
 ---------------------------------------------------------------------
 Center     Atomic      Atomic             Coordinates (Angstroms)
[...]
                 (A) (A) (A) (A) (A) (A) (A) (A) (A) (A) (A) (A)
                 (A) (A) (A) (A) (A) (A) (A) (A) (A) (A) (A) (A)
                 (A) (A) (A) (A) (A) (A) (A) (A) (A) (A) (A) (A)
                 (A) (A) (A) (A) (A) (A) (A) (A) (A) (A) (A) (A)
                 (A) (A) (A) (A) (A) (A) (A) (A) (A) (A) (A) (A)
                 (A) (A) (A) (A) (A) (A) (A) (A) (A) (A) (A) (A)
                 (A) (A) (A) (A) (A) (A) (A) (A) (A) (A) (A) (A)
                 (A) (A) (A) (A) (A) (A) (A) (A) (A) (A) (A) (A)
                 (A) (A) (A) (A) (A) (A) (A) (A) (A) (A) (A) (A)
                 (A) (A) (A) (A) (A) (A) (A) (A) (A) (A) (A) (A)
                 (A) (A) (A) (A) (A) (A) (A) (A) (A) (A) (A) (A)
                 (A) (A) (A) (A) (A) (A) (A) (A) (A) (A) (A) (A)
                 (A) (A) (A) (A) (A) (A) (A) (A) (A)
 The electronic state is 1-A.
 Alpha  occ. eigenvalues --  -10.54450 -10.54039 -10.53813 -10.53766 -10.53370
 Alpha  occ. eigenvalues --  -10.53281 -10.53230 -10.53099 -10.53009 -10.52940
 Alpha  occ. eigenvalues --   -0.92171  -0.89715  -0.84809  -0.80578  -0.77667
 Alpha  occ. eigenvalues --   -0.76705  -0.72395  -0.67748  -0.58576  -0.57826
 Alpha  occ. eigenvalues --   -0.53761  -0.52343  -0.50306  -0.49846  -0.48415
 Alpha  occ. eigenvalues --   -0.47717  -0.46095  -0.45152  -0.44127  -0.43837
 Alpha  occ. eigenvalues --   -0.43636  -0.42505  -0.41204  -0.40486  -0.39662
 Alpha  occ. eigenvalues --   -0.37141  -0.36691  -0.29013  -0.26789
 Alpha virt. eigenvalues --    0.06906   0.07122   0.12203   0.15886   0.16200
 Alpha virt. eigenvalues --    0.16504   0.17602   0.18572   0.19666   0.20063
 Alpha virt. eigenvalues --    0.21389   0.21697   0.22710   0.22936   0.23620
 Alpha virt. eigenvalues --    0.24785   0.25891   0.26467   0.26546   0.27724
 Alpha virt. eigenvalues --    0.28945   0.29198   0.30490   0.30782   0.32719
 Alpha virt. eigenvalues --    0.38265   0.39945   0.46024   0.48085   0.51842
 Alpha virt. eigenvalues --    0.53821   0.55169   0.56924   0.59136   0.59847
 Alpha virt. eigenvalues --    0.60258   0.61904   0.63185   0.64171   0.67098
 Alpha virt. eigenvalues --    0.67563   0.69688   0.70172   0.71677   0.73671
 Alpha virt. eigenvalues --    0.74834   0.76592   0.77559   0.78770   0.80987
 Alpha virt. eigenvalues --    0.81970   0.83481   0.84383   0.85383   0.86881
 Alpha virt. eigenvalues --    0.87566   0.89614   0.90898   0.92829   0.93173
 Alpha virt. eigenvalues --    0.94480   0.95162   0.95261   0.95781   0.96606
 Alpha virt. eigenvalues --    0.97216   0.98664   0.99791   1.00802   1.01518
 Alpha virt. eigenvalues --    1.01669   1.03556   1.04024   1.05953   1.07912
 Alpha virt. eigenvalues --    1.10300   1.12536   1.20169   1.22481   1.26993
 Alpha virt. eigenvalues --    1.27684   1.30700   1.35754   1.38001   1.40055
 Alpha virt. eigenvalues --    1.41330   1.45628   1.46795   1.48734   1.51534
 Alpha virt. eigenvalues --    1.52789   1.56567   1.67186   1.69261   1.72005
 Alpha virt. eigenvalues --    1.75618   1.77905   1.78549   1.82172   1.83781
 Alpha virt. eigenvalues --    1.84057   1.85000   1.86969   1.88433   1.88945
 Alpha virt. eigenvalues --    1.91415   1.93818   1.94413   2.01334   2.02494
 Alpha virt. eigenvalues --    2.03871   2.05144   2.09414   2.09786   2.10109
 Alpha virt. eigenvalues --    2.10603   2.10871   2.12042   2.13826   2.14750
 Alpha virt. eigenvalues --    2.16396   2.16735   2.17949   2.18099   2.19268
 Alpha virt. eigenvalues --    2.20201   2.21186   2.21901   2.24527   2.26878
 Alpha virt. eigenvalues --    2.28571   2.30185   2.31874   2.35210   2.36133
 Alpha virt. eigenvalues --    2.38558   2.40086   2.42230   2.43744   2.44685
 Alpha virt. eigenvalues --    2.46118   2.48344   2.50580   2.52282   2.55053
 Alpha virt. eigenvalues --    2.55654   2.59226   2.60530   2.62340   2.63394
 Alpha virt. eigenvalues --    2.65110   2.66990   2.68828   2.70597   2.72258
 Alpha virt. eigenvalues --    2.74285   2.75835   2.79072   2.80112   2.81102
 Alpha virt. eigenvalues --    2.84612   2.86077   2.86925   2.87971   2.88868
 Alpha virt. eigenvalues --    2.90364   2.91768   2.91956   2.94051   3.04139
 Alpha virt. eigenvalues --    3.04747   3.09241   3.09936   3.17192   3.19007
 Alpha virt. eigenvalues --    3.24144   3.25074   3.28274   3.32216   3.40269
 Alpha virt. eigenvalues --    3.41879   3.42755   3.43136   3.44276   3.44361
 Alpha virt. eigenvalues --    3.45890   3.46960   3.48518   3.52008   3.52795
 Alpha virt. eigenvalues --    3.55109   4.19387   4.24627   4.34643   4.47022
 Alpha virt. eigenvalues --    4.49677   4.52555   4.53388   4.69295   4.71899
 Alpha virt. eigenvalues --    4.75797
          Condensed to atoms (all electrons):
               1          2          3          4          5          6
     1  C    5.017224   0.383605   0.380832   0.376711  -0.064938   0.002853
     2  H    0.383605   0.602523  -0.031835  -0.039430   0.005031  -0.000112
     3  H    0.380832  -0.031835   0.618472  -0.034908  -0.007389  -0.000122
     4  C    0.376711  -0.039430  -0.034908   4.771520   0.373845  -0.032750
     5  C   -0.064938   0.005031  -0.007389   0.373845   4.997980   0.381399
     6  H    0.002853  -0.000112  -0.000122  -0.032750   0.381399   0.581519
     7  H    0.003427  -0.000167   0.000181  -0.030063   0.380300  -0.029357
     8  H   -0.007965   0.000130   0.006016  -0.031755   0.385046  -0.032109
     9  C   -0.040337  -0.008044   0.003784   0.703012  -0.058887  -0.005961
    10  H   -0.012498   0.005517   0.000292  -0.039952   0.006216  -0.000169
    11  C    0.005442   0.000122  -0.000197  -0.042399  -0.013646   0.001039
    12  H   -0.000151   0.000008   0.000008   0.000224   0.000263  -0.000076
    13  H    0.000127   0.000004   0.000004  -0.009488   0.003704  -0.000350
    14  H   -0.000110  -0.000017  -0.000002  -0.000214   0.000337   0.000288
    15  C   -0.000102   0.000003   0.000000  -0.000042  -0.000167  -0.000231
    16  H    0.000030  -0.000000  -0.000001  -0.000007   0.000152   0.000640
    17  H   -0.000006   0.000000   0.000000  -0.000000   0.000005   0.000013
    18  H   -0.000004   0.000000   0.000002   0.000002  -0.000003  -0.000026
    19  C   -0.004108  -0.000018   0.000302   0.003388  -0.003231   0.000092
    20  C    0.000225  -0.000030  -0.000023  -0.001220  -0.000742  -0.000045
    21  H    0.000104  -0.000004   0.000000  -0.000301  -0.000041   0.001336
    22  H   -0.000965   0.000058   0.000032   0.003819  -0.000272  -0.000845
    23  H   -0.000042   0.000002   0.000001   0.000091   0.000038  -0.000018
    24  C   -0.053611   0.005353  -0.004612  -0.007996   0.003061   0.000863
    25  H    0.000310  -0.000123   0.002321  -0.000462   0.000036   0.000101
    26  C    0.348664  -0.032212  -0.044181  -0.053201  -0.000179   0.000348
    27  H   -0.038749  -0.004120  -0.003077   0.005839  -0.000163  -0.000012
    28  H   -0.038615  -0.003832   0.005673  -0.006730   0.000014   0.000061
               7          8          9         10         11         12
     1  C    0.003427  -0.007965  -0.040337  -0.012498   0.005442  -0.000151
     2  H   -0.000167   0.000130  -0.008044   0.005517   0.000122   0.000008
     3  H    0.000181   0.006016   0.003784   0.000292  -0.000197   0.000008
     4  C   -0.030063  -0.031755   0.703012  -0.039952  -0.042399   0.000224
     5  C    0.380300   0.385046  -0.058887   0.006216  -0.013646   0.000263
     6  H   -0.029357  -0.032109  -0.005961  -0.000169   0.001039  -0.000076
     7  H    0.582365  -0.027498  -0.007144  -0.000032  -0.000282   0.000326
     8  H   -0.027498   0.584980   0.004321  -0.000158   0.000311   0.000005
     9  C   -0.007144   0.004321   4.906952   0.380702   0.363511  -0.032970
    10  H   -0.000032  -0.000158   0.380702   0.616975  -0.053333  -0.001737
    11  C   -0.000282   0.000311   0.363511  -0.053333   4.972581   0.385580
    12  H    0.000326   0.000005  -0.032970  -0.001737   0.385580   0.579373
    13  H    0.002545  -0.000071  -0.034384   0.004495   0.390326  -0.028233
    14  H   -0.000256  -0.000016  -0.033791  -0.001265   0.384650  -0.033806
    15  C   -0.000000   0.000026   0.000003  -0.000000  -0.000000   0.000000
    16  H   -0.000026  -0.000009  -0.000001  -0.000000  -0.000000  -0.000000
    17  H    0.000000   0.000000  -0.000000  -0.000000   0.000000  -0.000000
    18  H    0.000000   0.000007   0.000000  -0.000000  -0.000000   0.000000
    19  C    0.000339   0.000189   0.000350  -0.000013   0.000002   0.000000
    20  C   -0.000016   0.000019  -0.001742  -0.000015   0.000039  -0.000000
    21  H   -0.000086  -0.000008  -0.000103   0.000002   0.000067  -0.000001
    22  H    0.000020   0.000031   0.004031   0.000060  -0.000103   0.000013
    23  H    0.000001  -0.000001   0.000051   0.000000  -0.000001   0.000000
    24  C    0.000279   0.000448  -0.000886   0.000079   0.000007  -0.000000
    25  H   -0.000002   0.000134  -0.000008   0.000001  -0.000000  -0.000000
    26  C   -0.000024  -0.000696  -0.008440   0.000057  -0.000042  -0.000007
    27  H    0.000005  -0.000007   0.000169  -0.000070   0.000004   0.000000
    28  H    0.000000   0.000040   0.002883   0.000931  -0.000174   0.000002
              13         14         15         16         17         18
     1  C    0.000127  -0.000110  -0.000102   0.000030  -0.000006  -0.000004
     2  H    0.000004  -0.000017   0.000003  -0.000000   0.000000   0.000000
     3  H    0.000004  -0.000002   0.000000  -0.000001   0.000000   0.000002
     4  C   -0.009488  -0.000214  -0.000042  -0.000007  -0.000000   0.000002
     5  C    0.003704   0.000337  -0.000167   0.000152   0.000005  -0.000003
     6  H   -0.000350   0.000288  -0.000231   0.000640   0.000013  -0.000026
     7  H    0.002545  -0.000256  -0.000000  -0.000026   0.000000   0.000000
     8  H   -0.000071  -0.000016   0.000026  -0.000009   0.000000   0.000007
     9  C   -0.034384  -0.033791   0.000003  -0.000001  -0.000000   0.000000
    10  H    0.004495  -0.001265  -0.000000  -0.000000  -0.000000  -0.000000
    11  C    0.390326   0.384650  -0.000000  -0.000000   0.000000  -0.000000
    12  H   -0.028233  -0.033806   0.000000  -0.000000  -0.000000   0.000000
    13  H    0.578767  -0.028696  -0.000000   0.000000  -0.000000  -0.000000
    14  H   -0.028696   0.581301  -0.000000   0.000000  -0.000000  -0.000000
    15  C   -0.000000  -0.000000   5.005637   0.378645   0.382860   0.384991
    16  H    0.000000   0.000000   0.378645   0.595500  -0.036835  -0.026358
    17  H   -0.000000  -0.000000   0.382860  -0.036835   0.590164  -0.026696
    18  H   -0.000000  -0.000000   0.384991  -0.026358  -0.026696   0.570584
    19  C   -0.000007  -0.000004   0.367198  -0.035094  -0.036889  -0.033341
    20  C    0.000004   0.000137  -0.078341  -0.002452  -0.000676   0.004791
    21  H    0.000039   0.000081  -0.003155   0.004561  -0.001037   0.000041
    22  H   -0.000006  -0.000073   0.004885  -0.000090   0.000007  -0.000169
    23  H    0.000000  -0.000008  -0.002248  -0.000642   0.003775  -0.000075
    24  C   -0.000001   0.000001  -0.038071  -0.001588  -0.000600  -0.005088
    25  H   -0.000000   0.000000  -0.014207   0.000295   0.000218   0.006538
    26  C   -0.000012   0.000035   0.005815  -0.000120  -0.000190   0.000085
    27  H    0.000000  -0.000001  -0.000163  -0.000003   0.000011  -0.000008
    28  H    0.000004  -0.000002   0.000087  -0.000006   0.000007   0.000011
              19         20         21         22         23         24
     1  C   -0.004108   0.000225   0.000104  -0.000965  -0.000042  -0.053611
     2  H   -0.000018  -0.000030  -0.000004   0.000058   0.000002   0.005353
     3  H    0.000302  -0.000023   0.000000   0.000032   0.000001  -0.004612
     4  C    0.003388  -0.001220  -0.000301   0.003819   0.000091  -0.007996
     5  C   -0.003231  -0.000742  -0.000041  -0.000272   0.000038   0.003061
     6  H    0.000092  -0.000045   0.001336  -0.000845  -0.000018   0.000863
     7  H    0.000339  -0.000016  -0.000086   0.000020   0.000001   0.000279
     8  H    0.000189   0.000019  -0.000008   0.000031  -0.000001   0.000448
     9  C    0.000350  -0.001742  -0.000103   0.004031   0.000051  -0.000886
    10  H   -0.000013  -0.000015   0.000002   0.000060   0.000000   0.000079
    11  C    0.000002   0.000039   0.000067  -0.000103  -0.000001   0.000007
    12  H    0.000000  -0.000000  -0.000001   0.000013   0.000000  -0.000000
    13  H   -0.000007   0.000004   0.000039  -0.000006   0.000000  -0.000001
    14  H   -0.000004   0.000137   0.000081  -0.000073  -0.000008   0.000001
    15  C    0.367198  -0.078341  -0.003155   0.004885  -0.002248  -0.038071
    16  H   -0.035094  -0.002452   0.004561  -0.000090  -0.000642  -0.001588
    17  H   -0.036889  -0.000676  -0.001037   0.000007   0.003775  -0.000600
    18  H   -0.033341   0.004791   0.000041  -0.000169  -0.000075  -0.005088
    19  C    4.734607   0.378560  -0.038245  -0.026084  -0.034345   0.715700
    20  C    0.378560   5.011335   0.383214   0.380783   0.380818  -0.053198
    21  H   -0.038245   0.383214   0.595069  -0.028506  -0.034957   0.000701
    22  H   -0.026084   0.380783  -0.028506   0.564242  -0.024770  -0.009153
    23  H   -0.034345   0.380818  -0.034957  -0.024770   0.582498   0.000191
    24  C    0.715700  -0.053198   0.000701  -0.009153   0.000191   4.912460
    25  H   -0.034377   0.006438  -0.000172  -0.000001  -0.000157   0.376007
    26  C   -0.040813  -0.014118   0.000493   0.001241   0.000237   0.370895
    27  H    0.002837   0.000228  -0.000019   0.000042   0.000035  -0.033839
    28  H   -0.006696   0.000005  -0.000183   0.003188   0.000163  -0.040698
              25         26         27         28
     1  C    0.000310   0.348664  -0.038749  -0.038615
     2  H   -0.000123  -0.032212  -0.004120  -0.003832
     3  H    0.002321  -0.044181  -0.003077   0.005673
     4  C   -0.000462  -0.053201   0.005839  -0.006730
     5  C    0.000036  -0.000179  -0.000163   0.000014
     6  H    0.000101   0.000348  -0.000012   0.000061
     7  H   -0.000002  -0.000024   0.000005   0.000000
     8  H    0.000134  -0.000696  -0.000007   0.000040
     9  C   -0.000008  -0.008440   0.000169   0.002883
    10  H    0.000001   0.000057  -0.000070   0.000931
    11  C   -0.000000  -0.000042   0.000004  -0.000174
    12  H   -0.000000  -0.000007   0.000000   0.000002
    13  H   -0.000000  -0.000012   0.000000   0.000004
    14  H    0.000000   0.000035  -0.000001  -0.000002
    15  C   -0.014207   0.005815  -0.000163   0.000087
    16  H    0.000295  -0.000120  -0.000003  -0.000006
    17  H    0.000218  -0.000190   0.000011   0.000007
    18  H    0.006538   0.000085  -0.000008   0.000011
    19  C   -0.034377  -0.040813   0.002837  -0.006696
    20  C    0.006438  -0.014118   0.000228   0.000005
    21  H   -0.000172   0.000493  -0.000019  -0.000183
    22  H   -0.000001   0.001241   0.000042   0.003188
    23  H   -0.000157   0.000237   0.000035   0.000163
    24  C    0.376007   0.370895  -0.033839  -0.040698
    25  H    0.617979  -0.053100  -0.005087   0.004769
    26  C   -0.053100   4.988632   0.380151   0.391587
    27  H   -0.005087   0.380151   0.609784  -0.032247
    28  H    0.004769   0.391587  -0.032247   0.604429
 Mulliken charges:
               1
     1  C   -0.257352
     2  H    0.117587
     3  H    0.108426
     4  C    0.092467
     5  C   -0.387770
     6  H    0.131631
     7  H    0.125164
     8  H    0.118590
     9  C   -0.137072
    10  H    0.093917
    11  C   -0.393505
    12  H    0.131179
    13  H    0.121229
    14  H    0.131431
    15  C   -0.393425
    16  H    0.123408
    17  H    0.125869
    18  H    0.124716
    19  C    0.089700
    20  C   -0.393978
    21  H    0.121110
    22  H    0.128585
    23  H    0.129362
    24  C   -0.136704
    25  H    0.092549
    26  C   -0.240903
    27  H    0.118460
    28  H    0.115330
 Sum of Mulliken charges =  -0.00000
 Mulliken charges with hydrogens summed into heavy atoms:
               1
     1  C   -0.031339
     4  C    0.092467
     5  C   -0.012385
     9  C   -0.043155
    11  C   -0.009666
    15  C   -0.019432
    19  C    0.089700
    20  C   -0.014921
    24  C   -0.044155
    26  C   -0.007114
 Electronic spatial extent (au):  <R**2>=           1886.4386
 Charge=             -0.0000 electrons
 Dipole moment (field-independent basis, Debye):
    X=             -0.1199    Y=             -0.3272    Z=              0.0070  Tot=              0.3486
 Quadrupole moment (field-independent basis, Debye-Ang):
   XX=            -65.0879   YY=            -63.0067   ZZ=            -64.2523
   XY=             -0.0383   XZ=             -1.5972   YZ=              0.1918
 Traceless Quadrupole moment (field-independent basis, Debye-Ang):
   XX=             -0.9723   YY=              1.1090   ZZ=             -0.1367
   XY=             -0.0383   XZ=             -1.5972   YZ=              0.1918
 Octapole moment (field-independent basis, Debye-Ang**2):
  XXX=              0.0234  YYY=              1.6918  ZZZ=             -0.3937  XYY=             -1.4188
  XXY=             -6.2003  XXZ=             -1.3855  XZZ=              1.0518  YZZ=             -0.2853
  YYZ=              0.3923  XYZ=             -3.7956
 Hexadecapole moment (field-independent basis, Debye-Ang**3):
 XXXX=          -1585.2648 YYYY=           -640.2341 ZZZZ=           -377.7941 XXXY=             -3.6782
 XXXZ=            -14.9010 YYYX=             -1.2651 YYYZ=             -2.6751 ZZZX=             -0.5153
 ZZZY=              3.3710 XXYY=           -371.6252 XXZZ=           -325.4471 YYZZ=           -166.5685
 XXYZ=              4.4671 YYXZ=             -2.3376 ZZXY=             -0.1648
 N-N= 5.411754247292D+02 E-N=-1.987506553487D+03  KE= 3.881323188959D+02
 No NMR shielding tensors so no spin-rotation constants.
 Leave Link  601 at Tue Jul  6 11:14:17 2021, MaxMem=   524288000 cpu:               1.2 elap:               0.2
 (Enter /opt/gaussian/g16_legacy/l9999.exe)
 1\1\GINC-TRUENO90\FOpt\RM062X\6-31G(d,p)\C10H18\JRAMOS\06-Jul-2021\0\\
 #p opt=loose m062x/6-31g(d,p)\\Conformer number 038. Energy MM = 24.62
 9 kcal/mol\\0,1\C,-0.9835081243,1.2750280295,-1.1664615582\H,-1.729095
 0265,2.0766934397,-1.128642943\H,-0.8451831202,1.0146147676,-2.2230014
 676\C,-1.4892959919,0.0740303467,-0.3964015\C,-0.9767559873,-1.2844142
 02,-0.8193773007\H,-0.1082321239,-1.5887221166,-0.2247382081\H,-1.7423
 631044,-2.0573342771,-0.7205764435\H,-0.6501396572,-1.2653496406,-1.86
 27335296\C,-2.3277494824,0.2508472044,0.6313742142\H,-2.6496810672,1.2
 70080212,0.8500389158\C,-2.8660717646,-0.8054177906,1.5487471466\H,-3.
 9606448219,-0.781351506,1.5785714393\H,-2.5553584023,-1.8099617008,1.2
 561017722\H,-2.518819361,-0.6392077409,2.5748888087\C,3.1343936972,-0.
 853490679,-0.0137478204\H,2.8184140891,-1.8957360414,0.1193844326\H,3.
 9553664229,-0.6829576857,0.6924165933\H,3.5235564119,-0.7394748849,-1.
 0277422585\C,1.9894849939,0.0858406186,0.2570828834\C,1.4562632929,0.0
 311031208,1.6647344122\H,1.238005454,-1.0087745288,1.9374825247\H,0.53
 87038796,0.6051175832,1.7963852781\H,2.2055441839,0.3904044032,2.38002
 4492\C,1.4885934789,0.8623710814,-0.7099279834\H,1.9361314584,0.779781
 9179,-1.7018196987\C,0.3438325363,1.8286940498,-0.6020479568\H,0.59892
 17973,2.7436252312,-1.1503914753\H,0.1753863386,2.1238607885,0.4378772
 307\\Version=EM64L-G16RevA.03\State=1-A\HF=-391.6898396\RMSD=8.119e-09
 \RMSF=3.349e-04\Dipole=0.0581763,-0.091112,0.0843735\Quadrupole=-0.801
 2054,0.1572894,0.643916,-0.8925846,-0.7259017,-0.4163186\PG=C01 [X(C10
 H18)]\\@


 You don't have to suffer to be a poet.
 Adolescence is enough suffering for anyone.
                             -- John Ciardi
 Job cpu time:       0 days  2 hours 31 minutes 19.3 seconds.
 Elapsed time:       0 days  0 hours 25 minutes 19.1 seconds.
 File lengths (MBytes):  RWF=     42 Int=      0 D2E=      0 Chk=      6 Scr=      1
 Normal termination of Gaussian 16 at Tue Jul  6 11:14:17 2021.
