 Entering Gaussian System, Link 0=/opt/gaussian/g16_legacy/g16
 Input=IsoP_rdkit_03_263_gaussian.com
 Output=IsoP_rdkit_03_263_gaussian.log
 Initial command:
 /opt/gaussian/g16_legacy/l1.exe "/scratch-local/jramos/2641334/Gau-10038.inp" -scrdir="/scratch-local/jramos/2641334/"
 Entering Link 1 = /opt/gaussian/g16_legacy/l1.exe PID=     10039.
  
 Copyright (c) 1988,1990,1992,1993,1995,1998,2003,2009,2016,
            Gaussian, Inc.  All Rights Reserved.
  
 This is part of the Gaussian(R) 16 program.  It is based on
 the Gaussian(R) 09 system (copyright 2009, Gaussian, Inc.),
 the Gaussian(R) 03 system (copyright 2003, Gaussian, Inc.),
 the Gaussian(R) 98 system (copyright 1998, Gaussian, Inc.),
 the Gaussian(R) 94 system (copyright 1995, Gaussian, Inc.),
 the Gaussian 92(TM) system (copyright 1992, Gaussian, Inc.),
 the Gaussian 90(TM) system (copyright 1990, Gaussian, Inc.),
 the Gaussian 88(TM) system (copyright 1988, Gaussian, Inc.),
 the Gaussian 86(TM) system (copyright 1986, Carnegie Mellon
 University), and the Gaussian 82(TM) system (copyright 1983,
 Carnegie Mellon University). Gaussian is a federally registered
 trademark of Gaussian, Inc.
  
 This software contains proprietary and confidential information,
 including trade secrets, belonging to Gaussian, Inc.
  
 This software is provided under written license and may be
 used, copied, transmitted, or stored only in accord with that
 written license.
  
 The following legend is applicable only to US Government
 contracts under FAR:
  
                    RESTRICTED RIGHTS LEGEND
  
 Use, reproduction and disclosure by the US Government is
 subject to restrictions as set forth in subparagraphs (a)
 and (c) of the Commercial Computer Software - Restricted
 Rights clause in FAR 52.227-19.
  
 Gaussian, Inc.
 340 Quinnipiac St., Bldg. 40, Wallingford CT 06492
  
  
 ---------------------------------------------------------------
 Warning -- This program may not be used in any manner that
 competes with the business of Gaussian, Inc. or will provide
 assistance to any competitor of Gaussian, Inc.  The licensee
 of this program is prohibited from giving any competitor of
 Gaussian, Inc. access to this program.  By using this program,
 the user acknowledges that Gaussian, Inc. is engaged in the
 business of creating and licensing software in the field of
 computational chemistry and represents and warrants to the
 licensee that it is not a competitor of Gaussian, Inc. and that
 it will not use this program in any manner prohibited above.
 ---------------------------------------------------------------
  

 Cite this work as:
 Gaussian 16, Revision A.03,
 M. J. Frisch, G. W. Trucks, H. B. Schlegel, G. E. Scuseria, 
 M. A. Robb, J. R. Cheeseman, G. Scalmani, V. Barone, 
 G. A. Petersson, H. Nakatsuji, X. Li, M. Caricato, A. V. Marenich, 
 J. Bloino, B. G. Janesko, R. Gomperts, B. Mennucci, H. P. Hratchian, 
 J. V. Ortiz, A. F. Izmaylov, J. L. Sonnenberg, D. Williams-Young, 
 F. Ding, F. Lipparini, F. Egidi, J. Goings, B. Peng, A. Petrone, 
 T. Henderson, D. Ranasinghe, V. G. Zakrzewski, J. Gao, N. Rega, 
 G. Zheng, W. Liang, M. Hada, M. Ehara, K. Toyota, R. Fukuda, 
 J. Hasegawa, M. Ishida, T. Nakajima, Y. Honda, O. Kitao, H. Nakai, 
 T. Vreven, K. Throssell, J. A. Montgomery, Jr., J. E. Peralta, 
 F. Ogliaro, M. J. Bearpark, J. J. Heyd, E. N. Brothers, K. N. Kudin, 
 V. N. Staroverov, T. A. Keith, R. Kobayashi, J. Normand, 
 K. Raghavachari, A. P. Rendell, J. C. Burant, S. S. Iyengar, 
 J. Tomasi, M. Cossi, J. M. Millam, M. Klene, C. Adamo, R. Cammi, 
 J. W. Ochterski, R. L. Martin, K. Morokuma, O. Farkas, 
 J. B. Foresman, and D. J. Fox, Gaussian, Inc., Wallingford CT, 2016.
 
 ******************************************
 Gaussian 16:  EM64L-G16RevA.03 25-Dec-2016
                 6-Jul-2021 
 ******************************************
 %chk=IsoP_rdkit_03_263_gaussian.chk
 %nproc=6
 Will use up to    6 processors via shared memory.
 %mem=4000Mb
 -----------------------------
 #p opt=loose m062x/6-31g(d,p)
 -----------------------------
 1/7=-1,18=20,19=15,26=3,38=1/1,3;
 2/9=110,12=2,17=6,18=5,40=1/2;
 3/5=1,6=6,7=101,11=2,25=1,30=1,71=1,74=-55/1,2,3;
 4//1;
 5/5=2,38=5/2;
 6/7=2,8=2,9=2,10=2,28=1/1;
 7//1,2,3,16;
 1/7=-1,18=20,19=15,26=3/3(2);
 2/9=110/2;
 99//99;
 2/9=110/2;
 3/5=1,6=6,7=101,11=2,25=1,30=1,71=1,74=-55/1,2,3;
 4/5=5,16=3,69=1/1;
 5/5=2,38=5/2;
 7//1,2,3,16;
 1/7=-1,18=20,19=15,26=3/3(-5);
 2/9=110/2;
 6/7=2,8=2,9=2,10=2,19=2,28=1/1;
 99/9=1/99;
 Leave Link    1 at Tue Jul  6 11:09:05 2021, MaxMem=   524288000 cpu:               0.4 elap:               0.1
 (Enter /opt/gaussian/g16_legacy/l101.exe)
 -------------------------------------------------
 Conformer number 263. Energy MM = 23.759 kcal/mol
 -------------------------------------------------
 Symbolic Z-matrix:
 Charge =  0 Multiplicity = 1
 C                    -0.5919   -0.0761   -0.6847 
 H                    -0.2264    0.9525   -0.8068 
 H                    -0.5956   -0.5107   -1.693 
 C                    -2.0135   -0.0663   -0.1478 
 C                    -2.7389   -1.3825   -0.2342 
 H                    -2.6034   -1.8245   -1.2273 
 H                    -3.8165   -1.2918   -0.0799 
 H                    -2.3493   -2.0827    0.5111 
 C                    -2.5488    1.0749    0.3302 
 H                    -1.9365    1.9767    0.3223 
 C                    -3.9112    1.282     0.9118 
 H                    -3.8203    1.7837    1.8808 
 H                    -4.4626    0.3548    1.0785 
 H                    -4.503     1.9234    0.2518 
 C                     4.1745   -0.2123   -0.5362 
 H                     4.9202   -0.5237    0.2026 
 H                     4.4831    0.7494   -0.959 
 H                     4.1819   -0.9492   -1.3462 
 C                     2.8203   -0.0876    0.112 
 C                     2.7633    0.9074    1.2383 
 H                     3.1549    1.8746    0.9051 
 H                     3.3732    0.56      2.0784 
 H                     1.7513    1.0875    1.6079 
 C                     1.7786   -0.8208   -0.3271 
 H                     1.9384   -1.4981   -1.1663 
 C                     0.376    -0.8472    0.2202 
 H                     0.3332   -0.4555    1.2416 
 H                     0.0691   -1.898     0.2934 
 
 ITRead=  0  0  0  0  0  0  0  0  0  0  0  0  0  0  0  0  0  0  0  0
 ITRead=  0  0  0  0  0  0  0  0
 MicOpt= -1 -1 -1 -1 -1 -1 -1 -1 -1 -1 -1 -1 -1 -1 -1 -1 -1 -1 -1 -1
 MicOpt= -1 -1 -1 -1 -1 -1 -1 -1
 NAtoms=     28 NQM=       28 NQMF=       0 NMMI=      0 NMMIF=      0
                NMic=       0 NMicF=      0.
                    Isotopes and Nuclear Properties:
 (Nuclear quadrupole moments (NQMom) in fm**2, nuclear magnetic moments (NMagM)
  in nuclear magnetons)

  Atom         1           2           3           4           5           6           7           8           9          10
 IAtWgt=          12           1           1          12          12           1           1           1          12           1
 AtmWgt=  12.0000000   1.0078250   1.0078250  12.0000000  12.0000000   1.0078250   1.0078250   1.0078250  12.0000000   1.0078250
 NucSpn=           0           1           1           0           0           1           1           1           0           1
 AtZEff=  -0.0000000  -0.0000000  -0.0000000  -0.0000000  -0.0000000  -0.0000000  -0.0000000  -0.0000000  -0.0000000  -0.0000000
 NQMom=    0.0000000   0.0000000   0.0000000   0.0000000   0.0000000   0.0000000   0.0000000   0.0000000   0.0000000   0.0000000
 NMagM=    0.0000000   2.7928460   2.7928460   0.0000000   0.0000000   2.7928460   2.7928460   2.7928460   0.0000000   2.7928460
 AtZNuc=   6.0000000   1.0000000   1.0000000   6.0000000   6.0000000   1.0000000   1.0000000   1.0000000   6.0000000   1.0000000

  Atom        11          12          13          14          15          16          17          18          19          20
 IAtWgt=          12           1           1           1          12           1           1           1          12          12
 AtmWgt=  12.0000000   1.0078250   1.0078250   1.0078250  12.0000000   1.0078250   1.0078250   1.0078250  12.0000000  12.0000000
 NucSpn=           0           1           1           1           0           1           1           1           0           0
 AtZEff=  -0.0000000  -0.0000000  -0.0000000  -0.0000000  -0.0000000  -0.0000000  -0.0000000  -0.0000000  -0.0000000  -0.0000000
 NQMom=    0.0000000   0.0000000   0.0000000   0.0000000   0.0000000   0.0000000   0.0000000   0.0000000   0.0000000   0.0000000
 NMagM=    0.0000000   2.7928460   2.7928460   2.7928460   0.0000000   2.7928460   2.7928460   2.7928460   0.0000000   0.0000000
 AtZNuc=   6.0000000   1.0000000   1.0000000   1.0000000   6.0000000   1.0000000   1.0000000   1.0000000   6.0000000   6.0000000

  Atom        21          22          23          24          25          26          27          28
 IAtWgt=           1           1           1          12           1          12           1           1
 AtmWgt=   1.0078250   1.0078250   1.0078250  12.0000000   1.0078250  12.0000000   1.0078250   1.0078250
 NucSpn=           1           1           1           0           1           0           1           1
 AtZEff=  -0.0000000  -0.0000000  -0.0000000  -0.0000000  -0.0000000  -0.0000000  -0.0000000  -0.0000000
 NQMom=    0.0000000   0.0000000   0.0000000   0.0000000   0.0000000   0.0000000   0.0000000   0.0000000
 NMagM=    2.7928460   2.7928460   2.7928460   0.0000000   2.7928460   0.0000000   2.7928460   2.7928460
 AtZNuc=   1.0000000   1.0000000   1.0000000   6.0000000   1.0000000   6.0000000   1.0000000   1.0000000
 Leave Link  101 at Tue Jul  6 11:09:05 2021, MaxMem=   524288000 cpu:               1.5 elap:               0.3
 (Enter /opt/gaussian/g16_legacy/l103.exe)

 GradGradGradGradGradGradGradGradGradGradGradGradGradGradGradGradGradGrad
 Berny optimization.
 Initialization pass.
                           ----------------------------
                           !    Initial Parameters    !
                           ! (Angstroms and Degrees)  !
 --------------------------                            --------------------------
 ! Name  Definition              Value          Derivative Info.                !
 --------------------------------------------------------------------------------
 ! R1    R(1,2)                  1.0984         estimate D2E/DX2                !
 ! R2    R(1,3)                  1.098          estimate D2E/DX2                !
 ! R3    R(1,4)                  1.5196         estimate D2E/DX2                !
 ! R4    R(1,26)                 1.5331         estimate D2E/DX2                !
 ! R5    R(4,5)                  1.5053         estimate D2E/DX2                !
 ! R6    R(4,9)                  1.3481         estimate D2E/DX2                !
 ! R7    R(5,6)                  1.0954         estimate D2E/DX2                !
 ! R8    R(5,7)                  1.0924         estimate D2E/DX2                !
 ! R9    R(5,8)                  1.0943         estimate D2E/DX2                !
 ! R10   R(9,10)                 1.0901         estimate D2E/DX2                !
 ! R11   R(9,11)                 1.4958         estimate D2E/DX2                !
 ! R12   R(11,12)                1.095          estimate D2E/DX2                !
 ! R13   R(11,13)                1.0916         estimate D2E/DX2                !
 ! R14   R(11,14)                1.0942         estimate D2E/DX2                !
 ! R15   R(15,16)                1.0949         estimate D2E/DX2                !
 ! R16   R(15,17)                1.0949         estimate D2E/DX2                !
 ! R17   R(15,18)                1.0951         estimate D2E/DX2                !
 ! R18   R(15,19)                1.5065         estimate D2E/DX2                !
 ! R19   R(19,20)                1.5039         estimate D2E/DX2                !
 ! R20   R(19,24)                1.3474         estimate D2E/DX2                !
 ! R21   R(20,21)                1.0954         estimate D2E/DX2                !
 ! R22   R(20,22)                1.0947         estimate D2E/DX2                !
 ! R23   R(20,23)                1.0923         estimate D2E/DX2                !
 ! R24   R(24,25)                1.0902         estimate D2E/DX2                !
 ! R25   R(24,26)                1.5058         estimate D2E/DX2                !
 ! R26   R(26,27)                1.0948         estimate D2E/DX2                !
 ! R27   R(26,28)                1.0971         estimate D2E/DX2                !
 ! A1    A(2,1,3)              105.6464         estimate D2E/DX2                !
 ! A2    A(2,1,4)              110.1525         estimate D2E/DX2                !
 ! A3    A(2,1,26)             109.059          estimate D2E/DX2                !
 ! A4    A(3,1,4)              108.8959         estimate D2E/DX2                !
 ! A5    A(3,1,26)             110.187          estimate D2E/DX2                !
 ! A6    A(4,1,26)             112.6637         estimate D2E/DX2                !
 ! A7    A(1,4,5)              115.143          estimate D2E/DX2                !
 ! A8    A(1,4,9)              120.1452         estimate D2E/DX2                !
 ! A9    A(5,4,9)              124.6922         estimate D2E/DX2                !
 ! A10   A(4,5,6)              110.1954         estimate D2E/DX2                !
 ! A11   A(4,5,7)              113.2451         estimate D2E/DX2                !
 ! A12   A(4,5,8)              110.4141         estimate D2E/DX2                !
 ! A13   A(6,5,7)              106.4742         estimate D2E/DX2                !
 ! A14   A(6,5,8)              108.3744         estimate D2E/DX2                !
 ! A15   A(7,5,8)              107.9468         estimate D2E/DX2                !
 ! A16   A(4,9,10)             118.3408         estimate D2E/DX2                !
 ! A17   A(4,9,11)             128.0796         estimate D2E/DX2                !
 ! A18   A(10,9,11)            113.5724         estimate D2E/DX2                !
 ! A19   A(9,11,12)            109.386          estimate D2E/DX2                !
 ! A20   A(9,11,13)            113.6957         estimate D2E/DX2                !
 ! A21   A(9,11,14)            109.8321         estimate D2E/DX2                !
 ! A22   A(12,11,13)           107.2165         estimate D2E/DX2                !
 ! A23   A(12,11,14)           108.0663         estimate D2E/DX2                !
 ! A24   A(13,11,14)           108.4711         estimate D2E/DX2                !
 ! A25   A(16,15,17)           108.5661         estimate D2E/DX2                !
 ! A26   A(16,15,18)           107.6447         estimate D2E/DX2                !
 ! A27   A(16,15,19)           110.2071         estimate D2E/DX2                !
 ! A28   A(17,15,18)           107.6691         estimate D2E/DX2                !
 ! A29   A(17,15,19)           110.2913         estimate D2E/DX2                !
 ! A30   A(18,15,19)           112.3358         estimate D2E/DX2                !
 ! A31   A(15,19,20)           114.2714         estimate D2E/DX2                !
 ! A32   A(15,19,24)           120.6431         estimate D2E/DX2                !
 ! A33   A(20,19,24)           125.083          estimate D2E/DX2                !
 ! A34   A(19,20,21)           110.049          estimate D2E/DX2                !
 ! A35   A(19,20,22)           110.0991         estimate D2E/DX2                !
 ! A36   A(19,20,23)           113.4278         estimate D2E/DX2                !
 ! A37   A(21,20,22)           108.3286         estimate D2E/DX2                !
 ! A38   A(21,20,23)           106.7714         estimate D2E/DX2                !
 ! A39   A(22,20,23)           107.9879         estimate D2E/DX2                !
 ! A40   A(19,24,25)           118.3981         estimate D2E/DX2                !
 ! A41   A(19,24,26)           127.6768         estimate D2E/DX2                !
 ! A42   A(25,24,26)           113.9171         estimate D2E/DX2                !
 ! A43   A(1,26,24)            111.3904         estimate D2E/DX2                !
 ! A44   A(1,26,27)            110.2462         estimate D2E/DX2                !
 ! A45   A(1,26,28)            110.1519         estimate D2E/DX2                !
 ! A46   A(24,26,27)           111.6687         estimate D2E/DX2                !
 ! A47   A(24,26,28)           107.5532         estimate D2E/DX2                !
 ! A48   A(27,26,28)           105.6343         estimate D2E/DX2                !
 ! D1    D(2,1,4,5)            166.5054         estimate D2E/DX2                !
 ! D2    D(2,1,4,9)            -11.9596         estimate D2E/DX2                !
 ! D3    D(3,1,4,5)             51.0841         estimate D2E/DX2                !
 ! D4    D(3,1,4,9)           -127.3809         estimate D2E/DX2                !
 ! D5    D(26,1,4,5)           -71.4768         estimate D2E/DX2                !
 ! D6    D(26,1,4,9)           110.0582         estimate D2E/DX2                !
 ! D7    D(2,1,26,24)          -56.4914         estimate D2E/DX2                !
 ! D8    D(2,1,26,27)           68.0601         estimate D2E/DX2                !
 ! D9    D(2,1,26,28)         -175.7511         estimate D2E/DX2                !
 ! D10   D(3,1,26,24)           59.0422         estimate D2E/DX2                !
 ! D11   D(3,1,26,27)         -176.4063         estimate D2E/DX2                !
 ! D12   D(3,1,26,28)          -60.2175         estimate D2E/DX2                !
 ! D13   D(4,1,26,24)         -179.1248         estimate D2E/DX2                !
 ! D14   D(4,1,26,27)          -54.5733         estimate D2E/DX2                !
 ! D15   D(4,1,26,28)           61.6156         estimate D2E/DX2                !
 ! D16   D(1,4,5,6)            -46.4559         estimate D2E/DX2                !
 ! D17   D(1,4,5,7)           -165.5899         estimate D2E/DX2                !
 ! D18   D(1,4,5,8)             73.2325         estimate D2E/DX2                !
 ! D19   D(9,4,5,6)            131.9297         estimate D2E/DX2                !
 ! D20   D(9,4,5,7)             12.7957         estimate D2E/DX2                !
 ! D21   D(9,4,5,8)           -108.3818         estimate D2E/DX2                !
 ! D22   D(1,4,9,10)            -0.199          estimate D2E/DX2                !
 ! D23   D(1,4,9,11)          -179.1508         estimate D2E/DX2                !
 ! D24   D(5,4,9,10)          -178.509          estimate D2E/DX2                !
 ! D25   D(5,4,9,11)             2.5392         estimate D2E/DX2                !
 ! D26   D(4,9,11,12)          128.6718         estimate D2E/DX2                !
 ! D27   D(4,9,11,13)            8.8638         estimate D2E/DX2                !
 ! D28   D(4,9,11,14)         -112.8782         estimate D2E/DX2                !
 ! D29   D(10,9,11,12)         -50.3216         estimate D2E/DX2                !
 ! D30   D(10,9,11,13)        -170.1296         estimate D2E/DX2                !
 ! D31   D(10,9,11,14)          68.1284         estimate D2E/DX2                !
 ! D32   D(16,15,19,20)         59.5672         estimate D2E/DX2                !
 ! D33   D(16,15,19,24)       -120.9801         estimate D2E/DX2                !
 ! D34   D(17,15,19,20)        -60.2886         estimate D2E/DX2                !
 ! D35   D(17,15,19,24)        119.1642         estimate D2E/DX2                !
 ! D36   D(18,15,19,20)        179.5949         estimate D2E/DX2                !
 ! D37   D(18,15,19,24)         -0.9524         estimate D2E/DX2                !
 ! D38   D(15,19,20,21)         52.6053         estimate D2E/DX2                !
 ! D39   D(15,19,20,22)        -66.7355         estimate D2E/DX2                !
 ! D40   D(15,19,20,23)        172.1365         estimate D2E/DX2                !
 ! D41   D(24,19,20,21)       -126.8194         estimate D2E/DX2                !
 ! D42   D(24,19,20,22)        113.8398         estimate D2E/DX2                !
 ! D43   D(24,19,20,23)         -7.2881         estimate D2E/DX2                !
 ! D44   D(15,19,24,25)         -0.5125         estimate D2E/DX2                !
 ! D45   D(15,19,24,26)        178.3968         estimate D2E/DX2                !
 ! D46   D(20,19,24,25)        178.8778         estimate D2E/DX2                !
 ! D47   D(20,19,24,26)         -2.2128         estimate D2E/DX2                !
 ! D48   D(19,24,26,1)         104.4456         estimate D2E/DX2                !
 ! D49   D(19,24,26,27)        -19.3027         estimate D2E/DX2                !
 ! D50   D(19,24,26,28)       -134.7593         estimate D2E/DX2                !
 ! D51   D(25,24,26,1)         -76.6039         estimate D2E/DX2                !
 ! D52   D(25,24,26,27)        159.6478         estimate D2E/DX2                !
 ! D53   D(25,24,26,28)         44.1911         estimate D2E/DX2                !
 --------------------------------------------------------------------------------
 Trust Radius=3.00D-01 FncErr=1.00D-07 GrdErr=1.00D-06 EigMax=2.50D+02 EigMin=1.00D-04
 Number of steps in this run=    138 maximum allowed number of steps=    168.
 GradGradGradGradGradGradGradGradGradGradGradGradGradGradGradGradGradGrad

 Leave Link  103 at Tue Jul  6 11:09:06 2021, MaxMem=   524288000 cpu:               0.2 elap:               0.1
 (Enter /opt/gaussian/g16_legacy/l202.exe)
                          Input orientation:                          
 ---------------------------------------------------------------------
 Center     Atomic      Atomic             Coordinates (Angstroms)
 Number     Number       Type             X           Y           Z
 ---------------------------------------------------------------------
      1          6           0       -0.591900   -0.076100   -0.684700
      2          1           0       -0.226400    0.952500   -0.806800
      3          1           0       -0.595600   -0.510700   -1.693000
      4          6           0       -2.013500   -0.066300   -0.147800
      5          6           0       -2.738900   -1.382500   -0.234200
      6          1           0       -2.603400   -1.824500   -1.227300
      7          1           0       -3.816500   -1.291800   -0.079900
      8          1           0       -2.349300   -2.082700    0.511100
      9          6           0       -2.548800    1.074900    0.330200
     10          1           0       -1.936500    1.976700    0.322300
     11          6           0       -3.911200    1.282000    0.911800
     12          1           0       -3.820300    1.783700    1.880800
     13          1           0       -4.462600    0.354800    1.078500
     14          1           0       -4.503000    1.923400    0.251800
     15          6           0        4.174500   -0.212300   -0.536200
     16          1           0        4.920200   -0.523700    0.202600
     17          1           0        4.483100    0.749400   -0.959000
     18          1           0        4.181900   -0.949200   -1.346200
     19          6           0        2.820300   -0.087600    0.112000
     20          6           0        2.763300    0.907400    1.238300
     21          1           0        3.154900    1.874600    0.905100
     22          1           0        3.373200    0.560000    2.078400
     23          1           0        1.751300    1.087500    1.607900
     24          6           0        1.778600   -0.820800   -0.327100
     25          1           0        1.938400   -1.498100   -1.166300
     26          6           0        0.376000   -0.847200    0.220200
     27          1           0        0.333200   -0.455500    1.241600
     28          1           0        0.069100   -1.898000    0.293400
 ---------------------------------------------------------------------
                    Distance matrix (angstroms):
                    1          2          3          4          5
     1  C    0.000000
     2  H    1.098416   0.000000
     3  H    1.097980   1.750032   0.000000
     4  C    1.519640   2.160084   2.143729   0.000000
     5  C    2.553280   3.477463   2.735300   1.505341   0.000000
     6  H    2.719825   3.679494   2.444219   2.145826   1.095432
     7  H    3.498822   4.295822   3.685974   2.181117   1.092363
     8  H    2.923155   3.931412   3.225632   2.147738   1.094322
     9  C    2.486821   2.588685   3.228383   1.348098   2.528537
    10  H    2.652543   2.290916   3.470822   2.097802   3.498251
    11  C    3.925685   4.079204   4.581698   2.557720   3.128444
    12  H    4.523628   4.564012   5.332449   3.286677   3.958216
    13  H    4.275145   4.675146   4.835700   2.771142   2.777145
    14  H    4.491296   4.511384   4.997486   3.211884   3.778521
    15  C    4.770657   4.560472   4.917426   6.201896   7.018238
    16  H    5.600973   5.448444   5.832454   6.957599   7.719465
    17  H    5.149011   4.716334   5.283919   6.597668   7.564894
    18  H    4.897862   4.831203   4.810100   6.371707   7.022946
    19  C    3.503994   3.347892   3.886568   4.840824   5.718507
    20  C    3.990309   3.622537   4.678219   5.068252   6.138901
    21  H    4.513447   3.900520   5.148401   5.620325   6.829611
    22  H    4.874563   4.629855   5.578641   5.862146   6.817565
    23  H    3.478587   3.124148   4.354093   4.311317   5.445744
    24  C    2.510324   2.719325   2.756569   3.870587   4.553234
    25  H    2.942183   3.289535   2.770113   4.324917   4.770672
    26  C    1.533059   2.157901   2.171997   2.540657   3.193059
    27  H    2.170342   2.547854   3.078570   2.754798   3.532013
    28  H    2.170926   3.069709   2.512412   2.808381   2.903268
                    6          7          8          9         10
     6  H    0.000000
     7  H    1.752686   0.000000
     8  H    1.775745   1.768468   0.000000
     9  C    3.291703   2.715974   3.169063   0.000000
    10  H    4.158742   3.791999   4.084700   1.090054   0.000000
    11  C    3.992046   2.759870   3.731126   1.495755   2.174755
    12  H    4.915307   3.647336   4.357633   2.126845   2.452524
    13  H    3.677321   2.114386   3.275574   2.177413   3.095736
    14  H    4.454545   3.304364   4.555710   2.131900   2.568021
    15  C    7.001195   8.076485   6.866964   6.900021   6.547753
    16  H    7.767963   8.774948   7.441188   7.639225   7.299360
    17  H    7.544231   8.592012   7.540801   7.156508   6.660275
    18  H    6.842557   8.105263   6.884109   7.225622   6.984240
    19  C    5.850390   6.747891   5.555580   5.497841   5.189673
    20  C    6.507221   7.061721   5.967260   5.391763   4.906178
    21  H    7.168577   7.719892   6.790558   5.788111   5.125664
    22  H    7.234172   7.731702   6.495175   6.196080   5.769215
    23  H    5.956636   6.285709   5.297930   4.485926   4.005410
    24  C    4.584724   5.620329   4.397105   4.769917   4.695710
    25  H    4.553922   5.860179   4.641099   5.384682   5.413411
    26  C    3.453577   4.226675   3.006384   3.501574   3.651368
    27  H    4.073481   4.434610   3.221369   3.388023   3.451412
    28  H    3.075742   3.950281   2.435193   3.961425   4.363091
                   11         12         13         14         15
    11  C    0.000000
    12  H    1.094955   0.000000
    13  H    1.091573   1.760111   0.000000
    14  H    1.094176   1.771789   1.773576   0.000000
    15  C    8.349143   8.587359   8.805019   8.971130   0.000000
    16  H    9.041966   9.194389   9.464454   9.735883   1.094926
    17  H    8.616718   8.836328   9.183282   9.142992   1.094925
    18  H    8.693393   9.050827   9.072319   9.286168   1.095069
    19  C    6.915821   7.122358   7.360059   7.595682   1.506510
    20  C    6.692972   6.672668   7.248761   7.403010   2.528649
    21  H    7.090909   7.043697   7.769567   7.685871   2.733511
    22  H    7.412471   7.299516   7.902004   8.199381   2.841595
    23  H    5.708440   5.621556   6.279305   6.453991   3.486910
    24  C    6.191160   6.557890   6.504639   6.879263   2.480793
    25  H    6.801858   7.295043   7.031726   7.430296   2.655269
    26  C    4.836516   5.223807   5.059005   5.610870   3.924773
    27  H    4.598109   4.761739   4.866506   5.479754   4.239729
    28  H    5.132018   5.585892   5.121308   5.958937   4.514879
                   16         17         18         19         20
    16  H    0.000000
    17  H    1.777964   0.000000
    18  H    1.767744   1.768018   0.000000
    19  C    2.146619   2.147676   2.173167   0.000000
    20  C    2.787999   2.794781   3.484111   1.503937   0.000000
    21  H    3.059679   2.550502   3.754587   2.142707   1.095376
    22  H    2.661999   3.239375   3.828781   2.142852   1.094730
    23  H    3.822664   3.763777   4.333898   2.182049   1.092330
    24  C    3.199766   3.190477   2.613599   1.347416   2.531163
    25  H    3.422641   3.401430   2.316667   2.097930   3.499856
    26  C    4.555734   4.561569   4.116903   2.561894   3.132786
    27  H    4.703694   4.849340   4.664005   2.756268   2.786197
    28  H    5.042828   5.297228   4.528094   3.298417   4.002726
                   21         22         23         24         25
    21  H    0.000000
    22  H    1.775517   0.000000
    23  H    1.756003   1.769233   0.000000
    24  C    3.267675   3.199342   2.717826   0.000000
    25  H    4.140734   4.101525   3.796909   1.090196   0.000000
    26  C    3.949629   3.796884   2.749586   1.505829   2.187955
    27  H    3.674859   3.312563   2.127447   2.164127   3.075982
    28  H    4.912113   4.488326   3.670275   2.113710   2.405187
                   26         27         28
    26  C    0.000000
    27  H    1.094769   0.000000
    28  H    1.097145   1.746321   0.000000
 Stoichiometry    C10H18
 Framework group  C1[X(C10H18)]
 Deg. of freedom    78
 Full point group                 C1      NOp   1
 Largest Abelian subgroup         C1      NOp   1
 Largest concise Abelian subgroup C1      NOp   1
                         Standard orientation:                         
 ---------------------------------------------------------------------
 Center     Atomic      Atomic             Coordinates (Angstroms)
 Number     Number       Type             X           Y           Z
 ---------------------------------------------------------------------
      1          6           0       -0.561867   -0.502044   -0.649874
      2          1           0       -0.249890    0.338837   -1.283992
      3          1           0       -0.500358   -1.393174   -1.288361
      4          6           0       -2.002376   -0.314899   -0.203537
      5          6           0       -2.648838   -1.533692    0.398694
      6          1           0       -2.448664   -2.413720   -0.222153
      7          1           0       -3.735193   -1.450923    0.477684
      8          1           0       -2.251168   -1.720867    1.400874
      9          6           0       -2.619669    0.869384   -0.387356
     10          1           0       -2.059010    1.677807   -0.856750
     11          6           0       -4.013979    1.252178   -0.004403
     12          1           0       -3.990661    2.186376    0.566260
     13          1           0       -4.518897    0.508092    0.614407
     14          1           0       -4.613530    1.419158   -0.904335
     15          6           0        4.194740   -0.213534   -0.424889
     16          1           0        4.926151   -0.047417    0.372800
     17          1           0        4.465887    0.411313   -1.282156
     18          1           0        4.276213   -1.259927   -0.737299
     19          6           0        2.810526    0.133762    0.057717
     20          6           0        2.652300    1.560216    0.507181
     21          1           0        3.002309    2.241654   -0.275752
     22          1           0        3.246146    1.738434    1.409411
     23          1           0        1.617657    1.834826    0.724636
     24          6           0        1.830169   -0.790588    0.054845
     25          1           0        2.061524   -1.790621   -0.312491
     26          6           0        0.410221   -0.627696    0.528907
     27          1           0        0.304194    0.230336    1.200515
     28          1           0        0.159928   -1.508705    1.132979
 ---------------------------------------------------------------------
 Rotational constants (GHZ):           2.8399642           0.4787636           0.4332936
 Leave Link  202 at Tue Jul  6 11:09:06 2021, MaxMem=   524288000 cpu:               0.2 elap:               0.1
 (Enter /opt/gaussian/g16_legacy/l301.exe)
 Standard basis: 6-31G(d,p) (6D, 7F)
 Ernie: Thresh=  0.10000D-02 Tol=  0.10000D-05 Strict=F.
 There are   240 symmetry adapted cartesian basis functions of A   symmetry.
 There are   240 symmetry adapted basis functions of A   symmetry.
   240 basis functions,   406 primitive gaussians,   240 cartesian basis functions
    39 alpha electrons       39 beta electrons
       nuclear repulsion energy       508.7439481397 Hartrees.
 IExCor= 4336 DFT=T Ex+Corr=M062X ExCW=0 ScaHFX=  0.540000
 ScaDFX=  1.000000  1.000000  1.000000  1.000000 ScalE2=  1.000000  1.000000
 IRadAn=      5 IRanWt=     -1 IRanGd=            0 ICorTp=0 IEmpDi=  4
 NAtoms=   28 NActive=   28 NUniq=   28 SFac= 1.00D+00 NAtFMM=   60 NAOKFM=F Big=F
 Integral buffers will be    131072 words long.
 Raffenetti 2 integral format.
 Two-electron integral symmetry is turned on.
 Leave Link  301 at Tue Jul  6 11:09:06 2021, MaxMem=   524288000 cpu:               0.8 elap:               0.2
 (Enter /opt/gaussian/g16_legacy/l302.exe)
 NPDir=0 NMtPBC=     1 NCelOv=     1 NCel=       1 NClECP=     1 NCelD=      1
         NCelK=      1 NCelE2=     1 NClLst=     1 CellRange=     0.0.
 One-electron integrals computed using PRISM.
 One-electron integral symmetry used in STVInt
 NBasis=   240 RedAO= T EigKep=  2.30D-03  NBF=   240
 NBsUse=   240 1.00D-06 EigRej= -1.00D+00 NBFU=   240
 Precomputing XC quadrature grid using
 IXCGrd= 4 IRadAn=           5 IRanWt=          -1 IRanGd=           0 AccXCQ= 0.00D+00.
 Generated NRdTot=       0 NPtTot=           0 NUsed=           0 NTot=          32
 NSgBfM=   240   240   240   240   240 MxSgAt=    28 MxSgA2=    28.
 Leave Link  302 at Tue Jul  6 11:09:07 2021, MaxMem=   524288000 cpu:               4.5 elap:               1.0
 (Enter /opt/gaussian/g16_legacy/l303.exe)
 DipDrv:  MaxL=1.
 Leave Link  303 at Tue Jul  6 11:09:08 2021, MaxMem=   524288000 cpu:               0.3 elap:               0.1
 (Enter /opt/gaussian/g16_legacy/l401.exe)
 ExpMin= 1.61D-01 ExpMax= 3.05D+03 ExpMxC= 4.57D+02 IAcc=3 IRadAn=         5 AccDes= 0.00D+00
 Harris functional with IExCor= 1009 and IRadAn=       5 diagonalized for initial guess.
 HarFok:  IExCor= 1009 AccDes= 0.00D+00 IRadAn=         5 IDoV= 1 UseB2=F ITyADJ=14
 ICtDFT=  3500011 ScaDFX=  1.000000  1.000000  1.000000  1.000000
 FoFCou: FMM=F IPFlag=           0 FMFlag=      100000 FMFlg1=           0
         NFxFlg=           0 DoJE=T BraDBF=F KetDBF=T FulRan=T
         wScrn=  0.000000 ICntrl=       500 IOpCl=  0 I1Cent=   200000004 NGrid=           0
         NMat0=    1 NMatS0=      1 NMatT0=    0 NMatD0=    1 NMtDS0=    0 NMtDT0=    0
 Petite list used in FoFCou.
 Harris En= -391.656003379843    
 JPrj=0 DoOrth=F DoCkMO=F.
 Leave Link  401 at Tue Jul  6 11:09:11 2021, MaxMem=   524288000 cpu:              19.7 elap:               3.4
 (Enter /opt/gaussian/g16_legacy/l502.exe)
 Integral symmetry usage will be decided dynamically.
 Closed shell SCF:
 Using DIIS extrapolation, IDIIS=  1040.
 NGot=   524288000 LenX=   524168546 LenY=   524110505
 Requested convergence on RMS density matrix=1.00D-08 within 128 cycles.
 Requested convergence on MAX density matrix=1.00D-06.
 Requested convergence on             energy=1.00D-06.
 No special actions if energy rises.
 Fock matrices will be formed incrementally for  20 cycles.
 Integral accuracy reduced to 1.0D-05 until final iterations.

 Cycle   1  Pass 0  IDiag  1:
 FoFJK:  IHMeth= 1 ICntrl=       0 DoSepK=F KAlg= 0 I1Cent=           0 FoldK=F
 IRaf= 830000000 NMat=       1 IRICut=       1 DoRegI=T DoRafI=F ISym2E= 0 IDoP0=0 IntGTp=1.
 FoFCou: FMM=F IPFlag=           0 FMFlag=      100000 FMFlg1=           0
         NFxFlg=           0 DoJE=F BraDBF=F KetDBF=F FulRan=T
         wScrn=  0.000000 ICntrl=         0 IOpCl=  0 I1Cent=           0 NGrid=           0
         NMat0=    1 NMatS0=      1 NMatT0=    0 NMatD0=    1 NMtDS0=    0 NMtDT0=    0
 Symmetry not used in FoFCou.
 E= -391.299127097745    
 DIIS: error= 3.13D-02 at cycle   1 NSaved=   1.
 NSaved= 1 IEnMin= 1 EnMin= -391.299127097745     IErMin= 1 ErrMin= 3.13D-02
 ErrMax= 3.13D-02  0.00D+00 EMaxC= 1.00D-01 BMatC= 3.69D-01 BMatP= 3.69D-01
 IDIUse=3 WtCom= 6.87D-01 WtEn= 3.13D-01
 Coeff-Com:  0.100D+01
 Coeff-En:   0.100D+01
 Coeff:      0.100D+01
 Gap=     0.340 Goal=   None    Shift=    0.000
 GapD=    0.340 DampG=1.000 DampE=0.500 DampFc=0.5000 IDamp=-1.
 Damping current iteration by 5.00D-01
 RMSDP=4.37D-03 MaxDP=1.13D-01              OVMax= 1.41D-01

 Cycle   2  Pass 0  IDiag  1:
 RMSU=  2.14D-03    CP:  9.75D-01
 E= -391.507857011315     Delta-E=       -0.208729913570 Rises=F Damp=T
 DIIS: error= 1.01D-02 at cycle   2 NSaved=   2.
 NSaved= 2 IEnMin= 2 EnMin= -391.507857011315     IErMin= 2 ErrMin= 1.01D-02
 ErrMax= 1.01D-02  0.00D+00 EMaxC= 1.00D-01 BMatC= 2.10D-02 BMatP= 3.69D-01
 IDIUse=3 WtCom= 8.99D-01 WtEn= 1.01D-01
 Coeff-Com: -0.154D+00 0.115D+01
 Coeff-En:   0.000D+00 0.100D+01
 Coeff:     -0.138D+00 0.114D+01
 Gap=     0.354 Goal=   None    Shift=    0.000
 RMSDP=8.22D-04 MaxDP=2.54D-02 DE=-2.09D-01 OVMax= 6.19D-02

 Cycle   3  Pass 0  IDiag  1:
 RMSU=  7.74D-04    CP:  9.69D-01  1.12D+00
 E= -391.687396646609     Delta-E=       -0.179539635294 Rises=F Damp=F
 DIIS: error= 9.14D-04 at cycle   3 NSaved=   3.
 NSaved= 3 IEnMin= 3 EnMin= -391.687396646609     IErMin= 3 ErrMin= 9.14D-04
 ErrMax= 9.14D-04  0.00D+00 EMaxC= 1.00D-01 BMatC= 5.05D-04 BMatP= 2.10D-02
 IDIUse=3 WtCom= 9.91D-01 WtEn= 9.14D-03
 Coeff-Com: -0.254D-01 0.113D+00 0.912D+00
 Coeff-En:   0.000D+00 0.000D+00 0.100D+01
 Coeff:     -0.251D-01 0.112D+00 0.913D+00
 Gap=     0.338 Goal=   None    Shift=    0.000
 RMSDP=1.50D-04 MaxDP=3.75D-03 DE=-1.80D-01 OVMax= 5.66D-03

 Cycle   4  Pass 0  IDiag  1:
 RMSU=  1.35D-04    CP:  9.68D-01  1.14D+00  9.59D-01
 E= -391.687769761945     Delta-E=       -0.000373115336 Rises=F Damp=F
 DIIS: error= 5.71D-04 at cycle   4 NSaved=   4.
 NSaved= 4 IEnMin= 4 EnMin= -391.687769761945     IErMin= 4 ErrMin= 5.71D-04
 ErrMax= 5.71D-04  0.00D+00 EMaxC= 1.00D-01 BMatC= 1.25D-04 BMatP= 5.05D-04
 IDIUse=3 WtCom= 9.94D-01 WtEn= 5.71D-03
 Coeff-Com: -0.441D-02 0.176D-01 0.332D+00 0.655D+00
 Coeff-En:   0.000D+00 0.000D+00 0.115D-01 0.989D+00
 Coeff:     -0.439D-02 0.175D-01 0.330D+00 0.657D+00
 Gap=     0.338 Goal=   None    Shift=    0.000
 RMSDP=6.50D-05 MaxDP=2.26D-03 DE=-3.73D-04 OVMax= 4.77D-03

 Cycle   5  Pass 0  IDiag  1:
 RMSU=  4.04D-05    CP:  9.68D-01  1.14D+00  9.91D-01  6.75D-01
 E= -391.687873216629     Delta-E=       -0.000103454684 Rises=F Damp=F
 DIIS: error= 3.13D-04 at cycle   5 NSaved=   5.
 NSaved= 5 IEnMin= 5 EnMin= -391.687873216629     IErMin= 5 ErrMin= 3.13D-04
 ErrMax= 3.13D-04  0.00D+00 EMaxC= 1.00D-01 BMatC= 2.45D-05 BMatP= 1.25D-04
 IDIUse=3 WtCom= 9.97D-01 WtEn= 3.13D-03
 Coeff-Com:  0.585D-03-0.203D-02 0.857D-01 0.338D+00 0.578D+00
 Coeff-En:   0.000D+00 0.000D+00 0.000D+00 0.953D-01 0.905D+00
 Coeff:      0.583D-03-0.202D-02 0.855D-01 0.337D+00 0.579D+00
 Gap=     0.339 Goal=   None    Shift=    0.000
 RMSDP=2.22D-05 MaxDP=9.30D-04 DE=-1.03D-04 OVMax= 1.85D-03

 Cycle   6  Pass 0  IDiag  1:
 RMSU=  1.26D-05    CP:  9.68D-01  1.14D+00  9.96D-01  7.54D-01  6.49D-01
 E= -391.687897028890     Delta-E=       -0.000023812262 Rises=F Damp=F
 DIIS: error= 5.47D-05 at cycle   6 NSaved=   6.
 NSaved= 6 IEnMin= 6 EnMin= -391.687897028890     IErMin= 6 ErrMin= 5.47D-05
 ErrMax= 5.47D-05  0.00D+00 EMaxC= 1.00D-01 BMatC= 1.15D-06 BMatP= 2.45D-05
 IDIUse=1 WtCom= 1.00D+00 WtEn= 0.00D+00
 Coeff-Com:  0.807D-03-0.274D-02 0.331D-02 0.760D-01 0.223D+00 0.700D+00
 Coeff:      0.807D-03-0.274D-02 0.331D-02 0.760D-01 0.223D+00 0.700D+00
 Gap=     0.339 Goal=   None    Shift=    0.000
 RMSDP=5.56D-06 MaxDP=1.78D-04 DE=-2.38D-05 OVMax= 4.34D-04

 Initial convergence to 1.0D-05 achieved.  Increase integral accuracy.
 Cycle   7  Pass 1  IDiag  1:
 E= -391.687906212472     Delta-E=       -0.000009183582 Rises=F Damp=F
 DIIS: error= 1.34D-05 at cycle   1 NSaved=   1.
 NSaved= 1 IEnMin= 1 EnMin= -391.687906212472     IErMin= 1 ErrMin= 1.34D-05
 ErrMax= 1.34D-05  0.00D+00 EMaxC= 1.00D-01 BMatC= 2.23D-07 BMatP= 2.23D-07
 IDIUse=1 WtCom= 1.00D+00 WtEn= 0.00D+00
 Coeff-Com:  0.100D+01
 Coeff:      0.100D+01
 Gap=     0.339 Goal=   None    Shift=    0.000
 RMSDP=5.56D-06 MaxDP=1.78D-04 DE=-9.18D-06 OVMax= 2.15D-04

 Cycle   8  Pass 1  IDiag  1:
 RMSU=  6.70D-06    CP:  1.00D+00
 E= -391.687906303441     Delta-E=       -0.000000090969 Rises=F Damp=F
 DIIS: error= 1.61D-05 at cycle   2 NSaved=   2.
 NSaved= 2 IEnMin= 2 EnMin= -391.687906303441     IErMin= 1 ErrMin= 1.34D-05
 ErrMax= 1.61D-05  0.00D+00 EMaxC= 1.00D-01 BMatC= 1.43D-07 BMatP= 2.23D-07
 IDIUse=1 WtCom= 1.00D+00 WtEn= 0.00D+00
 Coeff-Com:  0.432D+00 0.568D+00
 Coeff:      0.432D+00 0.568D+00
 Gap=     0.339 Goal=   None    Shift=    0.000
 RMSDP=1.65D-06 MaxDP=6.81D-05 DE=-9.10D-08 OVMax= 1.43D-04

 Cycle   9  Pass 1  IDiag  1:
 RMSU=  1.60D-06    CP:  1.00D+00  9.42D-01
 E= -391.687906428416     Delta-E=       -0.000000124975 Rises=F Damp=F
 DIIS: error= 6.45D-06 at cycle   3 NSaved=   3.
 NSaved= 3 IEnMin= 3 EnMin= -391.687906428416     IErMin= 3 ErrMin= 6.45D-06
 ErrMax= 6.45D-06  0.00D+00 EMaxC= 1.00D-01 BMatC= 1.30D-08 BMatP= 1.43D-07
 IDIUse=1 WtCom= 1.00D+00 WtEn= 0.00D+00
 Coeff-Com:  0.230D-01 0.225D+00 0.752D+00
 Coeff:      0.230D-01 0.225D+00 0.752D+00
 Gap=     0.339 Goal=   None    Shift=    0.000
 RMSDP=5.95D-07 MaxDP=2.22D-05 DE=-1.25D-07 OVMax= 5.33D-05

 Cycle  10  Pass 1  IDiag  1:
 RMSU=  4.09D-07    CP:  1.00D+00  9.83D-01  7.94D-01
 E= -391.687906439569     Delta-E=       -0.000000011153 Rises=F Damp=F
 DIIS: error= 2.09D-06 at cycle   4 NSaved=   4.
 NSaved= 4 IEnMin= 4 EnMin= -391.687906439569     IErMin= 4 ErrMin= 2.09D-06
 ErrMax= 2.09D-06  0.00D+00 EMaxC= 1.00D-01 BMatC= 2.21D-09 BMatP= 1.30D-08
 IDIUse=1 WtCom= 1.00D+00 WtEn= 0.00D+00
 Coeff-Com: -0.217D-01 0.717D-01 0.395D+00 0.555D+00
 Coeff:     -0.217D-01 0.717D-01 0.395D+00 0.555D+00
 Gap=     0.339 Goal=   None    Shift=    0.000
 RMSDP=1.99D-07 MaxDP=6.69D-06 DE=-1.12D-08 OVMax= 1.46D-05

 Cycle  11  Pass 1  IDiag  1:
 RMSU=  1.13D-07    CP:  1.00D+00  9.85D-01  8.37D-01  6.39D-01
 E= -391.687906441859     Delta-E=       -0.000000002290 Rises=F Damp=F
 DIIS: error= 1.64D-07 at cycle   5 NSaved=   5.
 NSaved= 5 IEnMin= 5 EnMin= -391.687906441859     IErMin= 5 ErrMin= 1.64D-07
 ErrMax= 1.64D-07  0.00D+00 EMaxC= 1.00D-01 BMatC= 1.43D-11 BMatP= 2.21D-09
 IDIUse=1 WtCom= 1.00D+00 WtEn= 0.00D+00
 Coeff-Com: -0.286D-02-0.403D-02 0.102D-02 0.552D-01 0.951D+00
 Coeff:     -0.286D-02-0.403D-02 0.102D-02 0.552D-01 0.951D+00
 Gap=     0.339 Goal=   None    Shift=    0.000
 RMSDP=3.08D-08 MaxDP=7.56D-07 DE=-2.29D-09 OVMax= 1.39D-06

 Cycle  12  Pass 1  IDiag  1:
 RMSU=  2.08D-08    CP:  1.00D+00  9.86D-01  8.39D-01  6.85D-01  1.10D+00
 E= -391.687906441896     Delta-E=       -0.000000000037 Rises=F Damp=F
 DIIS: error= 8.42D-08 at cycle   6 NSaved=   6.
 NSaved= 6 IEnMin= 6 EnMin= -391.687906441896     IErMin= 6 ErrMin= 8.42D-08
 ErrMax= 8.42D-08  0.00D+00 EMaxC= 1.00D-01 BMatC= 2.58D-12 BMatP= 1.43D-11
 IDIUse=1 WtCom= 1.00D+00 WtEn= 0.00D+00
 Coeff-Com:  0.712D-03-0.709D-02-0.305D-01-0.222D-01 0.334D+00 0.725D+00
 Coeff:      0.712D-03-0.709D-02-0.305D-01-0.222D-01 0.334D+00 0.725D+00
 Gap=     0.339 Goal=   None    Shift=    0.000
 RMSDP=9.03D-09 MaxDP=2.81D-07 DE=-3.68D-11 OVMax= 3.78D-07

 SCF Done:  E(RM062X) =  -391.687906442     A.U. after   12 cycles
            NFock= 12  Conv=0.90D-08     -V/T= 2.0093
 KE= 3.880787563329D+02 PE=-1.922553319282D+03 EE= 6.340427083674D+02
 Leave Link  502 at Tue Jul  6 11:10:19 2021, MaxMem=   524288000 cpu:             405.8 elap:              68.0
 (Enter /opt/gaussian/g16_legacy/l601.exe)
 Copying SCF densities to generalized density rwf, IOpCl= 0 IROHF=0.

 **********************************************************************

            Population analysis using the SCF density.

 **********************************************************************

 Orbital symmetries:
       Occupied  (A) (A) (A) (A) (A) (A) (A) (A) (A) (A) (A) (A)
                 (A) (A) (A) (A) (A) (A) (A) (A) (A) (A) (A) (A)
                 (A) (A) (A) (A) (A) (A) (A) (A) (A) (A) (A) (A)
                 (A) (A) (A)
       Virtual   (A) (A) (A) (A) (A) (A) (A) (A) (A) (A) (A) (A)
                 (A) (A) (A) (A) (A) (A) (A) (A) (A) (A) (A) (A)
                 (A) (A) (A) (A) (A) (A) (A) (A) (A) (A) (A) (A)
                 (A) (A) (A) (A) (A) (A) (A) (A) (A) (A) (A) (A)
                 (A) (A) (A) (A) (A) (A) (A) (A) (A) (A) (A) (A)
                 (A) (A) (A) (A) (A) (A) (A) (A) (A) (A) (A) (A)
                 (A) (A) (A) (A) (A) (A) (A) (A) (A) (A) (A) (A)
                 (A) (A) (A) (A) (A) (A) (A) (A) (A) (A) (A) (A)
                 (A) (A) (A) (A) (A) (A) (A) (A) (A) (A) (A) (A)
                 (A) (A) (A) (A) (A) (A) (A) (A) (A) (A) (A) (A)
                 (A) (A) (A) (A) (A) (A) (A) (A) (A) (A) (A) (A)
                 (A) (A) (A) (A) (A) (A) (A) (A) (A) (A) (A) (A)
                 (A) (A) (A) (A) (A) (A) (A) (A) (A) (A) (A) (A)
                 (A) (A) (A) (A) (A) (A) (A) (A) (A) (A) (A) (A)
                 (A) (A) (A) (A) (A) (A) (A) (A) (A) (A) (A) (A)
                 (A) (A) (A) (A) (A) (A) (A) (A) (A) (A) (A) (A)
                 (A) (A) (A) (A) (A) (A) (A) (A) (A)
 The electronic state is 1-A.
 Alpha  occ. eigenvalues --  -10.54559 -10.54217 -10.53732 -10.53673 -10.53456
 Alpha  occ. eigenvalues --  -10.53403 -10.53319 -10.53261 -10.53241 -10.53108
 Alpha  occ. eigenvalues --   -0.91850  -0.89885  -0.84897  -0.81002  -0.77737
 Alpha  occ. eigenvalues --   -0.76458  -0.72317  -0.67532  -0.58758  -0.57967
 Alpha  occ. eigenvalues --   -0.53826  -0.52729  -0.49942  -0.49649  -0.48681
 Alpha  occ. eigenvalues --   -0.47960  -0.46421  -0.45651  -0.44602  -0.43606
 Alpha  occ. eigenvalues --   -0.42820  -0.42503  -0.41799  -0.40273  -0.39370
 Alpha  occ. eigenvalues --   -0.37928  -0.36211  -0.28729  -0.26977
 Alpha virt. eigenvalues --    0.06884   0.08053   0.13054   0.14719   0.16309
 Alpha virt. eigenvalues --    0.16872   0.17650   0.18522   0.19953   0.20054
 Alpha virt. eigenvalues --    0.20790   0.21767   0.22315   0.22807   0.23366
 Alpha virt. eigenvalues --    0.23996   0.25326   0.25746   0.27210   0.27858
 Alpha virt. eigenvalues --    0.28374   0.29160   0.30118   0.31301   0.32131
 Alpha virt. eigenvalues --    0.38517   0.40012   0.47083   0.48649   0.53523
 Alpha virt. eigenvalues --    0.54142   0.56087   0.58467   0.58914   0.59528
 Alpha virt. eigenvalues --    0.60080   0.61734   0.62948   0.63585   0.65445
 Alpha virt. eigenvalues --    0.66712   0.68731   0.69179   0.71242   0.72793
 Alpha virt. eigenvalues --    0.75052   0.76703   0.77559   0.78746   0.80029
 Alpha virt. eigenvalues --    0.80768   0.82099   0.83329   0.84574   0.85603
 Alpha virt. eigenvalues --    0.88323   0.88756   0.89860   0.92003   0.92522
 Alpha virt. eigenvalues --    0.92945   0.94138   0.95196   0.95878   0.96126
 Alpha virt. eigenvalues --    0.96620   0.97508   0.98358   0.99594   1.00714
 Alpha virt. eigenvalues --    1.01378   1.01912   1.03014   1.05115   1.05497
 Alpha virt. eigenvalues --    1.06488   1.20161   1.20763   1.23604   1.24410
 Alpha virt. eigenvalues --    1.27187   1.29948   1.34170   1.36472   1.37735
 Alpha virt. eigenvalues --    1.41564   1.42326   1.46255   1.47940   1.50383
 Alpha virt. eigenvalues --    1.53539   1.57856   1.67625   1.69738   1.72759
 Alpha virt. eigenvalues --    1.76224   1.77272   1.78598   1.81806   1.83385
 Alpha virt. eigenvalues --    1.83914   1.84835   1.85340   1.87601   1.88720
 Alpha virt. eigenvalues --    1.89582   1.90829   1.94562   1.98100   2.00087
 Alpha virt. eigenvalues --    2.02580   2.03435   2.04407   2.09401   2.10088
 Alpha virt. eigenvalues --    2.10107   2.10640   2.12030   2.13595   2.13776
 Alpha virt. eigenvalues --    2.15214   2.16071   2.16599   2.17710   2.18375
 Alpha virt. eigenvalues --    2.20938   2.21481   2.22605   2.23585   2.27495
 Alpha virt. eigenvalues --    2.28475   2.30674   2.33545   2.34332   2.36311
 Alpha virt. eigenvalues --    2.37197   2.39606   2.41546   2.42172   2.45769
 Alpha virt. eigenvalues --    2.47148   2.48306   2.51318   2.52608   2.54134
 Alpha virt. eigenvalues --    2.55820   2.58820   2.59963   2.62093   2.64915
 Alpha virt. eigenvalues --    2.65593   2.69748   2.70648   2.71771   2.73243
 Alpha virt. eigenvalues --    2.74193   2.75848   2.78586   2.80298   2.80980
 Alpha virt. eigenvalues --    2.85138   2.86123   2.86372   2.87762   2.89181
 Alpha virt. eigenvalues --    2.90117   2.91286   2.94281   2.94805   3.02677
 Alpha virt. eigenvalues --    3.03987   3.07277   3.08645   3.17828   3.18488
 Alpha virt. eigenvalues --    3.22510   3.24359   3.27126   3.34261   3.39773
 Alpha virt. eigenvalues --    3.40212   3.41013   3.42570   3.44071   3.44548
 Alpha virt. eigenvalues --    3.44865   3.47133   3.49036   3.51154   3.52629
 Alpha virt. eigenvalues --    3.56206   4.18484   4.21872   4.34048   4.43375
 Alpha virt. eigenvalues --    4.49334   4.51442   4.52695   4.65467   4.69368
 Alpha virt. eigenvalues --    4.74930
          Condensed to atoms (all electrons):
               1          2          3          4          5          6
     1  C    5.024567   0.386195   0.380229   0.363591  -0.071716  -0.004653
     2  H    0.386195   0.600964  -0.033158  -0.038300   0.004997   0.000074
     3  H    0.380229  -0.033158   0.619678  -0.035109  -0.005326   0.005740
     4  C    0.363591  -0.038300  -0.035109   4.761469   0.369626  -0.035295
     5  C   -0.071716   0.004997  -0.005326   0.369626   5.010495   0.383402
     6  H   -0.004653   0.000074   0.005740  -0.035295   0.383402   0.583970
     7  H    0.004310  -0.000148  -0.000019  -0.027529   0.384683  -0.028725
     8  H   -0.001876  -0.000081  -0.000326  -0.035414   0.383419  -0.032490
     9  C   -0.032286  -0.006237   0.001201   0.715188  -0.053388   0.001832
    10  H   -0.013315   0.006177   0.000308  -0.034094   0.006112  -0.000152
    11  C    0.005465   0.000190  -0.000208  -0.039952  -0.014159   0.000310
    12  H   -0.000123  -0.000015  -0.000003   0.000996   0.000306  -0.000016
    13  H    0.000088   0.000007  -0.000000  -0.006496   0.001491  -0.000148
    14  H   -0.000169  -0.000001   0.000020  -0.001613   0.000441   0.000047
    15  C   -0.000084  -0.000084   0.000003   0.000003  -0.000000  -0.000000
    16  H   -0.000005   0.000002   0.000000   0.000000  -0.000000   0.000000
    17  H    0.000020  -0.000005  -0.000001  -0.000000   0.000000  -0.000000
    18  H   -0.000003  -0.000001   0.000002   0.000000  -0.000000  -0.000000
    19  C   -0.003438   0.001878   0.000181   0.000063  -0.000002   0.000000
    20  C    0.000275   0.000455  -0.000005  -0.000042   0.000000  -0.000000
    21  H    0.000068  -0.000083   0.000000  -0.000003   0.000000   0.000000
    22  H   -0.000035   0.000011  -0.000000   0.000002  -0.000000   0.000000
    23  H   -0.000017   0.000257  -0.000004   0.000011   0.000001  -0.000000
    24  C   -0.051755  -0.000677  -0.001958   0.005237  -0.000062  -0.000016
    25  H   -0.000751  -0.000083   0.002491  -0.000081   0.000002  -0.000001
    26  C    0.343695  -0.039516  -0.045763  -0.053281  -0.000169  -0.001175
    27  H   -0.041040  -0.004512   0.005806   0.001622  -0.000467   0.000108
    28  H   -0.040680   0.005552  -0.005192  -0.005230   0.002645   0.000404
               7          8          9         10         11         12
     1  C    0.004310  -0.001876  -0.032286  -0.013315   0.005465  -0.000123
     2  H   -0.000148  -0.000081  -0.006237   0.006177   0.000190  -0.000015
     3  H   -0.000019  -0.000326   0.001201   0.000308  -0.000208  -0.000003
     4  C   -0.027529  -0.035414   0.715188  -0.034094  -0.039952   0.000996
     5  C    0.384683   0.383419  -0.053388   0.006112  -0.014159   0.000306
     6  H   -0.028725  -0.032490   0.001832  -0.000152   0.000310  -0.000016
     7  H    0.572738  -0.027509  -0.007307   0.000024   0.001150  -0.000156
     8  H   -0.027509   0.577775  -0.001238  -0.000163   0.000488   0.000060
     9  C   -0.007307  -0.001238   4.898927   0.379722   0.357042  -0.033216
    10  H    0.000024  -0.000163   0.379722   0.613194  -0.056322  -0.003280
    11  C    0.001150   0.000488   0.357042  -0.056322   4.979065   0.385527
    12  H   -0.000156   0.000060  -0.033216  -0.003280   0.385527   0.580182
    13  H    0.003223  -0.000032  -0.034782   0.004524   0.390122  -0.028723
    14  H    0.000068  -0.000048  -0.036123  -0.000246   0.385672  -0.031987
    15  C   -0.000000  -0.000000   0.000000  -0.000000   0.000000  -0.000000
    16  H    0.000000   0.000000  -0.000000  -0.000000   0.000000  -0.000000
    17  H   -0.000000  -0.000000   0.000000   0.000000  -0.000000   0.000000
    18  H   -0.000000  -0.000000  -0.000000  -0.000000   0.000000  -0.000000
    19  C    0.000000  -0.000002   0.000002  -0.000004   0.000000  -0.000000
    20  C   -0.000000   0.000000  -0.000008  -0.000003   0.000000   0.000000
    21  H   -0.000000   0.000000  -0.000000   0.000001  -0.000000   0.000000
    22  H    0.000000   0.000000   0.000000  -0.000000   0.000000  -0.000000
    23  H   -0.000000  -0.000001   0.000023   0.000052  -0.000000  -0.000000
    24  C    0.000001  -0.000076   0.000025  -0.000034   0.000002  -0.000000
    25  H   -0.000000   0.000011  -0.000002   0.000000  -0.000000   0.000000
    26  C    0.000075   0.002314  -0.005633   0.000271  -0.000088   0.000019
    27  H   -0.000024   0.000143   0.002491   0.000188  -0.000098  -0.000005
    28  H   -0.000038   0.000527   0.000080  -0.000005   0.000009  -0.000000
              13         14         15         16         17         18
     1  C    0.000088  -0.000169  -0.000084  -0.000005   0.000020  -0.000003
     2  H    0.000007  -0.000001  -0.000084   0.000002  -0.000005  -0.000001
     3  H   -0.000000   0.000020   0.000003   0.000000  -0.000001   0.000002
     4  C   -0.006496  -0.001613   0.000003   0.000000  -0.000000   0.000000
     5  C    0.001491   0.000441  -0.000000  -0.000000   0.000000  -0.000000
     6  H   -0.000148   0.000047  -0.000000   0.000000  -0.000000  -0.000000
     7  H    0.003223   0.000068  -0.000000   0.000000  -0.000000  -0.000000
     8  H   -0.000032  -0.000048  -0.000000   0.000000  -0.000000  -0.000000
     9  C   -0.034782  -0.036123   0.000000  -0.000000   0.000000  -0.000000
    10  H    0.004524  -0.000246  -0.000000  -0.000000   0.000000  -0.000000
    11  C    0.390122   0.385672   0.000000   0.000000  -0.000000   0.000000
    12  H   -0.028723  -0.031987  -0.000000  -0.000000   0.000000  -0.000000
    13  H    0.577126  -0.027968   0.000000  -0.000000  -0.000000   0.000000
    14  H   -0.027968   0.577431   0.000000   0.000000  -0.000000  -0.000000
    15  C    0.000000   0.000000   5.005177   0.382844   0.380415   0.385083
    16  H   -0.000000   0.000000   0.382844   0.589940  -0.034358  -0.027342
    17  H   -0.000000  -0.000000   0.380415  -0.034358   0.590361  -0.027149
    18  H    0.000000  -0.000000   0.385083  -0.027342  -0.027149   0.572599
    19  C   -0.000000   0.000000   0.366476  -0.038084  -0.035952  -0.033043
    20  C   -0.000000  -0.000000  -0.079143  -0.000470  -0.002168   0.004673
    21  H    0.000000  -0.000000  -0.003608  -0.000860   0.004506   0.000034
    22  H    0.000000   0.000000  -0.001927   0.003704  -0.000678  -0.000069
    23  H    0.000000   0.000000   0.004758  -0.000007  -0.000051  -0.000167
    24  C    0.000000   0.000000  -0.037194  -0.001485  -0.000777  -0.004834
    25  H   -0.000000  -0.000000  -0.013704   0.000217   0.000298   0.006101
    26  C   -0.000001  -0.000006   0.005794  -0.000207  -0.000124   0.000119
    27  H    0.000001   0.000002   0.000098   0.000005  -0.000004   0.000009
    28  H   -0.000001   0.000000  -0.000182   0.000015  -0.000003  -0.000012
              19         20         21         22         23         24
     1  C   -0.003438   0.000275   0.000068  -0.000035  -0.000017  -0.051755
     2  H    0.001878   0.000455  -0.000083   0.000011   0.000257  -0.000677
     3  H    0.000181  -0.000005   0.000000  -0.000000  -0.000004  -0.001958
     4  C    0.000063  -0.000042  -0.000003   0.000002   0.000011   0.005237
     5  C   -0.000002   0.000000   0.000000  -0.000000   0.000001  -0.000062
     6  H    0.000000  -0.000000   0.000000   0.000000  -0.000000  -0.000016
     7  H    0.000000  -0.000000  -0.000000   0.000000  -0.000000   0.000001
     8  H   -0.000002   0.000000   0.000000   0.000000  -0.000001  -0.000076
     9  C    0.000002  -0.000008  -0.000000   0.000000   0.000023   0.000025
    10  H   -0.000004  -0.000003   0.000001  -0.000000   0.000052  -0.000034
    11  C    0.000000   0.000000  -0.000000   0.000000  -0.000000   0.000002
    12  H   -0.000000   0.000000   0.000000  -0.000000  -0.000000  -0.000000
    13  H   -0.000000  -0.000000   0.000000   0.000000   0.000000   0.000000
    14  H    0.000000  -0.000000  -0.000000   0.000000   0.000000   0.000000
    15  C    0.366476  -0.079143  -0.003608  -0.001927   0.004758  -0.037194
    16  H   -0.038084  -0.000470  -0.000860   0.003704  -0.000007  -0.001485
    17  H   -0.035952  -0.002168   0.004506  -0.000678  -0.000051  -0.000777
    18  H   -0.033043   0.004673   0.000034  -0.000069  -0.000167  -0.004834
    19  C    4.732777   0.377709  -0.036245  -0.036062  -0.026641   0.719183
    20  C    0.377709   5.004541   0.384980   0.382878   0.383528  -0.051996
    21  H   -0.036245   0.384980   0.584046  -0.032706  -0.029031   0.000948
    22  H   -0.036062   0.382878  -0.032706   0.579674  -0.027136  -0.000081
    23  H   -0.026641   0.383528  -0.029031  -0.027136   0.572122  -0.008026
    24  C    0.719183  -0.051996   0.000948  -0.000081  -0.008026   4.906937
    25  H   -0.032041   0.006104  -0.000154  -0.000160   0.000025   0.374907
    26  C   -0.039605  -0.013611   0.000456   0.000195   0.001450   0.358910
    27  H   -0.006257   0.000824  -0.000140   0.000030   0.002920  -0.037656
    28  H    0.001798   0.000341  -0.000015   0.000034  -0.000063  -0.031212
              25         26         27         28
     1  C   -0.000751   0.343695  -0.041040  -0.040680
     2  H   -0.000083  -0.039516  -0.004512   0.005552
     3  H    0.002491  -0.045763   0.005806  -0.005192
     4  C   -0.000081  -0.053281   0.001622  -0.005230
     5  C    0.000002  -0.000169  -0.000467   0.002645
     6  H   -0.000001  -0.001175   0.000108   0.000404
     7  H   -0.000000   0.000075  -0.000024  -0.000038
     8  H    0.000011   0.002314   0.000143   0.000527
     9  C   -0.000002  -0.005633   0.002491   0.000080
    10  H    0.000000   0.000271   0.000188  -0.000005
    11  C   -0.000000  -0.000088  -0.000098   0.000009
    12  H    0.000000   0.000019  -0.000005  -0.000000
    13  H   -0.000000  -0.000001   0.000001  -0.000001
    14  H   -0.000000  -0.000006   0.000002   0.000000
    15  C   -0.013704   0.005794   0.000098  -0.000182
    16  H    0.000217  -0.000207   0.000005   0.000015
    17  H    0.000298  -0.000124  -0.000004  -0.000003
    18  H    0.006101   0.000119   0.000009  -0.000012
    19  C   -0.032041  -0.039605  -0.006257   0.001798
    20  C    0.006104  -0.013611   0.000824   0.000341
    21  H   -0.000154   0.000456  -0.000140  -0.000015
    22  H   -0.000160   0.000195   0.000030   0.000034
    23  H    0.000025   0.001450   0.002920  -0.000063
    24  C    0.374907   0.358910  -0.037656  -0.031212
    25  H    0.615144  -0.052993   0.004699  -0.004947
    26  C   -0.052993   5.015351   0.388484   0.384568
    27  H    0.004699   0.388484   0.600692  -0.035241
    28  H   -0.004947   0.384568  -0.035241   0.609655
 Mulliken charges:
               1
     1  C   -0.246557
     2  H    0.116143
     3  H    0.111412
     4  C    0.094633
     5  C   -0.402328
     6  H    0.126784
     7  H    0.125182
     8  H    0.134519
     9  C   -0.146312
    10  H    0.097046
    11  C   -0.394216
    12  H    0.130433
    13  H    0.121569
    14  H    0.134480
    15  C   -0.394724
    16  H    0.126091
    17  H    0.125671
    18  H    0.124000
    19  C    0.087312
    20  C   -0.398862
    21  H    0.127807
    22  H    0.132325
    23  H    0.125996
    24  C   -0.138310
    25  H    0.094919
    26  C   -0.249527
    27  H    0.117321
    28  H    0.117193
 Sum of Mulliken charges =  -0.00000
 Mulliken charges with hydrogens summed into heavy atoms:
               1
     1  C   -0.019001
     4  C    0.094633
     5  C   -0.015844
     9  C   -0.049266
    11  C   -0.007734
    15  C   -0.018962
    19  C    0.087312
    20  C   -0.012734
    24  C   -0.043391
    26  C   -0.015013
 Electronic spatial extent (au):  <R**2>=           2697.6186
 Charge=             -0.0000 electrons
 Dipole moment (field-independent basis, Debye):
    X=              0.0408    Y=              0.0980    Z=              0.1391  Tot=              0.1749
 Quadrupole moment (field-independent basis, Debye-Ang):
   XX=            -62.2835   YY=            -62.4057   ZZ=            -65.9697
   XY=              0.9074   XZ=             -0.9239   YZ=             -0.0278
 Traceless Quadrupole moment (field-independent basis, Debye-Ang):
   XX=              1.2695   YY=              1.1473   ZZ=             -2.4167
   XY=              0.9074   XZ=             -0.9239   YZ=             -0.0278
 Octapole moment (field-independent basis, Debye-Ang**2):
  XXX=              0.1584  YYY=             -0.6200  ZZZ=              1.5348  XYY=             -0.8294
  XXY=              4.1325  XXZ=              1.5140  XZZ=              0.9632  YZZ=              1.2380
  YYZ=             -2.1039  XYZ=              2.4317
 Hexadecapole moment (field-independent basis, Debye-Ang**3):
 XXXX=          -2980.6181 YYYY=           -515.3362 ZZZZ=           -186.8559 XXXY=              7.9229
 XXXZ=             -1.8364 YYYX=             -7.8919 YYYZ=              2.7303 ZZZX=             -1.3733
 ZZZY=             -1.2393 XXYY=           -581.9643 XXZZ=           -537.7177 YYZZ=           -114.3724
 XXYZ=             -0.8307 YYXZ=             -2.9536 ZZXY=              4.0776
 N-N= 5.087439481397D+02 E-N=-1.922553338465D+03  KE= 3.880787563329D+02
 No NMR shielding tensors so no spin-rotation constants.
 Leave Link  601 at Tue Jul  6 11:10:20 2021, MaxMem=   524288000 cpu:               2.5 elap:               0.6
 (Enter /opt/gaussian/g16_legacy/l701.exe)
 ... and contract with generalized density number  0.
 Compute integral first derivatives.
 Leave Link  701 at Tue Jul  6 11:10:20 2021, MaxMem=   524288000 cpu:               1.4 elap:               0.4
 (Enter /opt/gaussian/g16_legacy/l702.exe)
 L702 exits ... SP integral derivatives will be done elsewhere.
 Leave Link  702 at Tue Jul  6 11:10:20 2021, MaxMem=   524288000 cpu:               0.2 elap:               0.1
 (Enter /opt/gaussian/g16_legacy/l703.exe)
 Integral derivatives from FoFJK, PRISM(SPDF).
 Compute integral first derivatives, UseDBF=F ICtDFT=           0.
 Calling FoFJK, ICntrl=      2127 FMM=F ISym2X=0 I1Cent= 0 IOpClX= 0 NMat=1 NMatS=1 NMatT=0.
 FoFJK:  IHMeth= 1 ICntrl=    2127 DoSepK=F KAlg= 0 I1Cent=           0 FoldK=F
 IRaf=         0 NMat=       1 IRICut=       1 DoRegI=T DoRafI=F ISym2E= 0 IDoP0=0 IntGTp=1.
 FoFCou: FMM=F IPFlag=           0 FMFlag=      100000 FMFlg1=         800
         NFxFlg=           0 DoJE=F BraDBF=F KetDBF=F FulRan=T
         wScrn=  0.000000 ICntrl=      2127 IOpCl=  0 I1Cent=           0 NGrid=           0
         NMat0=    1 NMatS0=      1 NMatT0=    0 NMatD0=    1 NMtDS0=    0 NMtDT0=    0
 Symmetry not used in FoFCou.
 Leave Link  703 at Tue Jul  6 11:10:33 2021, MaxMem=   524288000 cpu:              75.1 elap:              12.6
 (Enter /opt/gaussian/g16_legacy/l716.exe)
 Dipole        = 1.60411605D-02 3.85521677D-02 5.47095438D-02
 ***** Axes restored to original set *****
 -------------------------------------------------------------------
 Center     Atomic                   Forces (Hartrees/Bohr)
 Number     Number              X              Y              Z
 -------------------------------------------------------------------
      1        6          -0.008471687    0.005215640    0.002039552
      2        1          -0.000566928   -0.001439519    0.002524193
      3        1           0.001811577   -0.002335221    0.000453942
      4        6          -0.001813579    0.015422147   -0.002242181
      5        6          -0.002935891    0.001415950    0.001351908
      6        1           0.002352779   -0.001113628    0.000970120
      7        1           0.001111573    0.001066698    0.001808799
      8        1          -0.000017585   -0.002634272   -0.001126966
      9        6           0.006471966   -0.012670151   -0.002952442
     10        1           0.002389020   -0.001495398   -0.001864045
     11        6          -0.000556228   -0.001563418    0.001438162
     12        1          -0.001941016    0.001273841   -0.000628222
     13        1           0.000359651   -0.000196885   -0.001358506
     14        1          -0.002099208    0.001237632    0.001610244
     15        6          -0.002037696   -0.002224635   -0.002528204
     16        1           0.001920796    0.002168953    0.000038600
     17        1           0.002584951    0.000554882    0.001479950
     18        1          -0.001494549    0.000760514    0.001584632
     19        6          -0.009987190   -0.007946292   -0.008969728
     20        6          -0.004816362   -0.000424084    0.000321570
     21        1           0.002387472   -0.000641907    0.000897906
     22        1           0.001677060    0.001994940    0.000591018
     23        1          -0.000013555   -0.001818470   -0.000447834
     24        6           0.007439078    0.004036322    0.008470840
     25        1           0.002445569    0.001230625   -0.000795037
     26        6           0.006556492   -0.002653649   -0.000649357
     27        1          -0.000683128    0.002518417   -0.001336235
     28        1          -0.002073383    0.000260968   -0.000682675
 -------------------------------------------------------------------
 Cartesian Forces:  Max     0.015422147 RMS     0.003752624
 Leave Link  716 at Tue Jul  6 11:10:33 2021, MaxMem=   524288000 cpu:               0.4 elap:               0.1
 (Enter /opt/gaussian/g16_legacy/l103.exe)

 GradGradGradGradGradGradGradGradGradGradGradGradGradGradGradGradGradGrad
 Berny optimization.
 FormGI is forming the generalized inverse of G from B-inverse, IUseBI=4.
 Internal  Forces:  Max     0.014523088 RMS     0.002348971
 Search for a local minimum.
 Step number   1 out of a maximum of  138
 All quantities printed in internal units (Hartrees-Bohrs-Radians)
 RMS Force = .23490D-02 SwitMx=.10000D-02 MixMth= 1
 Mixed Optimization -- RFO/linear search
 Second derivative matrix not updated -- first step.
 ITU=  0
     Eigenvalues ---    0.00329   0.00506   0.00680   0.00689   0.00695
     Eigenvalues ---    0.00714   0.00822   0.01208   0.01287   0.01566
     Eigenvalues ---    0.01642   0.02775   0.02784   0.03988   0.04135
     Eigenvalues ---    0.05346   0.05393   0.06976   0.06978   0.07015
     Eigenvalues ---    0.07092   0.07294   0.07300   0.07348   0.07513
     Eigenvalues ---    0.09269   0.09376   0.12760   0.12858   0.15999
     Eigenvalues ---    0.15999   0.16000   0.16000   0.16000   0.16000
     Eigenvalues ---    0.16000   0.16000   0.16000   0.16000   0.16000
     Eigenvalues ---    0.16000   0.16000   0.16000   0.21869   0.21900
     Eigenvalues ---    0.22000   0.22000   0.24989   0.24994   0.24999
     Eigenvalues ---    0.24999   0.29143   0.30401   0.31704   0.31773
     Eigenvalues ---    0.31823   0.31968   0.32827   0.33858   0.33907
     Eigenvalues ---    0.34000   0.34192   0.34199   0.34233   0.34246
     Eigenvalues ---    0.34249   0.34250   0.34267   0.34272   0.34318
     Eigenvalues ---    0.34334   0.34541   0.34545   0.34632   0.34790
     Eigenvalues ---    0.34806   0.55428   0.55575
 RFO step:  Lambda=-3.20648731D-03 EMin= 3.28641488D-03
 Linear search not attempted -- first point.
 Iteration  1 RMS(Cart)=  0.04922068 RMS(Int)=  0.00073274
 Iteration  2 RMS(Cart)=  0.00137316 RMS(Int)=  0.00014125
 Iteration  3 RMS(Cart)=  0.00000088 RMS(Int)=  0.00014125
 ITry= 1 IFail=0 DXMaxC= 2.01D-01 DCOld= 1.00D+10 DXMaxT= 3.00D-01 DXLimC= 3.00D+00 Rises=F
 Variable       Old X    -DE/DX   Delta X   Delta X   Delta X     New X
                                 (Linear)    (Quad)   (Total)
    R1        2.07570  -0.00182   0.00000  -0.00532  -0.00532   2.07039
    R2        2.07488   0.00050   0.00000   0.00146   0.00146   2.07635
    R3        2.87170  -0.00416   0.00000  -0.01354  -0.01354   2.85816
    R4        2.89706   0.00237   0.00000   0.00804   0.00804   2.90510
    R5        2.84468   0.00069   0.00000   0.00214   0.00214   2.84682
    R6        2.54754  -0.01452   0.00000  -0.02605  -0.02605   2.52148
    R7        2.07007  -0.00014   0.00000  -0.00040  -0.00040   2.06966
    R8        2.06427  -0.00075   0.00000  -0.00216  -0.00216   2.06211
    R9        2.06797   0.00091   0.00000   0.00263   0.00263   2.07060
   R10        2.05990   0.00012   0.00000   0.00034   0.00034   2.06024
   R11        2.82657   0.00438   0.00000   0.01320   0.01320   2.83977
   R12        2.06917  -0.00013   0.00000  -0.00039  -0.00039   2.06878
   R13        2.06277  -0.00022   0.00000  -0.00063  -0.00063   2.06214
   R14        2.06769   0.00089   0.00000   0.00257   0.00257   2.07026
   R15        2.06911   0.00072   0.00000   0.00208   0.00208   2.07119
   R16        2.06911   0.00064   0.00000   0.00186   0.00186   2.07097
   R17        2.06938  -0.00169   0.00000  -0.00490  -0.00490   2.06448
   R18        2.84689   0.00052   0.00000   0.00163   0.00163   2.84852
   R19        2.84203   0.00046   0.00000   0.00143   0.00143   2.84346
   R20        2.54625  -0.01397   0.00000  -0.02500  -0.02500   2.52125
   R21        2.06996   0.00001   0.00000   0.00004   0.00004   2.07000
   R22        2.06874   0.00075   0.00000   0.00218   0.00218   2.07092
   R23        2.06420  -0.00044   0.00000  -0.00126  -0.00126   2.06295
   R24        2.06017   0.00021   0.00000   0.00059   0.00059   2.06076
   R25        2.84560  -0.00018   0.00000  -0.00055  -0.00055   2.84505
   R26        2.06881  -0.00032   0.00000  -0.00092  -0.00092   2.06789
   R27        2.07330   0.00028   0.00000   0.00083   0.00083   2.07413
    A1        1.84388   0.00160   0.00000   0.01776   0.01767   1.86154
    A2        1.92252  -0.00089   0.00000  -0.00165  -0.00166   1.92087
    A3        1.90344  -0.00060   0.00000  -0.00406  -0.00407   1.89936
    A4        1.90059   0.00099   0.00000   0.00919   0.00918   1.90977
    A5        1.92313  -0.00321   0.00000  -0.02707  -0.02708   1.89605
    A6        1.96635   0.00207   0.00000   0.00641   0.00643   1.97278
    A7        2.00962   0.00083   0.00000   0.00371   0.00308   2.01270
    A8        2.09693   0.00084   0.00000   0.00387   0.00323   2.10016
    A9        2.17629  -0.00165   0.00000  -0.00597  -0.00659   2.16970
   A10        1.92327  -0.00041   0.00000  -0.00269  -0.00267   1.92060
   A11        1.97650  -0.00195   0.00000  -0.00853  -0.00851   1.96799
   A12        1.92709   0.00297   0.00000   0.01503   0.01506   1.94215
   A13        1.85833   0.00230   0.00000   0.02005   0.02006   1.87839
   A14        1.89149  -0.00252   0.00000  -0.02218  -0.02215   1.86934
   A15        1.88403  -0.00051   0.00000  -0.00257  -0.00254   1.88149
   A16        2.06544  -0.00297   0.00000  -0.01888  -0.01891   2.04653
   A17        2.23541  -0.00094   0.00000  -0.00417  -0.00420   2.23121
   A18        1.98221   0.00391   0.00000   0.02325   0.02323   2.00544
   A19        1.90915   0.00247   0.00000   0.01615   0.01612   1.92526
   A20        1.98436  -0.00217   0.00000  -0.01264  -0.01259   1.97177
   A21        1.91693   0.00324   0.00000   0.01824   0.01821   1.93514
   A22        1.87128   0.00028   0.00000   0.00471   0.00475   1.87603
   A23        1.88611  -0.00306   0.00000  -0.02009  -0.02021   1.86591
   A24        1.89318  -0.00097   0.00000  -0.00765  -0.00760   1.88558
   A25        1.89484  -0.00317   0.00000  -0.02667  -0.02665   1.86818
   A26        1.87875   0.00084   0.00000   0.00807   0.00809   1.88685
   A27        1.92348   0.00166   0.00000   0.00801   0.00803   1.93151
   A28        1.87918   0.00089   0.00000   0.00956   0.00958   1.88876
   A29        1.92495   0.00198   0.00000   0.01068   0.01070   1.93565
   A30        1.96063  -0.00233   0.00000  -0.01057  -0.01055   1.95008
   A31        1.99441   0.00118   0.00000   0.00470   0.00469   1.99910
   A32        2.10562   0.00256   0.00000   0.01014   0.01013   2.11575
   A33        2.18311  -0.00374   0.00000  -0.01476  -0.01477   2.16834
   A34        1.92072   0.00012   0.00000  -0.00034  -0.00033   1.92039
   A35        1.92159   0.00207   0.00000   0.01003   0.01004   1.93164
   A36        1.97969  -0.00195   0.00000  -0.00812  -0.00811   1.97158
   A37        1.89069  -0.00248   0.00000  -0.02283  -0.02282   1.86787
   A38        1.86351   0.00187   0.00000   0.01658   0.01659   1.88010
   A39        1.88474   0.00027   0.00000   0.00381   0.00382   1.88857
   A40        2.06644  -0.00176   0.00000  -0.01223  -0.01262   2.05382
   A41        2.22838  -0.00211   0.00000  -0.00927  -0.00967   2.21871
   A42        1.98823   0.00389   0.00000   0.02231   0.02191   2.01014
   A43        1.94413   0.00310   0.00000   0.01262   0.01263   1.95676
   A44        1.92416  -0.00265   0.00000  -0.02542  -0.02548   1.89868
   A45        1.92251  -0.00209   0.00000  -0.01201  -0.01220   1.91032
   A46        1.94899  -0.00045   0.00000  -0.00289  -0.00286   1.94613
   A47        1.87716   0.00054   0.00000   0.01662   0.01664   1.89380
   A48        1.84367   0.00149   0.00000   0.01176   0.01154   1.85521
    D1        2.90607   0.00155   0.00000   0.09181   0.09196   2.99802
    D2       -0.20874   0.00062   0.00000   0.02909   0.02899  -0.17975
    D3        0.89159  -0.00044   0.00000   0.06617   0.06627   0.95786
    D4       -2.22322  -0.00137   0.00000   0.00346   0.00330  -2.21991
    D5       -1.24750   0.00156   0.00000   0.08984   0.08997  -1.15753
    D6        1.92088   0.00063   0.00000   0.02712   0.02700   1.94788
    D7       -0.98596   0.00036   0.00000  -0.01826  -0.01830  -1.00426
    D8        1.18787   0.00006   0.00000  -0.03148  -0.03156   1.15632
    D9       -3.06744  -0.00093   0.00000  -0.03926  -0.03919  -3.10662
   D10        1.03048   0.00014   0.00000  -0.01434  -0.01435   1.01613
   D11       -3.07887  -0.00015   0.00000  -0.02756  -0.02761  -3.10648
   D12       -1.05099  -0.00114   0.00000  -0.03534  -0.03524  -1.08623
   D13       -3.12632   0.00053   0.00000  -0.01758  -0.01760   3.13927
   D14       -0.95248   0.00023   0.00000  -0.03079  -0.03086  -0.98334
   D15        1.07539  -0.00075   0.00000  -0.03858  -0.03849   1.03691
   D16       -0.81081   0.00026   0.00000  -0.03832  -0.03823  -0.84904
   D17       -2.89009  -0.00110   0.00000  -0.05634  -0.05626  -2.94635
   D18        1.27815  -0.00125   0.00000  -0.05803  -0.05795   1.22020
   D19        2.30261   0.00129   0.00000   0.02783   0.02775   2.33036
   D20        0.22333  -0.00007   0.00000   0.00981   0.00972   0.23305
   D21       -1.89162  -0.00022   0.00000   0.00812   0.00803  -1.88359
   D22       -0.00347   0.00055   0.00000   0.03708   0.03692   0.03345
   D23       -3.12677   0.00023   0.00000   0.02260   0.02262  -3.10415
   D24       -3.11557  -0.00053   0.00000  -0.03216  -0.03217   3.13544
   D25        0.04432  -0.00084   0.00000  -0.04663  -0.04647  -0.00216
   D26        2.24575   0.00025   0.00000  -0.00654  -0.00654   2.23921
   D27        0.15470  -0.00043   0.00000  -0.01566  -0.01561   0.13909
   D28       -1.97010  -0.00006   0.00000  -0.01045  -0.01033  -1.98042
   D29       -0.87828   0.00001   0.00000  -0.02007  -0.02019  -0.89847
   D30       -2.96932  -0.00068   0.00000  -0.02920  -0.02927  -2.99859
   D31        1.18906  -0.00030   0.00000  -0.02399  -0.02398   1.16508
   D32        1.03964  -0.00083   0.00000  -0.01498  -0.01502   1.02463
   D33       -2.11150  -0.00072   0.00000  -0.00679  -0.00675  -2.11825
   D34       -1.05223   0.00079   0.00000   0.00623   0.00619  -1.04605
   D35        2.07981   0.00090   0.00000   0.01442   0.01446   2.09426
   D36        3.13452  -0.00016   0.00000  -0.00625  -0.00629   3.12824
   D37       -0.01662  -0.00005   0.00000   0.00195   0.00199  -0.01464
   D38        0.91814  -0.00073   0.00000   0.00601   0.00598   0.92411
   D39       -1.16475   0.00096   0.00000   0.02814   0.02811  -1.13665
   D40        3.00435   0.00045   0.00000   0.02154   0.02151   3.02586
   D41       -2.21342  -0.00089   0.00000  -0.00277  -0.00274  -2.21616
   D42        1.98688   0.00081   0.00000   0.01936   0.01939   2.00627
   D43       -0.12720   0.00029   0.00000   0.01276   0.01279  -0.11441
   D44       -0.00894   0.00005   0.00000  -0.01111  -0.01083  -0.01977
   D45        3.11361   0.00113   0.00000   0.04466   0.04440  -3.12517
   D46        3.12201   0.00020   0.00000  -0.00185  -0.00159   3.12041
   D47       -0.03862   0.00128   0.00000   0.05392   0.05363   0.01501
   D48        1.82292  -0.00079   0.00000  -0.02882  -0.02907   1.79385
   D49       -0.33689   0.00070   0.00000  -0.00288  -0.00305  -0.33994
   D50       -2.35199  -0.00116   0.00000  -0.02530  -0.02542  -2.37742
   D51       -1.33699   0.00019   0.00000   0.02455   0.02466  -1.31233
   D52        2.78638   0.00169   0.00000   0.05049   0.05068   2.83706
   D53        0.77128  -0.00017   0.00000   0.02807   0.02831   0.79959
         Item               Value     Threshold  Converged?
 Maximum Force            0.014523     0.002500     NO 
 RMS     Force            0.002349     0.001667     NO 
 Maximum Displacement     0.201485     0.010000     NO 
 RMS     Displacement     0.049178     0.006667     NO 
 Predicted change in Energy=-1.716651D-03
 Lowest energy point so far.  Saving SCF results.
 GradGradGradGradGradGradGradGradGradGradGradGradGradGradGradGradGradGrad

 Leave Link  103 at Tue Jul  6 11:10:34 2021, MaxMem=   524288000 cpu:               0.9 elap:               0.2
 (Enter /opt/gaussian/g16_legacy/l202.exe)
                          Input orientation:                          
 ---------------------------------------------------------------------
 Center     Atomic      Atomic             Coordinates (Angstroms)
 Number     Number       Type             X           Y           Z
 ---------------------------------------------------------------------
      1          6           0       -0.587580   -0.045510   -0.691182
      2          1           0       -0.215475    0.980631   -0.785615
      3          1           0       -0.570513   -0.480826   -1.699880
      4          6           0       -2.007861   -0.036472   -0.171282
      5          6           0       -2.704951   -1.371942   -0.178148
      6          1           0       -2.581599   -1.854728   -1.153446
      7          1           0       -3.775462   -1.290329    0.017066
      8          1           0       -2.278182   -2.047090    0.571942
      9          6           0       -2.548714    1.091987    0.291801
     10          1           0       -1.937836    1.993853    0.246285
[...]
                 (A) (A) (A) (A) (A) (A) (A) (A) (A) (A) (A) (A)
                 (A) (A) (A) (A) (A) (A) (A) (A) (A) (A) (A) (A)
                 (A) (A) (A) (A) (A) (A) (A) (A) (A) (A) (A) (A)
                 (A) (A) (A) (A) (A) (A) (A) (A) (A) (A) (A) (A)
                 (A) (A) (A) (A) (A) (A) (A) (A) (A) (A) (A) (A)
                 (A) (A) (A) (A) (A) (A) (A) (A) (A) (A) (A) (A)
                 (A) (A) (A) (A) (A) (A) (A) (A) (A) (A) (A) (A)
                 (A) (A) (A) (A) (A) (A) (A) (A) (A) (A) (A) (A)
                 (A) (A) (A) (A) (A) (A) (A) (A) (A) (A) (A) (A)
                 (A) (A) (A) (A) (A) (A) (A) (A) (A) (A) (A) (A)
                 (A) (A) (A) (A) (A) (A) (A) (A) (A) (A) (A) (A)
                 (A) (A) (A) (A) (A) (A) (A) (A) (A) (A) (A) (A)
                 (A) (A) (A) (A) (A) (A) (A) (A) (A)
 The electronic state is 1-A.
 Alpha  occ. eigenvalues --  -10.54453 -10.54105 -10.53765 -10.53663 -10.53448
 Alpha  occ. eigenvalues --  -10.53400 -10.53337 -10.53328 -10.53253 -10.52997
 Alpha  occ. eigenvalues --   -0.92096  -0.90090  -0.84786  -0.80847  -0.77792
 Alpha  occ. eigenvalues --   -0.76652  -0.72675  -0.67617  -0.58508  -0.58016
 Alpha  occ. eigenvalues --   -0.54217  -0.52865  -0.49984  -0.49472  -0.48993
 Alpha  occ. eigenvalues --   -0.47840  -0.46072  -0.45562  -0.44285  -0.43795
 Alpha  occ. eigenvalues --   -0.42912  -0.42394  -0.42139  -0.40603  -0.39364
 Alpha  occ. eigenvalues --   -0.38004  -0.36348  -0.28933  -0.27180
 Alpha virt. eigenvalues --    0.06865   0.08174   0.12801   0.14729   0.16132
 Alpha virt. eigenvalues --    0.16902   0.17713   0.18745   0.19625   0.20235
 Alpha virt. eigenvalues --    0.21181   0.21726   0.22521   0.22990   0.23282
 Alpha virt. eigenvalues --    0.24051   0.25437   0.25679   0.26876   0.27832
 Alpha virt. eigenvalues --    0.28468   0.29640   0.30199   0.31491   0.32315
 Alpha virt. eigenvalues --    0.38658   0.40157   0.46799   0.49298   0.53716
 Alpha virt. eigenvalues --    0.54488   0.56243   0.58225   0.59134   0.59403
 Alpha virt. eigenvalues --    0.60148   0.61572   0.62688   0.64015   0.66471
 Alpha virt. eigenvalues --    0.66606   0.68644   0.69454   0.71143   0.73039
 Alpha virt. eigenvalues --    0.74520   0.76464   0.77086   0.78936   0.80206
 Alpha virt. eigenvalues --    0.80545   0.82060   0.83392   0.84791   0.85920
 Alpha virt. eigenvalues --    0.87724   0.88912   0.90524   0.92305   0.92634
 Alpha virt. eigenvalues --    0.93215   0.93919   0.94944   0.95394   0.96374
 Alpha virt. eigenvalues --    0.96889   0.97282   0.97852   0.99488   1.01159
 Alpha virt. eigenvalues --    1.01404   1.03076   1.03585   1.06071   1.06276
 Alpha virt. eigenvalues --    1.07914   1.19808   1.21678   1.24598   1.25294
 Alpha virt. eigenvalues --    1.27705   1.31315   1.34809   1.36034   1.37938
 Alpha virt. eigenvalues --    1.40952   1.44554   1.44765   1.49020   1.50766
 Alpha virt. eigenvalues --    1.52178   1.57911   1.66740   1.69089   1.73444
 Alpha virt. eigenvalues --    1.76964   1.78042   1.78372   1.81928   1.83115
 Alpha virt. eigenvalues --    1.83595   1.84046   1.85225   1.87311   1.88564
 Alpha virt. eigenvalues --    1.90201   1.90818   1.94778   1.97910   2.01683
 Alpha virt. eigenvalues --    2.03337   2.03485   2.04701   2.09638   2.09989
 Alpha virt. eigenvalues --    2.10100   2.10478   2.11283   2.13226   2.14223
 Alpha virt. eigenvalues --    2.15889   2.16658   2.17302   2.17478   2.18716
 Alpha virt. eigenvalues --    2.20775   2.22300   2.22822   2.23734   2.27751
 Alpha virt. eigenvalues --    2.29081   2.31229   2.33551   2.34731   2.37106
 Alpha virt. eigenvalues --    2.37939   2.40326   2.41789   2.42392   2.45780
 Alpha virt. eigenvalues --    2.46582   2.48297   2.49814   2.53616   2.53718
 Alpha virt. eigenvalues --    2.55208   2.59404   2.60187   2.62184   2.65178
 Alpha virt. eigenvalues --    2.65402   2.69552   2.70452   2.71591   2.73286
 Alpha virt. eigenvalues --    2.74526   2.76043   2.79152   2.80555   2.81754
 Alpha virt. eigenvalues --    2.84522   2.86005   2.86879   2.87819   2.88741
 Alpha virt. eigenvalues --    2.90023   2.91700   2.93610   2.94609   3.03983
 Alpha virt. eigenvalues --    3.04841   3.08273   3.09872   3.17290   3.18181
 Alpha virt. eigenvalues --    3.22864   3.24987   3.27197   3.34357   3.39623
 Alpha virt. eigenvalues --    3.40720   3.41418   3.43002   3.44167   3.44782
 Alpha virt. eigenvalues --    3.45103   3.47006   3.48423   3.51178   3.52024
 Alpha virt. eigenvalues --    3.57386   4.18963   4.22063   4.34053   4.43681
 Alpha virt. eigenvalues --    4.49657   4.50965   4.52470   4.64141   4.69763
 Alpha virt. eigenvalues --    4.75695
          Condensed to atoms (all electrons):
               1          2          3          4          5          6
     1  C    5.019581   0.386978   0.378486   0.365765  -0.072370  -0.003206
     2  H    0.386978   0.605567  -0.031381  -0.039774   0.005365   0.000063
     3  H    0.378486  -0.031381   0.618137  -0.033848  -0.004717   0.005411
     4  C    0.365765  -0.039774  -0.033848   4.741276   0.368267  -0.036172
     5  C   -0.072370   0.005365  -0.004717   0.368267   5.017712   0.382043
     6  H   -0.003206   0.000063   0.005411  -0.036172   0.382043   0.587078
     7  H    0.004374  -0.000146  -0.000056  -0.027642   0.384163  -0.026648
     8  H   -0.002900  -0.000108  -0.000248  -0.032515   0.383661  -0.034618
     9  C   -0.031001  -0.007213   0.000380   0.721108  -0.055010   0.002251
    10  H   -0.015057   0.007105   0.000367  -0.034427   0.006526  -0.000164
    11  C    0.005620   0.000197  -0.000207  -0.038722  -0.015211   0.000312
    12  H   -0.000114  -0.000010  -0.000004  -0.000485   0.000370  -0.000020
    13  H    0.000079   0.000009   0.000003  -0.006639   0.001551  -0.000102
    14  H   -0.000160  -0.000007   0.000019  -0.000290   0.000380   0.000025
    15  C   -0.000065  -0.000119   0.000001   0.000003  -0.000000  -0.000000
    16  H   -0.000006   0.000003   0.000000   0.000000  -0.000000   0.000000
    17  H    0.000021  -0.000004  -0.000003  -0.000000   0.000000  -0.000000
    18  H   -0.000002  -0.000001   0.000001   0.000000  -0.000000  -0.000000
    19  C   -0.005921   0.002792   0.000145   0.000209  -0.000003   0.000000
    20  C   -0.000289   0.001074  -0.000001  -0.000098   0.000000  -0.000000
    21  H    0.000145  -0.000107  -0.000003  -0.000010   0.000000   0.000000
    22  H   -0.000021   0.000028  -0.000000   0.000003   0.000000   0.000000
    23  H   -0.000416   0.000616   0.000014   0.000094   0.000002   0.000000
    24  C   -0.049279  -0.002389  -0.001887   0.005365   0.000002  -0.000043
    25  H    0.000409  -0.000096   0.001714  -0.000096  -0.000002   0.000001
    26  C    0.347138  -0.040574  -0.047522  -0.053730  -0.000948  -0.002102
    27  H   -0.044743  -0.005197   0.006252   0.002384  -0.000992   0.000192
    28  H   -0.038703   0.005541  -0.005213  -0.006744   0.003809   0.000725
               7          8          9         10         11         12
     1  C    0.004374  -0.002900  -0.031001  -0.015057   0.005620  -0.000114
     2  H   -0.000146  -0.000108  -0.007213   0.007105   0.000197  -0.000010
     3  H   -0.000056  -0.000248   0.000380   0.000367  -0.000207  -0.000004
     4  C   -0.027642  -0.032515   0.721108  -0.034427  -0.038722  -0.000485
     5  C    0.384163   0.383661  -0.055010   0.006526  -0.015211   0.000370
     6  H   -0.026648  -0.034618   0.002251  -0.000164   0.000312  -0.000020
     7  H    0.571401  -0.027800  -0.006908   0.000001   0.000515  -0.000221
     8  H   -0.027800   0.577838  -0.001988  -0.000159   0.000601   0.000100
     9  C   -0.006908  -0.001988   4.893849   0.378148   0.357697  -0.032970
    10  H    0.000001  -0.000159   0.378148   0.614911  -0.054558  -0.001459
    11  C    0.000515   0.000601   0.357697  -0.054558   4.979138   0.385225
    12  H   -0.000221   0.000100  -0.032970  -0.001459   0.385225   0.578988
    13  H    0.003721  -0.000205  -0.035611   0.004454   0.389634  -0.028110
    14  H    0.000067  -0.000038  -0.033149  -0.001498   0.385054  -0.033963
    15  C   -0.000000  -0.000000   0.000000  -0.000000   0.000000  -0.000000
    16  H    0.000000   0.000000  -0.000000  -0.000000   0.000000  -0.000000
    17  H   -0.000000  -0.000000   0.000000   0.000000  -0.000000   0.000000
    18  H   -0.000000   0.000000  -0.000000  -0.000000   0.000000  -0.000000
    19  C    0.000000  -0.000004  -0.000002  -0.000008   0.000000  -0.000000
    20  C    0.000000   0.000001  -0.000023  -0.000011   0.000000   0.000000
    21  H   -0.000000   0.000000  -0.000001   0.000005  -0.000000   0.000000
    22  H    0.000000   0.000000   0.000000  -0.000000   0.000000  -0.000000
    23  H    0.000000  -0.000003   0.000104   0.000110  -0.000001  -0.000001
    24  C    0.000000  -0.000024  -0.000024  -0.000023   0.000002  -0.000000
    25  H   -0.000000   0.000009  -0.000001   0.000000  -0.000000   0.000000
    26  C    0.000153   0.002557  -0.004535   0.000257  -0.000100   0.000020
    27  H   -0.000033   0.000338   0.002196   0.000101  -0.000079  -0.000006
    28  H   -0.000019  -0.000071   0.000055  -0.000008   0.000010  -0.000000
              13         14         15         16         17         18
     1  C    0.000079  -0.000160  -0.000065  -0.000006   0.000021  -0.000002
     2  H    0.000009  -0.000007  -0.000119   0.000003  -0.000004  -0.000001
     3  H    0.000003   0.000019   0.000001   0.000000  -0.000003   0.000001
     4  C   -0.006639  -0.000290   0.000003   0.000000  -0.000000   0.000000
     5  C    0.001551   0.000380  -0.000000  -0.000000   0.000000  -0.000000
     6  H   -0.000102   0.000025  -0.000000   0.000000  -0.000000  -0.000000
     7  H    0.003721   0.000067  -0.000000   0.000000  -0.000000  -0.000000
     8  H   -0.000205  -0.000038  -0.000000   0.000000  -0.000000   0.000000
     9  C   -0.035611  -0.033149   0.000000  -0.000000   0.000000  -0.000000
    10  H    0.004454  -0.001498  -0.000000  -0.000000   0.000000  -0.000000
    11  C    0.389634   0.385054   0.000000   0.000000  -0.000000   0.000000
    12  H   -0.028110  -0.033963  -0.000000  -0.000000   0.000000  -0.000000
    13  H    0.578858  -0.028046   0.000000   0.000000  -0.000000   0.000000
    14  H   -0.028046   0.579310   0.000000   0.000000  -0.000000  -0.000000
    15  C    0.000000   0.000000   5.005745   0.381450   0.380977   0.385026
    16  H    0.000000   0.000000   0.381450   0.590883  -0.036824  -0.026337
    17  H   -0.000000  -0.000000   0.380977  -0.036824   0.591251  -0.026446
    18  H    0.000000  -0.000000   0.385026  -0.026337  -0.026446   0.570346
    19  C   -0.000000   0.000000   0.368939  -0.035971  -0.035801  -0.033417
    20  C   -0.000000  -0.000000  -0.078329  -0.001068  -0.001696   0.004736
    21  H    0.000000  -0.000000  -0.002725  -0.000769   0.004070  -0.000015
    22  H    0.000000   0.000000  -0.002677   0.004072  -0.000769  -0.000037
    23  H    0.000000   0.000000   0.004846  -0.000017  -0.000047  -0.000170
    24  C    0.000000   0.000000  -0.038802  -0.001442  -0.000589  -0.004984
    25  H   -0.000000  -0.000000  -0.014200   0.000239   0.000250   0.006469
    26  C   -0.000003  -0.000005   0.005898  -0.000207  -0.000109   0.000105
    27  H    0.000002   0.000001   0.000042   0.000015  -0.000009   0.000010
    28  H   -0.000002   0.000000  -0.000169   0.000008  -0.000001  -0.000010
              19         20         21         22         23         24
     1  C   -0.005921  -0.000289   0.000145  -0.000021  -0.000416  -0.049279
     2  H    0.002792   0.001074  -0.000107   0.000028   0.000616  -0.002389
     3  H    0.000145  -0.000001  -0.000003  -0.000000   0.000014  -0.001887
     4  C    0.000209  -0.000098  -0.000010   0.000003   0.000094   0.005365
     5  C   -0.000003   0.000000   0.000000   0.000000   0.000002   0.000002
     6  H    0.000000  -0.000000   0.000000   0.000000   0.000000  -0.000043
     7  H    0.000000   0.000000  -0.000000   0.000000   0.000000   0.000000
     8  H   -0.000004   0.000001   0.000000   0.000000  -0.000003  -0.000024
     9  C   -0.000002  -0.000023  -0.000001   0.000000   0.000104  -0.000024
    10  H   -0.000008  -0.000011   0.000005  -0.000000   0.000110  -0.000023
    11  C    0.000000   0.000000  -0.000000   0.000000  -0.000001   0.000002
    12  H   -0.000000   0.000000   0.000000  -0.000000  -0.000001  -0.000000
    13  H   -0.000000  -0.000000   0.000000   0.000000   0.000000   0.000000
    14  H    0.000000  -0.000000  -0.000000   0.000000   0.000000   0.000000
    15  C    0.368939  -0.078329  -0.002725  -0.002677   0.004846  -0.038802
    16  H   -0.035971  -0.001068  -0.000769   0.004072  -0.000017  -0.001442
    17  H   -0.035801  -0.001696   0.004070  -0.000769  -0.000047  -0.000589
    18  H   -0.033417   0.004736  -0.000015  -0.000037  -0.000170  -0.004984
    19  C    4.718998   0.378717  -0.035127  -0.035690  -0.026812   0.722342
    20  C    0.378717   5.006865   0.383501   0.383261   0.383689  -0.054718
    21  H   -0.035127   0.383501   0.583928  -0.034560  -0.027850   0.000328
    22  H   -0.035690   0.383261  -0.034560   0.582918  -0.026827   0.000769
    23  H   -0.026812   0.383689  -0.027850  -0.026827   0.572946  -0.009858
    24  C    0.722342  -0.054718   0.000328   0.000769  -0.009858   4.906161
    25  H   -0.034585   0.006460  -0.000168  -0.000155   0.000031   0.377051
    26  C   -0.042479  -0.013487   0.000556   0.000031   0.002304   0.358485
    27  H   -0.007263  -0.000001  -0.000205   0.000211   0.002537  -0.036594
    28  H    0.003219   0.000389  -0.000014   0.000012  -0.000031  -0.027228
              25         26         27         28
     1  C    0.000409   0.347138  -0.044743  -0.038703
     2  H   -0.000096  -0.040574  -0.005197   0.005541
     3  H    0.001714  -0.047522   0.006252  -0.005213
     4  C   -0.000096  -0.053730   0.002384  -0.006744
     5  C   -0.000002  -0.000948  -0.000992   0.003809
     6  H    0.000001  -0.002102   0.000192   0.000725
     7  H   -0.000000   0.000153  -0.000033  -0.000019
     8  H    0.000009   0.002557   0.000338  -0.000071
     9  C   -0.000001  -0.004535   0.002196   0.000055
    10  H    0.000000   0.000257   0.000101  -0.000008
    11  C   -0.000000  -0.000100  -0.000079   0.000010
    12  H    0.000000   0.000020  -0.000006  -0.000000
    13  H   -0.000000  -0.000003   0.000002  -0.000002
    14  H   -0.000000  -0.000005   0.000001   0.000000
    15  C   -0.014200   0.005898   0.000042  -0.000169
    16  H    0.000239  -0.000207   0.000015   0.000008
    17  H    0.000250  -0.000109  -0.000009  -0.000001
    18  H    0.006469   0.000105   0.000010  -0.000010
    19  C   -0.034585  -0.042479  -0.007263   0.003219
    20  C    0.006460  -0.013487  -0.000001   0.000389
    21  H   -0.000168   0.000556  -0.000205  -0.000014
    22  H   -0.000155   0.000031   0.000211   0.000012
    23  H    0.000031   0.002304   0.002537  -0.000031
    24  C    0.377051   0.358485  -0.036594  -0.027228
    25  H    0.613013  -0.050026   0.004382  -0.005743
    26  C   -0.050026   5.025032   0.388000   0.382550
    27  H    0.004382   0.388000   0.603122  -0.034527
    28  H   -0.005743   0.382550  -0.034527   0.607350
 Mulliken charges:
               1
     1  C   -0.244344
     2  H    0.111791
     3  H    0.114157
     4  C    0.106721
     5  C   -0.404598
     6  H    0.124975
     7  H    0.125076
     8  H    0.135576
     9  C   -0.147352
    10  H    0.095387
    11  C   -0.395127
    12  H    0.132659
    13  H    0.120406
    14  H    0.132301
    15  C   -0.395840
    16  H    0.125969
    17  H    0.125727
    18  H    0.124725
    19  C    0.097723
    20  C   -0.398973
    21  H    0.129021
    22  H    0.129433
    23  H    0.124740
    24  C   -0.142620
    25  H    0.095044
    26  C   -0.257258
    27  H    0.119865
    28  H    0.114814
 Sum of Mulliken charges =  -0.00000
 Mulliken charges with hydrogens summed into heavy atoms:
               1
     1  C   -0.018395
     4  C    0.106721
     5  C   -0.018971
     9  C   -0.051965
    11  C   -0.009760
    15  C   -0.019417
    19  C    0.097723
    20  C   -0.015779
    24  C   -0.047576
    26  C   -0.022579
 Electronic spatial extent (au):  <R**2>=           2619.6815
 Charge=             -0.0000 electrons
 Dipole moment (field-independent basis, Debye):
    X=              0.0531    Y=              0.1213    Z=              0.1067  Tot=              0.1701
 Quadrupole moment (field-independent basis, Debye-Ang):
   XX=            -62.1773   YY=            -62.3247   ZZ=            -66.3031
   XY=              0.9949   XZ=             -1.2329   YZ=              0.1154
 Traceless Quadrupole moment (field-independent basis, Debye-Ang):
   XX=              1.4244   YY=              1.2770   ZZ=             -2.7014
   XY=              0.9949   XZ=             -1.2329   YZ=              0.1154
 Octapole moment (field-independent basis, Debye-Ang**2):
  XXX=             -0.1228  YYY=             -0.9300  ZZZ=              1.3947  XYY=             -0.4418
  XXY=              4.8270  XXZ=              1.0705  XZZ=              0.8367  YZZ=              1.4111
  YYZ=             -1.9520  XYZ=              2.4488
 Hexadecapole moment (field-independent basis, Debye-Ang**3):
 XXXX=          -2866.9590 YYYY=           -522.7487 ZZZZ=           -179.3018 XXXY=              6.9631
 XXXZ=             -4.6843 YYYX=             -8.3345 YYYZ=              1.2523 ZZZX=             -3.2226
 ZZZY=              0.2307 XXYY=           -561.5421 XXZZ=           -522.9765 YYZZ=           -113.4220
 XXYZ=              1.4232 YYXZ=             -3.0310 ZZXY=              3.9758
 N-N= 5.125126986168D+02 E-N=-1.930112251288D+03  KE= 3.881378971841D+02
 No NMR shielding tensors so no spin-rotation constants.
 Leave Link  601 at Tue Jul  6 11:34:40 2021, MaxMem=   524288000 cpu:               2.5 elap:               0.6
 (Enter /opt/gaussian/g16_legacy/l9999.exe)
 1\1\GINC-TRUENO91\FOpt\RM062X\6-31G(d,p)\C10H18\JRAMOS\06-Jul-2021\0\\
 #p opt=loose m062x/6-31g(d,p)\\Conformer number 263. Energy MM = 23.75
 9 kcal/mol\\0,1\C,-0.5285336096,-0.0466287178,-0.620693935\H,-0.101626
 3506,0.9616998143,-0.5835958073\H,-0.5056101327,-0.3612101036,-1.67361
 80703\C,-1.9548850523,-0.0226379981,-0.1257897274\C,-2.6858974485,-1.3
 383219603,-0.2120533179\H,-2.4888591258,-1.8183991142,-1.1770630794\H,
 -3.7656644751,-1.2313381094,-0.1049081373\H,-2.341412788,-2.0322355647
 ,0.5630811878\C,-2.4804702721,1.1043290058,0.36553548\H,-1.8409242602,
 1.9873551857,0.3731514851\C,-3.8574079282,1.3161578285,0.9224571855\H,
 -3.8033106997,1.6478340461,1.9650344488\H,-4.470646572,0.414449746,0.8
 949255905\H,-4.3844534306,2.1008424419,0.3692436027\C,4.1461737349,-0.
 1940502845,-0.5162525698\H,4.8980778166,-0.3724563588,0.2614392794\H,4
 .4075545027,0.7575599139,-0.993690059\H,4.2296531887,-0.9872034907,-1.
 262389797\C,2.7652135552,-0.1326342239,0.0801518184\C,2.5782457437,0.9
 394081483,1.120901256\H,2.8095857344,1.9225771135,0.6948918574\H,3.270
 588055,0.7898889385,1.9575516604\H,1.5628950253,0.9766506341,1.5183903
 047\C,1.8007609667,-0.9727104222,-0.3081722895\H,2.0427247044,-1.69195
 15441,-1.0905624328\C,0.3802297685,-0.9927528235,0.1894096812\H,0.3261
 256241,-0.7092076815,1.2460265758\H,-0.0080262749,-2.0151144193,0.1240
 978091\\Version=EM64L-G16RevA.03\State=1-A\HF=-391.6897267\RMSD=3.157e
 -09\RMSF=2.258e-06\Dipole=0.0257337,0.0213074,0.0579876\Quadrupole=1.1
 599133,0.0947055,-1.2546188,1.0805534,-0.5144906,1.2354821\PG=C01 [X(C
 10H18)]\\@


 It takes a long time to grow an old friend.
                            -- John Leonard
 Job cpu time:       0 days  2 hours 32 minutes 15.2 seconds.
 Elapsed time:       0 days  0 hours 25 minutes 30.8 seconds.
 File lengths (MBytes):  RWF=     42 Int=      0 D2E=      0 Chk=      6 Scr=      1
 Normal termination of Gaussian 16 at Tue Jul  6 11:34:40 2021.
