 Entering Gaussian System, Link 0=/opt/gaussian/g16_legacy/g16
 Input=IsoP_rdkit_03_433_gaussian.com
 Output=IsoP_rdkit_03_433_gaussian.log
 Initial command:
 /opt/gaussian/g16_legacy/l1.exe "/scratch-local/jramos/2641339/Gau-13933.inp" -scrdir="/scratch-local/jramos/2641339/"
 Entering Link 1 = /opt/gaussian/g16_legacy/l1.exe PID=     13934.
  
 Copyright (c) 1988,1990,1992,1993,1995,1998,2003,2009,2016,
            Gaussian, Inc.  All Rights Reserved.
  
 This is part of the Gaussian(R) 16 program.  It is based on
 the Gaussian(R) 09 system (copyright 2009, Gaussian, Inc.),
 the Gaussian(R) 03 system (copyright 2003, Gaussian, Inc.),
 the Gaussian(R) 98 system (copyright 1998, Gaussian, Inc.),
 the Gaussian(R) 94 system (copyright 1995, Gaussian, Inc.),
 the Gaussian 92(TM) system (copyright 1992, Gaussian, Inc.),
 the Gaussian 90(TM) system (copyright 1990, Gaussian, Inc.),
 the Gaussian 88(TM) system (copyright 1988, Gaussian, Inc.),
 the Gaussian 86(TM) system (copyright 1986, Carnegie Mellon
 University), and the Gaussian 82(TM) system (copyright 1983,
 Carnegie Mellon University). Gaussian is a federally registered
 trademark of Gaussian, Inc.
  
 This software contains proprietary and confidential information,
 including trade secrets, belonging to Gaussian, Inc.
  
 This software is provided under written license and may be
 used, copied, transmitted, or stored only in accord with that
 written license.
  
 The following legend is applicable only to US Government
 contracts under FAR:
  
                    RESTRICTED RIGHTS LEGEND
  
 Use, reproduction and disclosure by the US Government is
 subject to restrictions as set forth in subparagraphs (a)
 and (c) of the Commercial Computer Software - Restricted
 Rights clause in FAR 52.227-19.
  
 Gaussian, Inc.
 340 Quinnipiac St., Bldg. 40, Wallingford CT 06492
  
  
 ---------------------------------------------------------------
 Warning -- This program may not be used in any manner that
 competes with the business of Gaussian, Inc. or will provide
 assistance to any competitor of Gaussian, Inc.  The licensee
 of this program is prohibited from giving any competitor of
 Gaussian, Inc. access to this program.  By using this program,
 the user acknowledges that Gaussian, Inc. is engaged in the
 business of creating and licensing software in the field of
 computational chemistry and represents and warrants to the
 licensee that it is not a competitor of Gaussian, Inc. and that
 it will not use this program in any manner prohibited above.
 ---------------------------------------------------------------
  

 Cite this work as:
 Gaussian 16, Revision A.03,
 M. J. Frisch, G. W. Trucks, H. B. Schlegel, G. E. Scuseria, 
 M. A. Robb, J. R. Cheeseman, G. Scalmani, V. Barone, 
 G. A. Petersson, H. Nakatsuji, X. Li, M. Caricato, A. V. Marenich, 
 J. Bloino, B. G. Janesko, R. Gomperts, B. Mennucci, H. P. Hratchian, 
 J. V. Ortiz, A. F. Izmaylov, J. L. Sonnenberg, D. Williams-Young, 
 F. Ding, F. Lipparini, F. Egidi, J. Goings, B. Peng, A. Petrone, 
 T. Henderson, D. Ranasinghe, V. G. Zakrzewski, J. Gao, N. Rega, 
 G. Zheng, W. Liang, M. Hada, M. Ehara, K. Toyota, R. Fukuda, 
 J. Hasegawa, M. Ishida, T. Nakajima, Y. Honda, O. Kitao, H. Nakai, 
 T. Vreven, K. Throssell, J. A. Montgomery, Jr., J. E. Peralta, 
 F. Ogliaro, M. J. Bearpark, J. J. Heyd, E. N. Brothers, K. N. Kudin, 
 V. N. Staroverov, T. A. Keith, R. Kobayashi, J. Normand, 
 K. Raghavachari, A. P. Rendell, J. C. Burant, S. S. Iyengar, 
 J. Tomasi, M. Cossi, J. M. Millam, M. Klene, C. Adamo, R. Cammi, 
 J. W. Ochterski, R. L. Martin, K. Morokuma, O. Farkas, 
 J. B. Foresman, and D. J. Fox, Gaussian, Inc., Wallingford CT, 2016.
 
 ******************************************
 Gaussian 16:  EM64L-G16RevA.03 25-Dec-2016
                 6-Jul-2021 
 ******************************************
 %chk=IsoP_rdkit_03_433_gaussian.chk
 %nproc=6
 Will use up to    6 processors via shared memory.
 %mem=4000Mb
 -----------------------------
 #p opt=loose m062x/6-31g(d,p)
 -----------------------------
 1/7=-1,18=20,19=15,26=3,38=1/1,3;
 2/9=110,12=2,17=6,18=5,40=1/2;
 3/5=1,6=6,7=101,11=2,25=1,30=1,71=1,74=-55/1,2,3;
 4//1;
 5/5=2,38=5/2;
 6/7=2,8=2,9=2,10=2,28=1/1;
 7//1,2,3,16;
 1/7=-1,18=20,19=15,26=3/3(2);
 2/9=110/2;
 99//99;
 2/9=110/2;
 3/5=1,6=6,7=101,11=2,25=1,30=1,71=1,74=-55/1,2,3;
 4/5=5,16=3,69=1/1;
 5/5=2,38=5/2;
 7//1,2,3,16;
 1/7=-1,18=20,19=15,26=3/3(-5);
 2/9=110/2;
 6/7=2,8=2,9=2,10=2,19=2,28=1/1;
 99/9=1/99;
 Leave Link    1 at Tue Jul  6 11:30:57 2021, MaxMem=   524288000 cpu:               0.9 elap:               0.2
 (Enter /opt/gaussian/g16_legacy/l101.exe)
 -------------------------------------------------
 Conformer number 433. Energy MM = 23.287 kcal/mol
 -------------------------------------------------
 Symbolic Z-matrix:
 Charge =  0 Multiplicity = 1
 C                    -0.8108    0.5387    0.2437 
 H                    -0.2651    1.4593   -0.0036 
 H                    -1.1471    0.6805    1.2778 
 C                    -1.9962    0.404    -0.6899 
 C                    -1.7483    0.8627   -2.1043 
 H                    -1.4601    1.9189   -2.1158 
 H                    -0.9446    0.2772   -2.5618 
 H                    -2.636     0.7553   -2.7367 
 C                    -3.207    -0.0604   -0.3228 
 H                    -4.0001   -0.0945   -1.0694 
 C                    -3.6169   -0.5745    1.0208 
 H                    -2.7833   -0.6845    1.7178 
 H                    -4.3552    0.0987    1.4669 
 H                    -4.0794   -1.5605    0.9081 
 C                     3.609    -0.1269    1.8994 
 H                     4.4264   -0.8194    1.6733 
 H                     4.0199    0.8853    1.9733 
 H                     3.2086   -0.3956    2.8826 
 C                     2.5614   -0.1878    0.8185 
 C                     3.0668    0.1644   -0.5534 
 H                     3.5811    1.1313   -0.5275 
 H                     3.7766   -0.5939   -0.8991 
 H                     2.2735    0.2491   -1.2996 
 C                     1.2901   -0.5238    1.1124 
 H                     1.0371   -0.7414    2.1503 
 C                     0.1327   -0.6653    0.16 
 H                     0.477    -0.8149   -0.8681 
 H                    -0.4101   -1.5821    0.4244 
 
 ITRead=  0  0  0  0  0  0  0  0  0  0  0  0  0  0  0  0  0  0  0  0
 ITRead=  0  0  0  0  0  0  0  0
 MicOpt= -1 -1 -1 -1 -1 -1 -1 -1 -1 -1 -1 -1 -1 -1 -1 -1 -1 -1 -1 -1
 MicOpt= -1 -1 -1 -1 -1 -1 -1 -1
 NAtoms=     28 NQM=       28 NQMF=       0 NMMI=      0 NMMIF=      0
                NMic=       0 NMicF=      0.
                    Isotopes and Nuclear Properties:
 (Nuclear quadrupole moments (NQMom) in fm**2, nuclear magnetic moments (NMagM)
  in nuclear magnetons)

  Atom         1           2           3           4           5           6           7           8           9          10
 IAtWgt=          12           1           1          12          12           1           1           1          12           1
 AtmWgt=  12.0000000   1.0078250   1.0078250  12.0000000  12.0000000   1.0078250   1.0078250   1.0078250  12.0000000   1.0078250
 NucSpn=           0           1           1           0           0           1           1           1           0           1
 AtZEff=  -0.0000000  -0.0000000  -0.0000000  -0.0000000  -0.0000000  -0.0000000  -0.0000000  -0.0000000  -0.0000000  -0.0000000
 NQMom=    0.0000000   0.0000000   0.0000000   0.0000000   0.0000000   0.0000000   0.0000000   0.0000000   0.0000000   0.0000000
 NMagM=    0.0000000   2.7928460   2.7928460   0.0000000   0.0000000   2.7928460   2.7928460   2.7928460   0.0000000   2.7928460
 AtZNuc=   6.0000000   1.0000000   1.0000000   6.0000000   6.0000000   1.0000000   1.0000000   1.0000000   6.0000000   1.0000000

  Atom        11          12          13          14          15          16          17          18          19          20
 IAtWgt=          12           1           1           1          12           1           1           1          12          12
 AtmWgt=  12.0000000   1.0078250   1.0078250   1.0078250  12.0000000   1.0078250   1.0078250   1.0078250  12.0000000  12.0000000
 NucSpn=           0           1           1           1           0           1           1           1           0           0
 AtZEff=  -0.0000000  -0.0000000  -0.0000000  -0.0000000  -0.0000000  -0.0000000  -0.0000000  -0.0000000  -0.0000000  -0.0000000
 NQMom=    0.0000000   0.0000000   0.0000000   0.0000000   0.0000000   0.0000000   0.0000000   0.0000000   0.0000000   0.0000000
 NMagM=    0.0000000   2.7928460   2.7928460   2.7928460   0.0000000   2.7928460   2.7928460   2.7928460   0.0000000   0.0000000
 AtZNuc=   6.0000000   1.0000000   1.0000000   1.0000000   6.0000000   1.0000000   1.0000000   1.0000000   6.0000000   6.0000000

  Atom        21          22          23          24          25          26          27          28
 IAtWgt=           1           1           1          12           1          12           1           1
 AtmWgt=   1.0078250   1.0078250   1.0078250  12.0000000   1.0078250  12.0000000   1.0078250   1.0078250
 NucSpn=           1           1           1           0           1           0           1           1
 AtZEff=  -0.0000000  -0.0000000  -0.0000000  -0.0000000  -0.0000000  -0.0000000  -0.0000000  -0.0000000
 NQMom=    0.0000000   0.0000000   0.0000000   0.0000000   0.0000000   0.0000000   0.0000000   0.0000000
 NMagM=    2.7928460   2.7928460   2.7928460   0.0000000   2.7928460   0.0000000   2.7928460   2.7928460
 AtZNuc=   1.0000000   1.0000000   1.0000000   6.0000000   1.0000000   6.0000000   1.0000000   1.0000000
 Leave Link  101 at Tue Jul  6 11:30:58 2021, MaxMem=   524288000 cpu:               2.4 elap:               0.6
 (Enter /opt/gaussian/g16_legacy/l103.exe)

 GradGradGradGradGradGradGradGradGradGradGradGradGradGradGradGradGradGrad
 Berny optimization.
 Initialization pass.
                           ----------------------------
                           !    Initial Parameters    !
                           ! (Angstroms and Degrees)  !
 --------------------------                            --------------------------
 ! Name  Definition              Value          Derivative Info.                !
 --------------------------------------------------------------------------------
 ! R1    R(1,2)                  1.0984         estimate D2E/DX2                !
 ! R2    R(1,3)                  1.0966         estimate D2E/DX2                !
 ! R3    R(1,4)                  1.5149         estimate D2E/DX2                !
 ! R4    R(1,26)                 1.5319         estimate D2E/DX2                !
 ! R5    R(4,5)                  1.5074         estimate D2E/DX2                !
 ! R6    R(4,9)                  1.3478         estimate D2E/DX2                !
 ! R7    R(5,6)                  1.0949         estimate D2E/DX2                !
 ! R8    R(5,7)                  1.0946         estimate D2E/DX2                !
 ! R9    R(5,8)                  1.0952         estimate D2E/DX2                !
 ! R10   R(9,10)                 1.0898         estimate D2E/DX2                !
 ! R11   R(9,11)                 1.4959         estimate D2E/DX2                !
 ! R12   R(11,12)                1.0922         estimate D2E/DX2                !
 ! R13   R(11,13)                1.0942         estimate D2E/DX2                !
 ! R14   R(11,14)                1.0949         estimate D2E/DX2                !
 ! R15   R(15,16)                1.0949         estimate D2E/DX2                !
 ! R16   R(15,17)                1.0949         estimate D2E/DX2                !
 ! R17   R(15,18)                1.0951         estimate D2E/DX2                !
 ! R18   R(15,19)                1.5065         estimate D2E/DX2                !
 ! R19   R(19,20)                1.5039         estimate D2E/DX2                !
 ! R20   R(19,24)                1.3474         estimate D2E/DX2                !
 ! R21   R(20,21)                1.0955         estimate D2E/DX2                !
 ! R22   R(20,22)                1.0947         estimate D2E/DX2                !
 ! R23   R(20,23)                1.0924         estimate D2E/DX2                !
 ! R24   R(24,25)                1.0902         estimate D2E/DX2                !
 ! R25   R(24,26)                1.5055         estimate D2E/DX2                !
 ! R26   R(26,27)                1.0945         estimate D2E/DX2                !
 ! R27   R(26,28)                1.0978         estimate D2E/DX2                !
 ! A1    A(2,1,3)              104.8504         estimate D2E/DX2                !
 ! A2    A(2,1,4)              108.937          estimate D2E/DX2                !
 ! A3    A(2,1,26)             109.9035         estimate D2E/DX2                !
 ! A4    A(3,1,4)              110.651          estimate D2E/DX2                !
 ! A5    A(3,1,26)             110.0002         estimate D2E/DX2                !
 ! A6    A(4,1,26)             112.233          estimate D2E/DX2                !
 ! A7    A(1,4,5)              114.9926         estimate D2E/DX2                !
 ! A8    A(1,4,9)              124.4545         estimate D2E/DX2                !
 ! A9    A(5,4,9)              120.5409         estimate D2E/DX2                !
 ! A10   A(4,5,6)              110.2846         estimate D2E/DX2                !
 ! A11   A(4,5,7)              110.4971         estimate D2E/DX2                !
 ! A12   A(4,5,8)              112.2503         estimate D2E/DX2                !
 ! A13   A(6,5,7)              108.5635         estimate D2E/DX2                !
 ! A14   A(6,5,8)              107.5711         estimate D2E/DX2                !
 ! A15   A(7,5,8)              107.5383         estimate D2E/DX2                !
 ! A16   A(4,9,10)             118.5542         estimate D2E/DX2                !
 ! A17   A(4,9,11)             127.5356         estimate D2E/DX2                !
 ! A18   A(10,9,11)            113.903          estimate D2E/DX2                !
 ! A19   A(9,11,12)            113.4966         estimate D2E/DX2                !
 ! A20   A(9,11,13)            109.8551         estimate D2E/DX2                !
 ! A21   A(9,11,14)            109.4386         estimate D2E/DX2                !
 ! A22   A(12,11,13)           108.4684         estimate D2E/DX2                !
 ! A23   A(12,11,14)           107.3016         estimate D2E/DX2                !
 ! A24   A(13,11,14)           108.1192         estimate D2E/DX2                !
 ! A25   A(16,15,17)           108.5702         estimate D2E/DX2                !
 ! A26   A(16,15,18)           107.6486         estimate D2E/DX2                !
 ! A27   A(16,15,19)           110.2068         estimate D2E/DX2                !
 ! A28   A(17,15,18)           107.6649         estimate D2E/DX2                !
 ! A29   A(17,15,19)           110.2894         estimate D2E/DX2                !
 ! A30   A(18,15,19)           112.3344         estimate D2E/DX2                !
 ! A31   A(15,19,20)           114.291          estimate D2E/DX2                !
 ! A32   A(15,19,24)           120.6435         estimate D2E/DX2                !
 ! A33   A(20,19,24)           125.063          estimate D2E/DX2                !
 ! A34   A(19,20,21)           110.0548         estimate D2E/DX2                !
 ! A35   A(19,20,22)           110.1065         estimate D2E/DX2                !
 ! A36   A(19,20,23)           113.4067         estimate D2E/DX2                !
 ! A37   A(21,20,22)           108.3283         estimate D2E/DX2                !
 ! A38   A(21,20,23)           106.7772         estimate D2E/DX2                !
 ! A39   A(22,20,23)           107.991          estimate D2E/DX2                !
 ! A40   A(19,24,25)           118.4494         estimate D2E/DX2                !
 ! A41   A(19,24,26)           127.647          estimate D2E/DX2                !
 ! A42   A(25,24,26)           113.8958         estimate D2E/DX2                !
 ! A43   A(1,26,24)            111.4101         estimate D2E/DX2                !
 ! A44   A(1,26,27)            110.6398         estimate D2E/DX2                !
 ! A45   A(1,26,28)            109.7969         estimate D2E/DX2                !
 ! A46   A(24,26,27)           111.4221         estimate D2E/DX2                !
 ! A47   A(24,26,28)           107.8336         estimate D2E/DX2                !
 ! A48   A(27,26,28)           105.5238         estimate D2E/DX2                !
 ! D1    D(2,1,4,5)             36.9522         estimate D2E/DX2                !
 ! D2    D(2,1,4,9)           -141.7913         estimate D2E/DX2                !
 ! D3    D(3,1,4,5)            151.716          estimate D2E/DX2                !
 ! D4    D(3,1,4,9)            -27.0275         estimate D2E/DX2                !
 ! D5    D(26,1,4,5)           -84.9906         estimate D2E/DX2                !
 ! D6    D(26,1,4,9)            96.2659         estimate D2E/DX2                !
 ! D7    D(2,1,26,24)           59.6318         estimate D2E/DX2                !
 ! D8    D(2,1,26,27)          -64.903          estimate D2E/DX2                !
 ! D9    D(2,1,26,28)          179.0222         estimate D2E/DX2                !
 ! D10   D(3,1,26,24)          -55.3199         estimate D2E/DX2                !
 ! D11   D(3,1,26,27)         -179.8547         estimate D2E/DX2                !
 ! D12   D(3,1,26,28)           64.0705         estimate D2E/DX2                !
 ! D13   D(4,1,26,24)         -178.9778         estimate D2E/DX2                !
 ! D14   D(4,1,26,27)           56.4874         estimate D2E/DX2                !
 ! D15   D(4,1,26,28)          -59.5875         estimate D2E/DX2                !
 ! D16   D(1,4,5,6)            -59.4792         estimate D2E/DX2                !
 ! D17   D(1,4,5,7)             60.5548         estimate D2E/DX2                !
 ! D18   D(1,4,5,8)           -179.41           estimate D2E/DX2                !
 ! D19   D(9,4,5,6)            119.3179         estimate D2E/DX2                !
 ! D20   D(9,4,5,7)           -120.6481         estimate D2E/DX2                !
 ! D21   D(9,4,5,8)             -0.613          estimate D2E/DX2                !
 ! D22   D(1,4,9,10)           178.5615         estimate D2E/DX2                !
 ! D23   D(1,4,9,11)            -2.4783         estimate D2E/DX2                !
 ! D24   D(5,4,9,10)            -0.1162         estimate D2E/DX2                !
 ! D25   D(5,4,9,11)           178.844          estimate D2E/DX2                !
 ! D26   D(4,9,11,12)           -8.0428         estimate D2E/DX2                !
 ! D27   D(4,9,11,13)          113.5745         estimate D2E/DX2                !
 ! D28   D(4,9,11,14)         -127.8656         estimate D2E/DX2                !
 ! D29   D(10,9,11,12)         170.9582         estimate D2E/DX2                !
 ! D30   D(10,9,11,13)         -67.4245         estimate D2E/DX2                !
 ! D31   D(10,9,11,14)          51.1354         estimate D2E/DX2                !
 ! D32   D(16,15,19,20)        -59.5692         estimate D2E/DX2                !
 ! D33   D(16,15,19,24)        120.9844         estimate D2E/DX2                !
 ! D34   D(17,15,19,20)         60.2903         estimate D2E/DX2                !
 ! D35   D(17,15,19,24)       -119.1561         estimate D2E/DX2                !
 ! D36   D(18,15,19,20)       -179.6007         estimate D2E/DX2                !
 ! D37   D(18,15,19,24)          0.9529         estimate D2E/DX2                !
 ! D38   D(15,19,20,21)        -52.588          estimate D2E/DX2                !
 ! D39   D(15,19,20,22)         66.7606         estimate D2E/DX2                !
 ! D40   D(15,19,20,23)       -172.1167         estimate D2E/DX2                !
 ! D41   D(24,19,20,21)        126.8301         estimate D2E/DX2                !
 ! D42   D(24,19,20,22)       -113.8213         estimate D2E/DX2                !
 ! D43   D(24,19,20,23)          7.3014         estimate D2E/DX2                !
 ! D44   D(15,19,24,25)          0.5264         estimate D2E/DX2                !
 ! D45   D(15,19,24,26)       -178.3912         estimate D2E/DX2                !
 ! D46   D(20,19,24,25)       -178.8571         estimate D2E/DX2                !
 ! D47   D(20,19,24,26)          2.2253         estimate D2E/DX2                !
 ! D48   D(19,24,26,1)        -103.6588         estimate D2E/DX2                !
 ! D49   D(19,24,26,27)         20.4353         estimate D2E/DX2                !
 ! D50   D(19,24,26,28)        135.7907         estimate D2E/DX2                !
 ! D51   D(25,24,26,1)          77.3821         estimate D2E/DX2                !
 ! D52   D(25,24,26,27)       -158.5238         estimate D2E/DX2                !
 ! D53   D(25,24,26,28)        -43.1684         estimate D2E/DX2                !
 --------------------------------------------------------------------------------
 Trust Radius=3.00D-01 FncErr=1.00D-07 GrdErr=1.00D-06 EigMax=2.50D+02 EigMin=1.00D-04
 Number of steps in this run=    138 maximum allowed number of steps=    168.
 GradGradGradGradGradGradGradGradGradGradGradGradGradGradGradGradGradGrad

 Leave Link  103 at Tue Jul  6 11:30:58 2021, MaxMem=   524288000 cpu:               0.6 elap:               0.2
 (Enter /opt/gaussian/g16_legacy/l202.exe)
                          Input orientation:                          
 ---------------------------------------------------------------------
 Center     Atomic      Atomic             Coordinates (Angstroms)
 Number     Number       Type             X           Y           Z
 ---------------------------------------------------------------------
      1          6           0       -0.810800    0.538700    0.243700
      2          1           0       -0.265100    1.459300   -0.003600
      3          1           0       -1.147100    0.680500    1.277800
      4          6           0       -1.996200    0.404000   -0.689900
      5          6           0       -1.748300    0.862700   -2.104300
      6          1           0       -1.460100    1.918900   -2.115800
      7          1           0       -0.944600    0.277200   -2.561800
      8          1           0       -2.636000    0.755300   -2.736700
      9          6           0       -3.207000   -0.060400   -0.322800
     10          1           0       -4.000100   -0.094500   -1.069400
     11          6           0       -3.616900   -0.574500    1.020800
     12          1           0       -2.783300   -0.684500    1.717800
     13          1           0       -4.355200    0.098700    1.466900
     14          1           0       -4.079400   -1.560500    0.908100
     15          6           0        3.609000   -0.126900    1.899400
     16          1           0        4.426400   -0.819400    1.673300
     17          1           0        4.019900    0.885300    1.973300
     18          1           0        3.208600   -0.395600    2.882600
     19          6           0        2.561400   -0.187800    0.818500
     20          6           0        3.066800    0.164400   -0.553400
     21          1           0        3.581100    1.131300   -0.527500
     22          1           0        3.776600   -0.593900   -0.899100
     23          1           0        2.273500    0.249100   -1.299600
     24          6           0        1.290100   -0.523800    1.112400
     25          1           0        1.037100   -0.741400    2.150300
     26          6           0        0.132700   -0.665300    0.160000
     27          1           0        0.477000   -0.814900   -0.868100
     28          1           0       -0.410100   -1.582100    0.424400
 ---------------------------------------------------------------------
                    Distance matrix (angstroms):
                    1          2          3          4          5
     1  C    0.000000
     2  H    1.098385   0.000000
     3  H    1.096616   1.739666   0.000000
     4  C    1.514901   2.140414   2.160849   0.000000
     5  C    2.548919   2.639840   3.439947   1.507444   0.000000
     6  H    2.809588   2.469949   3.626034   2.148375   1.094874
     7  H    2.820836   2.898874   3.866030   2.150802   1.094555
     8  H    3.501579   3.686003   4.282362   2.173050   1.095206
     9  C    2.534091   3.326583   2.711834   1.347763   2.480657
    10  H    3.506681   4.183354   3.774862   2.099557   2.656662
    11  C    3.117258   4.052197   2.782263   2.551593   3.914519
    12  H    2.749535   3.728328   2.175770   2.757060   4.251294
    13  H    3.775260   4.554396   3.265908   3.210899   4.486992
    14  H    3.941042   4.949674   3.709062   3.279114   4.514474
    15  C    4.766445   4.598488   4.864028   6.197144   6.760886
    16  H    5.596111   5.478562   5.785328   6.952065   7.431463
    17  H    5.142695   4.753823   5.217619   6.596798   7.063955
    18  H    4.898192   4.882356   4.765029   6.363337   7.143063
    19  C    3.497132   3.373113   3.836388   4.837067   5.312233
    20  C    3.976336   3.616712   4.623484   5.070504   5.106672
    21  H    4.498301   3.895550   5.081162   5.626865   5.564256
    22  H    4.861380   4.620919   5.532252   5.862149   5.839410
    23  H    3.461004   3.096561   4.304602   4.315793   4.147158
    24  C    2.509447   2.756227   2.723534   3.861200   4.636962
    25  H    2.947629   3.343365   2.748415   4.310404   5.332280
    26  C    1.531931   2.167703   2.167612   2.529416   3.316625
    27  H    2.174112   2.543631   3.078767   2.763004   3.048687
    28  H    2.165873   3.074788   2.528007   2.775242   3.763263
                    6          7          8          9         10
     6  H    0.000000
     7  H    1.777593   0.000000
     8  H    1.766981   1.766353   0.000000
     9  C    3.191259   3.200867   2.611191   0.000000
    10  H    3.405926   3.420745   2.315776   1.089762   0.000000
    11  C    4.550504   4.549901   4.104795   1.495854   2.178573
    12  H    4.819236   4.756118   4.683726   2.175562   3.097933
    13  H    4.952825   5.281522   4.588793   2.132300   2.568315
    14  H    5.301974   5.024372   4.553120   2.127556   2.462915
    15  C    6.782544   6.387556   7.827626   7.169411   8.167816
    16  H    7.517077   6.927210   8.473799   7.926493   8.891220
    17  H    6.915162   6.751532   8.154876   7.641630   8.633564
    18  H    7.220642   6.880641   8.189045   7.179615   8.226440
    19  C    5.405623   4.892309   6.367248   5.881601   6.828335
    20  C    5.100214   4.487508   6.134973   6.282060   7.090442
    21  H    5.343848   5.034861   6.608651   6.894951   7.698755
    22  H    5.934438   5.080661   6.805774   7.027618   7.794579
    23  H    4.170633   3.456893   5.140495   5.575465   6.287218
    24  C    4.894043   4.374383   5.644991   4.743253   5.738533
    25  H    5.613627   5.212348   6.294009   4.959069   6.013180
    26  C    3.793991   3.075236   4.251432   3.428206   4.349399
    27  H    3.575301   2.466222   3.955751   3.799800   4.539154
    28  H    4.451080   3.558100   4.517812   3.270555   4.163231
                   11         12         13         14         15
    11  C    0.000000
    12  H    1.092153   0.000000
    13  H    1.094208   1.774041   0.000000
    14  H    1.094899   1.761495   1.772362   0.000000
    15  C    7.292867   6.419143   7.979125   7.883488   0.000000
    16  H    8.073438   7.211099   8.831874   8.572246   1.094906
    17  H    7.833198   6.986636   8.427187   8.527324   1.094920
    18  H    7.077129   6.110899   7.711006   7.640065   1.095081
    19  C    6.193695   5.442543   6.952831   6.781781   1.506492
    20  C    6.906224   6.332665   7.692335   7.495294   2.528846
    21  H    7.557658   6.988855   8.247954   8.245605   2.733805
    22  H    7.638733   7.063191   8.497283   8.118930   2.842144
    23  H    6.384308   5.962176   7.184414   6.964763   3.486909
    24  C    4.908117   4.121277   5.690570   5.472478   2.480765
    25  H    4.792008   3.845224   5.499973   5.328467   2.656168
    26  C    3.848210   3.306080   4.736341   4.370678   3.924290
    27  H    4.515058   4.163345   5.443992   4.946876   4.235779
    28  H    3.413871   2.847920   4.413129   3.701107   4.521769
                   16         17         18         19         20
    16  H    0.000000
    17  H    1.777989   0.000000
    18  H    1.767781   1.767976   0.000000
    19  C    2.146585   2.147633   2.173145   0.000000
    20  C    2.788291   2.795051   3.484222   1.503856   0.000000
    21  H    3.059948   2.550894   3.754858   2.142785   1.095477
    22  H    2.662768   3.240048   3.829256   2.142843   1.094689
    23  H    3.822931   3.763846   4.333687   2.181769   1.092389
    24  C    3.199745   3.190379   2.613558   1.347396   2.530844
    25  H    3.423590   3.402143   2.317596   2.098489   3.500021
    26  C    4.555182   4.561002   4.116607   2.561291   3.131499
    27  H    4.696434   4.849368   4.658884   2.753652   2.786598
    28  H    5.053038   5.302080   4.532717   3.305934   4.011881
                   21         22         23         24         25
    21  H    0.000000
    22  H    1.775562   0.000000
    23  H    1.756198   1.769282   0.000000
    24  C    3.267615   3.199020   2.717019   0.000000
    25  H    4.141202   4.101885   3.796259   1.090227   0.000000
    26  C    3.948657   3.795365   2.747651   1.505544   2.187470
    27  H    3.679557   3.307138   2.132065   2.160614   3.070807
    28  H    4.919180   4.500739   3.677931   2.117551   2.404141
                   26         27         28
    26  C    0.000000
    27  H    1.094492   0.000000
    28  H    1.097753   1.745308   0.000000
 Stoichiometry    C10H18
 Framework group  C1[X(C10H18)]
 Deg. of freedom    78
 Full point group                 C1      NOp   1
 Largest Abelian subgroup         C1      NOp   1
 Largest concise Abelian subgroup C1      NOp   1
                         Standard orientation:                         
 ---------------------------------------------------------------------
 Center     Atomic      Atomic             Coordinates (Angstroms)
 Number     Number       Type             X           Y           Z
 ---------------------------------------------------------------------
      1          6           0       -0.745798   -0.045520    0.580314
      2          1           0       -0.286566    0.606602    1.335491
      3          1           0       -0.871564   -1.012138    1.082709
      4          6           0       -2.090218    0.530338    0.185537
      5          6           0       -2.143983    2.035399    0.120051
      6          1           0       -1.893359    2.466931    1.094585
      7          1           0       -1.432503    2.412431   -0.621362
      8          1           0       -3.137195    2.403144   -0.158821
      9          6           0       -3.189378   -0.206063   -0.071425
     10          1           0       -4.114898    0.310452   -0.324815
     11          6           0       -3.306924   -1.697286   -0.075125
     12          1           0       -2.347699   -2.209932    0.024270
     13          1           0       -3.959079   -2.020700    0.741813
     14          1           0       -3.755102   -2.025127   -1.018767
     15          6           0        3.933060   -0.920081    0.330459
     16          1           0        4.707354   -0.789561   -0.432596
     17          1           0        4.322196   -0.557812    1.287634
     18          1           0        3.745695   -1.994129    0.433012
     19          6           0        2.691980   -0.156362   -0.051606
     20          6           0        2.901859    1.323928   -0.213701
     21          1           0        3.383877    1.735087    0.679987
     22          1           0        3.548611    1.520244   -1.074814
     23          1           0        1.972928    1.880976   -0.355470
     24          6           0        1.515326   -0.793308   -0.210546
     25          1           0        1.481864   -1.870788   -0.047725
     26          6           0        0.194742   -0.197003   -0.619374
     27          1           0        0.329762    0.763003   -1.127381
     28          1           0       -0.258325   -0.862934   -1.365248
 ---------------------------------------------------------------------
 Rotational constants (GHZ):           2.4778856           0.5324374           0.4581642
 Leave Link  202 at Tue Jul  6 11:30:59 2021, MaxMem=   524288000 cpu:               0.8 elap:               0.3
 (Enter /opt/gaussian/g16_legacy/l301.exe)
 Standard basis: 6-31G(d,p) (6D, 7F)
 Ernie: Thresh=  0.10000D-02 Tol=  0.10000D-05 Strict=F.
 There are   240 symmetry adapted cartesian basis functions of A   symmetry.
 There are   240 symmetry adapted basis functions of A   symmetry.
   240 basis functions,   406 primitive gaussians,   240 cartesian basis functions
    39 alpha electrons       39 beta electrons
       nuclear repulsion energy       513.2790585530 Hartrees.
 IExCor= 4336 DFT=T Ex+Corr=M062X ExCW=0 ScaHFX=  0.540000
 ScaDFX=  1.000000  1.000000  1.000000  1.000000 ScalE2=  1.000000  1.000000
 IRadAn=      5 IRanWt=     -1 IRanGd=            0 ICorTp=0 IEmpDi=  4
 NAtoms=   28 NActive=   28 NUniq=   28 SFac= 1.00D+00 NAtFMM=   60 NAOKFM=F Big=F
 Integral buffers will be    131072 words long.
 Raffenetti 2 integral format.
 Two-electron integral symmetry is turned on.
 Leave Link  301 at Tue Jul  6 11:30:59 2021, MaxMem=   524288000 cpu:               2.5 elap:               0.6
 (Enter /opt/gaussian/g16_legacy/l302.exe)
 NPDir=0 NMtPBC=     1 NCelOv=     1 NCel=       1 NClECP=     1 NCelD=      1
         NCelK=      1 NCelE2=     1 NClLst=     1 CellRange=     0.0.
 One-electron integrals computed using PRISM.
 One-electron integral symmetry used in STVInt
 NBasis=   240 RedAO= T EigKep=  2.09D-03  NBF=   240
 NBsUse=   240 1.00D-06 EigRej= -1.00D+00 NBFU=   240
 Precomputing XC quadrature grid using
 IXCGrd= 4 IRadAn=           5 IRanWt=          -1 IRanGd=           0 AccXCQ= 0.00D+00.
 Generated NRdTot=       0 NPtTot=           0 NUsed=           0 NTot=          32
 NSgBfM=   240   240   240   240   240 MxSgAt=    28 MxSgA2=    28.
 Leave Link  302 at Tue Jul  6 11:31:02 2021, MaxMem=   524288000 cpu:              12.1 elap:               2.6
 (Enter /opt/gaussian/g16_legacy/l303.exe)
 DipDrv:  MaxL=1.
 Leave Link  303 at Tue Jul  6 11:31:02 2021, MaxMem=   524288000 cpu:               0.9 elap:               0.3
 (Enter /opt/gaussian/g16_legacy/l401.exe)
 ExpMin= 1.61D-01 ExpMax= 3.05D+03 ExpMxC= 4.57D+02 IAcc=3 IRadAn=         5 AccDes= 0.00D+00
 Harris functional with IExCor= 1009 and IRadAn=       5 diagonalized for initial guess.
 HarFok:  IExCor= 1009 AccDes= 0.00D+00 IRadAn=         5 IDoV= 1 UseB2=F ITyADJ=14
 ICtDFT=  3500011 ScaDFX=  1.000000  1.000000  1.000000  1.000000
 FoFCou: FMM=F IPFlag=           0 FMFlag=      100000 FMFlg1=           0
         NFxFlg=           0 DoJE=T BraDBF=F KetDBF=T FulRan=T
         wScrn=  0.000000 ICntrl=       500 IOpCl=  0 I1Cent=   200000004 NGrid=           0
         NMat0=    1 NMatS0=      1 NMatT0=    0 NMatD0=    1 NMtDS0=    0 NMtDT0=    0
 Petite list used in FoFCou.
 Harris En= -391.655786147728    
 JPrj=0 DoOrth=F DoCkMO=F.
 Leave Link  401 at Tue Jul  6 11:31:06 2021, MaxMem=   524288000 cpu:              20.2 elap:               3.7
 (Enter /opt/gaussian/g16_legacy/l502.exe)
 Integral symmetry usage will be decided dynamically.
 Closed shell SCF:
 Using DIIS extrapolation, IDIIS=  1040.
 NGot=   524288000 LenX=   524168546 LenY=   524110505
 Requested convergence on RMS density matrix=1.00D-08 within 128 cycles.
 Requested convergence on MAX density matrix=1.00D-06.
 Requested convergence on             energy=1.00D-06.
 No special actions if energy rises.
 Fock matrices will be formed incrementally for  20 cycles.
 Integral accuracy reduced to 1.0D-05 until final iterations.

 Cycle   1  Pass 0  IDiag  1:
 FoFJK:  IHMeth= 1 ICntrl=       0 DoSepK=F KAlg= 0 I1Cent=           0 FoldK=F
 IRaf= 850000000 NMat=       1 IRICut=       1 DoRegI=T DoRafI=F ISym2E= 0 IDoP0=0 IntGTp=1.
 FoFCou: FMM=F IPFlag=           0 FMFlag=      100000 FMFlg1=           0
         NFxFlg=           0 DoJE=F BraDBF=F KetDBF=F FulRan=T
         wScrn=  0.000000 ICntrl=         0 IOpCl=  0 I1Cent=           0 NGrid=           0
         NMat0=    1 NMatS0=      1 NMatT0=    0 NMatD0=    1 NMtDS0=    0 NMtDT0=    0
 Symmetry not used in FoFCou.
 E= -391.298976324141    
 DIIS: error= 3.07D-02 at cycle   1 NSaved=   1.
 NSaved= 1 IEnMin= 1 EnMin= -391.298976324141     IErMin= 1 ErrMin= 3.07D-02
 ErrMax= 3.07D-02  0.00D+00 EMaxC= 1.00D-01 BMatC= 3.70D-01 BMatP= 3.70D-01
 IDIUse=3 WtCom= 6.93D-01 WtEn= 3.07D-01
 Coeff-Com:  0.100D+01
 Coeff-En:   0.100D+01
 Coeff:      0.100D+01
 Gap=     0.341 Goal=   None    Shift=    0.000
 GapD=    0.341 DampG=1.000 DampE=0.500 DampFc=0.5000 IDamp=-1.
 Damping current iteration by 5.00D-01
 RMSDP=4.37D-03 MaxDP=1.15D-01              OVMax= 1.45D-01

 Cycle   2  Pass 0  IDiag  1:
 RMSU=  2.14D-03    CP:  9.75D-01
 E= -391.507916808989     Delta-E=       -0.208940484848 Rises=F Damp=T
 DIIS: error= 1.07D-02 at cycle   2 NSaved=   2.
 NSaved= 2 IEnMin= 2 EnMin= -391.507916808989     IErMin= 2 ErrMin= 1.07D-02
 ErrMax= 1.07D-02  0.00D+00 EMaxC= 1.00D-01 BMatC= 2.10D-02 BMatP= 3.70D-01
 IDIUse=3 WtCom= 8.93D-01 WtEn= 1.07D-01
 Coeff-Com: -0.154D+00 0.115D+01
 Coeff-En:   0.000D+00 0.100D+01
 Coeff:     -0.137D+00 0.114D+01
 Gap=     0.370 Goal=   None    Shift=    0.000
 RMSDP=8.26D-04 MaxDP=2.55D-02 DE=-2.09D-01 OVMax= 6.05D-02

 Cycle   3  Pass 0  IDiag  1:
 RMSU=  7.77D-04    CP:  9.69D-01  1.12D+00
 E= -391.687658992443     Delta-E=       -0.179742183454 Rises=F Damp=F
 DIIS: error= 1.24D-03 at cycle   3 NSaved=   3.
 NSaved= 3 IEnMin= 3 EnMin= -391.687658992443     IErMin= 3 ErrMin= 1.24D-03
 ErrMax= 1.24D-03  0.00D+00 EMaxC= 1.00D-01 BMatC= 5.83D-04 BMatP= 2.10D-02
 IDIUse=3 WtCom= 9.88D-01 WtEn= 1.24D-02
 Coeff-Com: -0.255D-01 0.119D+00 0.907D+00
 Coeff-En:   0.000D+00 0.000D+00 0.100D+01
 Coeff:     -0.252D-01 0.117D+00 0.908D+00
 Gap=     0.338 Goal=   None    Shift=    0.000
 RMSDP=1.85D-04 MaxDP=5.93D-03 DE=-1.80D-01 OVMax= 8.21D-03

 Cycle   4  Pass 0  IDiag  1:
 RMSU=  1.70D-04    CP:  9.68D-01  1.15D+00  9.43D-01
 E= -391.687996658218     Delta-E=       -0.000337665775 Rises=F Damp=F
 DIIS: error= 9.84D-04 at cycle   4 NSaved=   4.
 NSaved= 4 IEnMin= 4 EnMin= -391.687996658218     IErMin= 4 ErrMin= 9.84D-04
 ErrMax= 9.84D-04  0.00D+00 EMaxC= 1.00D-01 BMatC= 2.42D-04 BMatP= 5.83D-04
 IDIUse=3 WtCom= 9.90D-01 WtEn= 9.84D-03
 Coeff-Com: -0.597D-02 0.244D-01 0.398D+00 0.583D+00
 Coeff-En:   0.000D+00 0.000D+00 0.233D+00 0.767D+00
 Coeff:     -0.591D-02 0.241D-01 0.397D+00 0.585D+00
 Gap=     0.338 Goal=   None    Shift=    0.000
 RMSDP=8.53D-05 MaxDP=3.13D-03 DE=-3.38D-04 OVMax= 6.45D-03

 Cycle   5  Pass 0  IDiag  1:
 RMSU=  4.35D-05    CP:  9.68D-01  1.14D+00  9.82D-01  6.11D-01
 E= -391.688220970077     Delta-E=       -0.000224311859 Rises=F Damp=F
 DIIS: error= 2.97D-04 at cycle   5 NSaved=   5.
 NSaved= 5 IEnMin= 5 EnMin= -391.688220970077     IErMin= 5 ErrMin= 2.97D-04
 ErrMax= 2.97D-04  0.00D+00 EMaxC= 1.00D-01 BMatC= 2.62D-05 BMatP= 2.42D-04
 IDIUse=3 WtCom= 9.97D-01 WtEn= 2.97D-03
 Coeff-Com:  0.533D-03-0.168D-02 0.928D-01 0.279D+00 0.629D+00
 Coeff-En:   0.000D+00 0.000D+00 0.000D+00 0.000D+00 0.100D+01
 Coeff:      0.531D-03-0.167D-02 0.925D-01 0.278D+00 0.630D+00
 Gap=     0.339 Goal=   None    Shift=    0.000
 RMSDP=2.25D-05 MaxDP=1.05D-03 DE=-2.24D-04 OVMax= 1.95D-03

 Cycle   6  Pass 0  IDiag  1:
 RMSU=  1.35D-05    CP:  9.68D-01  1.14D+00  9.89D-01  6.78D-01  7.11D-01
 E= -391.688246214660     Delta-E=       -0.000025244583 Rises=F Damp=F
 DIIS: error= 5.88D-05 at cycle   6 NSaved=   6.
 NSaved= 6 IEnMin= 6 EnMin= -391.688246214660     IErMin= 6 ErrMin= 5.88D-05
 ErrMax= 5.88D-05  0.00D+00 EMaxC= 1.00D-01 BMatC= 1.56D-06 BMatP= 2.62D-05
 IDIUse=1 WtCom= 1.00D+00 WtEn= 0.00D+00
 Coeff-Com:  0.886D-03-0.301D-02 0.598D-02 0.710D-01 0.258D+00 0.668D+00
 Coeff:      0.886D-03-0.301D-02 0.598D-02 0.710D-01 0.258D+00 0.668D+00
 Gap=     0.339 Goal=   None    Shift=    0.000
 RMSDP=5.99D-06 MaxDP=2.01D-04 DE=-2.52D-05 OVMax= 4.28D-04

 Initial convergence to 1.0D-05 achieved.  Increase integral accuracy.
 Cycle   7  Pass 1  IDiag  1:
 E= -391.688229918826     Delta-E=        0.000016295834 Rises=F Damp=F
 DIIS: error= 2.00D-05 at cycle   1 NSaved=   1.
 NSaved= 1 IEnMin= 1 EnMin= -391.688229918826     IErMin= 1 ErrMin= 2.00D-05
 ErrMax= 2.00D-05  0.00D+00 EMaxC= 1.00D-01 BMatC= 2.17D-07 BMatP= 2.17D-07
 IDIUse=1 WtCom= 1.00D+00 WtEn= 0.00D+00
 Coeff-Com:  0.100D+01
 Coeff:      0.100D+01
 Gap=     0.339 Goal=   None    Shift=    0.000
 RMSDP=5.99D-06 MaxDP=2.01D-04 DE= 1.63D-05 OVMax= 1.80D-04

 Cycle   8  Pass 1  IDiag  1:
 RMSU=  8.37D-06    CP:  1.00D+00
 E= -391.688230056151     Delta-E=       -0.000000137326 Rises=F Damp=F
 DIIS: error= 1.27D-05 at cycle   2 NSaved=   2.
 NSaved= 2 IEnMin= 2 EnMin= -391.688230056151     IErMin= 2 ErrMin= 1.27D-05
 ErrMax= 1.27D-05  0.00D+00 EMaxC= 1.00D-01 BMatC= 9.81D-08 BMatP= 2.17D-07
 IDIUse=1 WtCom= 1.00D+00 WtEn= 0.00D+00
 Coeff-Com:  0.374D+00 0.626D+00
 Coeff:      0.374D+00 0.626D+00
 Gap=     0.339 Goal=   None    Shift=    0.000
 RMSDP=1.47D-06 MaxDP=6.38D-05 DE=-1.37D-07 OVMax= 1.22D-04

 Cycle   9  Pass 1  IDiag  1:
 RMSU=  1.47D-06    CP:  1.00D+00  9.91D-01
 E= -391.688230138005     Delta-E=       -0.000000081854 Rises=F Damp=F
 DIIS: error= 5.93D-06 at cycle   3 NSaved=   3.
 NSaved= 3 IEnMin= 3 EnMin= -391.688230138005     IErMin= 3 ErrMin= 5.93D-06
 ErrMax= 5.93D-06  0.00D+00 EMaxC= 1.00D-01 BMatC= 1.51D-08 BMatP= 9.81D-08
 IDIUse=1 WtCom= 1.00D+00 WtEn= 0.00D+00
 Coeff-Com: -0.631D-04 0.270D+00 0.730D+00
 Coeff:     -0.631D-04 0.270D+00 0.730D+00
 Gap=     0.339 Goal=   None    Shift=    0.000
 RMSDP=5.55D-07 MaxDP=2.61D-05 DE=-8.19D-08 OVMax= 5.30D-05

 Cycle  10  Pass 1  IDiag  1:
 RMSU=  3.54D-07    CP:  1.00D+00  1.02D+00  7.61D-01
 E= -391.688230151368     Delta-E=       -0.000000013363 Rises=F Damp=F
 DIIS: error= 2.42D-06 at cycle   4 NSaved=   4.
 NSaved= 4 IEnMin= 4 EnMin= -391.688230151368     IErMin= 4 ErrMin= 2.42D-06
 ErrMax= 2.42D-06  0.00D+00 EMaxC= 1.00D-01 BMatC= 1.80D-09 BMatP= 1.51D-08
 IDIUse=1 WtCom= 1.00D+00 WtEn= 0.00D+00
 Coeff-Com: -0.209D-01 0.106D+00 0.380D+00 0.536D+00
 Coeff:     -0.209D-01 0.106D+00 0.380D+00 0.536D+00
 Gap=     0.339 Goal=   None    Shift=    0.000
 RMSDP=1.88D-07 MaxDP=7.14D-06 DE=-1.34D-08 OVMax= 1.50D-05

 Cycle  11  Pass 1  IDiag  1:
 RMSU=  1.37D-07    CP:  1.00D+00  1.02D+00  8.00D-01  6.80D-01
 E= -391.688230153232     Delta-E=       -0.000000001864 Rises=F Damp=F
 DIIS: error= 2.20D-07 at cycle   5 NSaved=   5.
 NSaved= 5 IEnMin= 5 EnMin= -391.688230153232     IErMin= 5 ErrMin= 2.20D-07
 ErrMax= 2.20D-07  0.00D+00 EMaxC= 1.00D-01 BMatC= 2.53D-11 BMatP= 1.80D-09
 IDIUse=1 WtCom= 1.00D+00 WtEn= 0.00D+00
 Coeff-Com: -0.263D-02-0.676D-02-0.105D-01 0.768D-01 0.943D+00
 Coeff:     -0.263D-02-0.676D-02-0.105D-01 0.768D-01 0.943D+00
 Gap=     0.339 Goal=   None    Shift=    0.000
 RMSDP=3.82D-08 MaxDP=1.04D-06 DE=-1.86D-09 OVMax= 1.95D-06

 Cycle  12  Pass 1  IDiag  1:
 RMSU=  2.67D-08    CP:  1.00D+00  1.02D+00  8.02D-01  7.56D-01  1.02D+00
 E= -391.688230153266     Delta-E=       -0.000000000034 Rises=F Damp=F
 DIIS: error= 7.38D-08 at cycle   6 NSaved=   6.
 NSaved= 6 IEnMin= 6 EnMin= -391.688230153266     IErMin= 6 ErrMin= 7.38D-08
 ErrMax= 7.38D-08  0.00D+00 EMaxC= 1.00D-01 BMatC= 2.45D-12 BMatP= 2.53D-11
 IDIUse=1 WtCom= 1.00D+00 WtEn= 0.00D+00
 Coeff-Com:  0.771D-03-0.975D-02-0.315D-01-0.138D-01 0.292D+00 0.762D+00
 Coeff:      0.771D-03-0.975D-02-0.315D-01-0.138D-01 0.292D+00 0.762D+00
 Gap=     0.339 Goal=   None    Shift=    0.000
 RMSDP=1.05D-08 MaxDP=2.03D-07 DE=-3.40D-11 OVMax= 5.22D-07

 Cycle  13  Pass 1  IDiag  1:
 RMSU=  5.38D-09    CP:  1.00D+00  1.02D+00  8.02D-01  7.65D-01  1.08D+00
                    CP:  8.87D-01
 E= -391.688230153278     Delta-E=       -0.000000000012 Rises=F Damp=F
 DIIS: error= 1.67D-08 at cycle   7 NSaved=   7.
 NSaved= 7 IEnMin= 7 EnMin= -391.688230153278     IErMin= 7 ErrMin= 1.67D-08
 ErrMax= 1.67D-08  0.00D+00 EMaxC= 1.00D-01 BMatC= 1.45D-13 BMatP= 2.45D-12
 IDIUse=1 WtCom= 1.00D+00 WtEn= 0.00D+00
 Coeff-Com:  0.343D-03-0.288D-02-0.992D-02-0.723D-02 0.578D-01 0.261D+00
 Coeff-Com:  0.701D+00
 Coeff:      0.343D-03-0.288D-02-0.992D-02-0.723D-02 0.578D-01 0.261D+00
 Coeff:      0.701D+00
 Gap=     0.339 Goal=   None    Shift=    0.000
 RMSDP=1.84D-09 MaxDP=5.03D-08 DE=-1.23D-11 OVMax= 1.30D-07

 SCF Done:  E(RM062X) =  -391.688230153     A.U. after   13 cycles
            NFock= 13  Conv=0.18D-08     -V/T= 2.0093
 KE= 3.880862029871D+02 PE=-1.931593398426D+03 EE= 6.385399067324D+02
 Leave Link  502 at Tue Jul  6 11:32:22 2021, MaxMem=   524288000 cpu:             455.3 elap:              76.1
 (Enter /opt/gaussian/g16_legacy/l601.exe)
 Copying SCF densities to generalized density rwf, IOpCl= 0 IROHF=0.

 **********************************************************************

            Population analysis using the SCF density.

 **********************************************************************

 Orbital symmetries:
       Occupied  (A) (A) (A) (A) (A) (A) (A) (A) (A) (A) (A) (A)
                 (A) (A) (A) (A) (A) (A) (A) (A) (A) (A) (A) (A)
                 (A) (A) (A) (A) (A) (A) (A) (A) (A) (A) (A) (A)
                 (A) (A) (A)
       Virtual   (A) (A) (A) (A) (A) (A) (A) (A) (A) (A) (A) (A)
                 (A) (A) (A) (A) (A) (A) (A) (A) (A) (A) (A) (A)
                 (A) (A) (A) (A) (A) (A) (A) (A) (A) (A) (A) (A)
                 (A) (A) (A) (A) (A) (A) (A) (A) (A) (A) (A) (A)
                 (A) (A) (A) (A) (A) (A) (A) (A) (A) (A) (A) (A)
                 (A) (A) (A) (A) (A) (A) (A) (A) (A) (A) (A) (A)
                 (A) (A) (A) (A) (A) (A) (A) (A) (A) (A) (A) (A)
                 (A) (A) (A) (A) (A) (A) (A) (A) (A) (A) (A) (A)
                 (A) (A) (A) (A) (A) (A) (A) (A) (A) (A) (A) (A)
                 (A) (A) (A) (A) (A) (A) (A) (A) (A) (A) (A) (A)
                 (A) (A) (A) (A) (A) (A) (A) (A) (A) (A) (A) (A)
                 (A) (A) (A) (A) (A) (A) (A) (A) (A) (A) (A) (A)
                 (A) (A) (A) (A) (A) (A) (A) (A) (A) (A) (A) (A)
                 (A) (A) (A) (A) (A) (A) (A) (A) (A) (A) (A) (A)
                 (A) (A) (A) (A) (A) (A) (A) (A) (A) (A) (A) (A)
                 (A) (A) (A) (A) (A) (A) (A) (A) (A) (A) (A) (A)
                 (A) (A) (A) (A) (A) (A) (A) (A) (A)
 The electronic state is 1-A.
 Alpha  occ. eigenvalues --  -10.54668 -10.54128 -10.53907 -10.53827 -10.53602
 Alpha  occ. eigenvalues --  -10.53343 -10.53283 -10.53241 -10.53214 -10.53189
 Alpha  occ. eigenvalues --   -0.91975  -0.89944  -0.84711  -0.81578  -0.77855
 Alpha  occ. eigenvalues --   -0.76074  -0.71672  -0.68495  -0.58977  -0.57816
 Alpha  occ. eigenvalues --   -0.54142  -0.51424  -0.50687  -0.49851  -0.48755
 Alpha  occ. eigenvalues --   -0.47781  -0.46549  -0.45927  -0.44712  -0.43434
 Alpha  occ. eigenvalues --   -0.43079  -0.42488  -0.41507  -0.40991  -0.38900
 Alpha  occ. eigenvalues --   -0.38208  -0.36247  -0.28645  -0.27096
 Alpha virt. eigenvalues --    0.06769   0.08030   0.12291   0.14617   0.15193
 Alpha virt. eigenvalues --    0.17130   0.18451   0.18632   0.19910   0.20224
 Alpha virt. eigenvalues --    0.21017   0.21729   0.22289   0.22962   0.23189
 Alpha virt. eigenvalues --    0.23877   0.25119   0.25821   0.27020   0.27680
 Alpha virt. eigenvalues --    0.28915   0.29077   0.29463   0.30842   0.31825
 Alpha virt. eigenvalues --    0.38708   0.40161   0.47064   0.48099   0.53699
 Alpha virt. eigenvalues --    0.55459   0.55571   0.57844   0.59256   0.59902
 Alpha virt. eigenvalues --    0.60715   0.61648   0.62562   0.63574   0.65040
 Alpha virt. eigenvalues --    0.66034   0.68082   0.71263   0.71804   0.73720
 Alpha virt. eigenvalues --    0.74889   0.76087   0.77016   0.78275   0.79022
 Alpha virt. eigenvalues --    0.80349   0.82357   0.83296   0.84889   0.86285
 Alpha virt. eigenvalues --    0.87492   0.88530   0.88952   0.91447   0.92573
 Alpha virt. eigenvalues --    0.93689   0.94248   0.94567   0.95823   0.96141
 Alpha virt. eigenvalues --    0.96352   0.96702   0.98015   0.99215   1.00255
 Alpha virt. eigenvalues --    1.01199   1.02470   1.03271   1.05124   1.07099
 Alpha virt. eigenvalues --    1.08613   1.19412   1.21043   1.23651   1.24774
 Alpha virt. eigenvalues --    1.25719   1.32953   1.34800   1.37080   1.37885
 Alpha virt. eigenvalues --    1.40582   1.41529   1.44467   1.47394   1.49370
 Alpha virt. eigenvalues --    1.53142   1.60776   1.68030   1.69931   1.72659
 Alpha virt. eigenvalues --    1.74733   1.77996   1.79039   1.80558   1.83438
 Alpha virt. eigenvalues --    1.84681   1.86257   1.87308   1.88103   1.89028
 Alpha virt. eigenvalues --    1.90331   1.92774   1.93273   1.97960   2.01640
 Alpha virt. eigenvalues --    2.01764   2.03505   2.05364   2.09290   2.09980
 Alpha virt. eigenvalues --    2.10037   2.10187   2.12655   2.13408   2.13535
 Alpha virt. eigenvalues --    2.14746   2.15581   2.16246   2.17855   2.18546
 Alpha virt. eigenvalues --    2.20068   2.21702   2.22301   2.22513   2.25498
 Alpha virt. eigenvalues --    2.28307   2.30968   2.32298   2.34159   2.35777
 Alpha virt. eigenvalues --    2.37363   2.39216   2.43294   2.44269   2.45029
 Alpha virt. eigenvalues --    2.46971   2.48388   2.51124   2.52481   2.53882
 Alpha virt. eigenvalues --    2.56634   2.59943   2.62149   2.63192   2.63302
 Alpha virt. eigenvalues --    2.66073   2.68511   2.70223   2.71247   2.72986
 Alpha virt. eigenvalues --    2.74597   2.75257   2.77592   2.79019   2.83995
 Alpha virt. eigenvalues --    2.84945   2.85438   2.87309   2.88019   2.88315
 Alpha virt. eigenvalues --    2.89484   2.92189   2.93484   2.94583   3.01768
 Alpha virt. eigenvalues --    3.03771   3.08481   3.09908   3.17726   3.19499
 Alpha virt. eigenvalues --    3.20612   3.22731   3.29856   3.35035   3.39823
 Alpha virt. eigenvalues --    3.40239   3.41685   3.42633   3.43614   3.44263
 Alpha virt. eigenvalues --    3.44898   3.47023   3.49243   3.50340   3.51932
 Alpha virt. eigenvalues --    3.56795   4.18841   4.21972   4.34261   4.42292
 Alpha virt. eigenvalues --    4.48975   4.52371   4.53106   4.66740   4.69695
 Alpha virt. eigenvalues --    4.75978
          Condensed to atoms (all electrons):
               1          2          3          4          5          6
     1  C    5.038495   0.386607   0.384649   0.359830  -0.070610  -0.003916
     2  H    0.386607   0.607896  -0.034910  -0.037514  -0.006193   0.004541
     3  H    0.384649  -0.034910   0.603127  -0.030249   0.004674   0.000053
     4  C    0.359830  -0.037514  -0.030249   4.771278   0.369776  -0.034198
     5  C   -0.070610  -0.006193   0.004674   0.369776   4.998195   0.380274
     6  H   -0.003916   0.004541   0.000053  -0.034198   0.380274   0.588883
     7  H    0.000238  -0.000419  -0.000008  -0.039044   0.381786  -0.034526
     8  H    0.004468   0.000117  -0.000171  -0.034109   0.386525  -0.027489
     9  C   -0.046988   0.003257  -0.008122   0.713208  -0.041211  -0.000671
    10  H    0.005624  -0.000171   0.000027  -0.030692  -0.013317   0.000317
    11  C   -0.012989   0.000248   0.001098  -0.044786   0.006083  -0.000172
    12  H    0.002323  -0.000082   0.002086  -0.008098   0.000089  -0.000002
    13  H    0.000180   0.000031   0.000184  -0.000753  -0.000148   0.000025
    14  H    0.000385  -0.000013  -0.000128   0.000849  -0.000151  -0.000004
    15  C   -0.000093  -0.000066   0.000001   0.000002   0.000000   0.000000
    16  H   -0.000005   0.000002   0.000000   0.000000  -0.000000   0.000000
    17  H    0.000020  -0.000005  -0.000001  -0.000000   0.000000  -0.000000
    18  H   -0.000002  -0.000002   0.000002   0.000000  -0.000000  -0.000000
    19  C   -0.002807   0.001606   0.000106   0.000015   0.000007  -0.000002
    20  C    0.000217   0.000441   0.000011  -0.000025  -0.000018  -0.000003
    21  H    0.000069  -0.000087   0.000000  -0.000003   0.000000   0.000000
    22  H   -0.000036   0.000012  -0.000000   0.000002  -0.000000   0.000000
    23  H    0.000030   0.000316  -0.000010  -0.000071   0.000095   0.000008
    24  C   -0.053542  -0.000338  -0.002114   0.005679  -0.000029   0.000012
    25  H   -0.001060  -0.000093   0.002814  -0.000083  -0.000002   0.000000
    26  C    0.345544  -0.041519  -0.040036  -0.046995  -0.002386  -0.000213
    27  H   -0.039861  -0.005009   0.005537  -0.002734   0.001312   0.000062
    28  H   -0.042359   0.005620  -0.005410  -0.002347  -0.000024   0.000014
               7          8          9         10         11         12
     1  C    0.000238   0.004468  -0.046988   0.005624  -0.012989   0.002323
     2  H   -0.000419   0.000117   0.003257  -0.000171   0.000248  -0.000082
     3  H   -0.000008  -0.000171  -0.008122   0.000027   0.001098   0.002086
     4  C   -0.039044  -0.034109   0.713208  -0.030692  -0.044786  -0.008098
     5  C    0.381786   0.386525  -0.041211  -0.013317   0.006083   0.000089
     6  H   -0.034526  -0.027489  -0.000671   0.000317  -0.000172  -0.000002
     7  H    0.594644  -0.027677  -0.001174   0.000186  -0.000170   0.000001
     8  H   -0.027677   0.573946  -0.005139   0.006125   0.000107   0.000007
     9  C   -0.001174  -0.005139   4.896237   0.377735   0.360973  -0.034163
    10  H    0.000186   0.006125   0.377735   0.612624  -0.056000   0.004538
    11  C   -0.000170   0.000107   0.360973  -0.056000   4.975028   0.390030
    12  H    0.000001   0.000007  -0.034163   0.004538   0.390030   0.579998
    13  H   -0.000006  -0.000004  -0.036517  -0.000441   0.385653  -0.028021
    14  H    0.000019  -0.000011  -0.033130  -0.003127   0.386342  -0.029321
    15  C   -0.000000   0.000000  -0.000000   0.000000   0.000000  -0.000000
    16  H    0.000000   0.000000  -0.000000   0.000000  -0.000000   0.000000
    17  H    0.000000  -0.000000   0.000000  -0.000000  -0.000000  -0.000000
    18  H   -0.000000  -0.000000   0.000000  -0.000000  -0.000000  -0.000000
    19  C    0.000018  -0.000000  -0.000002   0.000000  -0.000000   0.000001
    20  C   -0.000041   0.000000  -0.000000  -0.000000  -0.000000   0.000000
    21  H   -0.000001  -0.000000   0.000000  -0.000000   0.000000  -0.000000
    22  H   -0.000000   0.000000   0.000000   0.000000   0.000000   0.000000
    23  H    0.000256  -0.000001  -0.000001   0.000000  -0.000000  -0.000000
    24  C   -0.000138   0.000002   0.000047   0.000003  -0.000048   0.000024
    25  H    0.000000   0.000000   0.000006  -0.000000   0.000000   0.000041
    26  C    0.001352  -0.000027  -0.003232  -0.000104   0.000138  -0.000023
    27  H    0.001618  -0.000104  -0.000023  -0.000002   0.000011  -0.000011
    28  H    0.000028  -0.000004   0.002183  -0.000056   0.000524   0.000570
              13         14         15         16         17         18
     1  C    0.000180   0.000385  -0.000093  -0.000005   0.000020  -0.000002
     2  H    0.000031  -0.000013  -0.000066   0.000002  -0.000005  -0.000002
     3  H    0.000184  -0.000128   0.000001   0.000000  -0.000001   0.000002
     4  C   -0.000753   0.000849   0.000002   0.000000  -0.000000   0.000000
     5  C   -0.000148  -0.000151   0.000000  -0.000000   0.000000  -0.000000
     6  H    0.000025  -0.000004   0.000000   0.000000  -0.000000  -0.000000
     7  H   -0.000006   0.000019  -0.000000   0.000000   0.000000  -0.000000
     8  H   -0.000004  -0.000011   0.000000   0.000000  -0.000000  -0.000000
     9  C   -0.036517  -0.033130  -0.000000  -0.000000   0.000000   0.000000
    10  H   -0.000441  -0.003127   0.000000   0.000000  -0.000000  -0.000000
    11  C    0.385653   0.386342   0.000000  -0.000000  -0.000000  -0.000000
    12  H   -0.028021  -0.029321  -0.000000   0.000000  -0.000000  -0.000000
    13  H    0.577427  -0.031809   0.000000   0.000000  -0.000000  -0.000000
    14  H   -0.031809   0.578917  -0.000000  -0.000000   0.000000   0.000000
    15  C    0.000000  -0.000000   5.004632   0.382990   0.380456   0.385145
    16  H    0.000000  -0.000000   0.382990   0.589296  -0.034278  -0.027297
    17  H   -0.000000   0.000000   0.380456  -0.034278   0.590040  -0.027119
    18  H   -0.000000   0.000000   0.385145  -0.027297  -0.027119   0.572096
    19  C   -0.000000   0.000000   0.366177  -0.038151  -0.035853  -0.033013
    20  C    0.000000  -0.000000  -0.078890  -0.000492  -0.002173   0.004668
    21  H   -0.000000   0.000000  -0.003581  -0.000852   0.004475   0.000034
    22  H    0.000000  -0.000000  -0.001926   0.003690  -0.000674  -0.000070
    23  H   -0.000000   0.000000   0.004797  -0.000009  -0.000049  -0.000168
    24  C    0.000002  -0.000003  -0.036862  -0.001413  -0.000856  -0.004821
    25  H   -0.000000  -0.000000  -0.013572   0.000223   0.000278   0.006102
    26  C   -0.000038   0.000067   0.005675  -0.000206  -0.000121   0.000116
    27  H   -0.000001   0.000002   0.000077   0.000005  -0.000004   0.000010
    28  H    0.000014  -0.000081  -0.000176   0.000014  -0.000002  -0.000012
              19         20         21         22         23         24
     1  C   -0.002807   0.000217   0.000069  -0.000036   0.000030  -0.053542
     2  H    0.001606   0.000441  -0.000087   0.000012   0.000316  -0.000338
     3  H    0.000106   0.000011   0.000000  -0.000000  -0.000010  -0.002114
     4  C    0.000015  -0.000025  -0.000003   0.000002  -0.000071   0.005679
     5  C    0.000007  -0.000018   0.000000  -0.000000   0.000095  -0.000029
     6  H   -0.000002  -0.000003   0.000000   0.000000   0.000008   0.000012
     7  H    0.000018  -0.000041  -0.000001  -0.000000   0.000256  -0.000138
     8  H   -0.000000   0.000000  -0.000000   0.000000  -0.000001   0.000002
     9  C   -0.000002  -0.000000   0.000000   0.000000  -0.000001   0.000047
    10  H    0.000000  -0.000000  -0.000000   0.000000   0.000000   0.000003
    11  C   -0.000000  -0.000000   0.000000   0.000000  -0.000000  -0.000048
    12  H    0.000001   0.000000  -0.000000   0.000000  -0.000000   0.000024
    13  H   -0.000000   0.000000  -0.000000   0.000000  -0.000000   0.000002
    14  H    0.000000  -0.000000   0.000000  -0.000000   0.000000  -0.000003
    15  C    0.366177  -0.078890  -0.003581  -0.001926   0.004797  -0.036862
    16  H   -0.038151  -0.000492  -0.000852   0.003690  -0.000009  -0.001413
    17  H   -0.035853  -0.002173   0.004475  -0.000674  -0.000049  -0.000856
    18  H   -0.033013   0.004668   0.000034  -0.000070  -0.000168  -0.004821
    19  C    4.735339   0.378151  -0.036092  -0.036075  -0.026722   0.714088
    20  C    0.378151   5.002293   0.385292   0.383107   0.382571  -0.052347
    21  H   -0.036092   0.385292   0.582883  -0.032569  -0.029194   0.000909
    22  H   -0.036075   0.383107  -0.032569   0.578733  -0.027436   0.000071
    23  H   -0.026722   0.382571  -0.029194  -0.027436   0.578014  -0.008373
    24  C    0.714088  -0.052347   0.000909   0.000071  -0.008373   4.918796
    25  H   -0.031616   0.006077  -0.000155  -0.000157   0.000023   0.376107
    26  C   -0.038401  -0.013464   0.000444   0.000174   0.001618   0.355024
    27  H   -0.006622   0.001192  -0.000142   0.000037   0.002439  -0.037042
    28  H    0.001885   0.000315  -0.000015   0.000033  -0.000059  -0.033097
              25         26         27         28
     1  C   -0.001060   0.345544  -0.039861  -0.042359
     2  H   -0.000093  -0.041519  -0.005009   0.005620
     3  H    0.002814  -0.040036   0.005537  -0.005410
     4  C   -0.000083  -0.046995  -0.002734  -0.002347
     5  C   -0.000002  -0.002386   0.001312  -0.000024
     6  H    0.000000  -0.000213   0.000062   0.000014
     7  H    0.000000   0.001352   0.001618   0.000028
     8  H    0.000000  -0.000027  -0.000104  -0.000004
     9  C    0.000006  -0.003232  -0.000023   0.002183
    10  H   -0.000000  -0.000104  -0.000002  -0.000056
    11  C    0.000000   0.000138   0.000011   0.000524
    12  H    0.000041  -0.000023  -0.000011   0.000570
    13  H   -0.000000  -0.000038  -0.000001   0.000014
    14  H   -0.000000   0.000067   0.000002  -0.000081
    15  C   -0.013572   0.005675   0.000077  -0.000176
    16  H    0.000223  -0.000206   0.000005   0.000014
    17  H    0.000278  -0.000121  -0.000004  -0.000002
    18  H    0.006102   0.000116   0.000010  -0.000012
    19  C   -0.031616  -0.038401  -0.006622   0.001885
    20  C    0.006077  -0.013464   0.001192   0.000315
    21  H   -0.000155   0.000444  -0.000142  -0.000015
    22  H   -0.000157   0.000174   0.000037   0.000033
    23  H    0.000023   0.001618   0.002439  -0.000059
    24  C    0.376107   0.355024  -0.037042  -0.033097
    25  H    0.613429  -0.053626   0.004772  -0.004982
    26  C   -0.053626   4.993241   0.390872   0.388834
    27  H    0.004772   0.390872   0.605634  -0.034540
    28  H   -0.004982   0.388834  -0.034540   0.600030
 Mulliken charges:
               1
     1  C   -0.254410
     2  H    0.115729
     3  H    0.116791
     4  C    0.091061
     5  C   -0.394725
     6  H    0.127006
     7  H    0.123058
     8  H    0.123440
     9  C   -0.143273
    10  H    0.096732
    11  C   -0.392068
    12  H    0.120014
    13  H    0.134221
    14  H    0.131197
    15  C   -0.394785
    16  H    0.126483
    17  H    0.125869
    18  H    0.124331
    19  C    0.087963
    20  C   -0.396880
    21  H    0.128584
    22  H    0.133085
    23  H    0.121927
    24  C   -0.139739
    25  H    0.095476
    26  C   -0.242703
    27  H    0.112514
    28  H    0.123100
 Sum of Mulliken charges =  -0.00000
 Mulliken charges with hydrogens summed into heavy atoms:
               1
     1  C   -0.021890
     4  C    0.091061
     5  C   -0.021221
     9  C   -0.046540
    11  C   -0.006636
    15  C   -0.018102
    19  C    0.087963
    20  C   -0.013283
    24  C   -0.044263
    26  C   -0.007089
 Electronic spatial extent (au):  <R**2>=           2542.2906
 Charge=             -0.0000 electrons
 Dipole moment (field-independent basis, Debye):
    X=              0.3333    Y=              0.1284    Z=              0.0227  Tot=              0.3578
 Quadrupole moment (field-independent basis, Debye-Ang):
   XX=            -62.3242   YY=            -62.8588   ZZ=            -66.2066
   XY=              1.1577   XZ=              0.8678   YZ=             -0.1668
 Traceless Quadrupole moment (field-independent basis, Debye-Ang):
   XX=              1.4723   YY=              0.9377   ZZ=             -2.4100
   XY=              1.1577   XZ=              0.8678   YZ=             -0.1668
 Octapole moment (field-independent basis, Debye-Ang**2):
  XXX=              2.0875  YYY=             -2.4480  ZZZ=              0.8491  XYY=             -0.9982
  XXY=              0.6765  XXZ=             -2.4156  XZZ=              1.7565  YZZ=              1.2726
  YYZ=              0.5226  XYZ=             -0.5152
 Hexadecapole moment (field-independent basis, Debye-Ang**3):
 XXXX=          -2661.5886 YYYY=           -634.6137 ZZZZ=           -158.8760 XXXY=             12.8377
 XXXZ=             10.4979 YYYX=             -6.7490 YYYZ=             -0.8334 ZZZX=              2.7578
 ZZZY=              2.1742 XXYY=           -553.2150 XXZZ=           -483.8188 YYZZ=           -128.8025
 XXYZ=             -2.7803 YYXZ=              1.5534 ZZXY=              8.3769
 N-N= 5.132790585530D+02 E-N=-1.931593394417D+03  KE= 3.880862029871D+02
 No NMR shielding tensors so no spin-rotation constants.
 Leave Link  601 at Tue Jul  6 11:32:25 2021, MaxMem=   524288000 cpu:              10.1 elap:               2.4
 (Enter /opt/gaussian/g16_legacy/l701.exe)
 ... and contract with generalized density number  0.
 Compute integral first derivatives.
 Leave Link  701 at Tue Jul  6 11:32:26 2021, MaxMem=   524288000 cpu:               4.9 elap:               1.4
 (Enter /opt/gaussian/g16_legacy/l702.exe)
 L702 exits ... SP integral derivatives will be done elsewhere.
 Leave Link  702 at Tue Jul  6 11:32:26 2021, MaxMem=   524288000 cpu:               0.4 elap:               0.1
 (Enter /opt/gaussian/g16_legacy/l703.exe)
 Integral derivatives from FoFJK, PRISM(SPDF).
 Compute integral first derivatives, UseDBF=F ICtDFT=           0.
 Calling FoFJK, ICntrl=      2127 FMM=F ISym2X=0 I1Cent= 0 IOpClX= 0 NMat=1 NMatS=1 NMatT=0.
 FoFJK:  IHMeth= 1 ICntrl=    2127 DoSepK=F KAlg= 0 I1Cent=           0 FoldK=F
 IRaf=         0 NMat=       1 IRICut=       1 DoRegI=T DoRafI=F ISym2E= 0 IDoP0=0 IntGTp=1.
 FoFCou: FMM=F IPFlag=           0 FMFlag=      100000 FMFlg1=         800
         NFxFlg=           0 DoJE=F BraDBF=F KetDBF=F FulRan=T
         wScrn=  0.000000 ICntrl=      2127 IOpCl=  0 I1Cent=           0 NGrid=           0
         NMat0=    1 NMatS0=      1 NMatT0=    0 NMatD0=    1 NMtDS0=    0 NMtDT0=    0
 Symmetry not used in FoFCou.
 Leave Link  703 at Tue Jul  6 11:32:39 2021, MaxMem=   524288000 cpu:              77.8 elap:              13.1
 (Enter /opt/gaussian/g16_legacy/l716.exe)
 Dipole        = 1.31116178D-01 5.04981298D-02 8.93228282D-03
 ***** Axes restored to original set *****
 -------------------------------------------------------------------
 Center     Atomic                   Forces (Hartrees/Bohr)
 Number     Number              X              Y              Z
 -------------------------------------------------------------------
      1        6          -0.009187123    0.001624138   -0.000610566
      2        1           0.001889197   -0.002407809   -0.001534312
      3        1           0.000416099   -0.002651389   -0.000309158
      4        6          -0.014584947    0.000760085    0.002143051
      5        6          -0.003720839   -0.001220766   -0.000075917
      6        1           0.002554883   -0.000188037   -0.001034670
      7        1           0.002375365    0.001884214   -0.001079458
      8        1           0.000780724   -0.000915231    0.001952488
      9        6           0.013973481    0.002614103   -0.003751965
     10        1           0.001860385    0.000874444   -0.002177407
     11        6           0.001451418   -0.000645675    0.000880514
     12        1           0.000456156    0.001286453   -0.000429930
     13        1          -0.001565615   -0.001628520    0.002177460
     14        1          -0.001539343    0.000684381    0.001669349
     15        6          -0.003106507   -0.000512329    0.002274667
     16        1           0.002344153    0.001692708   -0.000223721
     17        1           0.002964725   -0.000457878   -0.000525205
     18        1          -0.000756403    0.000068014   -0.002214763
     19        6          -0.013697315   -0.001855197    0.007551100
     20        6          -0.004418485   -0.000014370   -0.001734656
     21        1           0.002216208   -0.001282500    0.000323362
     22        1           0.002208799    0.001289229   -0.000733530
     23        1          -0.000667589   -0.001305188    0.000984004
     24        6           0.011069448   -0.000830145   -0.006633017
     25        1           0.002353317    0.001218134    0.000976368
     26        6           0.006929302   -0.002074479    0.003107853
     27        1           0.000123940    0.001906348   -0.000420432
     28        1          -0.002723434    0.002087262   -0.000551510
 -------------------------------------------------------------------
 Cartesian Forces:  Max     0.014584947 RMS     0.003760167
 Leave Link  716 at Tue Jul  6 11:32:40 2021, MaxMem=   524288000 cpu:               0.2 elap:               0.1
 (Enter /opt/gaussian/g16_legacy/l103.exe)

 GradGradGradGradGradGradGradGradGradGradGradGradGradGradGradGradGradGrad
 Berny optimization.
 FormGI is forming the generalized inverse of G from B-inverse, IUseBI=4.
 Internal  Forces:  Max     0.014691291 RMS     0.002421880
 Search for a local minimum.
 Step number   1 out of a maximum of  138
 All quantities printed in internal units (Hartrees-Bohrs-Radians)
 RMS Force = .24219D-02 SwitMx=.10000D-02 MixMth= 1
 Mixed Optimization -- RFO/linear search
 Second derivative matrix not updated -- first step.
 ITU=  0
     Eigenvalues ---    0.00344   0.00569   0.00667   0.00680   0.00693
     Eigenvalues ---    0.00715   0.00821   0.01218   0.01287   0.01569
     Eigenvalues ---    0.01643   0.02780   0.02785   0.04014   0.04133
     Eigenvalues ---    0.05351   0.05403   0.06981   0.07039   0.07088
     Eigenvalues ---    0.07092   0.07265   0.07301   0.07347   0.07506
     Eigenvalues ---    0.09279   0.09365   0.12770   0.12846   0.15999
     Eigenvalues ---    0.15999   0.16000   0.16000   0.16000   0.16000
     Eigenvalues ---    0.16000   0.16000   0.16000   0.16000   0.16000
     Eigenvalues ---    0.16000   0.16000   0.16000   0.21859   0.21867
     Eigenvalues ---    0.22000   0.22000   0.24993   0.24996   0.24998
     Eigenvalues ---    0.24999   0.29246   0.30863   0.31609   0.31706
     Eigenvalues ---    0.31803   0.31976   0.32816   0.33861   0.33932
     Eigenvalues ---    0.34059   0.34187   0.34218   0.34232   0.34250
     Eigenvalues ---    0.34252   0.34253   0.34255   0.34276   0.34292
     Eigenvalues ---    0.34299   0.34331   0.34538   0.34565   0.34786
     Eigenvalues ---    0.34840   0.55500   0.55579
 RFO step:  Lambda=-3.27052721D-03 EMin= 3.43555778D-03
 Linear search not attempted -- first point.
 Iteration  1 RMS(Cart)=  0.04539449 RMS(Int)=  0.00069872
 Iteration  2 RMS(Cart)=  0.00107557 RMS(Int)=  0.00016489
 Iteration  3 RMS(Cart)=  0.00000058 RMS(Int)=  0.00016489
 ITry= 1 IFail=0 DXMaxC= 1.51D-01 DCOld= 1.00D+10 DXMaxT= 3.00D-01 DXLimC= 3.00D+00 Rises=F
 Variable       Old X    -DE/DX   Delta X   Delta X   Delta X     New X
                                 (Linear)    (Quad)   (Total)
    R1        2.07565  -0.00073   0.00000  -0.00215  -0.00215   2.07350
    R2        2.07230  -0.00076   0.00000  -0.00222  -0.00222   2.07009
    R3        2.86275  -0.00208   0.00000  -0.00667  -0.00667   2.85608
    R4        2.89493   0.00292   0.00000   0.00987   0.00987   2.90480
    R5        2.84866   0.00042   0.00000   0.00130   0.00130   2.84996
    R6        2.54690  -0.01469   0.00000  -0.02632  -0.02632   2.52059
    R7        2.06901   0.00050   0.00000   0.00145   0.00145   2.07046
    R8        2.06841   0.00119   0.00000   0.00343   0.00343   2.07184
    R9        2.06964  -0.00167   0.00000  -0.00484  -0.00484   2.06480
   R10        2.05935   0.00011   0.00000   0.00031   0.00031   2.05967
   R11        2.82675   0.00429   0.00000   0.01295   0.01295   2.83971
   R12        2.06387  -0.00006   0.00000  -0.00016  -0.00016   2.06371
   R13        2.06775   0.00094   0.00000   0.00272   0.00272   2.07047
   R14        2.06906  -0.00014   0.00000  -0.00040  -0.00040   2.06866
   R15        2.06907   0.00073   0.00000   0.00210   0.00210   2.07117
   R16        2.06910   0.00065   0.00000   0.00189   0.00189   2.07099
   R17        2.06940  -0.00173   0.00000  -0.00500  -0.00500   2.06440
   R18        2.84686   0.00054   0.00000   0.00169   0.00169   2.84855
   R19        2.84188   0.00053   0.00000   0.00164   0.00164   2.84352
   R20        2.54621  -0.01402   0.00000  -0.02508  -0.02508   2.52113
   R21        2.07015  -0.00008   0.00000  -0.00024  -0.00024   2.06991
   R22        2.06866   0.00077   0.00000   0.00223   0.00223   2.07089
   R23        2.06432  -0.00029   0.00000  -0.00083  -0.00083   2.06349
   R24        2.06023   0.00014   0.00000   0.00040   0.00040   2.06063
   R25        2.84507   0.00023   0.00000   0.00072   0.00072   2.84579
   R26        2.06829   0.00017   0.00000   0.00050   0.00050   2.06879
   R27        2.07445  -0.00053   0.00000  -0.00155  -0.00155   2.07291
    A1        1.82998   0.00200   0.00000   0.02187   0.02168   1.85167
    A2        1.90131   0.00020   0.00000   0.00345   0.00344   1.90475
    A3        1.91818  -0.00283   0.00000  -0.02504  -0.02507   1.89311
    A4        1.93122  -0.00010   0.00000   0.00586   0.00587   1.93710
    A5        1.91987  -0.00189   0.00000  -0.01343  -0.01347   1.90639
    A6        1.95884   0.00254   0.00000   0.00789   0.00793   1.96676
    A7        2.00700   0.00127   0.00000   0.00535   0.00479   2.01178
    A8        2.17214  -0.00444   0.00000  -0.01714  -0.01767   2.15447
    A9        2.10384   0.00318   0.00000   0.01297   0.01239   2.11623
   A10        1.92483   0.00152   0.00000   0.00791   0.00793   1.93276
   A11        1.92854   0.00209   0.00000   0.01059   0.01061   1.93914
   A12        1.95914  -0.00218   0.00000  -0.00971  -0.00969   1.94945
   A13        1.89479  -0.00315   0.00000  -0.02645  -0.02644   1.86835
   A14        1.87747   0.00109   0.00000   0.01100   0.01101   1.88848
   A15        1.87690   0.00050   0.00000   0.00576   0.00578   1.88268
   A16        2.06916  -0.00201   0.00000  -0.01403  -0.01403   2.05513
   A17        2.22592  -0.00213   0.00000  -0.00953  -0.00953   2.21638
   A18        1.98798   0.00414   0.00000   0.02364   0.02364   2.01162
   A19        1.98089  -0.00246   0.00000  -0.01470  -0.01463   1.96625
   A20        1.91733   0.00366   0.00000   0.02128   0.02125   1.93858
   A21        1.91006   0.00242   0.00000   0.01560   0.01555   1.92562
   A22        1.89313  -0.00099   0.00000  -0.00741  -0.00734   1.88579
   A23        1.87277   0.00032   0.00000   0.00408   0.00413   1.87690
   A24        1.88704  -0.00315   0.00000  -0.02009  -0.02023   1.86680
   A25        1.89491  -0.00318   0.00000  -0.02669  -0.02668   1.86823
   A26        1.87882   0.00084   0.00000   0.00797   0.00799   1.88681
   A27        1.92347   0.00166   0.00000   0.00800   0.00801   1.93149
   A28        1.87911   0.00089   0.00000   0.00959   0.00961   1.88872
   A29        1.92491   0.00202   0.00000   0.01097   0.01099   1.93590
   A30        1.96061  -0.00235   0.00000  -0.01075  -0.01073   1.94988
   A31        1.99475   0.00123   0.00000   0.00487   0.00486   1.99962
   A32        2.10563   0.00281   0.00000   0.01111   0.01110   2.11673
   A33        2.18276  -0.00404   0.00000  -0.01591  -0.01592   2.16684
   A34        1.92082   0.00013   0.00000  -0.00029  -0.00028   1.92054
   A35        1.92172   0.00208   0.00000   0.01021   0.01023   1.93195
   A36        1.97932  -0.00189   0.00000  -0.00782  -0.00781   1.97151
   A37        1.89069  -0.00247   0.00000  -0.02261  -0.02260   1.86808
   A38        1.86361   0.00180   0.00000   0.01587   0.01588   1.87949
   A39        1.88480   0.00025   0.00000   0.00375   0.00376   1.88856
   A40        2.06733  -0.00174   0.00000  -0.01209  -0.01248   2.05485
   A41        2.22786  -0.00210   0.00000  -0.00924  -0.00965   2.21821
   A42        1.98786   0.00386   0.00000   0.02214   0.02173   2.00959
   A43        1.94447   0.00337   0.00000   0.01442   0.01447   1.95894
   A44        1.93103  -0.00167   0.00000  -0.01731  -0.01739   1.91364
   A45        1.91632  -0.00349   0.00000  -0.02377  -0.02401   1.89231
   A46        1.94468  -0.00133   0.00000  -0.00744  -0.00737   1.93731
   A47        1.88205   0.00154   0.00000   0.02438   0.02451   1.90656
   A48        1.84174   0.00146   0.00000   0.00996   0.00967   1.85141
    D1        0.64494  -0.00091   0.00000   0.01258   0.01229   0.65723
    D2       -2.47473  -0.00192   0.00000  -0.04982  -0.04960  -2.52433
    D3        2.64794   0.00155   0.00000   0.04411   0.04387   2.69181
    D4       -0.47172   0.00055   0.00000  -0.01830  -0.01802  -0.48974
    D5       -1.48337   0.00086   0.00000   0.03667   0.03642  -1.44694
    D6        1.68016  -0.00014   0.00000  -0.02574  -0.02547   1.65469
    D7        1.04077  -0.00092   0.00000  -0.01834  -0.01825   1.02252
    D8       -1.13277  -0.00042   0.00000  -0.00645  -0.00631  -1.13909
    D9        3.12453   0.00087   0.00000   0.00570   0.00559   3.13011
   D10       -0.96551  -0.00064   0.00000  -0.02282  -0.02282  -0.98833
   D11       -3.13906  -0.00014   0.00000  -0.01093  -0.01088   3.13325
   D12        1.11824   0.00114   0.00000   0.00122   0.00102   1.11926
   D13       -3.12375  -0.00093   0.00000  -0.02615  -0.02609   3.13335
   D14        0.98589  -0.00043   0.00000  -0.01426  -0.01415   0.97174
   D15       -1.04000   0.00085   0.00000  -0.00211  -0.00225  -1.04225
   D16       -1.03811   0.00022   0.00000  -0.03910  -0.03943  -1.07754
   D17        1.05688  -0.00138   0.00000  -0.06015  -0.06048   0.99640
   D18       -3.13130  -0.00076   0.00000  -0.05203  -0.05236   3.09953
   D19        2.08249   0.00108   0.00000   0.02024   0.02057   2.10306
   D20       -2.10571  -0.00052   0.00000  -0.00082  -0.00048  -2.10619
   D21       -0.01070   0.00010   0.00000   0.00731   0.00764  -0.00306
   D22        3.11649   0.00111   0.00000   0.05126   0.05120  -3.11550
   D23       -0.04325   0.00127   0.00000   0.05790   0.05777   0.01451
   D24       -0.00203   0.00008   0.00000  -0.01429  -0.01416  -0.01618
   D25        3.12142   0.00024   0.00000  -0.00765  -0.00758   3.11383
   D26       -0.14037   0.00039   0.00000   0.01641   0.01639  -0.12398
   D27        1.98225   0.00010   0.00000   0.01227   0.01216   1.99441
   D28       -2.23168  -0.00009   0.00000   0.00989   0.00995  -2.22173
   D29        2.98378   0.00050   0.00000   0.02247   0.02250   3.00629
   D30       -1.17678   0.00020   0.00000   0.01833   0.01827  -1.15851
   D31        0.89248   0.00001   0.00000   0.01596   0.01606   0.90854
   D32       -1.03968   0.00081   0.00000   0.01467   0.01471  -1.02497
   D33        2.11158   0.00072   0.00000   0.00730   0.00726   2.11883
   D34        1.05226  -0.00079   0.00000  -0.00639  -0.00635   1.04592
   D35       -2.07967  -0.00089   0.00000  -0.01376  -0.01380  -2.09346
   D36       -3.13462   0.00016   0.00000   0.00620   0.00624  -3.12839
   D37        0.01663   0.00006   0.00000  -0.00118  -0.00122   0.01542
   D38       -0.91783   0.00072   0.00000  -0.00481  -0.00478  -0.92261
   D39        1.16519  -0.00094   0.00000  -0.02653  -0.02650   1.13869
   D40       -3.00400  -0.00041   0.00000  -0.01967  -0.01964  -3.02364
   D41        2.21360   0.00087   0.00000   0.00312   0.00309   2.21669
   D42       -1.98656  -0.00080   0.00000  -0.01860  -0.01863  -2.00519
   D43        0.12743  -0.00026   0.00000  -0.01174  -0.01177   0.11567
   D44        0.00919  -0.00002   0.00000   0.01202   0.01174   0.02092
   D45       -3.11351  -0.00111   0.00000  -0.04447  -0.04421   3.12546
   D46       -3.12164  -0.00016   0.00000   0.00367   0.00341  -3.11824
   D47        0.03884  -0.00125   0.00000  -0.05283  -0.05254  -0.01370
   D48       -1.80919   0.00026   0.00000   0.02730   0.02758  -1.78161
   D49        0.35666  -0.00041   0.00000   0.00989   0.01007   0.36674
   D50        2.36999   0.00153   0.00000   0.03215   0.03223   2.40223
   D51        1.35057  -0.00074   0.00000  -0.02673  -0.02681   1.32376
   D52       -2.76676  -0.00141   0.00000  -0.04414  -0.04432  -2.81108
   D53       -0.75343   0.00053   0.00000  -0.02188  -0.02216  -0.77559
         Item               Value     Threshold  Converged?
 Maximum Force            0.014691     0.002500     NO 
 RMS     Force            0.002422     0.001667     NO 
 Maximum Displacement     0.150995     0.010000     NO 
 RMS     Displacement     0.045483     0.006667     NO 
 Predicted change in Energy=-1.715059D-03
 Lowest energy point so far.  Saving SCF results.
 GradGradGradGradGradGradGradGradGradGradGradGradGradGradGradGradGradGrad

 Leave Link  103 at Tue Jul  6 11:32:42 2021, MaxMem=   524288000 cpu:               9.3 elap:               2.3
 (Enter /opt/gaussian/g16_legacy/l202.exe)
                          Input orientation:                          
 ---------------------------------------------------------------------
 Center     Atomic      Atomic             Coordinates (Angstroms)
 Number     Number       Type             X           Y           Z
[...]
                 (A) (A) (A) (A) (A) (A) (A) (A) (A) (A) (A) (A)
                 (A) (A) (A) (A) (A) (A) (A) (A) (A) (A) (A) (A)
                 (A) (A) (A) (A) (A) (A) (A) (A) (A) (A) (A) (A)
                 (A) (A) (A) (A) (A) (A) (A) (A) (A) (A) (A) (A)
                 (A) (A) (A) (A) (A) (A) (A) (A) (A) (A) (A) (A)
                 (A) (A) (A) (A) (A) (A) (A) (A) (A) (A) (A) (A)
                 (A) (A) (A) (A) (A) (A) (A) (A) (A) (A) (A) (A)
                 (A) (A) (A) (A) (A) (A) (A) (A) (A) (A) (A) (A)
                 (A) (A) (A) (A) (A) (A) (A) (A) (A) (A) (A) (A)
                 (A) (A) (A) (A) (A) (A) (A) (A) (A) (A) (A) (A)
                 (A) (A) (A) (A) (A) (A) (A) (A) (A) (A) (A) (A)
                 (A) (A) (A) (A) (A) (A) (A) (A) (A) (A) (A) (A)
                 (A) (A) (A) (A) (A) (A) (A) (A) (A)
 The electronic state is 1-A.
 Alpha  occ. eigenvalues --  -10.54543 -10.54030 -10.53909 -10.53756 -10.53600
 Alpha  occ. eigenvalues --  -10.53403 -10.53353 -10.53348 -10.53194 -10.53045
 Alpha  occ. eigenvalues --   -0.92194  -0.90138  -0.84460  -0.81586  -0.77904
 Alpha  occ. eigenvalues --   -0.76182  -0.71939  -0.68655  -0.58599  -0.57921
 Alpha  occ. eigenvalues --   -0.54500  -0.51551  -0.50932  -0.49608  -0.48994
 Alpha  occ. eigenvalues --   -0.47692  -0.46289  -0.45528  -0.44399  -0.43480
 Alpha  occ. eigenvalues --   -0.43175  -0.42592  -0.41789  -0.41309  -0.39017
 Alpha  occ. eigenvalues --   -0.38360  -0.36243  -0.28918  -0.27196
 Alpha virt. eigenvalues --    0.06486   0.08351   0.11743   0.14530   0.15312
 Alpha virt. eigenvalues --    0.17087   0.18271   0.18533   0.19658   0.20455
 Alpha virt. eigenvalues --    0.21088   0.22225   0.22294   0.23156   0.23506
 Alpha virt. eigenvalues --    0.24582   0.25121   0.25784   0.27507   0.27596
 Alpha virt. eigenvalues --    0.28381   0.28887   0.29544   0.30776   0.32057
 Alpha virt. eigenvalues --    0.39119   0.40264   0.46529   0.48605   0.53720
 Alpha virt. eigenvalues --    0.55689   0.55796   0.58127   0.59018   0.59474
 Alpha virt. eigenvalues --    0.60184   0.61827   0.62380   0.63593   0.65582
 Alpha virt. eigenvalues --    0.66235   0.68601   0.71350   0.72469   0.73427
 Alpha virt. eigenvalues --    0.74429   0.75506   0.77481   0.78648   0.78984
 Alpha virt. eigenvalues --    0.80357   0.82389   0.82926   0.84784   0.86486
 Alpha virt. eigenvalues --    0.87306   0.88601   0.89256   0.91441   0.92538
 Alpha virt. eigenvalues --    0.93535   0.94489   0.94956   0.95814   0.96231
 Alpha virt. eigenvalues --    0.96335   0.96602   0.98406   0.99309   1.00314
 Alpha virt. eigenvalues --    1.01586   1.03239   1.04744   1.06516   1.07976
 Alpha virt. eigenvalues --    1.09715   1.20371   1.21494   1.24483   1.25801
 Alpha virt. eigenvalues --    1.27702   1.33762   1.35453   1.37116   1.37859
 Alpha virt. eigenvalues --    1.40177   1.41905   1.43968   1.46887   1.48963
 Alpha virt. eigenvalues --    1.51442   1.60822   1.68439   1.69153   1.74262
 Alpha virt. eigenvalues --    1.74633   1.78282   1.78759   1.80615   1.83455
 Alpha virt. eigenvalues --    1.84707   1.84954   1.86745   1.87988   1.89374
 Alpha virt. eigenvalues --    1.90475   1.92640   1.93946   1.97833   2.02605
 Alpha virt. eigenvalues --    2.03419   2.04144   2.06142   2.09524   2.09918
 Alpha virt. eigenvalues --    2.10161   2.10220   2.12443   2.13158   2.13741
 Alpha virt. eigenvalues --    2.15214   2.16364   2.16907   2.17476   2.18855
 Alpha virt. eigenvalues --    2.20061   2.21904   2.22723   2.23007   2.26124
 Alpha virt. eigenvalues --    2.28153   2.31648   2.32744   2.34628   2.35363
 Alpha virt. eigenvalues --    2.38696   2.39418   2.43026   2.43924   2.45364
 Alpha virt. eigenvalues --    2.46309   2.47906   2.50024   2.52988   2.53464
 Alpha virt. eigenvalues --    2.56451   2.60321   2.61668   2.62979   2.63917
 Alpha virt. eigenvalues --    2.66377   2.67905   2.69960   2.71338   2.72903
 Alpha virt. eigenvalues --    2.74529   2.75506   2.76942   2.79958   2.84049
 Alpha virt. eigenvalues --    2.84402   2.86252   2.86908   2.87223   2.89082
 Alpha virt. eigenvalues --    2.90602   2.92145   2.92519   2.94270   3.02934
 Alpha virt. eigenvalues --    3.04686   3.09869   3.10669   3.17216   3.19433
 Alpha virt. eigenvalues --    3.20395   3.23636   3.29555   3.35404   3.39856
 Alpha virt. eigenvalues --    3.40595   3.42032   3.43641   3.44043   3.44674
 Alpha virt. eigenvalues --    3.45022   3.46911   3.48697   3.49277   3.51797
 Alpha virt. eigenvalues --    3.58337   4.19696   4.23054   4.34482   4.41869
 Alpha virt. eigenvalues --    4.48849   4.52211   4.53168   4.66111   4.70284
 Alpha virt. eigenvalues --    4.77019
          Condensed to atoms (all electrons):
               1          2          3          4          5          6
     1  C    5.044184   0.387934   0.382628   0.355897  -0.068004  -0.004104
     2  H    0.387934   0.612851  -0.032973  -0.038311  -0.006015   0.003801
     3  H    0.382628  -0.032973   0.598891  -0.028673   0.004464   0.000033
     4  C    0.355897  -0.038311  -0.028673   4.757253   0.371875  -0.031831
     5  C   -0.068004  -0.006015   0.004464   0.371875   4.998360   0.379448
     6  H   -0.004104   0.003801   0.000033  -0.031831   0.379448   0.587404
     7  H    0.000370  -0.000603   0.000040  -0.038924   0.381312  -0.036801
     8  H    0.004666   0.000169  -0.000174  -0.034631   0.386349  -0.026716
     9  C   -0.050876   0.004030  -0.007458   0.718835  -0.042831  -0.000667
    10  H    0.006061  -0.000178  -0.000019  -0.031690  -0.013795   0.000314
    11  C   -0.013996   0.000301   0.000105  -0.044380   0.006121  -0.000162
    12  H    0.003270  -0.000076   0.002455  -0.008811   0.000101   0.000001
    13  H    0.000107   0.000014   0.000174   0.000234  -0.000139   0.000020
    14  H    0.000485  -0.000014  -0.000176  -0.000447  -0.000145  -0.000005
    15  C   -0.000078  -0.000118   0.000001   0.000002  -0.000000   0.000000
    16  H   -0.000006   0.000003   0.000000   0.000000  -0.000000   0.000000
    17  H    0.000022  -0.000004  -0.000003  -0.000000   0.000000  -0.000000
    18  H   -0.000001  -0.000001   0.000002   0.000000  -0.000000  -0.000000
    19  C   -0.005872   0.002588  -0.000021   0.000152   0.000005  -0.000003
    20  C   -0.000461   0.001076   0.000038  -0.000055  -0.000079  -0.000007
    21  H    0.000161  -0.000108  -0.000003  -0.000012   0.000004   0.000000
    22  H   -0.000022   0.000037  -0.000001   0.000004  -0.000001   0.000000
    23  H   -0.000339   0.000729  -0.000006  -0.000248   0.000304   0.000012
    24  C   -0.051869  -0.001886  -0.001207   0.006214  -0.000064   0.000020
    25  H    0.000661  -0.000097   0.001657  -0.000093  -0.000001   0.000000
    26  C    0.350807  -0.044559  -0.039109  -0.044975  -0.002688  -0.000031
    27  H   -0.043771  -0.005164   0.005849  -0.002279   0.001413   0.000027
    28  H   -0.041246   0.005807  -0.006217  -0.003493  -0.000011   0.000002
               7          8          9         10         11         12
     1  C    0.000370   0.004666  -0.050876   0.006061  -0.013996   0.003270
     2  H   -0.000603   0.000169   0.004030  -0.000178   0.000301  -0.000076
     3  H    0.000040  -0.000174  -0.007458  -0.000019   0.000105   0.002455
     4  C   -0.038924  -0.034631   0.718835  -0.031690  -0.044380  -0.008811
     5  C    0.381312   0.386349  -0.042831  -0.013795   0.006121   0.000101
     6  H   -0.036801  -0.026716  -0.000667   0.000314  -0.000162   0.000001
     7  H    0.598553  -0.027092  -0.000916   0.000176  -0.000165  -0.000003
     8  H   -0.027092   0.572231  -0.005314   0.006475   0.000075   0.000008
     9  C   -0.000916  -0.005314   4.889984   0.376640   0.362376  -0.035227
    10  H    0.000176   0.006475   0.376640   0.612831  -0.053710   0.004463
    11  C   -0.000165   0.000075   0.362376  -0.053710   4.974911   0.389770
    12  H   -0.000003   0.000008  -0.035227   0.004463   0.389770   0.581513
    13  H   -0.000004  -0.000007  -0.033306  -0.001567   0.385637  -0.028066
    14  H    0.000020  -0.000005  -0.032767  -0.001384   0.385449  -0.028901
    15  C   -0.000000   0.000000  -0.000000   0.000000   0.000000  -0.000000
    16  H    0.000000   0.000000   0.000000   0.000000  -0.000000   0.000000
    17  H    0.000000  -0.000000   0.000000  -0.000000   0.000000  -0.000000
    18  H   -0.000000  -0.000000   0.000000  -0.000000   0.000000  -0.000000
    19  C    0.000033  -0.000000  -0.000003   0.000000  -0.000000   0.000001
    20  C   -0.000169   0.000002  -0.000001  -0.000000  -0.000000  -0.000000
    21  H   -0.000004  -0.000000   0.000000  -0.000000   0.000000  -0.000000
    22  H   -0.000000   0.000000   0.000000   0.000000   0.000000   0.000000
    23  H    0.001050  -0.000004  -0.000003   0.000000  -0.000000  -0.000000
    24  C   -0.000216   0.000002   0.000161   0.000004  -0.000060   0.000060
    25  H    0.000001  -0.000000   0.000000  -0.000000   0.000004   0.000015
    26  C    0.000982  -0.000058  -0.004571  -0.000104  -0.000165  -0.000647
    27  H    0.001924  -0.000145  -0.000012  -0.000008   0.000028  -0.000006
    28  H    0.000006   0.000005   0.002504  -0.000067   0.001000   0.000649
              13         14         15         16         17         18
     1  C    0.000107   0.000485  -0.000078  -0.000006   0.000022  -0.000001
     2  H    0.000014  -0.000014  -0.000118   0.000003  -0.000004  -0.000001
     3  H    0.000174  -0.000176   0.000001   0.000000  -0.000003   0.000002
     4  C    0.000234  -0.000447   0.000002   0.000000  -0.000000   0.000000
     5  C   -0.000139  -0.000145  -0.000000  -0.000000   0.000000  -0.000000
     6  H    0.000020  -0.000005   0.000000   0.000000  -0.000000  -0.000000
     7  H   -0.000004   0.000020  -0.000000   0.000000   0.000000  -0.000000
     8  H   -0.000007  -0.000005   0.000000   0.000000  -0.000000  -0.000000
     9  C   -0.033306  -0.032767  -0.000000   0.000000   0.000000   0.000000
    10  H   -0.001567  -0.001384   0.000000   0.000000  -0.000000  -0.000000
    11  C    0.385637   0.385449   0.000000  -0.000000   0.000000   0.000000
    12  H   -0.028066  -0.028901  -0.000000   0.000000  -0.000000  -0.000000
    13  H    0.578190  -0.033674  -0.000000   0.000000  -0.000000  -0.000000
    14  H   -0.033674   0.578962  -0.000000  -0.000000   0.000000   0.000000
    15  C   -0.000000  -0.000000   5.004571   0.381531   0.381122   0.385045
    16  H    0.000000  -0.000000   0.381531   0.590436  -0.036785  -0.026272
    17  H   -0.000000   0.000000   0.381122  -0.036785   0.591020  -0.026440
    18  H   -0.000000   0.000000   0.385045  -0.026272  -0.026440   0.569813
    19  C    0.000000   0.000000   0.369126  -0.036002  -0.035851  -0.033351
    20  C    0.000000  -0.000000  -0.078032  -0.001098  -0.001685   0.004739
    21  H   -0.000000   0.000000  -0.002703  -0.000760   0.004029  -0.000016
    22  H    0.000000  -0.000000  -0.002685   0.004040  -0.000753  -0.000038
    23  H   -0.000000   0.000000   0.004886  -0.000025  -0.000038  -0.000172
    24  C    0.000002  -0.000009  -0.038522  -0.001397  -0.000614  -0.004969
    25  H   -0.000000   0.000000  -0.013984   0.000239   0.000232   0.006454
    26  C   -0.000010   0.000107   0.005754  -0.000205  -0.000104   0.000100
    27  H   -0.000001   0.000003   0.000016   0.000017  -0.000009   0.000010
    28  H    0.000017  -0.000040  -0.000162   0.000007  -0.000000  -0.000010
              19         20         21         22         23         24
     1  C   -0.005872  -0.000461   0.000161  -0.000022  -0.000339  -0.051869
     2  H    0.002588   0.001076  -0.000108   0.000037   0.000729  -0.001886
     3  H   -0.000021   0.000038  -0.000003  -0.000001  -0.000006  -0.001207
     4  C    0.000152  -0.000055  -0.000012   0.000004  -0.000248   0.006214
     5  C    0.000005  -0.000079   0.000004  -0.000001   0.000304  -0.000064
     6  H   -0.000003  -0.000007   0.000000   0.000000   0.000012   0.000020
     7  H    0.000033  -0.000169  -0.000004  -0.000000   0.001050  -0.000216
     8  H   -0.000000   0.000002  -0.000000   0.000000  -0.000004   0.000002
     9  C   -0.000003  -0.000001   0.000000   0.000000  -0.000003   0.000161
    10  H    0.000000  -0.000000  -0.000000   0.000000   0.000000   0.000004
    11  C   -0.000000  -0.000000   0.000000   0.000000  -0.000000  -0.000060
    12  H    0.000001  -0.000000  -0.000000   0.000000  -0.000000   0.000060
    13  H    0.000000   0.000000  -0.000000   0.000000  -0.000000   0.000002
    14  H    0.000000  -0.000000   0.000000  -0.000000   0.000000  -0.000009
    15  C    0.369126  -0.078032  -0.002703  -0.002685   0.004886  -0.038522
    16  H   -0.036002  -0.001098  -0.000760   0.004040  -0.000025  -0.001397
    17  H   -0.035851  -0.001685   0.004029  -0.000753  -0.000038  -0.000614
    18  H   -0.033351   0.004739  -0.000016  -0.000038  -0.000172  -0.004969
    19  C    4.721089   0.379185  -0.034979  -0.035613  -0.026821   0.717770
    20  C    0.379185   5.004457   0.383782   0.383736   0.382287  -0.055274
    21  H   -0.034979   0.383782   0.582731  -0.034310  -0.028165   0.000392
    22  H   -0.035613   0.383736  -0.034310   0.581643  -0.027302   0.000854
    23  H   -0.026821   0.382287  -0.028165  -0.027302   0.581183  -0.010585
    24  C    0.717770  -0.055274   0.000392   0.000854  -0.010585   4.923739
    25  H   -0.034124   0.006424  -0.000169  -0.000153   0.000035   0.377800
    26  C   -0.040437  -0.013595   0.000521   0.000004   0.003175   0.347801
    27  H   -0.007572   0.000388  -0.000201   0.000240   0.001623  -0.037001
    28  H    0.003296   0.000363  -0.000013   0.000011  -0.000030  -0.028156
              25         26         27         28
     1  C    0.000661   0.350807  -0.043771  -0.041246
     2  H   -0.000097  -0.044559  -0.005164   0.005807
     3  H    0.001657  -0.039109   0.005849  -0.006217
     4  C   -0.000093  -0.044975  -0.002279  -0.003493
     5  C   -0.000001  -0.002688   0.001413  -0.000011
     6  H    0.000000  -0.000031   0.000027   0.000002
     7  H    0.000001   0.000982   0.001924   0.000006
     8  H   -0.000000  -0.000058  -0.000145   0.000005
     9  C    0.000000  -0.004571  -0.000012   0.002504
    10  H   -0.000000  -0.000104  -0.000008  -0.000067
    11  C    0.000004  -0.000165   0.000028   0.001000
    12  H    0.000015  -0.000647  -0.000006   0.000649
    13  H   -0.000000  -0.000010  -0.000001   0.000017
    14  H    0.000000   0.000107   0.000003  -0.000040
    15  C   -0.013984   0.005754   0.000016  -0.000162
    16  H    0.000239  -0.000205   0.000017   0.000007
    17  H    0.000232  -0.000104  -0.000009  -0.000000
    18  H    0.006454   0.000100   0.000010  -0.000010
    19  C   -0.034124  -0.040437  -0.007572   0.003296
    20  C    0.006424  -0.013595   0.000388   0.000363
    21  H   -0.000169   0.000521  -0.000201  -0.000013
    22  H   -0.000153   0.000004   0.000240   0.000011
    23  H    0.000035   0.003175   0.001623  -0.000030
    24  C    0.377800   0.347801  -0.037001  -0.028156
    25  H    0.610170  -0.049731   0.004397  -0.005711
    26  C   -0.049731   4.998633   0.391922   0.386423
    27  H    0.004397   0.391922   0.606249  -0.033542
    28  H   -0.005711   0.386423  -0.033542   0.599706
 Mulliken charges:
               1
     1  C   -0.256605
     2  H    0.110767
     3  H    0.119704
     4  C    0.098387
     5  C   -0.395982
     6  H    0.129246
     7  H    0.120431
     8  H    0.124164
     9  C   -0.140580
    10  H    0.095557
    11  C   -0.393137
    12  H    0.119431
    13  H    0.132380
    14  H    0.132542
    15  C   -0.395770
    16  H    0.126277
    17  H    0.125862
    18  H    0.125105
    19  C    0.097402
    20  C   -0.396021
    21  H    0.129824
    22  H    0.130308
    23  H    0.118455
    24  C   -0.142989
    25  H    0.095976
    26  C   -0.245238
    27  H    0.115604
    28  H    0.118901
 Sum of Mulliken charges =  -0.00000
 Mulliken charges with hydrogens summed into heavy atoms:
               1
     1  C   -0.026134
     4  C    0.098387
     5  C   -0.022141
     9  C   -0.045023
    11  C   -0.008784
    15  C   -0.018527
    19  C    0.097402
    20  C   -0.017435
    24  C   -0.047013
    26  C   -0.010733
 Electronic spatial extent (au):  <R**2>=           2433.2259
 Charge=              0.0000 electrons
 Dipole moment (field-independent basis, Debye):
    X=              0.3315    Y=              0.1539    Z=              0.0703  Tot=              0.3721
 Quadrupole moment (field-independent basis, Debye-Ang):
   XX=            -62.3626   YY=            -62.6717   ZZ=            -66.4996
   XY=              1.2691   XZ=              1.2304   YZ=             -0.2299
 Traceless Quadrupole moment (field-independent basis, Debye-Ang):
   XX=              1.4820   YY=              1.1730   ZZ=             -2.6550
   XY=              1.2691   XZ=              1.2304   YZ=             -0.2299
 Octapole moment (field-independent basis, Debye-Ang**2):
  XXX=              2.9209  YYY=             -2.9855  ZZZ=              1.2648  XYY=             -1.0457
  XXY=              0.6157  XXZ=             -1.7591  XZZ=              1.3296  YZZ=              1.4039
  YYZ=              0.3515  XYZ=             -0.1896
 Hexadecapole moment (field-independent basis, Debye-Ang**3):
 XXXX=          -2506.6321 YYYY=           -636.8201 ZZZZ=           -161.4640 XXXY=             15.5080
 XXXZ=             11.2667 YYYX=             -7.0490 YYYZ=              0.8941 ZZZX=              4.7847
 ZZZY=              1.6574 XXYY=           -524.1511 XXZZ=           -461.3609 YYZZ=           -129.5267
 XXYZ=             -5.5856 YYXZ=              1.6393 ZZXY=              8.4555
 N-N= 5.184439054559D+02 E-N=-1.941944432570D+03  KE= 3.881378608220D+02
 No NMR shielding tensors so no spin-rotation constants.
 Leave Link  601 at Tue Jul  6 11:54:02 2021, MaxMem=   524288000 cpu:               2.5 elap:               0.6
 (Enter /opt/gaussian/g16_legacy/l9999.exe)
 1\1\GINC-TRUENO90\FOpt\RM062X\6-31G(d,p)\C10H18\JRAMOS\06-Jul-2021\0\\
 #p opt=loose m062x/6-31g(d,p)\\Conformer number 433. Energy MM = 23.28
 7 kcal/mol\\0,1\C,-0.7506980162,0.5236936069,0.256613827\H,-0.07913976
 84,1.3350360805,-0.0506669538\H,-1.0827500333,0.7687343538,1.270386376
 \C,-1.9143550466,0.4379402757,-0.7038929615\C,-1.6052387656,0.86297038
 91,-2.1153636709\H,-1.345500895,1.927193186,-2.1529314285\H,-0.7396124
 73,0.3145064615,-2.5073857018\H,-2.4491342501,0.6900679395,-2.78701235
 9\C,-3.1206821773,-0.0271164178,-0.3658472497\H,-3.8816426087,-0.07519
 78451,-1.1448092705\C,-3.5525333175,-0.5110173991,0.9873906176\H,-2.75
 48277754,-0.444825522,1.7298510883\H,-4.4075009081,0.065513742,1.35673
 43556\H,-3.8745977952,-1.556921938,0.9385138427\C,3.6017496704,-0.1369
 900804,1.8272415771\H,4.4617110448,-0.7242377184,1.4843351899\H,3.9506
 141404,0.8964093078,1.9376941985\H,3.3046763462,-0.5063968095,2.811136
 7312\C,2.4708249189,-0.2181900059,0.8370497322\C,2.8096232794,0.272656
 7085,-0.5457534255\H,3.1509322365,1.3134798951,-0.5040660958\H,3.63418
 59184,-0.3109769908,-0.9713539032\H,1.964735571,0.2246399646,-1.234927
 0004\C,1.2693637345,-0.6886050698,1.1863721214\H,1.1275138421,-0.99339
 77647,2.2230199879\C,0.0604788075,-0.7883915871,0.294976248\H,0.349010
 0197,-1.059843816,-0.7266236803\H,-0.5972056992,-1.5908329465,0.646617
 8075\\Version=EM64L-G16RevA.03\State=1-A\HF=-391.6902064\RMSD=4.642e-0
 9\RMSF=1.721e-05\Dipole=0.1386321,0.0442011,-0.0161585\Quadrupole=1.38
 3501,-1.7605054,0.3770045,1.2679273,-0.3783591,-0.6026457\PG=C01 [X(C1
 0H18)]\\@


 I DON'T EXACTLY UNDERSTAND WHAT YOU ARE SAYING,
 BUT YOU ARE ABSOLUTELY RIGHT.
     M.S.GORDON, IN A NDSU FACULTY MEETING
 Job cpu time:       0 days  2 hours  8 minutes 40.1 seconds.
 Elapsed time:       0 days  0 hours 23 minutes  1.8 seconds.
 File lengths (MBytes):  RWF=     42 Int=      0 D2E=      0 Chk=      6 Scr=      1
 Normal termination of Gaussian 16 at Tue Jul  6 11:54:02 2021.
