 Entering Gaussian System, Link 0=/opt/gaussian/g16_legacy/g16
 Input=IsoP_rdkit_03_341_gaussian.com
 Output=IsoP_rdkit_03_341_gaussian.log
 Initial command:
 /opt/gaussian/g16_legacy/l1.exe "/scratch-local/jramos/2641336/Gau-24671.inp" -scrdir="/scratch-local/jramos/2641336/"
 Entering Link 1 = /opt/gaussian/g16_legacy/l1.exe PID=     24672.
  
 Copyright (c) 1988,1990,1992,1993,1995,1998,2003,2009,2016,
            Gaussian, Inc.  All Rights Reserved.
  
 This is part of the Gaussian(R) 16 program.  It is based on
 the Gaussian(R) 09 system (copyright 2009, Gaussian, Inc.),
 the Gaussian(R) 03 system (copyright 2003, Gaussian, Inc.),
 the Gaussian(R) 98 system (copyright 1998, Gaussian, Inc.),
 the Gaussian(R) 94 system (copyright 1995, Gaussian, Inc.),
 the Gaussian 92(TM) system (copyright 1992, Gaussian, Inc.),
 the Gaussian 90(TM) system (copyright 1990, Gaussian, Inc.),
 the Gaussian 88(TM) system (copyright 1988, Gaussian, Inc.),
 the Gaussian 86(TM) system (copyright 1986, Carnegie Mellon
 University), and the Gaussian 82(TM) system (copyright 1983,
 Carnegie Mellon University). Gaussian is a federally registered
 trademark of Gaussian, Inc.
  
 This software contains proprietary and confidential information,
 including trade secrets, belonging to Gaussian, Inc.
  
 This software is provided under written license and may be
 used, copied, transmitted, or stored only in accord with that
 written license.
  
 The following legend is applicable only to US Government
 contracts under FAR:
  
                    RESTRICTED RIGHTS LEGEND
  
 Use, reproduction and disclosure by the US Government is
 subject to restrictions as set forth in subparagraphs (a)
 and (c) of the Commercial Computer Software - Restricted
 Rights clause in FAR 52.227-19.
  
 Gaussian, Inc.
 340 Quinnipiac St., Bldg. 40, Wallingford CT 06492
  
  
 ---------------------------------------------------------------
 Warning -- This program may not be used in any manner that
 competes with the business of Gaussian, Inc. or will provide
 assistance to any competitor of Gaussian, Inc.  The licensee
 of this program is prohibited from giving any competitor of
 Gaussian, Inc. access to this program.  By using this program,
 the user acknowledges that Gaussian, Inc. is engaged in the
 business of creating and licensing software in the field of
 computational chemistry and represents and warrants to the
 licensee that it is not a competitor of Gaussian, Inc. and that
 it will not use this program in any manner prohibited above.
 ---------------------------------------------------------------
  

 Cite this work as:
 Gaussian 16, Revision A.03,
 M. J. Frisch, G. W. Trucks, H. B. Schlegel, G. E. Scuseria, 
 M. A. Robb, J. R. Cheeseman, G. Scalmani, V. Barone, 
 G. A. Petersson, H. Nakatsuji, X. Li, M. Caricato, A. V. Marenich, 
 J. Bloino, B. G. Janesko, R. Gomperts, B. Mennucci, H. P. Hratchian, 
 J. V. Ortiz, A. F. Izmaylov, J. L. Sonnenberg, D. Williams-Young, 
 F. Ding, F. Lipparini, F. Egidi, J. Goings, B. Peng, A. Petrone, 
 T. Henderson, D. Ranasinghe, V. G. Zakrzewski, J. Gao, N. Rega, 
 G. Zheng, W. Liang, M. Hada, M. Ehara, K. Toyota, R. Fukuda, 
 J. Hasegawa, M. Ishida, T. Nakajima, Y. Honda, O. Kitao, H. Nakai, 
 T. Vreven, K. Throssell, J. A. Montgomery, Jr., J. E. Peralta, 
 F. Ogliaro, M. J. Bearpark, J. J. Heyd, E. N. Brothers, K. N. Kudin, 
 V. N. Staroverov, T. A. Keith, R. Kobayashi, J. Normand, 
 K. Raghavachari, A. P. Rendell, J. C. Burant, S. S. Iyengar, 
 J. Tomasi, M. Cossi, J. M. Millam, M. Klene, C. Adamo, R. Cammi, 
 J. W. Ochterski, R. L. Martin, K. Morokuma, O. Farkas, 
 J. B. Foresman, and D. J. Fox, Gaussian, Inc., Wallingford CT, 2016.
 
 ******************************************
 Gaussian 16:  EM64L-G16RevA.03 25-Dec-2016
                 6-Jul-2021 
 ******************************************
 %chk=IsoP_rdkit_03_341_gaussian.chk
 %nproc=6
 Will use up to    6 processors via shared memory.
 %mem=4000Mb
 -----------------------------
 #p opt=loose m062x/6-31g(d,p)
 -----------------------------
 1/7=-1,18=20,19=15,26=3,38=1/1,3;
 2/9=110,12=2,17=6,18=5,40=1/2;
 3/5=1,6=6,7=101,11=2,25=1,30=1,71=1,74=-55/1,2,3;
 4//1;
 5/5=2,38=5/2;
 6/7=2,8=2,9=2,10=2,28=1/1;
 7//1,2,3,16;
 1/7=-1,18=20,19=15,26=3/3(2);
 2/9=110/2;
 99//99;
 2/9=110/2;
 3/5=1,6=6,7=101,11=2,25=1,30=1,71=1,74=-55/1,2,3;
 4/5=5,16=3,69=1/1;
 5/5=2,38=5/2;
 7//1,2,3,16;
 1/7=-1,18=20,19=15,26=3/3(-5);
 2/9=110/2;
 6/7=2,8=2,9=2,10=2,19=2,28=1/1;
 99/9=1/99;
 Leave Link    1 at Tue Jul  6 11:13:25 2021, MaxMem=   524288000 cpu:               0.2 elap:               0.1
 (Enter /opt/gaussian/g16_legacy/l101.exe)
 -------------------------------------------------
 Conformer number 341. Energy MM = 23.287 kcal/mol
 -------------------------------------------------
 Symbolic Z-matrix:
 Charge =  0 Multiplicity = 1
 C                    -0.7621   -0.1349   -0.4571 
 H                    -0.1711    0.1815   -1.3273 
 H                    -1.0162   -1.1829   -0.6559 
 C                    -2.0149    0.7131   -0.3791 
 C                    -1.8326    2.1567   -0.773 
 H                    -1.1051    2.6442   -0.1164 
 H                    -2.7667    2.725    -0.7102 
 H                    -1.4722    2.226    -1.8046 
 C                    -3.2275    0.2504   -0.0159 
 H                    -4.0702    0.9414   -0.0156 
 C                    -3.58     -1.1353    0.4239 
 H                    -2.7105   -1.7796    0.5718 
 H                    -4.1172   -1.0896    1.3768 
 H                    -4.2368   -1.604    -0.3151 
 C                     3.0161    0.9012    0.2231 
 H                     3.6456    1.2647    1.0418 
 H                     3.5977    0.9448   -0.7041 
 H                     2.1817    1.5962    0.105 
 C                     2.582    -0.5129    0.4937 
 C                     3.7026   -1.5196    0.4745 
 H                     4.452    -1.2659    1.2314 
 H                     4.1878   -1.529    -0.507 
 H                     3.3523   -2.5363    0.6818 
 C                     1.3133   -0.902     0.7268 
 H                     1.117    -1.9616    0.8922 
 C                     0.0865   -0.0337    0.8144 
 H                    -0.5001   -0.3667    1.6804 
 H                     0.3484    1.0087    1.0214 
 
 ITRead=  0  0  0  0  0  0  0  0  0  0  0  0  0  0  0  0  0  0  0  0
 ITRead=  0  0  0  0  0  0  0  0
 MicOpt= -1 -1 -1 -1 -1 -1 -1 -1 -1 -1 -1 -1 -1 -1 -1 -1 -1 -1 -1 -1
 MicOpt= -1 -1 -1 -1 -1 -1 -1 -1
 NAtoms=     28 NQM=       28 NQMF=       0 NMMI=      0 NMMIF=      0
                NMic=       0 NMicF=      0.
                    Isotopes and Nuclear Properties:
 (Nuclear quadrupole moments (NQMom) in fm**2, nuclear magnetic moments (NMagM)
  in nuclear magnetons)

  Atom         1           2           3           4           5           6           7           8           9          10
 IAtWgt=          12           1           1          12          12           1           1           1          12           1
 AtmWgt=  12.0000000   1.0078250   1.0078250  12.0000000  12.0000000   1.0078250   1.0078250   1.0078250  12.0000000   1.0078250
 NucSpn=           0           1           1           0           0           1           1           1           0           1
 AtZEff=  -0.0000000  -0.0000000  -0.0000000  -0.0000000  -0.0000000  -0.0000000  -0.0000000  -0.0000000  -0.0000000  -0.0000000
 NQMom=    0.0000000   0.0000000   0.0000000   0.0000000   0.0000000   0.0000000   0.0000000   0.0000000   0.0000000   0.0000000
 NMagM=    0.0000000   2.7928460   2.7928460   0.0000000   0.0000000   2.7928460   2.7928460   2.7928460   0.0000000   2.7928460
 AtZNuc=   6.0000000   1.0000000   1.0000000   6.0000000   6.0000000   1.0000000   1.0000000   1.0000000   6.0000000   1.0000000

  Atom        11          12          13          14          15          16          17          18          19          20
 IAtWgt=          12           1           1           1          12           1           1           1          12          12
 AtmWgt=  12.0000000   1.0078250   1.0078250   1.0078250  12.0000000   1.0078250   1.0078250   1.0078250  12.0000000  12.0000000
 NucSpn=           0           1           1           1           0           1           1           1           0           0
 AtZEff=  -0.0000000  -0.0000000  -0.0000000  -0.0000000  -0.0000000  -0.0000000  -0.0000000  -0.0000000  -0.0000000  -0.0000000
 NQMom=    0.0000000   0.0000000   0.0000000   0.0000000   0.0000000   0.0000000   0.0000000   0.0000000   0.0000000   0.0000000
 NMagM=    0.0000000   2.7928460   2.7928460   2.7928460   0.0000000   2.7928460   2.7928460   2.7928460   0.0000000   0.0000000
 AtZNuc=   6.0000000   1.0000000   1.0000000   1.0000000   6.0000000   1.0000000   1.0000000   1.0000000   6.0000000   6.0000000

  Atom        21          22          23          24          25          26          27          28
 IAtWgt=           1           1           1          12           1          12           1           1
 AtmWgt=   1.0078250   1.0078250   1.0078250  12.0000000   1.0078250  12.0000000   1.0078250   1.0078250
 NucSpn=           1           1           1           0           1           0           1           1
 AtZEff=  -0.0000000  -0.0000000  -0.0000000  -0.0000000  -0.0000000  -0.0000000  -0.0000000  -0.0000000
 NQMom=    0.0000000   0.0000000   0.0000000   0.0000000   0.0000000   0.0000000   0.0000000   0.0000000
 NMagM=    2.7928460   2.7928460   2.7928460   0.0000000   2.7928460   0.0000000   2.7928460   2.7928460
 AtZNuc=   1.0000000   1.0000000   1.0000000   6.0000000   1.0000000   6.0000000   1.0000000   1.0000000
 Leave Link  101 at Tue Jul  6 11:13:26 2021, MaxMem=   524288000 cpu:               0.7 elap:               0.1
 (Enter /opt/gaussian/g16_legacy/l103.exe)

 GradGradGradGradGradGradGradGradGradGradGradGradGradGradGradGradGradGrad
 Berny optimization.
 Initialization pass.
                           ----------------------------
                           !    Initial Parameters    !
                           ! (Angstroms and Degrees)  !
 --------------------------                            --------------------------
 ! Name  Definition              Value          Derivative Info.                !
 --------------------------------------------------------------------------------
 ! R1    R(1,2)                  1.0985         estimate D2E/DX2                !
 ! R2    R(1,3)                  1.0965         estimate D2E/DX2                !
 ! R3    R(1,4)                  1.5148         estimate D2E/DX2                !
 ! R4    R(1,26)                 1.532          estimate D2E/DX2                !
 ! R5    R(4,5)                  1.5074         estimate D2E/DX2                !
 ! R6    R(4,9)                  1.3477         estimate D2E/DX2                !
 ! R7    R(5,6)                  1.0945         estimate D2E/DX2                !
 ! R8    R(5,7)                  1.0952         estimate D2E/DX2                !
 ! R9    R(5,8)                  1.0949         estimate D2E/DX2                !
 ! R10   R(9,10)                 1.0898         estimate D2E/DX2                !
 ! R11   R(9,11)                 1.4959         estimate D2E/DX2                !
 ! R12   R(11,12)                1.0923         estimate D2E/DX2                !
 ! R13   R(11,13)                1.0948         estimate D2E/DX2                !
 ! R14   R(11,14)                1.0942         estimate D2E/DX2                !
 ! R15   R(15,16)                1.0948         estimate D2E/DX2                !
 ! R16   R(15,17)                1.0954         estimate D2E/DX2                !
 ! R17   R(15,18)                1.0923         estimate D2E/DX2                !
 ! R18   R(15,19)                1.5038         estimate D2E/DX2                !
 ! R19   R(19,20)                1.5065         estimate D2E/DX2                !
 ! R20   R(19,24)                1.3473         estimate D2E/DX2                !
 ! R21   R(20,21)                1.0949         estimate D2E/DX2                !
 ! R22   R(20,22)                1.0949         estimate D2E/DX2                !
 ! R23   R(20,23)                1.0952         estimate D2E/DX2                !
 ! R24   R(24,25)                1.0902         estimate D2E/DX2                !
 ! R25   R(24,26)                1.5055         estimate D2E/DX2                !
 ! R26   R(26,27)                1.0977         estimate D2E/DX2                !
 ! R27   R(26,28)                1.0945         estimate D2E/DX2                !
 ! A1    A(2,1,3)              104.853          estimate D2E/DX2                !
 ! A2    A(2,1,4)              108.9356         estimate D2E/DX2                !
 ! A3    A(2,1,26)             109.9036         estimate D2E/DX2                !
 ! A4    A(3,1,4)              110.6532         estimate D2E/DX2                !
 ! A5    A(3,1,26)             109.9963         estimate D2E/DX2                !
 ! A6    A(4,1,26)             112.2337         estimate D2E/DX2                !
 ! A7    A(1,4,5)              115.0003         estimate D2E/DX2                !
 ! A8    A(1,4,9)              124.4569         estimate D2E/DX2                !
 ! A9    A(5,4,9)              120.5308         estimate D2E/DX2                !
 ! A10   A(4,5,6)              110.4968         estimate D2E/DX2                !
 ! A11   A(4,5,7)              112.2593         estimate D2E/DX2                !
 ! A12   A(4,5,8)              110.2798         estimate D2E/DX2                !
 ! A13   A(6,5,7)              107.5405         estimate D2E/DX2                !
 ! A14   A(6,5,8)              108.5553         estimate D2E/DX2                !
 ! A15   A(7,5,8)              107.5728         estimate D2E/DX2                !
 ! A16   A(4,9,10)             118.5629         estimate D2E/DX2                !
 ! A17   A(4,9,11)             127.5355         estimate D2E/DX2                !
 ! A18   A(10,9,11)            113.8943         estimate D2E/DX2                !
 ! A19   A(9,11,12)            113.493          estimate D2E/DX2                !
 ! A20   A(9,11,13)            109.4408         estimate D2E/DX2                !
 ! A21   A(9,11,14)            109.8573         estimate D2E/DX2                !
 ! A22   A(12,11,13)           107.2994         estimate D2E/DX2                !
 ! A23   A(12,11,14)           108.459          estimate D2E/DX2                !
 ! A24   A(13,11,14)           108.1306         estimate D2E/DX2                !
 ! A25   A(16,15,17)           108.3288         estimate D2E/DX2                !
 ! A26   A(16,15,18)           107.9873         estimate D2E/DX2                !
 ! A27   A(16,15,19)           110.0982         estimate D2E/DX2                !
 ! A28   A(17,15,18)           106.7825         estimate D2E/DX2                !
 ! A29   A(17,15,19)           110.0611         estimate D2E/DX2                !
 ! A30   A(18,15,19)           113.4068         estimate D2E/DX2                !
 ! A31   A(15,19,20)           114.2906         estimate D2E/DX2                !
 ! A32   A(15,19,24)           125.0663         estimate D2E/DX2                !
 ! A33   A(20,19,24)           120.6404         estimate D2E/DX2                !
 ! A34   A(19,20,21)           110.2101         estimate D2E/DX2                !
 ! A35   A(19,20,22)           110.2908         estimate D2E/DX2                !
 ! A36   A(19,20,23)           112.3352         estimate D2E/DX2                !
 ! A37   A(21,20,22)           108.5641         estimate D2E/DX2                !
 ! A38   A(21,20,23)           107.6487         estimate D2E/DX2                !
 ! A39   A(22,20,23)           107.6652         estimate D2E/DX2                !
 ! A40   A(19,24,25)           118.4544         estimate D2E/DX2                !
 ! A41   A(19,24,26)           127.6477         estimate D2E/DX2                !
 ! A42   A(25,24,26)           113.8899         estimate D2E/DX2                !
 ! A43   A(1,26,24)            111.4057         estimate D2E/DX2                !
 ! A44   A(1,26,27)            109.7992         estimate D2E/DX2                !
 ! A45   A(1,26,28)            110.6346         estimate D2E/DX2                !
 ! A46   A(24,26,27)           107.8421         estimate D2E/DX2                !
 ! A47   A(24,26,28)           111.4251         estimate D2E/DX2                !
 ! A48   A(27,26,28)           105.52           estimate D2E/DX2                !
 ! D1    D(2,1,4,5)            -36.9542         estimate D2E/DX2                !
 ! D2    D(2,1,4,9)            141.7919         estimate D2E/DX2                !
 ! D3    D(3,1,4,5)           -151.7215         estimate D2E/DX2                !
 ! D4    D(3,1,4,9)             27.0246         estimate D2E/DX2                !
 ! D5    D(26,1,4,5)            84.9881         estimate D2E/DX2                !
 ! D6    D(26,1,4,9)           -96.2657         estimate D2E/DX2                !
 ! D7    D(2,1,26,24)          -59.6268         estimate D2E/DX2                !
 ! D8    D(2,1,26,27)         -179.0265         estimate D2E/DX2                !
 ! D9    D(2,1,26,28)           64.9049         estimate D2E/DX2                !
 ! D10   D(3,1,26,24)           55.3258         estimate D2E/DX2                !
 ! D11   D(3,1,26,27)          -64.0739         estimate D2E/DX2                !
 ! D12   D(3,1,26,28)          179.8576         estimate D2E/DX2                !
 ! D13   D(4,1,26,24)          178.9841         estimate D2E/DX2                !
 ! D14   D(4,1,26,27)           59.5845         estimate D2E/DX2                !
 ! D15   D(4,1,26,28)          -56.4841         estimate D2E/DX2                !
 ! D16   D(1,4,5,6)            -60.5448         estimate D2E/DX2                !
 ! D17   D(1,4,5,7)            179.4114         estimate D2E/DX2                !
 ! D18   D(1,4,5,8)             59.4757         estimate D2E/DX2                !
 ! D19   D(9,4,5,6)            120.6555         estimate D2E/DX2                !
 ! D20   D(9,4,5,7)              0.6117         estimate D2E/DX2                !
 ! D21   D(9,4,5,8)           -119.3241         estimate D2E/DX2                !
 ! D22   D(1,4,9,10)          -178.5626         estimate D2E/DX2                !
 ! D23   D(1,4,9,11)             2.4808         estimate D2E/DX2                !
 ! D24   D(5,4,9,10)             0.1181         estimate D2E/DX2                !
 ! D25   D(5,4,9,11)          -178.8385         estimate D2E/DX2                !
 ! D26   D(4,9,11,12)            8.0382         estimate D2E/DX2                !
 ! D27   D(4,9,11,13)          127.8574         estimate D2E/DX2                !
 ! D28   D(4,9,11,14)         -113.5661         estimate D2E/DX2                !
 ! D29   D(10,9,11,12)        -170.9595         estimate D2E/DX2                !
 ! D30   D(10,9,11,13)         -51.1403         estimate D2E/DX2                !
 ! D31   D(10,9,11,14)          67.4362         estimate D2E/DX2                !
 ! D32   D(16,15,19,20)        -66.7672         estimate D2E/DX2                !
 ! D33   D(16,15,19,24)        113.8255         estimate D2E/DX2                !
 ! D34   D(17,15,19,20)         52.5808         estimate D2E/DX2                !
 ! D35   D(17,15,19,24)       -126.8265         estimate D2E/DX2                !
 ! D36   D(18,15,19,20)        172.1208         estimate D2E/DX2                !
 ! D37   D(18,15,19,24)         -7.2865         estimate D2E/DX2                !
 ! D38   D(15,19,20,21)         59.5733         estimate D2E/DX2                !
 ! D39   D(15,19,20,22)        -60.2816         estimate D2E/DX2                !
 ! D40   D(15,19,20,23)        179.6076         estimate D2E/DX2                !
 ! D41   D(24,19,20,21)       -120.9906         estimate D2E/DX2                !
 ! D42   D(24,19,20,22)        119.1546         estimate D2E/DX2                !
 ! D43   D(24,19,20,23)         -0.9563         estimate D2E/DX2                !
 ! D44   D(15,19,24,25)        178.8542         estimate D2E/DX2                !
 ! D45   D(15,19,24,26)         -2.2434         estimate D2E/DX2                !
 ! D46   D(20,19,24,25)         -0.5179         estimate D2E/DX2                !
 ! D47   D(20,19,24,26)        178.3845         estimate D2E/DX2                !
 ! D48   D(19,24,26,1)         103.6644         estimate D2E/DX2                !
 ! D49   D(19,24,26,27)       -135.7795         estimate D2E/DX2                !
 ! D50   D(19,24,26,28)        -20.422          estimate D2E/DX2                !
 ! D51   D(25,24,26,1)         -77.391          estimate D2E/DX2                !
 ! D52   D(25,24,26,27)         43.1651         estimate D2E/DX2                !
 ! D53   D(25,24,26,28)        158.5227         estimate D2E/DX2                !
 --------------------------------------------------------------------------------
 Trust Radius=3.00D-01 FncErr=1.00D-07 GrdErr=1.00D-06 EigMax=2.50D+02 EigMin=1.00D-04
 Number of steps in this run=    138 maximum allowed number of steps=    168.
 GradGradGradGradGradGradGradGradGradGradGradGradGradGradGradGradGradGrad

 Leave Link  103 at Tue Jul  6 11:13:26 2021, MaxMem=   524288000 cpu:               0.1 elap:               0.1
 (Enter /opt/gaussian/g16_legacy/l202.exe)
                          Input orientation:                          
 ---------------------------------------------------------------------
 Center     Atomic      Atomic             Coordinates (Angstroms)
 Number     Number       Type             X           Y           Z
 ---------------------------------------------------------------------
      1          6           0       -0.762100   -0.134900   -0.457100
      2          1           0       -0.171100    0.181500   -1.327300
      3          1           0       -1.016200   -1.182900   -0.655900
      4          6           0       -2.014900    0.713100   -0.379100
      5          6           0       -1.832600    2.156700   -0.773000
      6          1           0       -1.105100    2.644200   -0.116400
      7          1           0       -2.766700    2.725000   -0.710200
      8          1           0       -1.472200    2.226000   -1.804600
      9          6           0       -3.227500    0.250400   -0.015900
     10          1           0       -4.070200    0.941400   -0.015600
     11          6           0       -3.580000   -1.135300    0.423900
     12          1           0       -2.710500   -1.779600    0.571800
     13          1           0       -4.117200   -1.089600    1.376800
     14          1           0       -4.236800   -1.604000   -0.315100
     15          6           0        3.016100    0.901200    0.223100
     16          1           0        3.645600    1.264700    1.041800
     17          1           0        3.597700    0.944800   -0.704100
     18          1           0        2.181700    1.596200    0.105000
     19          6           0        2.582000   -0.512900    0.493700
     20          6           0        3.702600   -1.519600    0.474500
     21          1           0        4.452000   -1.265900    1.231400
     22          1           0        4.187800   -1.529000   -0.507000
     23          1           0        3.352300   -2.536300    0.681800
     24          6           0        1.313300   -0.902000    0.726800
     25          1           0        1.117000   -1.961600    0.892200
     26          6           0        0.086500   -0.033700    0.814400
     27          1           0       -0.500100   -0.366700    1.680400
     28          1           0        0.348400    1.008700    1.021400
 ---------------------------------------------------------------------
                    Distance matrix (angstroms):
                    1          2          3          4          5
     1  C    0.000000
     2  H    1.098471   0.000000
     3  H    1.096536   1.739701   0.000000
     4  C    1.514825   2.140393   2.160749   0.000000
     5  C    2.548959   2.639933   3.439935   1.507439   0.000000
     6  H    2.820837   2.898884   3.865961   2.150789   1.094548
     7  H    3.501644   3.686101   4.282392   2.173148   1.095195
     8  H    2.809599   2.469951   3.626024   2.148358   1.094938
     9  C    2.534031   3.326575   2.711788   1.347740   2.480509
    10  H    3.506689   4.183418   3.774858   2.099646   2.656589
    11  C    3.117294   4.052316   2.782320   2.551652   3.914491
    12  H    2.749534   3.728411   2.175764   2.757104   4.251312
    13  H    3.940982   4.949703   3.709013   3.279112   4.514366
    14  H    3.775177   4.554391   3.265844   3.210901   4.486949
    15  C    3.976301   3.616622   4.623371   5.070403   5.106700
    16  H    4.861420   4.620948   5.532207   5.862122   5.839507
    17  H    4.498290   3.895492   5.081093   5.626774   5.564315
    18  H    3.461015   3.096535   4.304524   4.315747   4.147246
    19  C    3.497129   3.373098   3.836342   4.836977   5.312249
    20  C    4.766426   4.598454   4.863974   6.197047   6.760908
    21  H    5.596162   5.478592   5.785326   6.952046   7.431555
    22  H    5.142715   4.753810   5.217621   6.596731   7.064018
    23  H    4.898173   4.882342   4.764969   6.363250   7.143100
    24  C    2.509451   2.756219   2.723478   3.861150   4.636996
    25  H    2.947619   3.343390   2.748369   4.310339   5.332300
    26  C    1.532017   2.167844   2.167577   2.529434   3.316721
    27  H    2.165937   3.074902   2.528011   2.775271   3.763280
    28  H    2.174165   2.543724   3.078730   2.762963   3.048694
                    6          7          8          9         10
     6  H    0.000000
     7  H    1.766364   0.000000
     8  H    1.777547   1.767043   0.000000
     9  C    3.200775   2.611137   3.191163   0.000000
    10  H    3.420746   2.315774   3.405925   1.089782   0.000000
    11  C    4.549909   4.104821   4.550535   1.495943   2.178564
    12  H    4.756147   4.683813   4.819284   2.175679   3.098010
    13  H    5.024306   4.553086   5.301937   2.127623   2.462914
    14  H    5.281499   4.588849   4.952830   2.132371   2.568369
    15  C    4.487494   6.134987   5.100147   6.281974   7.090433
    16  H    5.080708   6.805848   5.934473   7.027591   7.794626
    17  H    5.034847   6.608686   5.343824   6.894865   7.698749
    18  H    3.456932   5.140564   4.170636   5.575414   6.287254
    19  C    4.892260   6.367257   5.405580   5.881548   6.828334
    20  C    6.387517   7.827642   6.782505   7.169357   8.167811
    21  H    6.927251   8.473885   7.517101   7.926515   8.891292
    22  H    6.751515   8.154930   6.915157   7.641604   8.633592
    23  H    6.880634   8.189084   7.220629   7.179572   8.226437
    24  C    4.374378   5.645042   4.894015   4.743258   5.738585
    25  H    5.212331   6.294047   5.613616   4.959059   6.013198
    26  C    3.075296   4.251539   3.794068   3.428222   4.349468
    27  H    3.558094   4.517859   4.451101   3.270620   4.163311
    28  H    2.466194   3.955752   3.575287   3.799746   4.539155
                   11         12         13         14         15
    11  C    0.000000
    12  H    1.092258   0.000000
    13  H    1.094847   1.761514   0.000000
    14  H    1.094160   1.773984   1.772410   0.000000
    15  C    6.906243   6.332632   7.495217   7.692220   0.000000
    16  H    7.638789   7.063191   8.118868   8.497226   1.094839
    17  H    7.557683   6.988824   8.245521   8.247854   1.095381
    18  H    6.384354   5.962177   6.964707   7.184351   1.092335
    19  C    6.193747   5.442535   6.781720   6.952747   1.503777
    20  C    7.292908   6.419106   7.883420   7.979014   2.528786
    21  H    8.073545   7.211128   8.572247   8.831830   2.788333
    22  H    7.833281   6.986641   8.527297   8.427119   2.794960
    23  H    7.077153   6.110830   7.639987   7.710865   3.484228
    24  C    4.908214   4.121307   5.472479   5.690516   2.530765
    25  H    4.792065   3.845197   5.328421   5.499875   3.499986
    26  C    3.848277   3.306090   4.370619   4.736300   3.131490
    27  H    3.413989   2.848008   3.701104   4.413146   4.011852
    28  H    4.515093   4.163367   4.946792   5.443941   2.786658
                   16         17         18         19         20
    16  H    0.000000
    17  H    1.775612   0.000000
    18  H    1.769319   1.756138   0.000000
    19  C    2.142783   2.142723   2.181658   0.000000
    20  C    2.842078   2.733746   3.486815   1.506505   0.000000
    21  H    2.662736   3.059932   3.822912   2.146651   1.094925
    22  H    3.239988   2.550834   3.763756   2.147662   1.094920
    23  H    3.829259   3.754863   4.333654   2.173221   1.095154
    24  C    3.198974   3.267511   2.716939   1.347343   2.480693
    25  H    4.101854   4.141160   3.796210   2.098514   2.656156
    26  C    3.795358   3.948649   2.747669   2.561250   3.924234
    27  H    4.500678   4.919130   3.677895   3.305900   4.521732
    28  H    3.307186   3.679590   2.132120   2.753671   4.235807
                   21         22         23         24         25
    21  H    0.000000
    22  H    1.777936   0.000000
    23  H    1.767856   1.768038   0.000000
    24  C    3.199763   3.190320   2.613519   0.000000
    25  H    3.423636   3.402163   2.317566   1.090249   0.000000
    26  C    4.555194   4.560996   4.116557   1.505542   2.187414
    27  H    5.053064   5.302081   4.532698   2.117621   2.404158
    28  H    4.696535   4.849425   4.658945   2.160693   3.070850
                   26         27         28
    26  C    0.000000
    27  H    1.097700   0.000000
    28  H    1.094549   1.745267   0.000000
 Stoichiometry    C10H18
 Framework group  C1[X(C10H18)]
 Deg. of freedom    78
 Full point group                 C1      NOp   1
 Largest Abelian subgroup         C1      NOp   1
 Largest concise Abelian subgroup C1      NOp   1
                         Standard orientation:                         
 ---------------------------------------------------------------------
 Center     Atomic      Atomic             Coordinates (Angstroms)
 Number     Number       Type             X           Y           Z
 ---------------------------------------------------------------------
      1          6           0        0.745807   -0.045544    0.580318
      2          1           0        0.286529    0.606638    1.335540
      3          1           0        0.871537   -1.012116    1.082636
      4          6           0        2.090151    0.530320    0.185582
      5          6           0        2.144056    2.035366    0.119984
      6          1           0        1.432514    2.412410   -0.621353
      7          1           0        3.137238    2.403158   -0.158890
      8          1           0        1.893349    2.466936    1.094552
      9          6           0        3.189343   -0.205992   -0.071371
     10          1           0        4.114922    0.310450   -0.324781
     11          6           0        3.306981   -1.697297   -0.075139
     12          1           0        2.347665   -2.209989    0.024290
     13          1           0        3.755054   -2.025102   -1.018784
     14          1           0        3.958972   -2.020750    0.741851
     15          6           0       -2.901827    1.323913   -0.213606
     16          1           0       -3.548634    1.520179   -1.074880
     17          1           0       -3.383859    1.735057    0.679963
     18          1           0       -1.972952    1.880929   -0.355452
     19          6           0       -2.691962   -0.156314   -0.051648
     20          6           0       -3.933040   -0.920051    0.330436
     21          1           0       -4.707404   -0.789554   -0.432579
     22          1           0       -4.322222   -0.557763    1.287585
     23          1           0       -3.745659   -1.994168    0.433023
     24          6           0       -1.515361   -0.793272   -0.210484
     25          1           0       -1.481864   -1.870784   -0.047728
     26          6           0       -0.194773   -0.197069   -0.619442
     27          1           0        0.258285   -0.862911   -1.365322
     28          1           0       -0.329719    0.763013   -1.127450
 ---------------------------------------------------------------------
 Rotational constants (GHZ):           2.4779232           0.5324382           0.4581664
 Leave Link  202 at Tue Jul  6 11:13:26 2021, MaxMem=   524288000 cpu:               0.1 elap:               0.1
 (Enter /opt/gaussian/g16_legacy/l301.exe)
 Standard basis: 6-31G(d,p) (6D, 7F)
 Ernie: Thresh=  0.10000D-02 Tol=  0.10000D-05 Strict=F.
 There are   240 symmetry adapted cartesian basis functions of A   symmetry.
 There are   240 symmetry adapted basis functions of A   symmetry.
   240 basis functions,   406 primitive gaussians,   240 cartesian basis functions
    39 alpha electrons       39 beta electrons
       nuclear repulsion energy       513.2800213450 Hartrees.
 IExCor= 4336 DFT=T Ex+Corr=M062X ExCW=0 ScaHFX=  0.540000
 ScaDFX=  1.000000  1.000000  1.000000  1.000000 ScalE2=  1.000000  1.000000
 IRadAn=      5 IRanWt=     -1 IRanGd=            0 ICorTp=0 IEmpDi=  4
 NAtoms=   28 NActive=   28 NUniq=   28 SFac= 1.00D+00 NAtFMM=   60 NAOKFM=F Big=F
 Integral buffers will be    131072 words long.
 Raffenetti 2 integral format.
 Two-electron integral symmetry is turned on.
 Leave Link  301 at Tue Jul  6 11:13:26 2021, MaxMem=   524288000 cpu:               0.3 elap:               0.1
 (Enter /opt/gaussian/g16_legacy/l302.exe)
 NPDir=0 NMtPBC=     1 NCelOv=     1 NCel=       1 NClECP=     1 NCelD=      1
         NCelK=      1 NCelE2=     1 NClLst=     1 CellRange=     0.0.
 One-electron integrals computed using PRISM.
 One-electron integral symmetry used in STVInt
 NBasis=   240 RedAO= T EigKep=  2.09D-03  NBF=   240
 NBsUse=   240 1.00D-06 EigRej= -1.00D+00 NBFU=   240
 Precomputing XC quadrature grid using
 IXCGrd= 4 IRadAn=           5 IRanWt=          -1 IRanGd=           0 AccXCQ= 0.00D+00.
 Generated NRdTot=       0 NPtTot=           0 NUsed=           0 NTot=          32
 NSgBfM=   240   240   240   240   240 MxSgAt=    28 MxSgA2=    28.
 Leave Link  302 at Tue Jul  6 11:13:27 2021, MaxMem=   524288000 cpu:               2.7 elap:               0.6
 (Enter /opt/gaussian/g16_legacy/l303.exe)
 DipDrv:  MaxL=1.
 Leave Link  303 at Tue Jul  6 11:13:27 2021, MaxMem=   524288000 cpu:               0.1 elap:               0.1
 (Enter /opt/gaussian/g16_legacy/l401.exe)
 ExpMin= 1.61D-01 ExpMax= 3.05D+03 ExpMxC= 4.57D+02 IAcc=3 IRadAn=         5 AccDes= 0.00D+00
 Harris functional with IExCor= 1009 and IRadAn=       5 diagonalized for initial guess.
 HarFok:  IExCor= 1009 AccDes= 0.00D+00 IRadAn=         5 IDoV= 1 UseB2=F ITyADJ=14
 ICtDFT=  3500011 ScaDFX=  1.000000  1.000000  1.000000  1.000000
 FoFCou: FMM=F IPFlag=           0 FMFlag=      100000 FMFlg1=           0
         NFxFlg=           0 DoJE=T BraDBF=F KetDBF=T FulRan=T
         wScrn=  0.000000 ICntrl=       500 IOpCl=  0 I1Cent=   200000004 NGrid=           0
         NMat0=    1 NMatS0=      1 NMatT0=    0 NMatD0=    1 NMtDS0=    0 NMtDT0=    0
 Petite list used in FoFCou.
 Harris En= -391.655780384709    
 JPrj=0 DoOrth=F DoCkMO=F.
 Leave Link  401 at Tue Jul  6 11:13:29 2021, MaxMem=   524288000 cpu:              12.2 elap:               2.1
 (Enter /opt/gaussian/g16_legacy/l502.exe)
 Integral symmetry usage will be decided dynamically.
 Closed shell SCF:
 Using DIIS extrapolation, IDIIS=  1040.
 NGot=   524288000 LenX=   524168546 LenY=   524110505
 Requested convergence on RMS density matrix=1.00D-08 within 128 cycles.
 Requested convergence on MAX density matrix=1.00D-06.
 Requested convergence on             energy=1.00D-06.
 No special actions if energy rises.
 Fock matrices will be formed incrementally for  20 cycles.
 Integral accuracy reduced to 1.0D-05 until final iterations.

 Cycle   1  Pass 0  IDiag  1:
 FoFJK:  IHMeth= 1 ICntrl=       0 DoSepK=F KAlg= 0 I1Cent=           0 FoldK=F
 IRaf= 850000000 NMat=       1 IRICut=       1 DoRegI=T DoRafI=F ISym2E= 0 IDoP0=0 IntGTp=1.
 FoFCou: FMM=F IPFlag=           0 FMFlag=      100000 FMFlg1=           0
         NFxFlg=           0 DoJE=F BraDBF=F KetDBF=F FulRan=T
         wScrn=  0.000000 ICntrl=         0 IOpCl=  0 I1Cent=           0 NGrid=           0
         NMat0=    1 NMatS0=      1 NMatT0=    0 NMatD0=    1 NMtDS0=    0 NMtDT0=    0
 Symmetry not used in FoFCou.
 E= -391.298983794046    
 DIIS: error= 3.07D-02 at cycle   1 NSaved=   1.
 NSaved= 1 IEnMin= 1 EnMin= -391.298983794046     IErMin= 1 ErrMin= 3.07D-02
 ErrMax= 3.07D-02  0.00D+00 EMaxC= 1.00D-01 BMatC= 3.70D-01 BMatP= 3.70D-01
 IDIUse=3 WtCom= 6.93D-01 WtEn= 3.07D-01
 Coeff-Com:  0.100D+01
 Coeff-En:   0.100D+01
 Coeff:      0.100D+01
 Gap=     0.341 Goal=   None    Shift=    0.000
 GapD=    0.341 DampG=1.000 DampE=0.500 DampFc=0.5000 IDamp=-1.
 Damping current iteration by 5.00D-01
 RMSDP=4.37D-03 MaxDP=1.15D-01              OVMax= 1.45D-01

 Cycle   2  Pass 0  IDiag  1:
 RMSU=  2.14D-03    CP:  9.75D-01
 E= -391.507920754627     Delta-E=       -0.208936960582 Rises=F Damp=T
 DIIS: error= 1.07D-02 at cycle   2 NSaved=   2.
 NSaved= 2 IEnMin= 2 EnMin= -391.507920754627     IErMin= 2 ErrMin= 1.07D-02
 ErrMax= 1.07D-02  0.00D+00 EMaxC= 1.00D-01 BMatC= 2.10D-02 BMatP= 3.70D-01
 IDIUse=3 WtCom= 8.93D-01 WtEn= 1.07D-01
 Coeff-Com: -0.154D+00 0.115D+01
 Coeff-En:   0.000D+00 0.100D+01
 Coeff:     -0.137D+00 0.114D+01
 Gap=     0.370 Goal=   None    Shift=    0.000
 RMSDP=8.26D-04 MaxDP=2.55D-02 DE=-2.09D-01 OVMax= 6.05D-02

 Cycle   3  Pass 0  IDiag  1:
 RMSU=  7.77D-04    CP:  9.69D-01  1.12D+00
 E= -391.687661160623     Delta-E=       -0.179740405996 Rises=F Damp=F
 DIIS: error= 1.24D-03 at cycle   3 NSaved=   3.
 NSaved= 3 IEnMin= 3 EnMin= -391.687661160623     IErMin= 3 ErrMin= 1.24D-03
 ErrMax= 1.24D-03  0.00D+00 EMaxC= 1.00D-01 BMatC= 5.82D-04 BMatP= 2.10D-02
 IDIUse=3 WtCom= 9.88D-01 WtEn= 1.24D-02
 Coeff-Com: -0.255D-01 0.119D+00 0.907D+00
 Coeff-En:   0.000D+00 0.000D+00 0.100D+01
 Coeff:     -0.252D-01 0.117D+00 0.908D+00
 Gap=     0.338 Goal=   None    Shift=    0.000
 RMSDP=1.85D-04 MaxDP=5.92D-03 DE=-1.80D-01 OVMax= 8.21D-03

 Cycle   4  Pass 0  IDiag  1:
 RMSU=  1.70D-04    CP:  9.68D-01  1.15D+00  9.43D-01
 E= -391.687998557919     Delta-E=       -0.000337397295 Rises=F Damp=F
 DIIS: error= 9.84D-04 at cycle   4 NSaved=   4.
 NSaved= 4 IEnMin= 4 EnMin= -391.687998557919     IErMin= 4 ErrMin= 9.84D-04
 ErrMax= 9.84D-04  0.00D+00 EMaxC= 1.00D-01 BMatC= 2.42D-04 BMatP= 5.82D-04
 IDIUse=3 WtCom= 9.90D-01 WtEn= 9.84D-03
 Coeff-Com: -0.596D-02 0.243D-01 0.398D+00 0.583D+00
 Coeff-En:   0.000D+00 0.000D+00 0.233D+00 0.767D+00
 Coeff:     -0.590D-02 0.241D-01 0.397D+00 0.585D+00
 Gap=     0.338 Goal=   None    Shift=    0.000
 RMSDP=8.53D-05 MaxDP=3.14D-03 DE=-3.37D-04 OVMax= 6.45D-03

 Cycle   5  Pass 0  IDiag  1:
 RMSU=  4.35D-05    CP:  9.68D-01  1.14D+00  9.82D-01  6.11D-01
 E= -391.688222665393     Delta-E=       -0.000224107475 Rises=F Damp=F
 DIIS: error= 2.97D-04 at cycle   5 NSaved=   5.
 NSaved= 5 IEnMin= 5 EnMin= -391.688222665393     IErMin= 5 ErrMin= 2.97D-04
 ErrMax= 2.97D-04  0.00D+00 EMaxC= 1.00D-01 BMatC= 2.62D-05 BMatP= 2.42D-04
 IDIUse=3 WtCom= 9.97D-01 WtEn= 2.97D-03
 Coeff-Com:  0.535D-03-0.168D-02 0.928D-01 0.279D+00 0.629D+00
 Coeff-En:   0.000D+00 0.000D+00 0.000D+00 0.000D+00 0.100D+01
 Coeff:      0.534D-03-0.168D-02 0.925D-01 0.278D+00 0.630D+00
 Gap=     0.339 Goal=   None    Shift=    0.000
 RMSDP=2.25D-05 MaxDP=1.05D-03 DE=-2.24D-04 OVMax= 1.95D-03

 Cycle   6  Pass 0  IDiag  1:
 RMSU=  1.35D-05    CP:  9.68D-01  1.14D+00  9.89D-01  6.78D-01  7.11D-01
 E= -391.688247910025     Delta-E=       -0.000025244631 Rises=F Damp=F
 DIIS: error= 5.88D-05 at cycle   6 NSaved=   6.
 NSaved= 6 IEnMin= 6 EnMin= -391.688247910025     IErMin= 6 ErrMin= 5.88D-05
 ErrMax= 5.88D-05  0.00D+00 EMaxC= 1.00D-01 BMatC= 1.55D-06 BMatP= 2.62D-05
 IDIUse=1 WtCom= 1.00D+00 WtEn= 0.00D+00
 Coeff-Com:  0.886D-03-0.301D-02 0.597D-02 0.710D-01 0.258D+00 0.668D+00
 Coeff:      0.886D-03-0.301D-02 0.597D-02 0.710D-01 0.258D+00 0.668D+00
 Gap=     0.339 Goal=   None    Shift=    0.000
 RMSDP=5.99D-06 MaxDP=2.01D-04 DE=-2.52D-05 OVMax= 4.27D-04

 Initial convergence to 1.0D-05 achieved.  Increase integral accuracy.
 Cycle   7  Pass 1  IDiag  1:
 E= -391.688231593312     Delta-E=        0.000016316713 Rises=F Damp=F
 DIIS: error= 2.00D-05 at cycle   1 NSaved=   1.
 NSaved= 1 IEnMin= 1 EnMin= -391.688231593312     IErMin= 1 ErrMin= 2.00D-05
 ErrMax= 2.00D-05  0.00D+00 EMaxC= 1.00D-01 BMatC= 2.17D-07 BMatP= 2.17D-07
 IDIUse=1 WtCom= 1.00D+00 WtEn= 0.00D+00
 Coeff-Com:  0.100D+01
 Coeff:      0.100D+01
 Gap=     0.339 Goal=   None    Shift=    0.000
 RMSDP=5.99D-06 MaxDP=2.01D-04 DE= 1.63D-05 OVMax= 1.80D-04

 Cycle   8  Pass 1  IDiag  1:
 RMSU=  8.37D-06    CP:  1.00D+00
 E= -391.688231730627     Delta-E=       -0.000000137315 Rises=F Damp=F
 DIIS: error= 1.27D-05 at cycle   2 NSaved=   2.
 NSaved= 2 IEnMin= 2 EnMin= -391.688231730627     IErMin= 2 ErrMin= 1.27D-05
 ErrMax= 1.27D-05  0.00D+00 EMaxC= 1.00D-01 BMatC= 9.81D-08 BMatP= 2.17D-07
 IDIUse=1 WtCom= 1.00D+00 WtEn= 0.00D+00
 Coeff-Com:  0.374D+00 0.626D+00
 Coeff:      0.374D+00 0.626D+00
 Gap=     0.339 Goal=   None    Shift=    0.000
 RMSDP=1.48D-06 MaxDP=6.38D-05 DE=-1.37D-07 OVMax= 1.22D-04

 Cycle   9  Pass 1  IDiag  1:
 RMSU=  1.47D-06    CP:  1.00D+00  9.91D-01
 E= -391.688231812511     Delta-E=       -0.000000081884 Rises=F Damp=F
 DIIS: error= 5.94D-06 at cycle   3 NSaved=   3.
 NSaved= 3 IEnMin= 3 EnMin= -391.688231812511     IErMin= 3 ErrMin= 5.94D-06
 ErrMax= 5.94D-06  0.00D+00 EMaxC= 1.00D-01 BMatC= 1.51D-08 BMatP= 9.81D-08
 IDIUse=1 WtCom= 1.00D+00 WtEn= 0.00D+00
 Coeff-Com: -0.460D-04 0.270D+00 0.730D+00
 Coeff:     -0.460D-04 0.270D+00 0.730D+00
 Gap=     0.339 Goal=   None    Shift=    0.000
 RMSDP=5.55D-07 MaxDP=2.61D-05 DE=-8.19D-08 OVMax= 5.30D-05

 Cycle  10  Pass 1  IDiag  1:
 RMSU=  3.54D-07    CP:  1.00D+00  1.02D+00  7.61D-01
 E= -391.688231825893     Delta-E=       -0.000000013381 Rises=F Damp=F
 DIIS: error= 2.43D-06 at cycle   4 NSaved=   4.
 NSaved= 4 IEnMin= 4 EnMin= -391.688231825893     IErMin= 4 ErrMin= 2.43D-06
 ErrMax= 2.43D-06  0.00D+00 EMaxC= 1.00D-01 BMatC= 1.80D-09 BMatP= 1.51D-08
 IDIUse=1 WtCom= 1.00D+00 WtEn= 0.00D+00
 Coeff-Com: -0.209D-01 0.106D+00 0.380D+00 0.536D+00
 Coeff:     -0.209D-01 0.106D+00 0.380D+00 0.536D+00
 Gap=     0.339 Goal=   None    Shift=    0.000
 RMSDP=1.88D-07 MaxDP=7.14D-06 DE=-1.34D-08 OVMax= 1.50D-05

 Cycle  11  Pass 1  IDiag  1:
 RMSU=  1.37D-07    CP:  1.00D+00  1.02D+00  8.00D-01  6.80D-01
 E= -391.688231827763     Delta-E=       -0.000000001870 Rises=F Damp=F
 DIIS: error= 2.20D-07 at cycle   5 NSaved=   5.
 NSaved= 5 IEnMin= 5 EnMin= -391.688231827763     IErMin= 5 ErrMin= 2.20D-07
 ErrMax= 2.20D-07  0.00D+00 EMaxC= 1.00D-01 BMatC= 2.53D-11 BMatP= 1.80D-09
 IDIUse=1 WtCom= 1.00D+00 WtEn= 0.00D+00
 Coeff-Com: -0.262D-02-0.676D-02-0.106D-01 0.767D-01 0.943D+00
 Coeff:     -0.262D-02-0.676D-02-0.106D-01 0.767D-01 0.943D+00
 Gap=     0.339 Goal=   None    Shift=    0.000
 RMSDP=3.81D-08 MaxDP=1.04D-06 DE=-1.87D-09 OVMax= 1.95D-06

 Cycle  12  Pass 1  IDiag  1:
 RMSU=  2.67D-08    CP:  1.00D+00  1.02D+00  8.02D-01  7.55D-01  1.02D+00
 E= -391.688231827766     Delta-E=       -0.000000000003 Rises=F Damp=F
 DIIS: error= 7.38D-08 at cycle   6 NSaved=   6.
 NSaved= 6 IEnMin= 6 EnMin= -391.688231827766     IErMin= 6 ErrMin= 7.38D-08
 ErrMax= 7.38D-08  0.00D+00 EMaxC= 1.00D-01 BMatC= 2.45D-12 BMatP= 2.53D-11
 IDIUse=1 WtCom= 1.00D+00 WtEn= 0.00D+00
 Coeff-Com:  0.771D-03-0.975D-02-0.315D-01-0.138D-01 0.292D+00 0.762D+00
 Coeff:      0.771D-03-0.975D-02-0.315D-01-0.138D-01 0.292D+00 0.762D+00
 Gap=     0.339 Goal=   None    Shift=    0.000
 RMSDP=1.05D-08 MaxDP=2.03D-07 DE=-2.73D-12 OVMax= 5.22D-07

 Cycle  13  Pass 1  IDiag  1:
 RMSU=  5.38D-09    CP:  1.00D+00  1.02D+00  8.02D-01  7.65D-01  1.08D+00
                    CP:  8.86D-01
 E= -391.688231827794     Delta-E=       -0.000000000028 Rises=F Damp=F
 DIIS: error= 1.67D-08 at cycle   7 NSaved=   7.
 NSaved= 7 IEnMin= 7 EnMin= -391.688231827794     IErMin= 7 ErrMin= 1.67D-08
 ErrMax= 1.67D-08  0.00D+00 EMaxC= 1.00D-01 BMatC= 1.45D-13 BMatP= 2.45D-12
 IDIUse=1 WtCom= 1.00D+00 WtEn= 0.00D+00
 Coeff-Com:  0.343D-03-0.288D-02-0.992D-02-0.724D-02 0.578D-01 0.261D+00
 Coeff-Com:  0.701D+00
 Coeff:      0.343D-03-0.288D-02-0.992D-02-0.724D-02 0.578D-01 0.261D+00
 Coeff:      0.701D+00
 Gap=     0.339 Goal=   None    Shift=    0.000
 RMSDP=1.84D-09 MaxDP=5.03D-08 DE=-2.80D-11 OVMax= 1.30D-07

 SCF Done:  E(RM062X) =  -391.688231828     A.U. after   13 cycles
            NFock= 13  Conv=0.18D-08     -V/T= 2.0093
 KE= 3.880861312466D+02 PE=-1.931595257521D+03 EE= 6.385408731011D+02
 Leave Link  502 at Tue Jul  6 11:14:16 2021, MaxMem=   524288000 cpu:             278.9 elap:              46.7
 (Enter /opt/gaussian/g16_legacy/l601.exe)
 Copying SCF densities to generalized density rwf, IOpCl= 0 IROHF=0.

 **********************************************************************

            Population analysis using the SCF density.

 **********************************************************************

 Orbital symmetries:
       Occupied  (A) (A) (A) (A) (A) (A) (A) (A) (A) (A) (A) (A)
                 (A) (A) (A) (A) (A) (A) (A) (A) (A) (A) (A) (A)
                 (A) (A) (A) (A) (A) (A) (A) (A) (A) (A) (A) (A)
                 (A) (A) (A)
       Virtual   (A) (A) (A) (A) (A) (A) (A) (A) (A) (A) (A) (A)
                 (A) (A) (A) (A) (A) (A) (A) (A) (A) (A) (A) (A)
                 (A) (A) (A) (A) (A) (A) (A) (A) (A) (A) (A) (A)
                 (A) (A) (A) (A) (A) (A) (A) (A) (A) (A) (A) (A)
                 (A) (A) (A) (A) (A) (A) (A) (A) (A) (A) (A) (A)
                 (A) (A) (A) (A) (A) (A) (A) (A) (A) (A) (A) (A)
                 (A) (A) (A) (A) (A) (A) (A) (A) (A) (A) (A) (A)
                 (A) (A) (A) (A) (A) (A) (A) (A) (A) (A) (A) (A)
                 (A) (A) (A) (A) (A) (A) (A) (A) (A) (A) (A) (A)
                 (A) (A) (A) (A) (A) (A) (A) (A) (A) (A) (A) (A)
                 (A) (A) (A) (A) (A) (A) (A) (A) (A) (A) (A) (A)
                 (A) (A) (A) (A) (A) (A) (A) (A) (A) (A) (A) (A)
                 (A) (A) (A) (A) (A) (A) (A) (A) (A) (A) (A) (A)
                 (A) (A) (A) (A) (A) (A) (A) (A) (A) (A) (A) (A)
                 (A) (A) (A) (A) (A) (A) (A) (A) (A) (A) (A) (A)
                 (A) (A) (A) (A) (A) (A) (A) (A) (A) (A) (A) (A)
                 (A) (A) (A) (A) (A) (A) (A) (A) (A)
 The electronic state is 1-A.
 Alpha  occ. eigenvalues --  -10.54667 -10.54128 -10.53907 -10.53827 -10.53602
 Alpha  occ. eigenvalues --  -10.53344 -10.53283 -10.53241 -10.53214 -10.53189
 Alpha  occ. eigenvalues --   -0.91976  -0.89945  -0.84710  -0.81577  -0.77856
 Alpha  occ. eigenvalues --   -0.76075  -0.71672  -0.68496  -0.58977  -0.57815
 Alpha  occ. eigenvalues --   -0.54142  -0.51424  -0.50687  -0.49851  -0.48754
 Alpha  occ. eigenvalues --   -0.47781  -0.46550  -0.45926  -0.44711  -0.43433
 Alpha  occ. eigenvalues --   -0.43080  -0.42487  -0.41507  -0.40991  -0.38900
 Alpha  occ. eigenvalues --   -0.38209  -0.36248  -0.28647  -0.27096
 Alpha virt. eigenvalues --    0.06770   0.08030   0.12291   0.14616   0.15193
 Alpha virt. eigenvalues --    0.17130   0.18451   0.18631   0.19910   0.20224
 Alpha virt. eigenvalues --    0.21017   0.21730   0.22288   0.22964   0.23188
 Alpha virt. eigenvalues --    0.23877   0.25117   0.25821   0.27020   0.27680
 Alpha virt. eigenvalues --    0.28916   0.29077   0.29461   0.30841   0.31825
 Alpha virt. eigenvalues --    0.38708   0.40163   0.47067   0.48101   0.53699
 Alpha virt. eigenvalues --    0.55459   0.55572   0.57845   0.59257   0.59902
 Alpha virt. eigenvalues --    0.60716   0.61650   0.62562   0.63574   0.65042
 Alpha virt. eigenvalues --    0.66033   0.68083   0.71263   0.71804   0.73720
 Alpha virt. eigenvalues --    0.74889   0.76087   0.77016   0.78274   0.79022
 Alpha virt. eigenvalues --    0.80349   0.82357   0.83294   0.84889   0.86284
 Alpha virt. eigenvalues --    0.87491   0.88531   0.88951   0.91445   0.92572
 Alpha virt. eigenvalues --    0.93690   0.94248   0.94566   0.95821   0.96142
 Alpha virt. eigenvalues --    0.96351   0.96701   0.98015   0.99214   1.00256
 Alpha virt. eigenvalues --    1.01196   1.02469   1.03270   1.05125   1.07098
 Alpha virt. eigenvalues --    1.08615   1.19414   1.21044   1.23649   1.24772
 Alpha virt. eigenvalues --    1.25718   1.32950   1.34802   1.37080   1.37883
 Alpha virt. eigenvalues --    1.40581   1.41530   1.44466   1.47395   1.49372
 Alpha virt. eigenvalues --    1.53144   1.60776   1.68027   1.69934   1.72659
 Alpha virt. eigenvalues --    1.74733   1.77998   1.79041   1.80557   1.83438
 Alpha virt. eigenvalues --    1.84682   1.86255   1.87305   1.88100   1.89030
 Alpha virt. eigenvalues --    1.90329   1.92774   1.93269   1.97961   2.01640
 Alpha virt. eigenvalues --    2.01765   2.03506   2.05362   2.09291   2.09979
 Alpha virt. eigenvalues --    2.10037   2.10189   2.12654   2.13409   2.13533
 Alpha virt. eigenvalues --    2.14746   2.15579   2.16245   2.17857   2.18544
 Alpha virt. eigenvalues --    2.20067   2.21704   2.22298   2.22513   2.25499
 Alpha virt. eigenvalues --    2.28307   2.30966   2.32302   2.34159   2.35779
 Alpha virt. eigenvalues --    2.37363   2.39213   2.43294   2.44272   2.45027
 Alpha virt. eigenvalues --    2.46967   2.48387   2.51120   2.52480   2.53884
 Alpha virt. eigenvalues --    2.56634   2.59941   2.62148   2.63189   2.63303
 Alpha virt. eigenvalues --    2.66074   2.68507   2.70223   2.71244   2.72984
 Alpha virt. eigenvalues --    2.74598   2.75256   2.77592   2.79019   2.83994
 Alpha virt. eigenvalues --    2.84942   2.85439   2.87308   2.88016   2.88313
 Alpha virt. eigenvalues --    2.89481   2.92190   2.93483   2.94586   3.01771
 Alpha virt. eigenvalues --    3.03772   3.08481   3.09904   3.17720   3.19494
 Alpha virt. eigenvalues --    3.20612   3.22728   3.29853   3.35027   3.39824
 Alpha virt. eigenvalues --    3.40243   3.41686   3.42633   3.43612   3.44260
 Alpha virt. eigenvalues --    3.44893   3.47021   3.49243   3.50342   3.51931
 Alpha virt. eigenvalues --    3.56794   4.18843   4.21974   4.34261   4.42291
 Alpha virt. eigenvalues --    4.48975   4.52370   4.53104   4.66741   4.69697
 Alpha virt. eigenvalues --    4.75978
          Condensed to atoms (all electrons):
               1          2          3          4          5          6
     1  C    5.038497   0.386601   0.384655   0.359837  -0.070602   0.000240
     2  H    0.386601   0.607906  -0.034906  -0.037519  -0.006194  -0.000419
     3  H    0.384655  -0.034906   0.603094  -0.030247   0.004674  -0.000008
     4  C    0.359837  -0.037519  -0.030247   4.771223   0.369778  -0.039048
     5  C   -0.070602  -0.006194   0.004674   0.369778   4.998203   0.381783
     6  H    0.000240  -0.000419  -0.000008  -0.039048   0.381783   0.594661
     7  H    0.004466   0.000117  -0.000171  -0.034099   0.386534  -0.027677
     8  H   -0.003914   0.004543   0.000052  -0.034206   0.380258  -0.034533
     9  C   -0.046990   0.003257  -0.008123   0.713202  -0.041216  -0.001174
    10  H    0.005623  -0.000171   0.000027  -0.030688  -0.013319   0.000186
    11  C   -0.012989   0.000248   0.001099  -0.044784   0.006083  -0.000170
    12  H    0.002320  -0.000082   0.002086  -0.008096   0.000089   0.000001
    13  H    0.000385  -0.000013  -0.000128   0.000849  -0.000151   0.000019
    14  H    0.000180   0.000031   0.000184  -0.000752  -0.000148  -0.000006
    15  C    0.000217   0.000441   0.000011  -0.000025  -0.000018  -0.000041
    16  H   -0.000036   0.000012  -0.000000   0.000002  -0.000000  -0.000000
    17  H    0.000069  -0.000087   0.000000  -0.000003   0.000000  -0.000001
    18  H    0.000029   0.000316  -0.000010  -0.000071   0.000095   0.000256
    19  C   -0.002807   0.001604   0.000107   0.000015   0.000007   0.000018
    20  C   -0.000093  -0.000066   0.000001   0.000002   0.000000  -0.000000
    21  H   -0.000005   0.000002   0.000000   0.000000  -0.000000   0.000000
    22  H    0.000020  -0.000005  -0.000001  -0.000000   0.000000   0.000000
    23  H   -0.000002  -0.000002   0.000002   0.000000  -0.000000  -0.000000
    24  C   -0.053542  -0.000338  -0.002114   0.005679  -0.000029  -0.000138
    25  H   -0.001060  -0.000093   0.002813  -0.000083  -0.000002   0.000000
    26  C    0.345526  -0.041511  -0.040039  -0.046993  -0.002387   0.001352
    27  H   -0.042348   0.005617  -0.005408  -0.002346  -0.000024   0.000028
    28  H   -0.039860  -0.005008   0.005536  -0.002733   0.001312   0.001618
               7          8          9         10         11         12
     1  C    0.004466  -0.003914  -0.046990   0.005623  -0.012989   0.002320
     2  H    0.000117   0.004543   0.003257  -0.000171   0.000248  -0.000082
     3  H   -0.000171   0.000052  -0.008123   0.000027   0.001099   0.002086
     4  C   -0.034099  -0.034206   0.713202  -0.030688  -0.044784  -0.008096
     5  C    0.386534   0.380258  -0.041216  -0.013319   0.006083   0.000089
     6  H   -0.027677  -0.034533  -0.001174   0.000186  -0.000170   0.000001
     7  H    0.573913  -0.027486  -0.005139   0.006122   0.000107   0.000007
     8  H   -0.027486   0.588933  -0.000672   0.000317  -0.000172  -0.000002
     9  C   -0.005139  -0.000672   4.896279   0.377737   0.360962  -0.034164
    10  H    0.006122   0.000317   0.377737   0.612622  -0.056004   0.004537
    11  C    0.000107  -0.000172   0.360962  -0.056004   4.975048   0.390013
    12  H    0.000007  -0.000002  -0.034164   0.004537   0.390013   0.580057
    13  H   -0.000011  -0.000004  -0.033124  -0.003126   0.386351  -0.029322
    14  H   -0.000004   0.000025  -0.036509  -0.000440   0.385658  -0.028031
    15  C    0.000000  -0.000003  -0.000000  -0.000000  -0.000000   0.000000
    16  H    0.000000   0.000000   0.000000   0.000000   0.000000   0.000000
    17  H   -0.000000   0.000000   0.000000  -0.000000   0.000000  -0.000000
    18  H   -0.000001   0.000008  -0.000001   0.000000  -0.000000  -0.000000
    19  C   -0.000000  -0.000002  -0.000002   0.000000  -0.000000   0.000001
    20  C    0.000000   0.000000  -0.000000   0.000000   0.000000  -0.000000
    21  H    0.000000   0.000000  -0.000000   0.000000  -0.000000   0.000000
    22  H   -0.000000  -0.000000   0.000000  -0.000000  -0.000000  -0.000000
    23  H   -0.000000  -0.000000   0.000000  -0.000000  -0.000000  -0.000000
    24  C    0.000002   0.000012   0.000047   0.000003  -0.000048   0.000024
    25  H    0.000000   0.000000   0.000006  -0.000000   0.000000   0.000041
    26  C   -0.000027  -0.000213  -0.003233  -0.000104   0.000138  -0.000023
    27  H   -0.000004   0.000014   0.002183  -0.000056   0.000523   0.000570
    28  H   -0.000103   0.000062  -0.000023  -0.000002   0.000011  -0.000011
              13         14         15         16         17         18
     1  C    0.000385   0.000180   0.000217  -0.000036   0.000069   0.000029
     2  H   -0.000013   0.000031   0.000441   0.000012  -0.000087   0.000316
     3  H   -0.000128   0.000184   0.000011  -0.000000   0.000000  -0.000010
     4  C    0.000849  -0.000752  -0.000025   0.000002  -0.000003  -0.000071
     5  C   -0.000151  -0.000148  -0.000018  -0.000000   0.000000   0.000095
     6  H    0.000019  -0.000006  -0.000041  -0.000000  -0.000001   0.000256
     7  H   -0.000011  -0.000004   0.000000   0.000000  -0.000000  -0.000001
     8  H   -0.000004   0.000025  -0.000003   0.000000   0.000000   0.000008
     9  C   -0.033124  -0.036509  -0.000000   0.000000   0.000000  -0.000001
    10  H   -0.003126  -0.000440  -0.000000   0.000000  -0.000000   0.000000
    11  C    0.386351   0.385658  -0.000000   0.000000   0.000000  -0.000000
    12  H   -0.029322  -0.028031   0.000000   0.000000  -0.000000  -0.000000
    13  H    0.578881  -0.031799  -0.000000  -0.000000   0.000000   0.000000
    14  H   -0.031799   0.577407   0.000000   0.000000  -0.000000  -0.000000
    15  C   -0.000000   0.000000   5.002286   0.383083   0.385311   0.382576
    16  H   -0.000000   0.000000   0.383083   0.578795  -0.032566  -0.027435
    17  H    0.000000  -0.000000   0.385311  -0.032566   0.582833  -0.029194
    18  H    0.000000  -0.000000   0.382576  -0.027435  -0.029194   0.577999
    19  C    0.000000  -0.000000   0.378166  -0.036084  -0.036089  -0.026726
    20  C   -0.000000   0.000000  -0.078897  -0.001927  -0.003583   0.004799
    21  H   -0.000000   0.000000  -0.000492   0.003690  -0.000851  -0.000009
    22  H    0.000000  -0.000000  -0.002171  -0.000674   0.004475  -0.000049
    23  H    0.000000  -0.000000   0.004667  -0.000070   0.000034  -0.000168
    24  C   -0.000003   0.000002  -0.052354   0.000071   0.000909  -0.008375
    25  H   -0.000000  -0.000000   0.006077  -0.000157  -0.000155   0.000023
    26  C    0.000067  -0.000038  -0.013465   0.000174   0.000444   0.001620
    27  H   -0.000081   0.000014   0.000315   0.000033  -0.000015  -0.000059
    28  H    0.000002  -0.000001   0.001190   0.000037  -0.000142   0.002439
              19         20         21         22         23         24
     1  C   -0.002807  -0.000093  -0.000005   0.000020  -0.000002  -0.053542
     2  H    0.001604  -0.000066   0.000002  -0.000005  -0.000002  -0.000338
     3  H    0.000107   0.000001   0.000000  -0.000001   0.000002  -0.002114
     4  C    0.000015   0.000002   0.000000  -0.000000   0.000000   0.005679
     5  C    0.000007   0.000000  -0.000000   0.000000  -0.000000  -0.000029
     6  H    0.000018  -0.000000   0.000000   0.000000  -0.000000  -0.000138
     7  H   -0.000000   0.000000   0.000000  -0.000000  -0.000000   0.000002
     8  H   -0.000002   0.000000   0.000000  -0.000000  -0.000000   0.000012
     9  C   -0.000002  -0.000000  -0.000000   0.000000   0.000000   0.000047
    10  H    0.000000   0.000000   0.000000  -0.000000  -0.000000   0.000003
    11  C   -0.000000   0.000000  -0.000000  -0.000000  -0.000000  -0.000048
    12  H    0.000001  -0.000000   0.000000  -0.000000  -0.000000   0.000024
    13  H    0.000000  -0.000000  -0.000000   0.000000   0.000000  -0.000003
    14  H   -0.000000   0.000000   0.000000  -0.000000  -0.000000   0.000002
    15  C    0.378166  -0.078897  -0.000492  -0.002171   0.004667  -0.052354
    16  H   -0.036084  -0.001927   0.003690  -0.000674  -0.000070   0.000071
    17  H   -0.036089  -0.003583  -0.000851   0.004475   0.000034   0.000909
    18  H   -0.026726   0.004799  -0.000009  -0.000049  -0.000168  -0.008375
    19  C    4.735270   0.366169  -0.038147  -0.035851  -0.033012   0.714119
    20  C    0.366169   5.004667   0.382985   0.380453   0.385137  -0.036859
    21  H   -0.038147   0.382985   0.589306  -0.034286  -0.027294  -0.001413
    22  H   -0.035851   0.380453  -0.034286   0.590049  -0.027116  -0.000858
    23  H   -0.033012   0.385137  -0.027294  -0.027116   0.572106  -0.004819
    24  C    0.714119  -0.036859  -0.001413  -0.000858  -0.004819   4.918764
    25  H   -0.031609  -0.013574   0.000223   0.000278   0.006101   0.376103
    26  C   -0.038402   0.005676  -0.000206  -0.000121   0.000116   0.355020
    27  H    0.001884  -0.000176   0.000014  -0.000002  -0.000012  -0.033085
    28  H   -0.006619   0.000077   0.000005  -0.000004   0.000010  -0.037043
              25         26         27         28
     1  C   -0.001060   0.345526  -0.042348  -0.039860
     2  H   -0.000093  -0.041511   0.005617  -0.005008
     3  H    0.002813  -0.040039  -0.005408   0.005536
     4  C   -0.000083  -0.046993  -0.002346  -0.002733
     5  C   -0.000002  -0.002387  -0.000024   0.001312
     6  H    0.000000   0.001352   0.000028   0.001618
     7  H    0.000000  -0.000027  -0.000004  -0.000103
     8  H    0.000000  -0.000213   0.000014   0.000062
     9  C    0.000006  -0.003233   0.002183  -0.000023
    10  H   -0.000000  -0.000104  -0.000056  -0.000002
    11  C    0.000000   0.000138   0.000523   0.000011
    12  H    0.000041  -0.000023   0.000570  -0.000011
    13  H   -0.000000   0.000067  -0.000081   0.000002
    14  H   -0.000000  -0.000038   0.000014  -0.000001
    15  C    0.006077  -0.013465   0.000315   0.001190
    16  H   -0.000157   0.000174   0.000033   0.000037
    17  H   -0.000155   0.000444  -0.000015  -0.000142
    18  H    0.000023   0.001620  -0.000059   0.002439
    19  C   -0.031609  -0.038402   0.001884  -0.006619
    20  C   -0.013574   0.005676  -0.000176   0.000077
    21  H    0.000223  -0.000206   0.000014   0.000005
    22  H    0.000278  -0.000121  -0.000002  -0.000004
    23  H    0.006101   0.000116  -0.000012   0.000010
    24  C    0.376103   0.355020  -0.033085  -0.037043
    25  H    0.613426  -0.053630  -0.004982   0.004772
    26  C   -0.053630   4.993280   0.388839   0.390867
    27  H   -0.004982   0.388839   0.599990  -0.034546
    28  H    0.004772   0.390867  -0.034546   0.605653
 Mulliken charges:
               1
     1  C   -0.254417
     2  H    0.115720
     3  H    0.116813
     4  C    0.091105
     5  C   -0.394724
     6  H    0.123051
     7  H    0.123454
     8  H    0.126981
     9  C   -0.143302
    10  H    0.096736
    11  C   -0.392075
    12  H    0.119983
    13  H    0.131208
    14  H    0.134228
    15  C   -0.396874
    16  H    0.133053
    17  H    0.128612
    18  H    0.121937
    19  C    0.087994
    20  C   -0.394789
    21  H    0.126477
    22  H    0.125865
    23  H    0.124322
    24  C   -0.139735
    25  H    0.095481
    26  C   -0.242726
    27  H    0.123118
    28  H    0.112504
 Sum of Mulliken charges =  -0.00000
 Mulliken charges with hydrogens summed into heavy atoms:
               1
     1  C   -0.021884
     4  C    0.091105
     5  C   -0.021238
     9  C   -0.046566
    11  C   -0.006656
    15  C   -0.013272
    19  C    0.087994
    20  C   -0.018124
    24  C   -0.044254
    26  C   -0.007104
 Electronic spatial extent (au):  <R**2>=           2542.2825
 Charge=              0.0000 electrons
 Dipole moment (field-independent basis, Debye):
    X=             -0.3334    Y=              0.1284    Z=              0.0226  Tot=              0.3580
 Quadrupole moment (field-independent basis, Debye-Ang):
   XX=            -62.3253   YY=            -62.8594   ZZ=            -66.2064
   XY=             -1.1577   XZ=             -0.8686   YZ=             -0.1667
 Traceless Quadrupole moment (field-independent basis, Debye-Ang):
   XX=              1.4718   YY=              0.9376   ZZ=             -2.4094
   XY=             -1.1577   XZ=             -0.8686   YZ=             -0.1667
 Octapole moment (field-independent basis, Debye-Ang**2):
  XXX=             -2.0900  YYY=             -2.4476  ZZZ=              0.8478  XYY=              0.9982
  XXY=              0.6807  XXZ=             -2.4154  XZZ=             -1.7552  YZZ=              1.2712
  YYZ=              0.5227  XYZ=              0.5129
 Hexadecapole moment (field-independent basis, Debye-Ang**3):
 XXXX=          -2661.6035 YYYY=           -634.6085 ZZZZ=           -158.8775 XXXY=            -12.8303
 XXXZ=            -10.5134 YYYX=              6.7493 YYYZ=             -0.8345 ZZZX=             -2.7598
 ZZZY=              2.1753 XXYY=           -553.2172 XXZZ=           -483.8204 YYZZ=           -128.8026
 XXYZ=             -2.7781 YYXZ=             -1.5579 ZZXY=             -8.3813
 N-N= 5.132800213450D+02 E-N=-1.931595253517D+03  KE= 3.880861312466D+02
 No NMR shielding tensors so no spin-rotation constants.
 Leave Link  601 at Tue Jul  6 11:14:16 2021, MaxMem=   524288000 cpu:               1.6 elap:               0.4
 (Enter /opt/gaussian/g16_legacy/l701.exe)
 ... and contract with generalized density number  0.
 Compute integral first derivatives.
 Leave Link  701 at Tue Jul  6 11:14:17 2021, MaxMem=   524288000 cpu:               0.8 elap:               0.3
 (Enter /opt/gaussian/g16_legacy/l702.exe)
 L702 exits ... SP integral derivatives will be done elsewhere.
 Leave Link  702 at Tue Jul  6 11:14:17 2021, MaxMem=   524288000 cpu:               0.1 elap:               0.0
 (Enter /opt/gaussian/g16_legacy/l703.exe)
 Integral derivatives from FoFJK, PRISM(SPDF).
 Compute integral first derivatives, UseDBF=F ICtDFT=           0.
 Calling FoFJK, ICntrl=      2127 FMM=F ISym2X=0 I1Cent= 0 IOpClX= 0 NMat=1 NMatS=1 NMatT=0.
 FoFJK:  IHMeth= 1 ICntrl=    2127 DoSepK=F KAlg= 0 I1Cent=           0 FoldK=F
 IRaf=         0 NMat=       1 IRICut=       1 DoRegI=T DoRafI=F ISym2E= 0 IDoP0=0 IntGTp=1.
 FoFCou: FMM=F IPFlag=           0 FMFlag=      100000 FMFlg1=         800
         NFxFlg=           0 DoJE=F BraDBF=F KetDBF=F FulRan=T
         wScrn=  0.000000 ICntrl=      2127 IOpCl=  0 I1Cent=           0 NGrid=           0
         NMat0=    1 NMatS0=      1 NMatT0=    0 NMatD0=    1 NMtDS0=    0 NMtDT0=    0
 Symmetry not used in FoFCou.
 Leave Link  703 at Tue Jul  6 11:14:25 2021, MaxMem=   524288000 cpu:              48.3 elap:               8.1
 (Enter /opt/gaussian/g16_legacy/l716.exe)
 Dipole        =-1.31187403D-01 5.05201086D-02 8.89274628D-03
 ***** Axes restored to original set *****
 -------------------------------------------------------------------
 Center     Atomic                   Forces (Hartrees/Bohr)
 Number     Number              X              Y              Z
 -------------------------------------------------------------------
      1        6          -0.008989630    0.000114696   -0.002265957
      2        1           0.001581806    0.001546476    0.002631751
      3        1           0.000192393    0.000192884    0.002668312
      4        6          -0.014361343   -0.003025484   -0.001876814
      5        6          -0.003732126   -0.000215082    0.000891253
      6        1           0.002420871    0.001305954   -0.001661485
      7        1           0.000839345   -0.001937126    0.000909189
      8        1           0.002438286    0.001195521    0.000438132
      9        6           0.013776048    0.004683590   -0.001436960
     10        1           0.001784440    0.002327885   -0.000671663
     11        6           0.001582965   -0.000808227    0.000698971
     12        1           0.000466046    0.000548134   -0.001238273
     13        1          -0.001393172   -0.001738321   -0.000827766
     14        1          -0.001554682   -0.002337188    0.001427240
     15        6          -0.004460855    0.001485701   -0.000106230
     16        1           0.002189695    0.000901020   -0.001176642
     17        1           0.002167076   -0.000224548    0.001378513
     18        1          -0.000714884   -0.001049754    0.001212065
     19        6          -0.013197466   -0.008544305    0.000583423
     20        6          -0.002969749   -0.002529102    0.000225585
     21        1           0.002421507    0.000438548   -0.001511402
     22        1           0.002875875    0.000699793    0.000684626
     23        1          -0.000883313    0.002206329   -0.000060624
     24        6           0.010434567    0.007289048    0.001889736
     25        1           0.002506190   -0.000762198   -0.001079880
     26        6           0.006967446   -0.002651683    0.002399740
     27        1          -0.002615037    0.000425045   -0.002240291
     28        1           0.000227701    0.000462394   -0.001884551
 -------------------------------------------------------------------
 Cartesian Forces:  Max     0.014361343 RMS     0.003750536
 Leave Link  716 at Tue Jul  6 11:14:25 2021, MaxMem=   524288000 cpu:               0.2 elap:               0.1
 (Enter /opt/gaussian/g16_legacy/l103.exe)

 GradGradGradGradGradGradGradGradGradGradGradGradGradGradGradGradGradGrad
 Berny optimization.
 FormGI is forming the generalized inverse of G from B-inverse, IUseBI=4.
 Internal  Forces:  Max     0.014662368 RMS     0.002418024
 Search for a local minimum.
 Step number   1 out of a maximum of  138
 All quantities printed in internal units (Hartrees-Bohrs-Radians)
 RMS Force = .24180D-02 SwitMx=.10000D-02 MixMth= 1
 Mixed Optimization -- RFO/linear search
 Second derivative matrix not updated -- first step.
 ITU=  0
     Eigenvalues ---    0.00342   0.00570   0.00668   0.00680   0.00693
     Eigenvalues ---    0.00716   0.00820   0.01219   0.01287   0.01570
     Eigenvalues ---    0.01642   0.02780   0.02785   0.04014   0.04133
     Eigenvalues ---    0.05350   0.05403   0.06982   0.07039   0.07087
     Eigenvalues ---    0.07092   0.07265   0.07300   0.07348   0.07505
     Eigenvalues ---    0.09278   0.09365   0.12769   0.12846   0.15999
     Eigenvalues ---    0.15999   0.16000   0.16000   0.16000   0.16000
     Eigenvalues ---    0.16000   0.16000   0.16000   0.16000   0.16000
     Eigenvalues ---    0.16000   0.16000   0.16000   0.21860   0.21867
     Eigenvalues ---    0.22000   0.22000   0.24993   0.24996   0.24998
     Eigenvalues ---    0.24999   0.29238   0.30870   0.31609   0.31704
     Eigenvalues ---    0.31803   0.31984   0.32807   0.33852   0.33938
     Eigenvalues ---    0.34068   0.34198   0.34219   0.34224   0.34248
     Eigenvalues ---    0.34250   0.34250   0.34258   0.34259   0.34292
     Eigenvalues ---    0.34292   0.34336   0.34544   0.34553   0.34784
     Eigenvalues ---    0.34838   0.55505   0.55590
 RFO step:  Lambda=-3.26749260D-03 EMin= 3.42425889D-03
 Linear search not attempted -- first point.
 Iteration  1 RMS(Cart)=  0.04540346 RMS(Int)=  0.00069933
 Iteration  2 RMS(Cart)=  0.00107690 RMS(Int)=  0.00016523
 Iteration  3 RMS(Cart)=  0.00000058 RMS(Int)=  0.00016523
 ITry= 1 IFail=0 DXMaxC= 1.59D-01 DCOld= 1.00D+10 DXMaxT= 3.00D-01 DXLimC= 3.00D+00 Rises=F
 Variable       Old X    -DE/DX   Delta X   Delta X   Delta X     New X
                                 (Linear)    (Quad)   (Total)
    R1        2.07581  -0.00079   0.00000  -0.00231  -0.00231   2.07350
    R2        2.07215  -0.00071   0.00000  -0.00207  -0.00207   2.07008
    R3        2.86261  -0.00205   0.00000  -0.00657  -0.00657   2.85604
    R4        2.89509   0.00288   0.00000   0.00975   0.00975   2.90484
    R5        2.84865   0.00042   0.00000   0.00132   0.00132   2.84997
    R6        2.54686  -0.01466   0.00000  -0.02626  -0.02626   2.52060
    R7        2.06840   0.00119   0.00000   0.00345   0.00345   2.07185
    R8        2.06962  -0.00167   0.00000  -0.00483  -0.00483   2.06479
    R9        2.06913   0.00047   0.00000   0.00135   0.00135   2.07048
   R10        2.05939   0.00010   0.00000   0.00027   0.00027   2.05966
   R11        2.82692   0.00425   0.00000   0.01282   0.01282   2.83974
   R12        2.06407  -0.00012   0.00000  -0.00034  -0.00034   2.06372
   R13        2.06896  -0.00011   0.00000  -0.00032  -0.00032   2.06864
   R14        2.06766   0.00097   0.00000   0.00280   0.00280   2.07046
   R15        2.06895   0.00068   0.00000   0.00196   0.00196   2.07091
   R16        2.06997  -0.00003   0.00000  -0.00007  -0.00007   2.06990
   R17        2.06421  -0.00025   0.00000  -0.00072  -0.00072   2.06349
   R18        2.84173   0.00057   0.00000   0.00178   0.00178   2.84351
   R19        2.84688   0.00054   0.00000   0.00168   0.00168   2.84856
   R20        2.54611  -0.01396   0.00000  -0.02497  -0.02497   2.52114
   R21        2.06911   0.00071   0.00000   0.00207   0.00207   2.07118
   R22        2.06910   0.00065   0.00000   0.00189   0.00189   2.07099
   R23        2.06954  -0.00178   0.00000  -0.00514  -0.00514   2.06440
   R24        2.06027   0.00013   0.00000   0.00036   0.00036   2.06063
   R25        2.84506   0.00023   0.00000   0.00072   0.00072   2.84578
   R26        2.07435  -0.00050   0.00000  -0.00146  -0.00146   2.07290
   R27        2.06840   0.00014   0.00000   0.00040   0.00040   2.06880
    A1        1.83003   0.00200   0.00000   0.02185   0.02166   1.85169
    A2        1.90128   0.00021   0.00000   0.00349   0.00348   1.90476
    A3        1.91818  -0.00284   0.00000  -0.02509  -0.02512   1.89306
    A4        1.93126  -0.00010   0.00000   0.00584   0.00585   1.93711
    A5        1.91980  -0.00188   0.00000  -0.01337  -0.01341   1.90638
    A6        1.95885   0.00254   0.00000   0.00789   0.00792   1.96677
    A7        2.00713   0.00125   0.00000   0.00524   0.00467   2.01181
    A8        2.17218  -0.00444   0.00000  -0.01716  -0.01770   2.15449
    A9        2.10366   0.00322   0.00000   0.01310   0.01253   2.11619
   A10        1.92853   0.00210   0.00000   0.01061   0.01063   1.93916
   A11        1.95929  -0.00220   0.00000  -0.00986  -0.00984   1.94945
   A12        1.92475   0.00153   0.00000   0.00800   0.00802   1.93277
   A13        1.87694   0.00050   0.00000   0.00574   0.00577   1.88270
   A14        1.89465  -0.00314   0.00000  -0.02636  -0.02635   1.86830
   A15        1.87750   0.00109   0.00000   0.01097   0.01098   1.88848
   A16        2.06931  -0.00203   0.00000  -0.01412  -0.01413   2.05518
   A17        2.22591  -0.00213   0.00000  -0.00952  -0.00953   2.21638
   A18        1.98783   0.00416   0.00000   0.02374   0.02373   2.01157
   A19        1.98083  -0.00246   0.00000  -0.01466  -0.01459   1.96623
   A20        1.91010   0.00242   0.00000   0.01555   0.01550   1.92560
   A21        1.91737   0.00366   0.00000   0.02124   0.02121   1.93859
   A22        1.87273   0.00032   0.00000   0.00411   0.00416   1.87689
   A23        1.89297  -0.00098   0.00000  -0.00729  -0.00722   1.88575
   A24        1.88724  -0.00316   0.00000  -0.02021  -0.02035   1.86689
   A25        1.89069  -0.00248   0.00000  -0.02265  -0.02263   1.86806
   A26        1.88473   0.00025   0.00000   0.00376   0.00378   1.88851
   A27        1.92158   0.00210   0.00000   0.01034   0.01035   1.93193
   A28        1.86371   0.00179   0.00000   0.01582   0.01583   1.87954
   A29        1.92093   0.00012   0.00000  -0.00037  -0.00036   1.92057
   A30        1.97932  -0.00188   0.00000  -0.00781  -0.00780   1.97152
   A31        1.99475   0.00123   0.00000   0.00488   0.00487   1.99962
   A32        2.18282  -0.00405   0.00000  -0.01595  -0.01596   2.16686
   A33        2.10557   0.00282   0.00000   0.01114   0.01113   2.11671
   A34        1.92353   0.00165   0.00000   0.00795   0.00797   1.93149
   A35        1.92494   0.00202   0.00000   0.01096   0.01098   1.93592
   A36        1.96062  -0.00235   0.00000  -0.01076  -0.01073   1.94988
   A37        1.89480  -0.00317   0.00000  -0.02660  -0.02659   1.86821
   A38        1.87882   0.00084   0.00000   0.00796   0.00798   1.88681
   A39        1.87911   0.00089   0.00000   0.00958   0.00960   1.88872
   A40        2.06742  -0.00175   0.00000  -0.01214  -0.01254   2.05488
   A41        2.22787  -0.00211   0.00000  -0.00925  -0.00966   2.21821
   A42        1.98775   0.00387   0.00000   0.02222   0.02180   2.00956
   A43        1.94440   0.00339   0.00000   0.01448   0.01453   1.95893
   A44        1.91636  -0.00350   0.00000  -0.02383  -0.02407   1.89229
   A45        1.93094  -0.00167   0.00000  -0.01724  -0.01732   1.91361
   A46        1.88220   0.00153   0.00000   0.02426   0.02439   1.90659
   A47        1.94474  -0.00134   0.00000  -0.00747  -0.00740   1.93734
   A48        1.84167   0.00146   0.00000   0.01003   0.00974   1.85141
    D1       -0.64497   0.00091   0.00000  -0.01254  -0.01225  -0.65722
    D2        2.47474   0.00192   0.00000   0.04979   0.04957   2.52430
    D3       -2.64804  -0.00155   0.00000  -0.04405  -0.04381  -2.69185
    D4        0.47167  -0.00055   0.00000   0.01829   0.01800   0.48967
    D5        1.48332  -0.00087   0.00000  -0.03667  -0.03642   1.44690
    D6       -1.68015   0.00014   0.00000   0.02567   0.02539  -1.65476
    D7       -1.04068   0.00092   0.00000   0.01827   0.01819  -1.02250
    D8       -3.12460  -0.00086   0.00000  -0.00561  -0.00550  -3.13010
    D9        1.13280   0.00042   0.00000   0.00645   0.00631   1.13912
   D10        0.96562   0.00064   0.00000   0.02273   0.02273   0.98834
   D11       -1.11830  -0.00114   0.00000  -0.00115  -0.00096  -1.11926
   D12        3.13911   0.00014   0.00000   0.01091   0.01085  -3.13322
   D13        3.12386   0.00093   0.00000   0.02607   0.02600  -3.13332
   D14        1.03995  -0.00085   0.00000   0.00218   0.00232   1.04227
   D15       -0.98583   0.00043   0.00000   0.01424   0.01413  -0.97170
   D16       -1.05671   0.00137   0.00000   0.06001   0.06034  -0.99637
   D17        3.13132   0.00076   0.00000   0.05199   0.05233  -3.09954
   D18        1.03805  -0.00022   0.00000   0.03914   0.03947   1.07752
   D19        2.10584   0.00051   0.00000   0.00075   0.00042   2.10625
   D20        0.01068  -0.00010   0.00000  -0.00726  -0.00759   0.00308
   D21       -2.08260  -0.00108   0.00000  -0.02012  -0.02045  -2.10305
   D22       -3.11651  -0.00111   0.00000  -0.05123  -0.05116   3.11552
   D23        0.04330  -0.00127   0.00000  -0.05794  -0.05781  -0.01451
   D24        0.00206  -0.00008   0.00000   0.01423   0.01410   0.01616
   D25       -3.12132  -0.00024   0.00000   0.00752   0.00746  -3.11386
   D26        0.14029  -0.00039   0.00000  -0.01635  -0.01633   0.12396
   D27        2.23153   0.00010   0.00000  -0.00980  -0.00986   2.22168
   D28       -1.98210  -0.00010   0.00000  -0.01236  -0.01226  -1.99436
   D29       -2.98381  -0.00049   0.00000  -0.02247  -0.02251  -3.00631
   D30       -0.89257  -0.00000   0.00000  -0.01593  -0.01603  -0.90860
   D31        1.17698  -0.00021   0.00000  -0.01849  -0.01843   1.15855
   D32       -1.16531   0.00095   0.00000   0.02666   0.02664  -1.13867
   D33        1.98663   0.00080   0.00000   0.01857   0.01860   2.00523
   D34        0.91771  -0.00072   0.00000   0.00494   0.00490   0.92261
   D35       -2.21354  -0.00087   0.00000  -0.00316  -0.00313  -2.21667
   D36        3.00407   0.00040   0.00000   0.01968   0.01965   3.02373
   D37       -0.12717   0.00025   0.00000   0.01159   0.01162  -0.11556
   D38        1.03975  -0.00081   0.00000  -0.01472  -0.01476   1.02499
   D39       -1.05211   0.00079   0.00000   0.00627   0.00623  -1.04588
   D40        3.13474  -0.00016   0.00000  -0.00629  -0.00633   3.12841
   D41       -2.11168  -0.00071   0.00000  -0.00719  -0.00715  -2.11884
   D42        2.07964   0.00089   0.00000   0.01380   0.01383   2.09347
   D43       -0.01669  -0.00006   0.00000   0.00123   0.00127  -0.01542
   D44        3.12159   0.00016   0.00000  -0.00358  -0.00331   3.11828
   D45       -0.03915   0.00126   0.00000   0.05315   0.05286   0.01371
   D46       -0.00904   0.00001   0.00000  -0.01211  -0.01182  -0.02086
   D47        3.11340   0.00112   0.00000   0.04462   0.04436  -3.12543
   D48        1.80928  -0.00026   0.00000  -0.02731  -0.02759   1.78169
   D49       -2.36980  -0.00153   0.00000  -0.03227  -0.03236  -2.40216
   D50       -0.35643   0.00040   0.00000  -0.01002  -0.01020  -0.36663
   D51       -1.35073   0.00075   0.00000   0.02694   0.02702  -1.32371
   D52        0.75337  -0.00052   0.00000   0.02197   0.02225   0.77562
   D53        2.76674   0.00141   0.00000   0.04422   0.04441   2.81115
         Item               Value     Threshold  Converged?
 Maximum Force            0.014662     0.002500     NO 
 RMS     Force            0.002418     0.001667     NO 
 Maximum Displacement     0.159030     0.010000     NO 
 RMS     Displacement     0.045492     0.006667     NO 
 Predicted change in Energy=-1.713517D-03
 Lowest energy point so far.  Saving SCF results.
 GradGradGradGradGradGradGradGradGradGradGradGradGradGradGradGradGradGrad

 Leave Link  103 at Tue Jul  6 11:14:25 2021, MaxMem=   524288000 cpu:               0.6 elap:               0.1
 (Enter /opt/gaussian/g16_legacy/l202.exe)
                          Input orientation:                          
 ---------------------------------------------------------------------
 Center     Atomic      Atomic             Coordinates (Angstroms)
 Number     Number       Type             X           Y           Z
[...]
                 (A) (A) (A) (A) (A) (A) (A) (A) (A) (A) (A) (A)
                 (A) (A) (A) (A) (A) (A) (A) (A) (A) (A) (A) (A)
                 (A) (A) (A) (A) (A) (A) (A) (A) (A) (A) (A) (A)
                 (A) (A) (A) (A) (A) (A) (A) (A) (A) (A) (A) (A)
                 (A) (A) (A) (A) (A) (A) (A) (A) (A) (A) (A) (A)
                 (A) (A) (A) (A) (A) (A) (A) (A) (A) (A) (A) (A)
                 (A) (A) (A) (A) (A) (A) (A) (A) (A) (A) (A) (A)
                 (A) (A) (A) (A) (A) (A) (A) (A) (A) (A) (A) (A)
                 (A) (A) (A) (A) (A) (A) (A) (A) (A) (A) (A) (A)
                 (A) (A) (A) (A) (A) (A) (A) (A) (A) (A) (A) (A)
                 (A) (A) (A) (A) (A) (A) (A) (A) (A) (A) (A) (A)
                 (A) (A) (A) (A) (A) (A) (A) (A) (A) (A) (A) (A)
                 (A) (A) (A) (A) (A) (A) (A) (A) (A)
 The electronic state is 1-A.
 Alpha  occ. eigenvalues --  -10.54543 -10.54031 -10.53909 -10.53756 -10.53600
 Alpha  occ. eigenvalues --  -10.53403 -10.53353 -10.53348 -10.53194 -10.53045
 Alpha  occ. eigenvalues --   -0.92194  -0.90138  -0.84460  -0.81586  -0.77904
 Alpha  occ. eigenvalues --   -0.76182  -0.71939  -0.68655  -0.58599  -0.57921
 Alpha  occ. eigenvalues --   -0.54500  -0.51552  -0.50932  -0.49608  -0.48994
 Alpha  occ. eigenvalues --   -0.47692  -0.46289  -0.45528  -0.44399  -0.43480
 Alpha  occ. eigenvalues --   -0.43175  -0.42592  -0.41789  -0.41308  -0.39017
 Alpha  occ. eigenvalues --   -0.38360  -0.36243  -0.28918  -0.27196
 Alpha virt. eigenvalues --    0.06486   0.08351   0.11743   0.14530   0.15312
 Alpha virt. eigenvalues --    0.17087   0.18271   0.18533   0.19658   0.20455
 Alpha virt. eigenvalues --    0.21088   0.22225   0.22294   0.23156   0.23507
 Alpha virt. eigenvalues --    0.24582   0.25121   0.25783   0.27507   0.27596
 Alpha virt. eigenvalues --    0.28382   0.28887   0.29544   0.30776   0.32057
 Alpha virt. eigenvalues --    0.39119   0.40264   0.46528   0.48606   0.53720
 Alpha virt. eigenvalues --    0.55689   0.55796   0.58127   0.59018   0.59474
 Alpha virt. eigenvalues --    0.60184   0.61826   0.62380   0.63592   0.65582
 Alpha virt. eigenvalues --    0.66235   0.68601   0.71350   0.72468   0.73427
 Alpha virt. eigenvalues --    0.74429   0.75505   0.77481   0.78648   0.78984
 Alpha virt. eigenvalues --    0.80357   0.82388   0.82926   0.84784   0.86486
 Alpha virt. eigenvalues --    0.87306   0.88601   0.89257   0.91441   0.92538
 Alpha virt. eigenvalues --    0.93535   0.94489   0.94956   0.95814   0.96231
 Alpha virt. eigenvalues --    0.96335   0.96602   0.98407   0.99309   1.00314
 Alpha virt. eigenvalues --    1.01586   1.03239   1.04743   1.06515   1.07976
 Alpha virt. eigenvalues --    1.09715   1.20371   1.21494   1.24484   1.25802
 Alpha virt. eigenvalues --    1.27702   1.33762   1.35453   1.37116   1.37859
 Alpha virt. eigenvalues --    1.40176   1.41905   1.43968   1.46888   1.48964
 Alpha virt. eigenvalues --    1.51442   1.60822   1.68439   1.69153   1.74262
 Alpha virt. eigenvalues --    1.74632   1.78282   1.78760   1.80615   1.83455
 Alpha virt. eigenvalues --    1.84707   1.84954   1.86745   1.87988   1.89373
 Alpha virt. eigenvalues --    1.90475   1.92639   1.93945   1.97834   2.02605
 Alpha virt. eigenvalues --    2.03419   2.04144   2.06142   2.09524   2.09918
 Alpha virt. eigenvalues --    2.10161   2.10221   2.12443   2.13158   2.13740
 Alpha virt. eigenvalues --    2.15214   2.16364   2.16906   2.17477   2.18856
 Alpha virt. eigenvalues --    2.20061   2.21904   2.22723   2.23006   2.26124
 Alpha virt. eigenvalues --    2.28153   2.31647   2.32744   2.34628   2.35363
 Alpha virt. eigenvalues --    2.38696   2.39417   2.43026   2.43924   2.45364
 Alpha virt. eigenvalues --    2.46309   2.47906   2.50024   2.52988   2.53464
 Alpha virt. eigenvalues --    2.56451   2.60321   2.61668   2.62980   2.63918
 Alpha virt. eigenvalues --    2.66377   2.67905   2.69959   2.71338   2.72903
 Alpha virt. eigenvalues --    2.74528   2.75507   2.76942   2.79958   2.84049
 Alpha virt. eigenvalues --    2.84402   2.86252   2.86908   2.87223   2.89083
 Alpha virt. eigenvalues --    2.90602   2.92144   2.92519   2.94270   3.02934
 Alpha virt. eigenvalues --    3.04686   3.09869   3.10669   3.17216   3.19432
 Alpha virt. eigenvalues --    3.20395   3.23636   3.29555   3.35404   3.39856
 Alpha virt. eigenvalues --    3.40595   3.42033   3.43641   3.44043   3.44673
 Alpha virt. eigenvalues --    3.45022   3.46911   3.48697   3.49277   3.51797
 Alpha virt. eigenvalues --    3.58337   4.19696   4.23054   4.34482   4.41869
 Alpha virt. eigenvalues --    4.48849   4.52211   4.53168   4.66111   4.70284
 Alpha virt. eigenvalues --    4.77020
          Condensed to atoms (all electrons):
               1          2          3          4          5          6
     1  C    5.044188   0.387933   0.382626   0.355898  -0.068005   0.000371
     2  H    0.387933   0.612850  -0.032972  -0.038311  -0.006015  -0.000603
     3  H    0.382626  -0.032972   0.598889  -0.028674   0.004464   0.000040
     4  C    0.355898  -0.038311  -0.028674   4.757252   0.371875  -0.038925
     5  C   -0.068005  -0.006015   0.004464   0.371875   4.998361   0.381312
     6  H    0.000371  -0.000603   0.000040  -0.038925   0.381312   0.598554
     7  H    0.004666   0.000169  -0.000174  -0.034630   0.386349  -0.027092
     8  H   -0.004105   0.003801   0.000033  -0.031831   0.379448  -0.036801
     9  C   -0.050874   0.004030  -0.007457   0.718835  -0.042830  -0.000917
    10  H    0.006061  -0.000178  -0.000019  -0.031690  -0.013795   0.000176
    11  C   -0.013997   0.000301   0.000104  -0.044380   0.006121  -0.000165
    12  H    0.003269  -0.000076   0.002457  -0.008810   0.000101  -0.000003
    13  H    0.000485  -0.000014  -0.000176  -0.000450  -0.000145   0.000020
    14  H    0.000107   0.000014   0.000174   0.000236  -0.000139  -0.000004
    15  C   -0.000461   0.001076   0.000038  -0.000055  -0.000079  -0.000169
    16  H   -0.000022   0.000037  -0.000001   0.000004  -0.000001  -0.000000
    17  H    0.000161  -0.000108  -0.000003  -0.000012   0.000004  -0.000004
    18  H   -0.000339   0.000729  -0.000006  -0.000248   0.000304   0.001050
    19  C   -0.005872   0.002588  -0.000021   0.000152   0.000005   0.000033
    20  C   -0.000078  -0.000118   0.000001   0.000002  -0.000000  -0.000000
    21  H   -0.000006   0.000003   0.000000   0.000000  -0.000000   0.000000
    22  H    0.000022  -0.000004  -0.000003  -0.000000   0.000000   0.000000
    23  H   -0.000001  -0.000001   0.000002   0.000000  -0.000000  -0.000000
    24  C   -0.051871  -0.001885  -0.001207   0.006214  -0.000064  -0.000216
    25  H    0.000660  -0.000097   0.001657  -0.000093  -0.000001   0.000001
    26  C    0.350805  -0.044559  -0.039109  -0.044976  -0.002688   0.000982
    27  H   -0.041246   0.005807  -0.006216  -0.003492  -0.000011   0.000006
    28  H   -0.043771  -0.005163   0.005848  -0.002279   0.001412   0.001924
               7          8          9         10         11         12
     1  C    0.004666  -0.004105  -0.050874   0.006061  -0.013997   0.003269
     2  H    0.000169   0.003801   0.004030  -0.000178   0.000301  -0.000076
     3  H   -0.000174   0.000033  -0.007457  -0.000019   0.000104   0.002457
     4  C   -0.034630  -0.031831   0.718835  -0.031690  -0.044380  -0.008810
     5  C    0.386349   0.379448  -0.042830  -0.013795   0.006121   0.000101
     6  H   -0.027092  -0.036801  -0.000917   0.000176  -0.000165  -0.000003
     7  H    0.572231  -0.026716  -0.005314   0.006475   0.000075   0.000008
     8  H   -0.026716   0.587404  -0.000667   0.000314  -0.000162   0.000001
     9  C   -0.005314  -0.000667   4.889982   0.376641   0.362376  -0.035228
    10  H    0.006475   0.000314   0.376641   0.612830  -0.053710   0.004463
    11  C    0.000075  -0.000162   0.362376  -0.053710   4.974913   0.389770
    12  H    0.000008   0.000001  -0.035228   0.004463   0.389770   0.581512
    13  H   -0.000005  -0.000005  -0.032769  -0.001382   0.385449  -0.028901
    14  H   -0.000007   0.000020  -0.033304  -0.001569   0.385637  -0.028065
    15  C    0.000002  -0.000007  -0.000001  -0.000000  -0.000000  -0.000000
    16  H    0.000000   0.000000   0.000000   0.000000   0.000000   0.000000
    17  H   -0.000000   0.000000   0.000000  -0.000000   0.000000  -0.000000
    18  H   -0.000004   0.000012  -0.000003   0.000000  -0.000000  -0.000000
    19  C   -0.000000  -0.000003  -0.000003   0.000000  -0.000000   0.000001
    20  C    0.000000   0.000000  -0.000000   0.000000   0.000000  -0.000000
    21  H    0.000000   0.000000   0.000000   0.000000  -0.000000   0.000000
    22  H   -0.000000  -0.000000   0.000000  -0.000000   0.000000  -0.000000
    23  H   -0.000000  -0.000000   0.000000  -0.000000   0.000000  -0.000000
    24  C    0.000002   0.000020   0.000161   0.000004  -0.000060   0.000060
    25  H   -0.000000   0.000000   0.000000  -0.000000   0.000004   0.000015
    26  C   -0.000058  -0.000031  -0.004572  -0.000104  -0.000164  -0.000648
    27  H    0.000005   0.000002   0.002503  -0.000067   0.001001   0.000649
    28  H   -0.000145   0.000027  -0.000012  -0.000008   0.000028  -0.000006
              13         14         15         16         17         18
     1  C    0.000485   0.000107  -0.000461  -0.000022   0.000161  -0.000339
     2  H   -0.000014   0.000014   0.001076   0.000037  -0.000108   0.000729
     3  H   -0.000176   0.000174   0.000038  -0.000001  -0.000003  -0.000006
     4  C   -0.000450   0.000236  -0.000055   0.000004  -0.000012  -0.000248
     5  C   -0.000145  -0.000139  -0.000079  -0.000001   0.000004   0.000304
     6  H    0.000020  -0.000004  -0.000169  -0.000000  -0.000004   0.001050
     7  H   -0.000005  -0.000007   0.000002   0.000000  -0.000000  -0.000004
     8  H   -0.000005   0.000020  -0.000007   0.000000   0.000000   0.000012
     9  C   -0.032769  -0.033304  -0.000001   0.000000   0.000000  -0.000003
    10  H   -0.001382  -0.001569  -0.000000   0.000000  -0.000000   0.000000
    11  C    0.385449   0.385637  -0.000000   0.000000   0.000000  -0.000000
    12  H   -0.028901  -0.028065  -0.000000   0.000000  -0.000000  -0.000000
    13  H    0.578963  -0.033674  -0.000000  -0.000000   0.000000   0.000000
    14  H   -0.033674   0.578191   0.000000   0.000000  -0.000000  -0.000000
    15  C   -0.000000   0.000000   5.004457   0.383736   0.383782   0.382287
    16  H   -0.000000   0.000000   0.383736   0.581641  -0.034310  -0.027302
    17  H    0.000000  -0.000000   0.383782  -0.034310   0.582731  -0.028165
    18  H    0.000000  -0.000000   0.382287  -0.027302  -0.028165   0.581184
    19  C    0.000000   0.000000   0.379185  -0.035613  -0.034980  -0.026821
    20  C   -0.000000  -0.000000  -0.078032  -0.002685  -0.002703   0.004886
    21  H   -0.000000   0.000000  -0.001098   0.004039  -0.000760  -0.000025
    22  H    0.000000  -0.000000  -0.001686  -0.000753   0.004029  -0.000038
    23  H    0.000000  -0.000000   0.004739  -0.000038  -0.000016  -0.000172
    24  C   -0.000009   0.000002  -0.055273   0.000854   0.000393  -0.010585
    25  H    0.000000  -0.000000   0.006424  -0.000153  -0.000169   0.000035
    26  C    0.000108  -0.000010  -0.013596   0.000004   0.000521   0.003174
    27  H   -0.000040   0.000017   0.000363   0.000011  -0.000013  -0.000030
    28  H    0.000003  -0.000001   0.000388   0.000240  -0.000201   0.001623
              19         20         21         22         23         24
     1  C   -0.005872  -0.000078  -0.000006   0.000022  -0.000001  -0.051871
     2  H    0.002588  -0.000118   0.000003  -0.000004  -0.000001  -0.001885
     3  H   -0.000021   0.000001   0.000000  -0.000003   0.000002  -0.001207
     4  C    0.000152   0.000002   0.000000  -0.000000   0.000000   0.006214
     5  C    0.000005  -0.000000  -0.000000   0.000000  -0.000000  -0.000064
     6  H    0.000033  -0.000000   0.000000   0.000000  -0.000000  -0.000216
     7  H   -0.000000   0.000000   0.000000  -0.000000  -0.000000   0.000002
     8  H   -0.000003   0.000000   0.000000  -0.000000  -0.000000   0.000020
     9  C   -0.000003  -0.000000   0.000000   0.000000   0.000000   0.000161
    10  H    0.000000   0.000000   0.000000  -0.000000  -0.000000   0.000004
    11  C   -0.000000   0.000000  -0.000000   0.000000   0.000000  -0.000060
    12  H    0.000001  -0.000000   0.000000  -0.000000  -0.000000   0.000060
    13  H    0.000000  -0.000000  -0.000000   0.000000   0.000000  -0.000009
    14  H    0.000000  -0.000000   0.000000  -0.000000  -0.000000   0.000002
    15  C    0.379185  -0.078032  -0.001098  -0.001686   0.004739  -0.055273
    16  H   -0.035613  -0.002685   0.004039  -0.000753  -0.000038   0.000854
    17  H   -0.034980  -0.002703  -0.000760   0.004029  -0.000016   0.000393
    18  H   -0.026821   0.004886  -0.000025  -0.000038  -0.000172  -0.010585
    19  C    4.721091   0.369126  -0.036003  -0.035850  -0.033350   0.717770
    20  C    0.369126   5.004572   0.381532   0.381121   0.385045  -0.038522
    21  H   -0.036003   0.381532   0.590437  -0.036785  -0.026272  -0.001398
    22  H   -0.035850   0.381121  -0.036785   0.591020  -0.026440  -0.000614
    23  H   -0.033350   0.385045  -0.026272  -0.026440   0.569813  -0.004969
    24  C    0.717770  -0.038522  -0.001398  -0.000614  -0.004969   4.923734
    25  H   -0.034124  -0.013984   0.000239   0.000232   0.006454   0.377799
    26  C   -0.040436   0.005754  -0.000205  -0.000104   0.000100   0.347804
    27  H    0.003296  -0.000162   0.000007  -0.000000  -0.000010  -0.028157
    28  H   -0.007572   0.000016   0.000017  -0.000009   0.000010  -0.037001
              25         26         27         28
     1  C    0.000660   0.350805  -0.041246  -0.043771
     2  H   -0.000097  -0.044559   0.005807  -0.005163
     3  H    0.001657  -0.039109  -0.006216   0.005848
     4  C   -0.000093  -0.044976  -0.003492  -0.002279
     5  C   -0.000001  -0.002688  -0.000011   0.001412
     6  H    0.000001   0.000982   0.000006   0.001924
     7  H   -0.000000  -0.000058   0.000005  -0.000145
     8  H    0.000000  -0.000031   0.000002   0.000027
     9  C    0.000000  -0.004572   0.002503  -0.000012
    10  H   -0.000000  -0.000104  -0.000067  -0.000008
    11  C    0.000004  -0.000164   0.001001   0.000028
    12  H    0.000015  -0.000648   0.000649  -0.000006
    13  H    0.000000   0.000108  -0.000040   0.000003
    14  H   -0.000000  -0.000010   0.000017  -0.000001
    15  C    0.006424  -0.013596   0.000363   0.000388
    16  H   -0.000153   0.000004   0.000011   0.000240
    17  H   -0.000169   0.000521  -0.000013  -0.000201
    18  H    0.000035   0.003174  -0.000030   0.001623
    19  C   -0.034124  -0.040436   0.003296  -0.007572
    20  C   -0.013984   0.005754  -0.000162   0.000016
    21  H    0.000239  -0.000205   0.000007   0.000017
    22  H    0.000232  -0.000104  -0.000000  -0.000009
    23  H    0.006454   0.000100  -0.000010   0.000010
    24  C    0.377799   0.347804  -0.028157  -0.037001
    25  H    0.610170  -0.049732  -0.005711   0.004397
    26  C   -0.049732   4.998634   0.386422   0.391922
    27  H   -0.005711   0.386422   0.599705  -0.033542
    28  H    0.004397   0.391922  -0.033542   0.606249
 Mulliken charges:
               1
     1  C   -0.256606
     2  H    0.110768
     3  H    0.119704
     4  C    0.098387
     5  C   -0.395982
     6  H    0.120432
     7  H    0.124164
     8  H    0.129245
     9  C   -0.140580
    10  H    0.095557
    11  C   -0.393138
    12  H    0.119431
    13  H    0.132544
    14  H    0.132377
    15  C   -0.396021
    16  H    0.130309
    17  H    0.129822
    18  H    0.118455
    19  C    0.097401
    20  C   -0.395771
    21  H    0.126277
    22  H    0.125862
    23  H    0.125105
    24  C   -0.142986
    25  H    0.095976
    26  C   -0.245238
    27  H    0.118901
    28  H    0.115603
 Sum of Mulliken charges =  -0.00000
 Mulliken charges with hydrogens summed into heavy atoms:
               1
     1  C   -0.026134
     4  C    0.098387
     5  C   -0.022141
     9  C   -0.045022
    11  C   -0.008785
    15  C   -0.017435
    19  C    0.097401
    20  C   -0.018528
    24  C   -0.047010
    26  C   -0.010734
 Electronic spatial extent (au):  <R**2>=           2433.2379
 Charge=             -0.0000 electrons
 Dipole moment (field-independent basis, Debye):
    X=             -0.3315    Y=              0.1538    Z=              0.0702  Tot=              0.3721
 Quadrupole moment (field-independent basis, Debye-Ang):
   XX=            -62.3628   YY=            -62.6717   ZZ=            -66.4996
   XY=             -1.2690   XZ=             -1.2305   YZ=             -0.2300
 Traceless Quadrupole moment (field-independent basis, Debye-Ang):
   XX=              1.4819   YY=              1.1730   ZZ=             -2.6549
   XY=             -1.2690   XZ=             -1.2305   YZ=             -0.2300
 Octapole moment (field-independent basis, Debye-Ang**2):
  XXX=             -2.9213  YYY=             -2.9855  ZZZ=              1.2641  XYY=              1.0458
  XXY=              0.6158  XXZ=             -1.7597  XZZ=             -1.3301  YZZ=              1.4039
  YYZ=              0.3517  XYZ=              0.1899
 Hexadecapole moment (field-independent basis, Debye-Ang**3):
 XXXX=          -2506.6514 YYYY=           -636.8158 ZZZZ=           -161.4653 XXXY=            -15.5062
 XXXZ=            -11.2656 YYYX=              7.0494 YYYZ=              0.8934 ZZZX=             -4.7853
 ZZZY=              1.6582 XXYY=           -524.1545 XXZZ=           -461.3656 YYZZ=           -129.5260
 XXYZ=             -5.5859 YYXZ=             -1.6401 ZZXY=             -8.4552
 N-N= 5.184433425816D+02 E-N=-1.941943300545D+03  KE= 3.881378537223D+02
 No NMR shielding tensors so no spin-rotation constants.
 Leave Link  601 at Tue Jul  6 11:25:45 2021, MaxMem=   524288000 cpu:               0.7 elap:               0.1
 (Enter /opt/gaussian/g16_legacy/l9999.exe)
 1\1\GINC-TRUENO95\FOpt\RM062X\6-31G(d,p)\C10H18\JRAMOS\06-Jul-2021\0\\
 #p opt=loose m062x/6-31g(d,p)\\Conformer number 341. Energy MM = 23.28
 7 kcal/mol\\0,1\C,-0.7024599806,-0.1443868842,-0.4382124307\H,0.001948
 7322,0.2360243081,-1.1883996188\H,-0.9465028117,-1.1681114099,-0.73899
 51189\C,-1.9320873749,0.7336951481,-0.4065255844\C,-1.6908819923,2.177
 1199546,-0.7626119297\H,-0.8947699507,2.6047916835,-0.1404321772\H,-2.
 588713236,2.7849915891,-0.6301022506\H,-1.3600794258,2.2708141489,-1.8
 033979434\C,-3.142248781,0.3001699821,-0.0413545572\H,-3.9560718105,1.
 0251082023,-0.0237634056\C,-3.5137135744,-1.0954177255,0.3663827484\H,
 -2.6645886447,-1.7809286624,0.3343511699\H,-3.9108662341,-1.1063691384
 ,1.3872568852\H,-4.2990050169,-1.498640249,-0.2820759259\C,2.768356292
 7,0.8807156326,0.0964350018\H,3.5187958496,1.3378566422,0.7518217772\H
 ,3.1841484665,0.8999343743,-0.9176105858\H,1.8771162148,1.5105734629,0
 .104921665\C,2.4910209449,-0.5385174561,0.5168120861\C,3.6897838167,-1
 .4485178493,0.4863278831\H,4.4808900664,-1.071658731,1.1451960529\H,4.
 1172045547,-1.4976445391,-0.521996855\H,3.435300102,-2.4627620769,0.80
 14647786\C,1.2860865542,-0.9831972313,0.887247284\H,1.194220344,-2.037
 452634,1.1475653211\C,0.0151772458,-0.1775247568,0.9274292063\H,-0.671
 7705242,-0.6009362429,1.6683321418\H,0.2135101733,0.850170458,1.251634
 3818\\Version=EM64L-G16RevA.03\State=1-A\HF=-391.6902064\RMSD=4.652e-0
 9\RMSF=1.827e-05\Dipole=0.1399773,0.026862,-0.0334485\Quadrupole=1.483
 5019,0.4785215,-1.9620234,0.5271217,-0.9762636,-0.5666159\PG=C01 [X(C1
 0H18)]\\@


 A people that values its privileges above its principles soon loses both.
 -- Dwight D. Eisenhower
 Job cpu time:       0 days  1 hours 13 minutes 23.2 seconds.
 Elapsed time:       0 days  0 hours 12 minutes 18.1 seconds.
 File lengths (MBytes):  RWF=     42 Int=      0 D2E=      0 Chk=      6 Scr=      1
 Normal termination of Gaussian 16 at Tue Jul  6 11:25:46 2021.
