 Entering Gaussian System, Link 0=/opt/gaussian/g16_legacy/g16
 Input=IsoP_rdkit_03_408_gaussian.com
 Output=IsoP_rdkit_03_408_gaussian.log
 Initial command:
 /opt/gaussian/g16_legacy/l1.exe "/scratch-local/jramos/2641338/Gau-26988.inp" -scrdir="/scratch-local/jramos/2641338/"
 Entering Link 1 = /opt/gaussian/g16_legacy/l1.exe PID=     26989.
  
 Copyright (c) 1988,1990,1992,1993,1995,1998,2003,2009,2016,
            Gaussian, Inc.  All Rights Reserved.
  
 This is part of the Gaussian(R) 16 program.  It is based on
 the Gaussian(R) 09 system (copyright 2009, Gaussian, Inc.),
 the Gaussian(R) 03 system (copyright 2003, Gaussian, Inc.),
 the Gaussian(R) 98 system (copyright 1998, Gaussian, Inc.),
 the Gaussian(R) 94 system (copyright 1995, Gaussian, Inc.),
 the Gaussian 92(TM) system (copyright 1992, Gaussian, Inc.),
 the Gaussian 90(TM) system (copyright 1990, Gaussian, Inc.),
 the Gaussian 88(TM) system (copyright 1988, Gaussian, Inc.),
 the Gaussian 86(TM) system (copyright 1986, Carnegie Mellon
 University), and the Gaussian 82(TM) system (copyright 1983,
 Carnegie Mellon University). Gaussian is a federally registered
 trademark of Gaussian, Inc.
  
 This software contains proprietary and confidential information,
 including trade secrets, belonging to Gaussian, Inc.
  
 This software is provided under written license and may be
 used, copied, transmitted, or stored only in accord with that
 written license.
  
 The following legend is applicable only to US Government
 contracts under FAR:
  
                    RESTRICTED RIGHTS LEGEND
  
 Use, reproduction and disclosure by the US Government is
 subject to restrictions as set forth in subparagraphs (a)
 and (c) of the Commercial Computer Software - Restricted
 Rights clause in FAR 52.227-19.
  
 Gaussian, Inc.
 340 Quinnipiac St., Bldg. 40, Wallingford CT 06492
  
  
 ---------------------------------------------------------------
 Warning -- This program may not be used in any manner that
 competes with the business of Gaussian, Inc. or will provide
 assistance to any competitor of Gaussian, Inc.  The licensee
 of this program is prohibited from giving any competitor of
 Gaussian, Inc. access to this program.  By using this program,
 the user acknowledges that Gaussian, Inc. is engaged in the
 business of creating and licensing software in the field of
 computational chemistry and represents and warrants to the
 licensee that it is not a competitor of Gaussian, Inc. and that
 it will not use this program in any manner prohibited above.
 ---------------------------------------------------------------
  

 Cite this work as:
 Gaussian 16, Revision A.03,
 M. J. Frisch, G. W. Trucks, H. B. Schlegel, G. E. Scuseria, 
 M. A. Robb, J. R. Cheeseman, G. Scalmani, V. Barone, 
 G. A. Petersson, H. Nakatsuji, X. Li, M. Caricato, A. V. Marenich, 
 J. Bloino, B. G. Janesko, R. Gomperts, B. Mennucci, H. P. Hratchian, 
 J. V. Ortiz, A. F. Izmaylov, J. L. Sonnenberg, D. Williams-Young, 
 F. Ding, F. Lipparini, F. Egidi, J. Goings, B. Peng, A. Petrone, 
 T. Henderson, D. Ranasinghe, V. G. Zakrzewski, J. Gao, N. Rega, 
 G. Zheng, W. Liang, M. Hada, M. Ehara, K. Toyota, R. Fukuda, 
 J. Hasegawa, M. Ishida, T. Nakajima, Y. Honda, O. Kitao, H. Nakai, 
 T. Vreven, K. Throssell, J. A. Montgomery, Jr., J. E. Peralta, 
 F. Ogliaro, M. J. Bearpark, J. J. Heyd, E. N. Brothers, K. N. Kudin, 
 V. N. Staroverov, T. A. Keith, R. Kobayashi, J. Normand, 
 K. Raghavachari, A. P. Rendell, J. C. Burant, S. S. Iyengar, 
 J. Tomasi, M. Cossi, J. M. Millam, M. Klene, C. Adamo, R. Cammi, 
 J. W. Ochterski, R. L. Martin, K. Morokuma, O. Farkas, 
 J. B. Foresman, and D. J. Fox, Gaussian, Inc., Wallingford CT, 2016.
 
 ******************************************
 Gaussian 16:  EM64L-G16RevA.03 25-Dec-2016
                 6-Jul-2021 
 ******************************************
 %chk=IsoP_rdkit_03_408_gaussian.chk
 %nproc=6
 Will use up to    6 processors via shared memory.
 %mem=4000Mb
 -----------------------------
 #p opt=loose m062x/6-31g(d,p)
 -----------------------------
 1/7=-1,18=20,19=15,26=3,38=1/1,3;
 2/9=110,12=2,17=6,18=5,40=1/2;
 3/5=1,6=6,7=101,11=2,25=1,30=1,71=1,74=-55/1,2,3;
 4//1;
 5/5=2,38=5/2;
 6/7=2,8=2,9=2,10=2,28=1/1;
 7//1,2,3,16;
 1/7=-1,18=20,19=15,26=3/3(2);
 2/9=110/2;
 99//99;
 2/9=110/2;
 3/5=1,6=6,7=101,11=2,25=1,30=1,71=1,74=-55/1,2,3;
 4/5=5,16=3,69=1/1;
 5/5=2,38=5/2;
 7//1,2,3,16;
 1/7=-1,18=20,19=15,26=3/3(-5);
 2/9=110/2;
 6/7=2,8=2,9=2,10=2,19=2,28=1/1;
 99/9=1/99;
 Leave Link    1 at Tue Jul  6 11:25:47 2021, MaxMem=   524288000 cpu:               0.2 elap:               0.1
 (Enter /opt/gaussian/g16_legacy/l101.exe)
 -------------------------------------------------
 Conformer number 408. Energy MM = 23.959 kcal/mol
 -------------------------------------------------
 Symbolic Z-matrix:
 Charge =  0 Multiplicity = 1
 C                    -1.1213   -1.2193   -0.6162 
 H                    -1.9876   -1.8427   -0.3606 
 H                    -0.8582   -1.5165   -1.64 
 C                    -1.5353    0.2393   -0.5984 
 C                    -0.9516    1.0904   -1.6969 
 H                    -1.3067    2.1255   -1.6514 
 H                    -1.233     0.6893   -2.6762 
 H                     0.1396    1.1157   -1.6327 
 C                    -2.3929    0.7724    0.2948 
 H                    -2.6418    1.8299    0.2111 
 C                    -3.0631    0.0792    1.4383 
 H                    -2.7648   -0.9657    1.5495 
 H                    -2.8199    0.5951    2.3726 
 H                    -4.1487    0.1104    1.3041 
 C                     3.4629    0.2686   -0.1623 
 H                     4.248     0.1435    0.5906 
 H                     3.4686    1.3094   -0.5024 
 H                     3.7214   -0.3622   -1.0193 
 C                     2.1198   -0.0821    0.4227 
 C                     1.7243    0.7578    1.6058 
 H                     2.409     0.5765    2.4408 
 H                     1.7738    1.8204    1.3444 
 H                     0.7092    0.5657    1.9591 
 C                     1.3704   -1.0622   -0.1192 
 H                     1.7603   -1.5887   -0.9904 
 C                     0.0275   -1.563     0.3433 
 H                     0.1006   -2.6566    0.4086 
 H                    -0.2102   -1.23      1.3578 
 
 ITRead=  0  0  0  0  0  0  0  0  0  0  0  0  0  0  0  0  0  0  0  0
 ITRead=  0  0  0  0  0  0  0  0
 MicOpt= -1 -1 -1 -1 -1 -1 -1 -1 -1 -1 -1 -1 -1 -1 -1 -1 -1 -1 -1 -1
 MicOpt= -1 -1 -1 -1 -1 -1 -1 -1
 NAtoms=     28 NQM=       28 NQMF=       0 NMMI=      0 NMMIF=      0
                NMic=       0 NMicF=      0.
                    Isotopes and Nuclear Properties:
 (Nuclear quadrupole moments (NQMom) in fm**2, nuclear magnetic moments (NMagM)
  in nuclear magnetons)

  Atom         1           2           3           4           5           6           7           8           9          10
 IAtWgt=          12           1           1          12          12           1           1           1          12           1
 AtmWgt=  12.0000000   1.0078250   1.0078250  12.0000000  12.0000000   1.0078250   1.0078250   1.0078250  12.0000000   1.0078250
 NucSpn=           0           1           1           0           0           1           1           1           0           1
 AtZEff=  -0.0000000  -0.0000000  -0.0000000  -0.0000000  -0.0000000  -0.0000000  -0.0000000  -0.0000000  -0.0000000  -0.0000000
 NQMom=    0.0000000   0.0000000   0.0000000   0.0000000   0.0000000   0.0000000   0.0000000   0.0000000   0.0000000   0.0000000
 NMagM=    0.0000000   2.7928460   2.7928460   0.0000000   0.0000000   2.7928460   2.7928460   2.7928460   0.0000000   2.7928460
 AtZNuc=   6.0000000   1.0000000   1.0000000   6.0000000   6.0000000   1.0000000   1.0000000   1.0000000   6.0000000   1.0000000

  Atom        11          12          13          14          15          16          17          18          19          20
 IAtWgt=          12           1           1           1          12           1           1           1          12          12
 AtmWgt=  12.0000000   1.0078250   1.0078250   1.0078250  12.0000000   1.0078250   1.0078250   1.0078250  12.0000000  12.0000000
 NucSpn=           0           1           1           1           0           1           1           1           0           0
 AtZEff=  -0.0000000  -0.0000000  -0.0000000  -0.0000000  -0.0000000  -0.0000000  -0.0000000  -0.0000000  -0.0000000  -0.0000000
 NQMom=    0.0000000   0.0000000   0.0000000   0.0000000   0.0000000   0.0000000   0.0000000   0.0000000   0.0000000   0.0000000
 NMagM=    0.0000000   2.7928460   2.7928460   2.7928460   0.0000000   2.7928460   2.7928460   2.7928460   0.0000000   0.0000000
 AtZNuc=   6.0000000   1.0000000   1.0000000   1.0000000   6.0000000   1.0000000   1.0000000   1.0000000   6.0000000   6.0000000

  Atom        21          22          23          24          25          26          27          28
 IAtWgt=           1           1           1          12           1          12           1           1
 AtmWgt=   1.0078250   1.0078250   1.0078250  12.0000000   1.0078250  12.0000000   1.0078250   1.0078250
 NucSpn=           1           1           1           0           1           0           1           1
 AtZEff=  -0.0000000  -0.0000000  -0.0000000  -0.0000000  -0.0000000  -0.0000000  -0.0000000  -0.0000000
 NQMom=    0.0000000   0.0000000   0.0000000   0.0000000   0.0000000   0.0000000   0.0000000   0.0000000
 NMagM=    2.7928460   2.7928460   2.7928460   0.0000000   2.7928460   0.0000000   2.7928460   2.7928460
 AtZNuc=   1.0000000   1.0000000   1.0000000   6.0000000   1.0000000   6.0000000   1.0000000   1.0000000
 Leave Link  101 at Tue Jul  6 11:25:48 2021, MaxMem=   524288000 cpu:               0.7 elap:               0.1
 (Enter /opt/gaussian/g16_legacy/l103.exe)

 GradGradGradGradGradGradGradGradGradGradGradGradGradGradGradGradGradGrad
 Berny optimization.
 Initialization pass.
                           ----------------------------
                           !    Initial Parameters    !
                           ! (Angstroms and Degrees)  !
 --------------------------                            --------------------------
 ! Name  Definition              Value          Derivative Info.                !
 --------------------------------------------------------------------------------
 ! R1    R(1,2)                  1.0975         estimate D2E/DX2                !
 ! R2    R(1,3)                  1.0981         estimate D2E/DX2                !
 ! R3    R(1,4)                  1.5163         estimate D2E/DX2                !
 ! R4    R(1,26)                 1.5357         estimate D2E/DX2                !
 ! R5    R(4,5)                  1.5072         estimate D2E/DX2                !
 ! R6    R(4,9)                  1.3481         estimate D2E/DX2                !
 ! R7    R(5,6)                  1.0953         estimate D2E/DX2                !
 ! R8    R(5,7)                  1.095          estimate D2E/DX2                !
 ! R9    R(5,8)                  1.0934         estimate D2E/DX2                !
 ! R10   R(9,10)                 1.0896         estimate D2E/DX2                !
 ! R11   R(9,11)                 1.4958         estimate D2E/DX2                !
 ! R12   R(11,12)                1.0923         estimate D2E/DX2                !
 ! R13   R(11,13)                1.0946         estimate D2E/DX2                !
 ! R14   R(11,14)                1.0943         estimate D2E/DX2                !
 ! R15   R(15,16)                1.0949         estimate D2E/DX2                !
 ! R16   R(15,17)                1.095          estimate D2E/DX2                !
 ! R17   R(15,18)                1.0951         estimate D2E/DX2                !
 ! R18   R(15,19)                1.5064         estimate D2E/DX2                !
 ! R19   R(19,20)                1.5039         estimate D2E/DX2                !
 ! R20   R(19,24)                1.3475         estimate D2E/DX2                !
 ! R21   R(20,21)                1.0949         estimate D2E/DX2                !
 ! R22   R(20,22)                1.0954         estimate D2E/DX2                !
 ! R23   R(20,23)                1.0919         estimate D2E/DX2                !
 ! R24   R(24,25)                1.0901         estimate D2E/DX2                !
 ! R25   R(24,26)                1.506          estimate D2E/DX2                !
 ! R26   R(26,27)                1.098          estimate D2E/DX2                !
 ! R27   R(26,28)                1.0939         estimate D2E/DX2                !
 ! A1    A(2,1,3)              104.628          estimate D2E/DX2                !
 ! A2    A(2,1,4)              109.1571         estimate D2E/DX2                !
 ! A3    A(2,1,26)             108.5323         estimate D2E/DX2                !
 ! A4    A(3,1,4)              109.6774         estimate D2E/DX2                !
 ! A5    A(3,1,26)             110.0427         estimate D2E/DX2                !
 ! A6    A(4,1,26)             114.3421         estimate D2E/DX2                !
 ! A7    A(1,4,5)              115.3971         estimate D2E/DX2                !
 ! A8    A(1,4,9)              124.1833         estimate D2E/DX2                !
 ! A9    A(5,4,9)              120.3932         estimate D2E/DX2                !
 ! A10   A(4,5,6)              112.1989         estimate D2E/DX2                !
 ! A11   A(4,5,7)              110.2083         estimate D2E/DX2                !
 ! A12   A(4,5,8)              110.9016         estimate D2E/DX2                !
 ! A13   A(6,5,7)              107.458          estimate D2E/DX2                !
 ! A14   A(6,5,8)              107.4132         estimate D2E/DX2                !
 ! A15   A(7,5,8)              108.509          estimate D2E/DX2                !
 ! A16   A(4,9,10)             118.5677         estimate D2E/DX2                !
 ! A17   A(4,9,11)             127.4654         estimate D2E/DX2                !
 ! A18   A(10,9,11)            113.9637         estimate D2E/DX2                !
 ! A19   A(9,11,12)            113.5026         estimate D2E/DX2                !
 ! A20   A(9,11,13)            109.5451         estimate D2E/DX2                !
 ! A21   A(9,11,14)            109.7268         estimate D2E/DX2                !
 ! A22   A(12,11,13)           107.6545         estimate D2E/DX2                !
 ! A23   A(12,11,14)           108.0998         estimate D2E/DX2                !
 ! A24   A(13,11,14)           108.1582         estimate D2E/DX2                !
 ! A25   A(16,15,17)           108.5688         estimate D2E/DX2                !
 ! A26   A(16,15,18)           107.6412         estimate D2E/DX2                !
 ! A27   A(16,15,19)           110.223          estimate D2E/DX2                !
 ! A28   A(17,15,18)           107.6518         estimate D2E/DX2                !
 ! A29   A(17,15,19)           110.2769         estimate D2E/DX2                !
 ! A30   A(18,15,19)           112.3516         estimate D2E/DX2                !
 ! A31   A(15,19,20)           114.2038         estimate D2E/DX2                !
 ! A32   A(15,19,24)           120.5979         estimate D2E/DX2                !
 ! A33   A(20,19,24)           125.1924         estimate D2E/DX2                !
 ! A34   A(19,20,21)           110.0604         estimate D2E/DX2                !
 ! A35   A(19,20,22)           110.0082         estimate D2E/DX2                !
 ! A36   A(19,20,23)           113.6284         estimate D2E/DX2                !
 ! A37   A(21,20,22)           108.3212         estimate D2E/DX2                !
 ! A38   A(21,20,23)           107.7869         estimate D2E/DX2                !
 ! A39   A(22,20,23)           106.852          estimate D2E/DX2                !
 ! A40   A(19,24,25)           118.2803         estimate D2E/DX2                !
 ! A41   A(19,24,26)           127.8978         estimate D2E/DX2                !
 ! A42   A(25,24,26)           113.8145         estimate D2E/DX2                !
 ! A43   A(1,26,24)            113.6238         estimate D2E/DX2                !
 ! A44   A(1,26,27)            108.0511         estimate D2E/DX2                !
 ! A45   A(1,26,28)            110.4113         estimate D2E/DX2                !
 ! A46   A(24,26,27)           106.8642         estimate D2E/DX2                !
 ! A47   A(24,26,28)           112.1694         estimate D2E/DX2                !
 ! A48   A(27,26,28)           105.2192         estimate D2E/DX2                !
 ! D1    D(2,1,4,5)           -140.1835         estimate D2E/DX2                !
 ! D2    D(2,1,4,9)             37.9495         estimate D2E/DX2                !
 ! D3    D(3,1,4,5)            -26.0942         estimate D2E/DX2                !
 ! D4    D(3,1,4,9)            152.0387         estimate D2E/DX2                !
 ! D5    D(26,1,4,5)            98.0496         estimate D2E/DX2                !
 ! D6    D(26,1,4,9)           -83.8175         estimate D2E/DX2                !
 ! D7    D(2,1,26,24)          164.4558         estimate D2E/DX2                !
 ! D8    D(2,1,26,27)           46.0588         estimate D2E/DX2                !
 ! D9    D(2,1,26,28)          -68.5157         estimate D2E/DX2                !
 ! D10   D(3,1,26,24)           50.5133         estimate D2E/DX2                !
 ! D11   D(3,1,26,27)          -67.8836         estimate D2E/DX2                !
 ! D12   D(3,1,26,28)          177.5419         estimate D2E/DX2                !
 ! D13   D(4,1,26,24)          -73.4352         estimate D2E/DX2                !
 ! D14   D(4,1,26,27)          168.1679         estimate D2E/DX2                !
 ! D15   D(4,1,26,28)           53.5934         estimate D2E/DX2                !
 ! D16   D(1,4,5,6)            178.369          estimate D2E/DX2                !
 ! D17   D(1,4,5,7)             58.6673         estimate D2E/DX2                !
 ! D18   D(1,4,5,8)            -61.5101         estimate D2E/DX2                !
 ! D19   D(9,4,5,6)              0.1596         estimate D2E/DX2                !
 ! D20   D(9,4,5,7)           -119.5422         estimate D2E/DX2                !
 ! D21   D(9,4,5,8)            120.2805         estimate D2E/DX2                !
 ! D22   D(1,4,9,10)          -178.8233         estimate D2E/DX2                !
 ! D23   D(1,4,9,11)             1.8691         estimate D2E/DX2                !
 ! D24   D(5,4,9,10)            -0.7786         estimate D2E/DX2                !
 ! D25   D(5,4,9,11)           179.9137         estimate D2E/DX2                !
 ! D26   D(4,9,11,12)            2.6162         estimate D2E/DX2                !
 ! D27   D(4,9,11,13)          122.9683         estimate D2E/DX2                !
 ! D28   D(4,9,11,14)         -118.4369         estimate D2E/DX2                !
 ! D29   D(10,9,11,12)        -176.7184         estimate D2E/DX2                !
 ! D30   D(10,9,11,13)         -56.3663         estimate D2E/DX2                !
 ! D31   D(10,9,11,14)          62.2285         estimate D2E/DX2                !
 ! D32   D(16,15,19,20)         59.8171         estimate D2E/DX2                !
 ! D33   D(16,15,19,24)       -121.0191         estimate D2E/DX2                !
 ! D34   D(17,15,19,20)        -60.0431         estimate D2E/DX2                !
 ! D35   D(17,15,19,24)        119.1208         estimate D2E/DX2                !
 ! D36   D(18,15,19,20)        179.8617         estimate D2E/DX2                !
 ! D37   D(18,15,19,24)         -0.9745         estimate D2E/DX2                !
 ! D38   D(15,19,20,21)        -64.897          estimate D2E/DX2                !
 ! D39   D(15,19,20,22)         54.3852         estimate D2E/DX2                !
 ! D40   D(15,19,20,23)        174.1244         estimate D2E/DX2                !
 ! D41   D(24,19,20,21)        115.9837         estimate D2E/DX2                !
 ! D42   D(24,19,20,22)       -124.7341         estimate D2E/DX2                !
 ! D43   D(24,19,20,23)         -4.9949         estimate D2E/DX2                !
 ! D44   D(15,19,24,25)         -0.2115         estimate D2E/DX2                !
 ! D45   D(15,19,24,26)        178.7267         estimate D2E/DX2                !
 ! D46   D(20,19,24,25)        178.8553         estimate D2E/DX2                !
 ! D47   D(20,19,24,26)         -2.2066         estimate D2E/DX2                !
 ! D48   D(19,24,26,1)         110.9352         estimate D2E/DX2                !
 ! D49   D(19,24,26,27)       -129.9871         estimate D2E/DX2                !
 ! D50   D(19,24,26,28)        -15.1697         estimate D2E/DX2                !
 ! D51   D(25,24,26,1)         -70.0869         estimate D2E/DX2                !
 ! D52   D(25,24,26,27)         48.9908         estimate D2E/DX2                !
 ! D53   D(25,24,26,28)        163.8082         estimate D2E/DX2                !
 --------------------------------------------------------------------------------
 Trust Radius=3.00D-01 FncErr=1.00D-07 GrdErr=1.00D-06 EigMax=2.50D+02 EigMin=1.00D-04
 Number of steps in this run=    138 maximum allowed number of steps=    168.
 GradGradGradGradGradGradGradGradGradGradGradGradGradGradGradGradGradGrad

 Leave Link  103 at Tue Jul  6 11:25:48 2021, MaxMem=   524288000 cpu:               0.1 elap:               0.1
 (Enter /opt/gaussian/g16_legacy/l202.exe)
                          Input orientation:                          
 ---------------------------------------------------------------------
 Center     Atomic      Atomic             Coordinates (Angstroms)
 Number     Number       Type             X           Y           Z
 ---------------------------------------------------------------------
      1          6           0       -1.121300   -1.219300   -0.616200
      2          1           0       -1.987600   -1.842700   -0.360600
      3          1           0       -0.858200   -1.516500   -1.640000
      4          6           0       -1.535300    0.239300   -0.598400
      5          6           0       -0.951600    1.090400   -1.696900
      6          1           0       -1.306700    2.125500   -1.651400
      7          1           0       -1.233000    0.689300   -2.676200
      8          1           0        0.139600    1.115700   -1.632700
      9          6           0       -2.392900    0.772400    0.294800
     10          1           0       -2.641800    1.829900    0.211100
     11          6           0       -3.063100    0.079200    1.438300
     12          1           0       -2.764800   -0.965700    1.549500
     13          1           0       -2.819900    0.595100    2.372600
     14          1           0       -4.148700    0.110400    1.304100
     15          6           0        3.462900    0.268600   -0.162300
     16          1           0        4.248000    0.143500    0.590600
     17          1           0        3.468600    1.309400   -0.502400
     18          1           0        3.721400   -0.362200   -1.019300
     19          6           0        2.119800   -0.082100    0.422700
     20          6           0        1.724300    0.757800    1.605800
     21          1           0        2.409000    0.576500    2.440800
     22          1           0        1.773800    1.820400    1.344400
     23          1           0        0.709200    0.565700    1.959100
     24          6           0        1.370400   -1.062200   -0.119200
     25          1           0        1.760300   -1.588700   -0.990400
     26          6           0        0.027500   -1.563000    0.343300
     27          1           0        0.100600   -2.656600    0.408600
     28          1           0       -0.210200   -1.230000    1.357800
 ---------------------------------------------------------------------
                    Distance matrix (angstroms):
                    1          2          3          4          5
     1  C    0.000000
     2  H    1.097467   0.000000
     3  H    1.098051   1.737474   0.000000
     4  C    1.516320   2.143793   2.150867   0.000000
     5  C    2.555665   3.385568   2.609193   1.507242   0.000000
     6  H    3.506237   4.228049   3.669529   2.172284   1.095262
     7  H    2.810486   3.513182   2.465713   2.147356   1.095032
     8  H    2.841719   3.859449   2.814984   2.154795   1.093380
     9  C    2.532540   2.726273   3.367168   1.348139   2.478979
    10  H    3.506275   3.773965   4.219739   2.099914   2.654072
    11  C    3.110894   2.843667   4.108987   2.551069   3.912855
    12  H    2.730506   2.240904   3.756516   2.752666   4.249042
    13  H    3.887186   3.755792   4.940453   3.256322   4.505186
    14  H    3.823716   3.355023   4.705520   3.235117   4.493089
    15  C    4.840946   5.848492   4.903273   5.017275   4.745331
    16  H    5.669477   6.613054   5.814160   5.905037   5.758916
    17  H    5.241608   6.302853   5.291601   5.117943   4.583989
    18  H    4.934456   5.934513   4.763446   5.307716   4.940255
    19  C    3.588491   4.536960   3.896244   3.808635   3.911644
    20  C    4.116266   4.940398   4.730430   3.968921   4.263671
    21  H    5.003315   5.747213   5.631001   4.990786   5.355211
    22  H    4.633069   5.520277   5.193166   4.150240   4.148519
    23  H    3.628929   4.295827   4.443627   3.418351   4.049679
    24  C    2.545635   3.455954   2.736033   3.219725   3.537585
    25  H    2.929181   3.808926   2.698840   3.788961   3.876999
    26  C    1.535745   2.152751   2.172580   2.564650   3.487346
    27  H    2.146878   2.369532   2.532960   3.475119   4.424959
    28  H    2.174142   2.547047   3.080388   2.782346   3.907061
                    6          7          8          9         10
     6  H    0.000000
     7  H    1.765876   0.000000
     8  H    1.764038   1.776159   0.000000
     9  C    2.607375   3.190472   3.201042   0.000000
    10  H    2.310579   3.409133   3.412604   1.089616   0.000000
    11  C    4.101040   4.544293   4.556606   1.495756   2.179097
    12  H    4.682663   4.789778   4.784784   2.175678   3.101906
    13  H    4.563384   5.293157   5.007204   2.128619   2.495703
    14  H    4.568651   4.967818   5.293859   2.130672   2.534182
    15  C    5.330533   5.343048   3.731485   5.895180   6.312246
    16  H    6.309483   6.404002   4.771497   6.677167   7.103331
    17  H    4.978927   5.216797   3.520985   5.939788   6.173896
    18  H    5.645351   5.328888   3.922976   6.356008   6.841747
    19  C    4.573433   4.630282   3.095252   4.594670   5.135499
    20  C    4.654773   5.204406   3.623155   4.320911   4.707166
    21  H    5.740377   6.281765   4.694072   5.263263   5.661551
    22  H    4.307828   5.146402   3.468477   4.422822   4.558726
    23  H    4.419563   5.027268   3.678039   3.526421   3.985336
    24  C    4.435756   4.047677   2.923833   4.207087   4.956923
    25  H    4.861964   4.122020   3.217607   4.947282   5.701659
    26  C    4.400449   3.972291   3.330552   3.363745   4.319075
    27  H    5.393753   4.742312   4.289368   4.241289   5.261981
    28  H    4.638640   4.582902   3.816773   3.147023   4.073154
                   11         12         13         14         15
    11  C    0.000000
    12  H    1.092321   0.000000
    13  H    1.094630   1.765397   0.000000
    14  H    1.094308   1.770139   1.772663   0.000000
    15  C    6.722088   6.575561   6.782765   7.753181   0.000000
    16  H    7.360361   7.164438   7.303059   8.427025   1.094939
    17  H    6.924075   6.945621   6.951337   7.919868   1.094973
    18  H    7.229389   7.002409   7.430344   8.219490   1.095071
    19  C    5.283930   5.090162   5.353629   6.333089   1.506364
    20  C    4.838156   4.808913   4.611313   5.916272   2.527494
    21  H    5.585355   5.471837   5.229378   6.671789   2.825179
    22  H    5.141614   5.329476   4.864220   6.164554   2.744319
    23  H    3.839031   3.818591   3.553364   4.922958   3.488763
    24  C    4.835755   4.460241   5.149206   5.819041   2.480210
    25  H    5.652049   5.226447   6.087445   6.562618   2.652199
    26  C    3.667104   3.099778   4.108910   4.600440   3.925858
    27  H    4.307422   3.517288   4.791677   5.149248   4.493082
    28  H    3.139988   2.575380   3.342356   4.160690   4.248314
                   16         17         18         19         20
    16  H    0.000000
    17  H    1.778043   0.000000
    18  H    1.767715   1.767863   0.000000
    19  C    2.146700   2.147404   2.173233   0.000000
    20  C    2.788738   2.791299   3.483383   1.503854   0.000000
    21  H    2.644362   3.212837   3.817832   2.142456   1.094947
    22  H    3.082511   2.558151   3.760846   2.142138   1.095399
    23  H    3.817611   3.771785   4.336498   2.184024   1.091857
    24  C    3.199705   3.189635   2.612926   1.347536   2.532444
    25  H    3.418878   3.399326   2.313234   2.096649   3.499659
    26  C    4.559158   4.561476   4.116248   2.564583   3.139928
    27  H    5.007456   5.282282   4.518115   3.271913   3.965831
    28  H    4.727647   4.841742   4.675592   2.760613   2.784806
                   21         22         23         24         25
    21  H    0.000000
    22  H    1.775629   0.000000
    23  H    1.766769   1.756560   0.000000
    24  C    3.212106   3.257950   2.721502   0.000000
    25  H    4.108776   4.132001   3.800763   1.090052   0.000000
    26  C    3.827337   3.936897   2.758059   1.506017   2.186781
    27  H    4.462228   4.870200   3.627349   2.105487   2.419135
    28  H    3.361033   3.638870   2.105088   2.169789   3.086354
                   26         27         28
    26  C    0.000000
    27  H    1.097984   0.000000
    28  H    1.093892   1.741484   0.000000
 Stoichiometry    C10H18
 Framework group  C1[X(C10H18)]
 Deg. of freedom    78
 Full point group                 C1      NOp   1
 Largest Abelian subgroup         C1      NOp   1
 Largest concise Abelian subgroup C1      NOp   1
                         Standard orientation:                         
 ---------------------------------------------------------------------
 Center     Atomic      Atomic             Coordinates (Angstroms)
 Number     Number       Type             X           Y           Z
 ---------------------------------------------------------------------
      1          6           0        1.075497    0.666759    1.227985
      2          1           0        1.925542    0.378397    1.859415
      3          1           0        0.812116    1.678819    1.562769
      4          6           0        1.522918    0.708294   -0.220226
      5          6           0        0.965996    1.846424   -1.036485
      6          1           0        1.344588    1.842614   -2.064226
      7          1           0        1.244280    2.805593   -0.587430
      8          1           0       -0.124715    1.791367   -1.089365
      9          6           0        2.386900   -0.167563   -0.771486
     10          1           0        2.660659   -0.040559   -1.818476
     11          6           0        3.033654   -1.344535   -0.112901
     12          1           0        2.710625   -1.498112    0.919199
     13          1           0        2.796494   -2.254118   -0.673820
     14          1           0        4.120515   -1.217087   -0.113578
     15          6           0       -3.475944    0.310505   -0.382056
     16          1           0       -4.268486   -0.441278   -0.307291
     17          1           0       -3.455470    0.694820   -1.407164
     18          1           0       -3.743482    1.141627    0.278882
     19          6           0       -2.145035   -0.298785   -0.026276
     20          6           0       -1.737782   -1.447766   -0.906938
     21          1           0       -2.431771   -2.284710   -0.777276
     22          1           0       -1.761092   -1.140823   -1.958195
     23          1           0       -0.729648   -1.816388   -0.707101
     24          6           0       -1.415021    0.195212    0.992988
     25          1           0       -1.811425    1.045943    1.547365
     26          6           0       -0.086997   -0.298108    1.503942
     27          1           0       -0.185722   -0.409562    2.591784
     28          1           0        0.151876   -1.299161    1.133221
 ---------------------------------------------------------------------
 Rotational constants (GHZ):           1.8863668           0.7012477           0.6814144
 Leave Link  202 at Tue Jul  6 11:25:48 2021, MaxMem=   524288000 cpu:               0.1 elap:               0.1
 (Enter /opt/gaussian/g16_legacy/l301.exe)
 Standard basis: 6-31G(d,p) (6D, 7F)
 Ernie: Thresh=  0.10000D-02 Tol=  0.10000D-05 Strict=F.
 There are   240 symmetry adapted cartesian basis functions of A   symmetry.
 There are   240 symmetry adapted basis functions of A   symmetry.
   240 basis functions,   406 primitive gaussians,   240 cartesian basis functions
    39 alpha electrons       39 beta electrons
       nuclear repulsion energy       532.8905023535 Hartrees.
 IExCor= 4336 DFT=T Ex+Corr=M062X ExCW=0 ScaHFX=  0.540000
 ScaDFX=  1.000000  1.000000  1.000000  1.000000 ScalE2=  1.000000  1.000000
 IRadAn=      5 IRanWt=     -1 IRanGd=            0 ICorTp=0 IEmpDi=  4
 NAtoms=   28 NActive=   28 NUniq=   28 SFac= 1.00D+00 NAtFMM=   60 NAOKFM=F Big=F
 Integral buffers will be    131072 words long.
 Raffenetti 2 integral format.
 Two-electron integral symmetry is turned on.
 Leave Link  301 at Tue Jul  6 11:25:48 2021, MaxMem=   524288000 cpu:               0.3 elap:               0.1
 (Enter /opt/gaussian/g16_legacy/l302.exe)
 NPDir=0 NMtPBC=     1 NCelOv=     1 NCel=       1 NClECP=     1 NCelD=      1
         NCelK=      1 NCelE2=     1 NClLst=     1 CellRange=     0.0.
 One-electron integrals computed using PRISM.
 One-electron integral symmetry used in STVInt
 NBasis=   240 RedAO= T EigKep=  2.20D-03  NBF=   240
 NBsUse=   240 1.00D-06 EigRej= -1.00D+00 NBFU=   240
 Precomputing XC quadrature grid using
 IXCGrd= 4 IRadAn=           5 IRanWt=          -1 IRanGd=           0 AccXCQ= 0.00D+00.
 Generated NRdTot=       0 NPtTot=           0 NUsed=           0 NTot=          32
 NSgBfM=   240   240   240   240   240 MxSgAt=    28 MxSgA2=    28.
 Leave Link  302 at Tue Jul  6 11:25:49 2021, MaxMem=   524288000 cpu:               2.8 elap:               0.6
 (Enter /opt/gaussian/g16_legacy/l303.exe)
 DipDrv:  MaxL=1.
 Leave Link  303 at Tue Jul  6 11:25:49 2021, MaxMem=   524288000 cpu:               0.2 elap:               0.1
 (Enter /opt/gaussian/g16_legacy/l401.exe)
 ExpMin= 1.61D-01 ExpMax= 3.05D+03 ExpMxC= 4.57D+02 IAcc=3 IRadAn=         5 AccDes= 0.00D+00
 Harris functional with IExCor= 1009 and IRadAn=       5 diagonalized for initial guess.
 HarFok:  IExCor= 1009 AccDes= 0.00D+00 IRadAn=         5 IDoV= 1 UseB2=F ITyADJ=14
 ICtDFT=  3500011 ScaDFX=  1.000000  1.000000  1.000000  1.000000
 FoFCou: FMM=F IPFlag=           0 FMFlag=      100000 FMFlg1=           0
         NFxFlg=           0 DoJE=T BraDBF=F KetDBF=T FulRan=T
         wScrn=  0.000000 ICntrl=       500 IOpCl=  0 I1Cent=   200000004 NGrid=           0
         NMat0=    1 NMatS0=      1 NMatT0=    0 NMatD0=    1 NMtDS0=    0 NMtDT0=    0
 Petite list used in FoFCou.
 Harris En= -391.654741359062    
 JPrj=0 DoOrth=F DoCkMO=F.
 Leave Link  401 at Tue Jul  6 11:25:51 2021, MaxMem=   524288000 cpu:              13.0 elap:               2.3
 (Enter /opt/gaussian/g16_legacy/l502.exe)
 Integral symmetry usage will be decided dynamically.
 Closed shell SCF:
 Using DIIS extrapolation, IDIIS=  1040.
 NGot=   524288000 LenX=   524168546 LenY=   524110505
 Requested convergence on RMS density matrix=1.00D-08 within 128 cycles.
 Requested convergence on MAX density matrix=1.00D-06.
 Requested convergence on             energy=1.00D-06.
 No special actions if energy rises.
 Fock matrices will be formed incrementally for  20 cycles.
 Integral accuracy reduced to 1.0D-05 until final iterations.

 Cycle   1  Pass 0  IDiag  1:
 FoFJK:  IHMeth= 1 ICntrl=       0 DoSepK=F KAlg= 0 I1Cent=           0 FoldK=F
 IRaf= 890000000 NMat=       1 IRICut=       1 DoRegI=T DoRafI=F ISym2E= 0 IDoP0=0 IntGTp=1.
 FoFCou: FMM=F IPFlag=           0 FMFlag=      100000 FMFlg1=           0
         NFxFlg=           0 DoJE=F BraDBF=F KetDBF=F FulRan=T
         wScrn=  0.000000 ICntrl=         0 IOpCl=  0 I1Cent=           0 NGrid=           0
         NMat0=    1 NMatS0=      1 NMatT0=    0 NMatD0=    1 NMtDS0=    0 NMtDT0=    0
 Symmetry not used in FoFCou.
 E= -391.298475997171    
 DIIS: error= 2.82D-02 at cycle   1 NSaved=   1.
 NSaved= 1 IEnMin= 1 EnMin= -391.298475997171     IErMin= 1 ErrMin= 2.82D-02
 ErrMax= 2.82D-02  0.00D+00 EMaxC= 1.00D-01 BMatC= 3.71D-01 BMatP= 3.71D-01
 IDIUse=3 WtCom= 7.18D-01 WtEn= 2.82D-01
 Coeff-Com:  0.100D+01
 Coeff-En:   0.100D+01
 Coeff:      0.100D+01
 Gap=     0.342 Goal=   None    Shift=    0.000
 GapD=    0.342 DampG=1.000 DampE=0.500 DampFc=0.5000 IDamp=-1.
 Damping current iteration by 5.00D-01
 RMSDP=4.46D-03 MaxDP=1.12D-01              OVMax= 1.42D-01

 Cycle   2  Pass 0  IDiag  1:
 RMSU=  2.19D-03    CP:  9.75D-01
 E= -391.506811690323     Delta-E=       -0.208335693152 Rises=F Damp=T
 DIIS: error= 8.48D-03 at cycle   2 NSaved=   2.
 NSaved= 2 IEnMin= 2 EnMin= -391.506811690323     IErMin= 2 ErrMin= 8.48D-03
 ErrMax= 8.48D-03  0.00D+00 EMaxC= 1.00D-01 BMatC= 2.12D-02 BMatP= 3.71D-01
 IDIUse=3 WtCom= 9.15D-01 WtEn= 8.48D-02
 Coeff-Com: -0.144D+00 0.114D+01
 Coeff-En:   0.000D+00 0.100D+01
 Coeff:     -0.131D+00 0.113D+01
 Gap=     0.359 Goal=   None    Shift=    0.000
 RMSDP=9.14D-04 MaxDP=2.69D-02 DE=-2.08D-01 OVMax= 6.65D-02

 Cycle   3  Pass 0  IDiag  1:
 RMSU=  8.94D-04    CP:  9.69D-01  1.07D+00
 E= -391.687818066270     Delta-E=       -0.181006375947 Rises=F Damp=F
 DIIS: error= 1.43D-03 at cycle   3 NSaved=   3.
 NSaved= 3 IEnMin= 3 EnMin= -391.687818066270     IErMin= 3 ErrMin= 1.43D-03
 ErrMax= 1.43D-03  0.00D+00 EMaxC= 1.00D-01 BMatC= 1.28D-03 BMatP= 2.12D-02
 IDIUse=3 WtCom= 9.86D-01 WtEn= 1.43D-02
 Coeff-Com: -0.376D-01 0.183D+00 0.855D+00
 Coeff-En:   0.000D+00 0.000D+00 0.100D+01
 Coeff:     -0.371D-01 0.180D+00 0.857D+00
 Gap=     0.338 Goal=   None    Shift=    0.000
 RMSDP=2.73D-04 MaxDP=7.72D-03 DE=-1.81D-01 OVMax= 1.46D-02

 Cycle   4  Pass 0  IDiag  1:
 RMSU=  2.18D-04    CP:  9.69D-01  1.12D+00  8.62D-01
 E= -391.688462814616     Delta-E=       -0.000644748347 Rises=F Damp=F
 DIIS: error= 1.07D-03 at cycle   4 NSaved=   4.
 NSaved= 4 IEnMin= 4 EnMin= -391.688462814616     IErMin= 4 ErrMin= 1.07D-03
 ErrMax= 1.07D-03  0.00D+00 EMaxC= 1.00D-01 BMatC= 6.31D-04 BMatP= 1.28D-03
 IDIUse=3 WtCom= 9.89D-01 WtEn= 1.07D-02
 Coeff-Com: -0.107D-01 0.408D-01 0.424D+00 0.546D+00
 Coeff-En:   0.000D+00 0.000D+00 0.310D+00 0.690D+00
 Coeff:     -0.106D-01 0.403D-01 0.423D+00 0.547D+00
 Gap=     0.338 Goal=   None    Shift=    0.000
 RMSDP=1.22D-04 MaxDP=5.12D-03 DE=-6.45D-04 OVMax= 1.04D-02

 Cycle   5  Pass 0  IDiag  1:
 RMSU=  5.80D-05    CP:  9.69D-01  1.11D+00  9.26D-01  5.99D-01
 E= -391.689054002307     Delta-E=       -0.000591187690 Rises=F Damp=F
 DIIS: error= 2.85D-04 at cycle   5 NSaved=   5.
 NSaved= 5 IEnMin= 5 EnMin= -391.689054002307     IErMin= 5 ErrMin= 2.85D-04
 ErrMax= 2.85D-04  0.00D+00 EMaxC= 1.00D-01 BMatC= 4.25D-05 BMatP= 6.31D-04
 IDIUse=3 WtCom= 9.97D-01 WtEn= 2.85D-03
 Coeff-Com: -0.789D-03 0.192D-02 0.119D+00 0.257D+00 0.623D+00
 Coeff-En:   0.000D+00 0.000D+00 0.000D+00 0.000D+00 0.100D+01
 Coeff:     -0.787D-03 0.192D-02 0.118D+00 0.256D+00 0.624D+00
 Gap=     0.338 Goal=   None    Shift=    0.000
 RMSDP=2.90D-05 MaxDP=1.17D-03 DE=-5.91D-04 OVMax= 2.39D-03

 Cycle   6  Pass 0  IDiag  1:
 RMSU=  1.62D-05    CP:  9.69D-01  1.11D+00  9.36D-01  6.50D-01  6.69D-01
 E= -391.689095236932     Delta-E=       -0.000041234625 Rises=F Damp=F
 DIIS: error= 4.53D-05 at cycle   6 NSaved=   6.
 NSaved= 6 IEnMin= 6 EnMin= -391.689095236932     IErMin= 6 ErrMin= 4.53D-05
 ErrMax= 4.53D-05  0.00D+00 EMaxC= 1.00D-01 BMatC= 1.74D-06 BMatP= 4.25D-05
 IDIUse=1 WtCom= 1.00D+00 WtEn= 0.00D+00
 Coeff-Com:  0.793D-03-0.290D-02 0.107D-01 0.525D-01 0.220D+00 0.719D+00
 Coeff:      0.793D-03-0.290D-02 0.107D-01 0.525D-01 0.220D+00 0.719D+00
 Gap=     0.338 Goal=   None    Shift=    0.000
 RMSDP=6.31D-06 MaxDP=2.24D-04 DE=-4.12D-05 OVMax= 4.27D-04

 Initial convergence to 1.0D-05 achieved.  Increase integral accuracy.
 Cycle   7  Pass 1  IDiag  1:
 E= -391.689152527719     Delta-E=       -0.000057290787 Rises=F Damp=F
 DIIS: error= 1.85D-05 at cycle   1 NSaved=   1.
 NSaved= 1 IEnMin= 1 EnMin= -391.689152527719     IErMin= 1 ErrMin= 1.85D-05
 ErrMax= 1.85D-05  0.00D+00 EMaxC= 1.00D-01 BMatC= 2.58D-07 BMatP= 2.58D-07
 IDIUse=1 WtCom= 1.00D+00 WtEn= 0.00D+00
 Coeff-Com:  0.100D+01
 Coeff:      0.100D+01
 Gap=     0.338 Goal=   None    Shift=    0.000
 RMSDP=6.31D-06 MaxDP=2.24D-04 DE=-5.73D-05 OVMax= 2.43D-04

 Cycle   8  Pass 1  IDiag  1:
 RMSU=  7.14D-06    CP:  1.00D+00
 E= -391.689152649999     Delta-E=       -0.000000122280 Rises=F Damp=F
 DIIS: error= 1.73D-05 at cycle   2 NSaved=   2.
 NSaved= 2 IEnMin= 2 EnMin= -391.689152649999     IErMin= 2 ErrMin= 1.73D-05
 ErrMax= 1.73D-05  0.00D+00 EMaxC= 1.00D-01 BMatC= 1.66D-07 BMatP= 2.58D-07
 IDIUse=1 WtCom= 1.00D+00 WtEn= 0.00D+00
 Coeff-Com:  0.433D+00 0.567D+00
 Coeff:      0.433D+00 0.567D+00
 Gap=     0.338 Goal=   None    Shift=    0.000
 RMSDP=1.78D-06 MaxDP=9.13D-05 DE=-1.22D-07 OVMax= 1.60D-04

 Cycle   9  Pass 1  IDiag  1:
 RMSU=  1.71D-06    CP:  1.00D+00  9.33D-01
 E= -391.689152793156     Delta-E=       -0.000000143157 Rises=F Damp=F
 DIIS: error= 5.78D-06 at cycle   3 NSaved=   3.
 NSaved= 3 IEnMin= 3 EnMin= -391.689152793156     IErMin= 3 ErrMin= 5.78D-06
 ErrMax= 5.78D-06  0.00D+00 EMaxC= 1.00D-01 BMatC= 1.56D-08 BMatP= 1.66D-07
 IDIUse=1 WtCom= 1.00D+00 WtEn= 0.00D+00
 Coeff-Com:  0.154D-01 0.225D+00 0.760D+00
 Coeff:      0.154D-01 0.225D+00 0.760D+00
 Gap=     0.338 Goal=   None    Shift=    0.000
 RMSDP=6.43D-07 MaxDP=2.70D-05 DE=-1.43D-07 OVMax= 6.22D-05

 Cycle  10  Pass 1  IDiag  1:
 RMSU=  4.36D-07    CP:  1.00D+00  9.77D-01  7.96D-01
 E= -391.689152807124     Delta-E=       -0.000000013969 Rises=F Damp=F
 DIIS: error= 2.12D-06 at cycle   4 NSaved=   4.
 NSaved= 4 IEnMin= 4 EnMin= -391.689152807124     IErMin= 4 ErrMin= 2.12D-06
 ErrMax= 2.12D-06  0.00D+00 EMaxC= 1.00D-01 BMatC= 2.29D-09 BMatP= 1.56D-08
 IDIUse=1 WtCom= 1.00D+00 WtEn= 0.00D+00
 Coeff-Com: -0.242D-01 0.680D-01 0.384D+00 0.572D+00
 Coeff:     -0.242D-01 0.680D-01 0.384D+00 0.572D+00
 Gap=     0.338 Goal=   None    Shift=    0.000
 RMSDP=2.16D-07 MaxDP=5.56D-06 DE=-1.40D-08 OVMax= 1.38D-05

 Cycle  11  Pass 1  IDiag  1:
 RMSU=  1.56D-07    CP:  1.00D+00  9.82D-01  8.42D-01  7.19D-01
 E= -391.689152809491     Delta-E=       -0.000000002366 Rises=F Damp=F
 DIIS: error= 2.17D-07 at cycle   5 NSaved=   5.
 NSaved= 5 IEnMin= 5 EnMin= -391.689152809491     IErMin= 5 ErrMin= 2.17D-07
 ErrMax= 2.17D-07  0.00D+00 EMaxC= 1.00D-01 BMatC= 3.46D-11 BMatP= 2.29D-09
 IDIUse=1 WtCom= 1.00D+00 WtEn= 0.00D+00
 Coeff-Com: -0.601D-02 0.549D-03 0.394D-01 0.119D+00 0.848D+00
 Coeff:     -0.601D-02 0.549D-03 0.394D-01 0.119D+00 0.848D+00
 Gap=     0.338 Goal=   None    Shift=    0.000
 RMSDP=4.34D-08 MaxDP=1.33D-06 DE=-2.37D-09 OVMax= 2.76D-06

 Cycle  12  Pass 1  IDiag  1:
 RMSU=  3.95D-08    CP:  1.00D+00  9.83D-01  8.44D-01  7.55D-01  1.02D+00
 E= -391.689152809538     Delta-E=       -0.000000000047 Rises=F Damp=F
 DIIS: error= 1.77D-07 at cycle   6 NSaved=   6.
 NSaved= 6 IEnMin= 6 EnMin= -391.689152809538     IErMin= 6 ErrMin= 1.77D-07
 ErrMax= 1.77D-07  0.00D+00 EMaxC= 1.00D-01 BMatC= 1.13D-11 BMatP= 3.46D-11
 IDIUse=1 WtCom= 1.00D+00 WtEn= 0.00D+00
 Coeff-Com: -0.161D-03-0.715D-02-0.223D-01-0.532D-02 0.398D+00 0.637D+00
 Coeff:     -0.161D-03-0.715D-02-0.223D-01-0.532D-02 0.398D+00 0.637D+00
 Gap=     0.338 Goal=   None    Shift=    0.000
 RMSDP=1.88D-08 MaxDP=7.32D-07 DE=-4.68D-11 OVMax= 1.82D-06

 Cycle  13  Pass 1  IDiag  1:
 RMSU=  1.04D-08    CP:  1.00D+00  9.84D-01  8.46D-01  7.67D-01  1.09D+00
                    CP:  7.69D-01
 E= -391.689152809540     Delta-E=       -0.000000000003 Rises=F Damp=F
 DIIS: error= 6.13D-08 at cycle   7 NSaved=   7.
 NSaved= 7 IEnMin= 7 EnMin= -391.689152809540     IErMin= 7 ErrMin= 6.13D-08
 ErrMax= 6.13D-08  0.00D+00 EMaxC= 1.00D-01 BMatC= 1.26D-12 BMatP= 1.13D-11
 IDIUse=1 WtCom= 1.00D+00 WtEn= 0.00D+00
 Coeff-Com:  0.586D-03-0.369D-02-0.154D-01-0.158D-01 0.101D+00 0.313D+00
 Coeff-Com:  0.620D+00
 Coeff:      0.586D-03-0.369D-02-0.154D-01-0.158D-01 0.101D+00 0.313D+00
 Coeff:      0.620D+00
 Gap=     0.338 Goal=   None    Shift=    0.000
 RMSDP=4.97D-09 MaxDP=1.94D-07 DE=-2.61D-12 OVMax= 3.66D-07

 SCF Done:  E(RM062X) =  -391.689152810     A.U. after   13 cycles
            NFock= 13  Conv=0.50D-08     -V/T= 2.0093
 KE= 3.880714440213D+02 PE=-1.970878059373D+03 EE= 6.582269601882D+02
 Leave Link  502 at Tue Jul  6 11:26:42 2021, MaxMem=   524288000 cpu:             301.2 elap:              50.4
 (Enter /opt/gaussian/g16_legacy/l601.exe)
 Copying SCF densities to generalized density rwf, IOpCl= 0 IROHF=0.

 **********************************************************************

            Population analysis using the SCF density.

 **********************************************************************

 Orbital symmetries:
       Occupied  (A) (A) (A) (A) (A) (A) (A) (A) (A) (A) (A) (A)
                 (A) (A) (A) (A) (A) (A) (A) (A) (A) (A) (A) (A)
                 (A) (A) (A) (A) (A) (A) (A) (A) (A) (A) (A) (A)
                 (A) (A) (A)
       Virtual   (A) (A) (A) (A) (A) (A) (A) (A) (A) (A) (A) (A)
                 (A) (A) (A) (A) (A) (A) (A) (A) (A) (A) (A) (A)
                 (A) (A) (A) (A) (A) (A) (A) (A) (A) (A) (A) (A)
                 (A) (A) (A) (A) (A) (A) (A) (A) (A) (A) (A) (A)
                 (A) (A) (A) (A) (A) (A) (A) (A) (A) (A) (A) (A)
                 (A) (A) (A) (A) (A) (A) (A) (A) (A) (A) (A) (A)
                 (A) (A) (A) (A) (A) (A) (A) (A) (A) (A) (A) (A)
                 (A) (A) (A) (A) (A) (A) (A) (A) (A) (A) (A) (A)
                 (A) (A) (A) (A) (A) (A) (A) (A) (A) (A) (A) (A)
                 (A) (A) (A) (A) (A) (A) (A) (A) (A) (A) (A) (A)
                 (A) (A) (A) (A) (A) (A) (A) (A) (A) (A) (A) (A)
                 (A) (A) (A) (A) (A) (A) (A) (A) (A) (A) (A) (A)
                 (A) (A) (A) (A) (A) (A) (A) (A) (A) (A) (A) (A)
                 (A) (A) (A) (A) (A) (A) (A) (A) (A) (A) (A) (A)
                 (A) (A) (A) (A) (A) (A) (A) (A) (A) (A) (A) (A)
                 (A) (A) (A) (A) (A) (A) (A) (A) (A) (A) (A) (A)
                 (A) (A) (A) (A) (A) (A) (A) (A) (A)
 The electronic state is 1-A.
 Alpha  occ. eigenvalues --  -10.54660 -10.54092 -10.53998 -10.53918 -10.53332
 Alpha  occ. eigenvalues --  -10.53304 -10.53290 -10.53274 -10.53158 -10.52683
 Alpha  occ. eigenvalues --   -0.91929  -0.89697  -0.84645  -0.81407  -0.77682
 Alpha  occ. eigenvalues --   -0.76235  -0.71501  -0.68483  -0.58686  -0.58167
 Alpha  occ. eigenvalues --   -0.52877  -0.52405  -0.50234  -0.49357  -0.48677
 Alpha  occ. eigenvalues --   -0.47990  -0.46574  -0.45295  -0.44540  -0.44495
 Alpha  occ. eigenvalues --   -0.42725  -0.42327  -0.41151  -0.40435  -0.39628
 Alpha  occ. eigenvalues --   -0.37302  -0.36428  -0.28849  -0.26757
 Alpha virt. eigenvalues --    0.07057   0.07457   0.13113   0.14417   0.15978
 Alpha virt. eigenvalues --    0.17194   0.17751   0.19251   0.20068   0.20271
 Alpha virt. eigenvalues --    0.20957   0.21471   0.21750   0.22852   0.23396
 Alpha virt. eigenvalues --    0.24093   0.24908   0.25431   0.26796   0.27391
 Alpha virt. eigenvalues --    0.28160   0.29532   0.30308   0.30733   0.32818
 Alpha virt. eigenvalues --    0.38574   0.39231   0.47766   0.49575   0.52589
 Alpha virt. eigenvalues --    0.54771   0.54986   0.57418   0.58937   0.60112
 Alpha virt. eigenvalues --    0.60728   0.61776   0.62979   0.65140   0.65790
 Alpha virt. eigenvalues --    0.67568   0.68911   0.70052   0.71983   0.73518
 Alpha virt. eigenvalues --    0.73904   0.75614   0.77159   0.78914   0.80233
 Alpha virt. eigenvalues --    0.82252   0.82387   0.83585   0.84049   0.85007
 Alpha virt. eigenvalues --    0.88268   0.88773   0.90768   0.91958   0.92839
 Alpha virt. eigenvalues --    0.93554   0.94838   0.95686   0.96160   0.96248
 Alpha virt. eigenvalues --    0.96922   0.98805   0.99376   0.99961   1.00153
 Alpha virt. eigenvalues --    1.01515   1.02695   1.05071   1.06464   1.06737
 Alpha virt. eigenvalues --    1.08545   1.10796   1.20396   1.21905   1.25709
 Alpha virt. eigenvalues --    1.25858   1.27686   1.35281   1.36449   1.38609
 Alpha virt. eigenvalues --    1.39892   1.42719   1.45938   1.52024   1.52736
 Alpha virt. eigenvalues --    1.53476   1.57129   1.66465   1.69910   1.72363
 Alpha virt. eigenvalues --    1.74517   1.78030   1.78954   1.79927   1.83042
 Alpha virt. eigenvalues --    1.83924   1.85558   1.86393   1.88888   1.90224
 Alpha virt. eigenvalues --    1.91385   1.93683   1.94585   1.99847   2.01743
 Alpha virt. eigenvalues --    2.03127   2.05486   2.06731   2.08098   2.09545
 Alpha virt. eigenvalues --    2.10170   2.10271   2.11227   2.13482   2.14096
 Alpha virt. eigenvalues --    2.15403   2.16261   2.16653   2.17889   2.18642
 Alpha virt. eigenvalues --    2.20146   2.22106   2.23139   2.23339   2.25566
 Alpha virt. eigenvalues --    2.28730   2.30023   2.30938   2.34438   2.35464
 Alpha virt. eigenvalues --    2.38008   2.39717   2.43438   2.44399   2.46077
 Alpha virt. eigenvalues --    2.47762   2.48919   2.50133   2.52439   2.53590
 Alpha virt. eigenvalues --    2.56072   2.57577   2.61828   2.62272   2.64296
 Alpha virt. eigenvalues --    2.65462   2.66958   2.68779   2.70608   2.71601
 Alpha virt. eigenvalues --    2.74433   2.75385   2.76313   2.79020   2.84051
 Alpha virt. eigenvalues --    2.85221   2.85855   2.87027   2.88222   2.88790
 Alpha virt. eigenvalues --    2.89774   2.91488   2.92707   2.94591   3.01838
 Alpha virt. eigenvalues --    3.03247   3.08553   3.09293   3.17877   3.19919
 Alpha virt. eigenvalues --    3.20951   3.23187   3.31488   3.32098   3.40132
 Alpha virt. eigenvalues --    3.41901   3.42573   3.43370   3.44197   3.44927
 Alpha virt. eigenvalues --    3.45491   3.47195   3.48057   3.50423   3.52104
 Alpha virt. eigenvalues --    3.55923   4.18742   4.21833   4.34253   4.43005
 Alpha virt. eigenvalues --    4.51623   4.52599   4.53304   4.68295   4.71796
 Alpha virt. eigenvalues --    4.74196
          Condensed to atoms (all electrons):
               1          2          3          4          5          6
     1  C    5.052686   0.378387   0.389453   0.362014  -0.067249   0.004673
     2  H    0.378387   0.608113  -0.034786  -0.033037   0.004466  -0.000188
     3  H    0.389453  -0.034786   0.609941  -0.038480  -0.006637   0.000176
     4  C    0.362014  -0.033037  -0.038480   4.750792   0.371669  -0.035623
     5  C   -0.067249   0.004466  -0.006637   0.371669   5.005673   0.383022
     6  H    0.004673  -0.000188   0.000176  -0.035623   0.383022   0.584855
     7  H   -0.004878   0.000121   0.003950  -0.033597   0.378924  -0.028185
     8  H    0.000545   0.000034   0.000085  -0.035585   0.377755  -0.026871
     9  C   -0.052245  -0.008633   0.004121   0.716825  -0.043175  -0.005301
    10  H    0.005780   0.000001  -0.000166  -0.030161  -0.013560   0.006250
    11  C   -0.012185   0.000936   0.000191  -0.045202   0.006209   0.000111
    12  H    0.003146   0.001908  -0.000071  -0.008258   0.000099   0.000007
    13  H    0.000365  -0.000152  -0.000011   0.000507  -0.000151  -0.000010
    14  H    0.000126   0.000290   0.000016  -0.000460  -0.000142  -0.000004
    15  C   -0.000115   0.000003  -0.000005  -0.000031  -0.000023  -0.000001
    16  H   -0.000005   0.000000   0.000000   0.000001  -0.000001   0.000000
    17  H    0.000022  -0.000000  -0.000000  -0.000008   0.000072  -0.000004
    18  H   -0.000004   0.000000   0.000002  -0.000000  -0.000001   0.000000
    19  C   -0.001945  -0.000074   0.000343   0.002703  -0.002660   0.000112
    20  C    0.000276  -0.000015  -0.000005  -0.000235   0.000134  -0.000008
    21  H   -0.000036   0.000001   0.000000   0.000037  -0.000004   0.000000
    22  H    0.000069  -0.000001   0.000001  -0.000120   0.000202  -0.000019
    23  H   -0.000560   0.000036   0.000009   0.001743  -0.000021  -0.000003
    24  C   -0.054256   0.005116  -0.005870  -0.001635  -0.002106   0.000015
    25  H   -0.001029  -0.000129   0.003094  -0.000440   0.000151   0.000001
    26  C    0.342712  -0.032807  -0.040717  -0.043619   0.000502  -0.000085
    27  H   -0.041297  -0.005649  -0.001853   0.005763  -0.000180   0.000004
    28  H   -0.036750  -0.002999   0.005143  -0.008246   0.000042   0.000005
               7          8          9         10         11         12
     1  C   -0.004878   0.000545  -0.052245   0.005780  -0.012185   0.003146
     2  H    0.000121   0.000034  -0.008633   0.000001   0.000936   0.001908
     3  H    0.003950   0.000085   0.004121  -0.000166   0.000191  -0.000071
     4  C   -0.033597  -0.035585   0.716825  -0.030161  -0.045202  -0.008258
     5  C    0.378924   0.377755  -0.043175  -0.013560   0.006209   0.000099
     6  H   -0.028185  -0.026871  -0.005301   0.006250   0.000111   0.000007
     7  H    0.593812  -0.033144  -0.000360   0.000325  -0.000176   0.000001
     8  H   -0.033144   0.578623  -0.001327   0.000250  -0.000175  -0.000002
     9  C   -0.000360  -0.001327   4.903813   0.378118   0.359734  -0.034256
    10  H    0.000325   0.000250   0.378118   0.611056  -0.056202   0.004573
    11  C   -0.000176  -0.000175   0.359734  -0.056202   4.978200   0.389497
    12  H    0.000001  -0.000002  -0.034256   0.004573   0.389497   0.581231
    13  H   -0.000005   0.000020  -0.034120  -0.002274   0.385911  -0.029682
    14  H    0.000023  -0.000005  -0.035991  -0.001344   0.386053  -0.027950
    15  C    0.000001   0.000052   0.000000  -0.000000  -0.000000  -0.000000
    16  H    0.000000   0.000013   0.000000   0.000000  -0.000000   0.000000
    17  H   -0.000002  -0.000089  -0.000000  -0.000000   0.000000  -0.000000
    18  H    0.000000  -0.000004   0.000000   0.000000  -0.000000   0.000000
    19  C    0.000064   0.002729   0.000294  -0.000000  -0.000007  -0.000003
    20  C   -0.000000  -0.000060  -0.000429   0.000004  -0.000017  -0.000000
    21  H    0.000000   0.000011   0.000016   0.000000  -0.000001   0.000000
    22  H   -0.000001  -0.000152  -0.000026  -0.000000  -0.000000   0.000000
    23  H    0.000006  -0.000168   0.001663  -0.000008   0.000036  -0.000038
    24  C    0.000130   0.007295  -0.000362   0.000001   0.000078   0.000046
    25  H   -0.000028   0.000159  -0.000011  -0.000000  -0.000000   0.000001
    26  C   -0.000023  -0.000566  -0.004696  -0.000119  -0.000265  -0.000507
    27  H    0.000014  -0.000013   0.000185   0.000005  -0.000083   0.000144
    28  H   -0.000003   0.000097   0.001255  -0.000081   0.000826   0.000847
              13         14         15         16         17         18
     1  C    0.000365   0.000126  -0.000115  -0.000005   0.000022  -0.000004
     2  H   -0.000152   0.000290   0.000003   0.000000  -0.000000   0.000000
     3  H   -0.000011   0.000016  -0.000005   0.000000  -0.000000   0.000002
     4  C    0.000507  -0.000460  -0.000031   0.000001  -0.000008  -0.000000
     5  C   -0.000151  -0.000142  -0.000023  -0.000001   0.000072  -0.000001
     6  H   -0.000010  -0.000004  -0.000001   0.000000  -0.000004   0.000000
     7  H   -0.000005   0.000023   0.000001   0.000000  -0.000002   0.000000
     8  H    0.000020  -0.000005   0.000052   0.000013  -0.000089  -0.000004
     9  C   -0.034120  -0.035991   0.000000   0.000000  -0.000000   0.000000
    10  H   -0.002274  -0.001344  -0.000000   0.000000  -0.000000   0.000000
    11  C    0.385911   0.386053  -0.000000  -0.000000   0.000000  -0.000000
    12  H   -0.029682  -0.027950  -0.000000   0.000000  -0.000000   0.000000
    13  H    0.580327  -0.031846   0.000000   0.000000   0.000000  -0.000000
    14  H   -0.031846   0.577701   0.000000   0.000000  -0.000000   0.000000
    15  C    0.000000   0.000000   5.006682   0.382191   0.380931   0.384808
    16  H    0.000000   0.000000   0.382191   0.588933  -0.034194  -0.027325
    17  H    0.000000  -0.000000   0.380931  -0.034194   0.589820  -0.027234
    18  H   -0.000000   0.000000   0.384808  -0.027325  -0.027234   0.573193
    19  C   -0.000001   0.000000   0.364907  -0.037590  -0.036032  -0.033153
    20  C    0.000024  -0.000000  -0.079134  -0.000664  -0.002152   0.004678
    21  H   -0.000002   0.000000  -0.002222   0.003904  -0.000752  -0.000054
    22  H    0.000001  -0.000000  -0.003310  -0.000867   0.004500   0.000025
    23  H    0.000033   0.000005   0.004810  -0.000009  -0.000060  -0.000166
    24  C   -0.000002  -0.000001  -0.036482  -0.001266  -0.001154  -0.004792
    25  H   -0.000000   0.000000  -0.013503   0.000235   0.000263   0.006172
    26  C    0.000086  -0.000020   0.005822  -0.000205  -0.000129   0.000108
    27  H   -0.000013   0.000004  -0.000180   0.000018  -0.000004  -0.000011
    28  H    0.000013   0.000009   0.000089   0.000002  -0.000002   0.000010
              19         20         21         22         23         24
     1  C   -0.001945   0.000276  -0.000036   0.000069  -0.000560  -0.054256
     2  H   -0.000074  -0.000015   0.000001  -0.000001   0.000036   0.005116
     3  H    0.000343  -0.000005   0.000000   0.000001   0.000009  -0.005870
     4  C    0.002703  -0.000235   0.000037  -0.000120   0.001743  -0.001635
     5  C   -0.002660   0.000134  -0.000004   0.000202  -0.000021  -0.002106
     6  H    0.000112  -0.000008   0.000000  -0.000019  -0.000003   0.000015
     7  H    0.000064  -0.000000   0.000000  -0.000001   0.000006   0.000130
     8  H    0.002729  -0.000060   0.000011  -0.000152  -0.000168   0.007295
     9  C    0.000294  -0.000429   0.000016  -0.000026   0.001663  -0.000362
    10  H   -0.000000   0.000004   0.000000  -0.000000  -0.000008   0.000001
    11  C   -0.000007  -0.000017  -0.000001  -0.000000   0.000036   0.000078
    12  H   -0.000003  -0.000000   0.000000   0.000000  -0.000038   0.000046
    13  H   -0.000001   0.000024  -0.000002   0.000001   0.000033  -0.000002
    14  H    0.000000  -0.000000   0.000000  -0.000000   0.000005  -0.000001
    15  C    0.364907  -0.079134  -0.002222  -0.003310   0.004810  -0.036482
    16  H   -0.037590  -0.000664   0.003904  -0.000867  -0.000009  -0.001266
    17  H   -0.036032  -0.002152  -0.000752   0.004500  -0.000060  -0.001154
    18  H   -0.033153   0.004678  -0.000054   0.000025  -0.000166  -0.004792
    19  C    4.739418   0.379729  -0.037077  -0.035909  -0.025966   0.709668
    20  C    0.379729   5.002312   0.380833   0.385064   0.380747  -0.050226
    21  H   -0.037077   0.380833   0.586225  -0.033244  -0.026817   0.000105
    22  H   -0.035909   0.385064  -0.033244   0.583165  -0.028370   0.000480
    23  H   -0.025966   0.380747  -0.026817  -0.028370   0.568892  -0.007696
    24  C    0.709668  -0.050226   0.000105   0.000480  -0.007696   4.904105
    25  H   -0.032890   0.006102  -0.000162  -0.000158   0.000008   0.376103
    26  C   -0.039467  -0.014384   0.000278   0.000473   0.001365   0.373137
    27  H    0.001856   0.000273   0.000048  -0.000019  -0.000004  -0.037619
    28  H   -0.006164   0.001012  -0.000050  -0.000140   0.003320  -0.037951
              25         26         27         28
     1  C   -0.001029   0.342712  -0.041297  -0.036750
     2  H   -0.000129  -0.032807  -0.005649  -0.002999
     3  H    0.003094  -0.040717  -0.001853   0.005143
     4  C   -0.000440  -0.043619   0.005763  -0.008246
     5  C    0.000151   0.000502  -0.000180   0.000042
     6  H    0.000001  -0.000085   0.000004   0.000005
     7  H   -0.000028  -0.000023   0.000014  -0.000003
     8  H    0.000159  -0.000566  -0.000013   0.000097
     9  C   -0.000011  -0.004696   0.000185   0.001255
    10  H   -0.000000  -0.000119   0.000005  -0.000081
    11  C   -0.000000  -0.000265  -0.000083   0.000826
    12  H    0.000001  -0.000507   0.000144   0.000847
    13  H   -0.000000   0.000086  -0.000013   0.000013
    14  H    0.000000  -0.000020   0.000004   0.000009
    15  C   -0.013503   0.005822  -0.000180   0.000089
    16  H    0.000235  -0.000205   0.000018   0.000002
    17  H    0.000263  -0.000129  -0.000004  -0.000002
    18  H    0.006172   0.000108  -0.000011   0.000010
    19  C   -0.032890  -0.039467   0.001856  -0.006164
    20  C    0.006102  -0.014384   0.000273   0.001012
    21  H   -0.000162   0.000278   0.000048  -0.000050
    22  H   -0.000158   0.000473  -0.000019  -0.000140
    23  H    0.000008   0.001365  -0.000004   0.003320
    24  C    0.376103   0.373137  -0.037619  -0.037951
    25  H    0.616297  -0.054723  -0.004764   0.004821
    26  C   -0.054723   4.971720   0.382496   0.392556
    27  H   -0.004764   0.382496   0.616130  -0.034485
    28  H    0.004821   0.392556  -0.034485   0.602470
 Mulliken charges:
               1
     1  C   -0.267701
     2  H    0.119058
     3  H    0.112076
     4  C    0.102679
     5  C   -0.393009
     6  H    0.117072
     7  H    0.123033
     8  H    0.130492
     9  C   -0.145093
    10  H    0.097553
    11  C   -0.393470
    12  H    0.119267
    13  H    0.130983
    14  H    0.133536
    15  C   -0.395289
    16  H    0.126830
    17  H    0.126208
    18  H    0.123748
    19  C    0.087114
    20  C   -0.393859
    21  H    0.128961
    22  H    0.128359
    23  H    0.127215
    24  C   -0.134860
    25  H    0.094432
    26  C   -0.238924
    27  H    0.119233
    28  H    0.114354
 Sum of Mulliken charges =  -0.00000
 Mulliken charges with hydrogens summed into heavy atoms:
               1
     1  C   -0.036567
     4  C    0.102679
     5  C   -0.022412
     9  C   -0.047539
    11  C   -0.009684
    15  C   -0.018503
    19  C    0.087114
    20  C   -0.009323
    24  C   -0.040427
    26  C   -0.005337
 Electronic spatial extent (au):  <R**2>=           2004.1030
 Charge=             -0.0000 electrons
 Dipole moment (field-independent basis, Debye):
    X=             -0.1894    Y=             -0.1956    Z=             -0.0102  Tot=              0.2724
 Quadrupole moment (field-independent basis, Debye-Ang):
   XX=            -64.1737   YY=            -64.0354   ZZ=            -63.5176
   XY=             -1.2017   XZ=              0.7638   YZ=              0.9332
 Traceless Quadrupole moment (field-independent basis, Debye-Ang):
   XX=             -0.2648   YY=             -0.1265   ZZ=              0.3914
   XY=             -1.2017   XZ=              0.7638   YZ=              0.9332
 Octapole moment (field-independent basis, Debye-Ang**2):
  XXX=             -3.7916  YYY=             -0.4591  ZZZ=             -1.2778  XYY=             -1.2573
  XXY=             -4.4408  XXZ=             -3.7149  XZZ=              2.5023  YZZ=              1.7786
  YYZ=              0.6383  XYZ=             -1.4892
 Hexadecapole moment (field-independent basis, Debye-Ang**3):
 XXXX=          -1790.8578 YYYY=           -518.0713 ZZZZ=           -440.0612 XXXY=            -10.2583
 XXXZ=             -0.8414 YYYX=              3.5877 YYYZ=              6.3927 ZZZX=             -0.4394
 ZZZY=             -1.4280 XXYY=           -385.9396 XXZZ=           -374.0927 YYZZ=           -163.6200
 XXYZ=              6.5565 YYXZ=             -1.9427 ZZXY=             -4.3452
 N-N= 5.328905023535D+02 E-N=-1.970878057352D+03  KE= 3.880714440213D+02
 No NMR shielding tensors so no spin-rotation constants.
 Leave Link  601 at Tue Jul  6 11:26:42 2021, MaxMem=   524288000 cpu:               1.8 elap:               0.4
 (Enter /opt/gaussian/g16_legacy/l701.exe)
 ... and contract with generalized density number  0.
 Compute integral first derivatives.
 Leave Link  701 at Tue Jul  6 11:26:43 2021, MaxMem=   524288000 cpu:               0.8 elap:               0.3
 (Enter /opt/gaussian/g16_legacy/l702.exe)
 L702 exits ... SP integral derivatives will be done elsewhere.
 Leave Link  702 at Tue Jul  6 11:26:43 2021, MaxMem=   524288000 cpu:               0.1 elap:               0.0
 (Enter /opt/gaussian/g16_legacy/l703.exe)
 Integral derivatives from FoFJK, PRISM(SPDF).
 Compute integral first derivatives, UseDBF=F ICtDFT=           0.
 Calling FoFJK, ICntrl=      2127 FMM=F ISym2X=0 I1Cent= 0 IOpClX= 0 NMat=1 NMatS=1 NMatT=0.
 FoFJK:  IHMeth= 1 ICntrl=    2127 DoSepK=F KAlg= 0 I1Cent=           0 FoldK=F
 IRaf=         0 NMat=       1 IRICut=       1 DoRegI=T DoRafI=F ISym2E= 0 IDoP0=0 IntGTp=1.
 FoFCou: FMM=F IPFlag=           0 FMFlag=      100000 FMFlg1=         800
         NFxFlg=           0 DoJE=F BraDBF=F KetDBF=F FulRan=T
         wScrn=  0.000000 ICntrl=      2127 IOpCl=  0 I1Cent=           0 NGrid=           0
         NMat0=    1 NMatS0=      1 NMatT0=    0 NMatD0=    1 NMtDS0=    0 NMtDT0=    0
 Symmetry not used in FoFCou.
 Leave Link  703 at Tue Jul  6 11:26:52 2021, MaxMem=   524288000 cpu:              53.8 elap:               9.1
 (Enter /opt/gaussian/g16_legacy/l716.exe)
 Dipole        =-7.45122167D-02-7.69428029D-02-4.01990232D-03
 ***** Axes restored to original set *****
 -------------------------------------------------------------------
 Center     Atomic                   Forces (Hartrees/Bohr)
 Number     Number              X              Y              Z
 -------------------------------------------------------------------
      1        6          -0.010012215   -0.000990215    0.002462077
      2        1           0.000666683    0.000628562    0.001558705
      3        1           0.002707677    0.002009540    0.001010955
      4        6          -0.006721293    0.008211388    0.003051603
      5        6          -0.002289435    0.004264835    0.001465789
      6        1          -0.000616064   -0.001549750    0.001304181
      7        1           0.002246972   -0.000756145   -0.001014799
      8        1           0.001954033   -0.002610567   -0.001438631
      9        6           0.010767822   -0.006697831   -0.007652940
     10        1           0.001845354    0.000287849   -0.002332984
     11        6           0.000899368   -0.001971941   -0.000198279
     12        1           0.000447467   -0.000088756   -0.001079531
     13        1          -0.002168796   -0.000552807    0.001333526
     14        1          -0.001148110   -0.000022614    0.002794190
     15        6          -0.000727640   -0.002984837   -0.002604997
     16        1           0.001184497    0.002734718    0.000227016
     17        1           0.002091233    0.001186406    0.001702914
     18        1          -0.001671666    0.000110145    0.001494794
     19        6          -0.006867731   -0.009111746   -0.009203471
     20        6          -0.004192733   -0.002121940    0.000780957
     21        1           0.001342682    0.002401319    0.000439046
     22        1           0.002181289    0.000146366    0.000860862
     23        1          -0.000066523   -0.001254755   -0.001513175
     24        6           0.002341267    0.009406840    0.008808625
     25        1           0.001593489    0.001396686   -0.000794776
     26        6           0.005833206   -0.004713817    0.000316743
     27        1          -0.000979214   -0.000522720   -0.000674332
     28        1          -0.000641618    0.003165787   -0.001104068
 -------------------------------------------------------------------
 Cartesian Forces:  Max     0.010767822 RMS     0.003593301
 Leave Link  716 at Tue Jul  6 11:26:52 2021, MaxMem=   524288000 cpu:               0.2 elap:               0.1
 (Enter /opt/gaussian/g16_legacy/l103.exe)

 GradGradGradGradGradGradGradGradGradGradGradGradGradGradGradGradGradGrad
 Berny optimization.
 FormGI is forming the generalized inverse of G from B-inverse, IUseBI=4.
 Internal  Forces:  Max     0.015077769 RMS     0.002567911
 Search for a local minimum.
 Step number   1 out of a maximum of  138
 All quantities printed in internal units (Hartrees-Bohrs-Radians)
 RMS Force = .25679D-02 SwitMx=.10000D-02 MixMth= 1
 Mixed Optimization -- RFO/linear search
 Second derivative matrix not updated -- first step.
 ITU=  0
     Eigenvalues ---    0.00293   0.00550   0.00670   0.00682   0.00686
     Eigenvalues ---    0.00715   0.00822   0.01207   0.01288   0.01564
     Eigenvalues ---    0.01641   0.02775   0.02783   0.03779   0.03849
     Eigenvalues ---    0.05303   0.05417   0.06958   0.07046   0.07079
     Eigenvalues ---    0.07091   0.07241   0.07301   0.07352   0.07503
     Eigenvalues ---    0.09574   0.09666   0.13019   0.13058   0.15999
     Eigenvalues ---    0.15999   0.16000   0.16000   0.16000   0.16000
     Eigenvalues ---    0.16000   0.16000   0.16000   0.16000   0.16000
     Eigenvalues ---    0.16000   0.16000   0.16000   0.21900   0.21912
     Eigenvalues ---    0.22000   0.22000   0.24985   0.24992   0.24997
     Eigenvalues ---    0.24998   0.28899   0.30724   0.31629   0.31719
     Eigenvalues ---    0.31754   0.31976   0.32827   0.33899   0.33906
     Eigenvalues ---    0.33964   0.34196   0.34212   0.34233   0.34238
     Eigenvalues ---    0.34244   0.34247   0.34248   0.34283   0.34319
     Eigenvalues ---    0.34367   0.34425   0.34546   0.34599   0.34807
     Eigenvalues ---    0.34857   0.55419   0.55549
 RFO step:  Lambda=-4.91608993D-03 EMin= 2.93115410D-03
 Linear search not attempted -- first point.
 Iteration  1 RMS(Cart)=  0.17329976 RMS(Int)=  0.00461984
 Iteration  2 RMS(Cart)=  0.00791717 RMS(Int)=  0.00035103
 Iteration  3 RMS(Cart)=  0.00002994 RMS(Int)=  0.00035079
 Iteration  4 RMS(Cart)=  0.00000001 RMS(Int)=  0.00035079
 ITry= 1 IFail=0 DXMaxC= 6.14D-01 DCOld= 1.00D+10 DXMaxT= 3.00D-01 DXLimC= 3.00D+00 Rises=F
 Variable       Old X    -DE/DX   Delta X   Delta X   Delta X     New X
                                 (Linear)    (Quad)   (Total)
    R1        2.07391  -0.00052   0.00000  -0.00151  -0.00151   2.07240
    R2        2.07502  -0.00084   0.00000  -0.00243  -0.00243   2.07258
    R3        2.86543  -0.00290   0.00000  -0.00929  -0.00929   2.85614
    R4        2.90214   0.00031   0.00000   0.00106   0.00106   2.90320
    R5        2.84828  -0.00010   0.00000  -0.00030  -0.00030   2.84798
    R6        2.54761  -0.01508   0.00000  -0.02697  -0.02697   2.52065
    R7        2.06974  -0.00121   0.00000  -0.00349  -0.00349   2.06626
    R8        2.06931   0.00061   0.00000   0.00175   0.00175   2.07106
    R9        2.06619   0.00181   0.00000   0.00517   0.00517   2.07136
   R10        2.05908   0.00004   0.00000   0.00010   0.00010   2.05918
   R11        2.82657   0.00428   0.00000   0.01285   0.01285   2.83942
   R12        2.06419   0.00010   0.00000   0.00028   0.00028   2.06447
   R13        2.06855   0.00039   0.00000   0.00114   0.00114   2.06969
   R14        2.06794   0.00080   0.00000   0.00229   0.00229   2.07023
   R15        2.06913   0.00069   0.00000   0.00200   0.00200   2.07113
   R16        2.06920   0.00061   0.00000   0.00176   0.00176   2.07095
   R17        2.06938  -0.00163   0.00000  -0.00469  -0.00469   2.06469
   R18        2.84662   0.00071   0.00000   0.00219   0.00219   2.84881
   R19        2.84187   0.00018   0.00000   0.00055   0.00055   2.84242
   R20        2.54647  -0.01335   0.00000  -0.02382  -0.02382   2.52265
   R21        2.06915   0.00078   0.00000   0.00224   0.00224   2.07139
   R22        2.07000   0.00003   0.00000   0.00010   0.00010   2.07010
   R23        2.06331  -0.00021   0.00000  -0.00059  -0.00059   2.06272
   R24        2.05990   0.00053   0.00000   0.00150   0.00150   2.06140
   R25        2.84596  -0.00192   0.00000  -0.00595  -0.00595   2.84001
   R26        2.07489   0.00042   0.00000   0.00121   0.00121   2.07610
   R27        2.06716   0.00008   0.00000   0.00023   0.00023   2.06738
    A1        1.82610   0.00077   0.00000   0.02974   0.02988   1.85598
    A2        1.90515   0.00302   0.00000   0.02771   0.02799   1.93314
    A3        1.89425   0.00155   0.00000   0.01579   0.01616   1.91041
    A4        1.91423   0.00124   0.00000  -0.01346  -0.01472   1.89951
    A5        1.92061   0.00039   0.00000  -0.01739  -0.01841   1.90220
    A6        1.99565  -0.00630   0.00000  -0.03563  -0.03620   1.95945
    A7        2.01406   0.00247   0.00000   0.01026   0.00945   2.02350
    A8        2.16741  -0.00690   0.00000  -0.02637  -0.02713   2.14028
    A9        2.10126   0.00446   0.00000   0.01821   0.01737   2.11863
   A10        1.95824  -0.00190   0.00000  -0.00671  -0.00671   1.95153
   A11        1.92350   0.00159   0.00000   0.00756   0.00754   1.93104
   A12        1.93560  -0.00068   0.00000  -0.00684  -0.00685   1.92875
   A13        1.87550   0.00110   0.00000   0.01191   0.01191   1.88740
   A14        1.87471   0.00211   0.00000   0.01670   0.01670   1.89142
   A15        1.89384  -0.00220   0.00000  -0.02264  -0.02267   1.87117
   A16        2.06940  -0.00159   0.00000  -0.01204  -0.01204   2.05735
   A17        2.22469  -0.00298   0.00000  -0.01325  -0.01325   2.21144
   A18        1.98904   0.00457   0.00000   0.02529   0.02529   2.01433
   A19        1.98099  -0.00264   0.00000  -0.01560  -0.01553   1.96546
   A20        1.91192   0.00295   0.00000   0.01782   0.01778   1.92970
   A21        1.91509   0.00338   0.00000   0.02017   0.02013   1.93522
   A22        1.87892  -0.00015   0.00000  -0.00030  -0.00024   1.87869
   A23        1.88670  -0.00048   0.00000  -0.00278  -0.00271   1.88399
   A24        1.88772  -0.00327   0.00000  -0.02060  -0.02076   1.86696
   A25        1.89488  -0.00316   0.00000  -0.02641  -0.02640   1.86849
   A26        1.87869   0.00082   0.00000   0.00830   0.00832   1.88701
   A27        1.92375   0.00183   0.00000   0.00919   0.00920   1.93296
   A28        1.87888   0.00096   0.00000   0.00950   0.00951   1.88839
   A29        1.92470   0.00170   0.00000   0.00857   0.00859   1.93328
   A30        1.96090  -0.00226   0.00000  -0.01003  -0.01001   1.95089
   A31        1.99323   0.00145   0.00000   0.00571   0.00571   1.99894
   A32        2.10483   0.00253   0.00000   0.00993   0.00993   2.11476
   A33        2.18502  -0.00399   0.00000  -0.01563  -0.01563   2.16939
   A34        1.92092   0.00186   0.00000   0.01045   0.01047   1.93138
   A35        1.92001   0.00011   0.00000  -0.00194  -0.00193   1.91808
   A36        1.98319  -0.00254   0.00000  -0.01182  -0.01181   1.97138
   A37        1.89056  -0.00233   0.00000  -0.02127  -0.02126   1.86931
   A38        1.88124   0.00121   0.00000   0.01225   0.01227   1.89351
   A39        1.86492   0.00163   0.00000   0.01166   0.01166   1.87658
   A40        2.06438  -0.00102   0.00000  -0.00775  -0.00800   2.05638
   A41        2.23224  -0.00224   0.00000  -0.00982  -0.01007   2.22216
   A42        1.98644   0.00327   0.00000   0.01820   0.01794   2.00438
   A43        1.98311  -0.00286   0.00000  -0.01871  -0.01966   1.96345
   A44        1.88585   0.00090   0.00000   0.02096   0.02111   1.90696
   A45        1.92704  -0.00104   0.00000  -0.03076  -0.03193   1.89511
   A46        1.86513   0.00268   0.00000   0.03890   0.03903   1.90417
   A47        1.95772  -0.00002   0.00000  -0.02460  -0.02603   1.93169
   A48        1.83642   0.00083   0.00000   0.02253   0.02305   1.85947
    D1       -2.44666  -0.00184   0.00000  -0.05182  -0.05147  -2.49813
    D2        0.66234  -0.00048   0.00000   0.02330   0.02277   0.68511
    D3       -0.45543   0.00140   0.00000  -0.00849  -0.00828  -0.46371
    D4        2.65358   0.00276   0.00000   0.06662   0.06595   2.71953
    D5        1.71129  -0.00177   0.00000  -0.06845  -0.06769   1.64360
    D6       -1.46289  -0.00040   0.00000   0.00667   0.00655  -1.45634
    D7        2.87029   0.00271   0.00000   0.11117   0.11086   2.98116
    D8        0.80388   0.00049   0.00000   0.05983   0.05975   0.86363
    D9       -1.19582  -0.00045   0.00000   0.03756   0.03794  -1.15788
   D10        0.88162   0.00074   0.00000   0.07637   0.07635   0.95797
   D11       -1.18479  -0.00148   0.00000   0.02502   0.02524  -1.15955
   D12        3.09869  -0.00242   0.00000   0.00275   0.00343   3.10212
   D13       -1.28169   0.00348   0.00000   0.13449   0.13389  -1.14779
   D14        2.93508   0.00126   0.00000   0.08315   0.08278   3.01787
   D15        0.93538   0.00032   0.00000   0.06088   0.06097   0.99636
   D16        3.11313   0.00086   0.00000   0.05595   0.05655  -3.11351
   D17        1.02394  -0.00036   0.00000   0.04015   0.04076   1.06470
   D18       -1.07355   0.00179   0.00000   0.06795   0.06854  -1.00501
   D19        0.00279  -0.00022   0.00000  -0.01520  -0.01579  -0.01301
   D20       -2.08640  -0.00144   0.00000  -0.03099  -0.03158  -2.11798
   D21        2.09929   0.00070   0.00000  -0.00319  -0.00380   2.09549
   D22       -3.12106  -0.00101   0.00000  -0.04915  -0.04892   3.11321
   D23        0.03262  -0.00103   0.00000  -0.04938  -0.04914  -0.01652
   D24       -0.01359   0.00037   0.00000   0.02932   0.02909   0.01550
   D25        3.14009   0.00035   0.00000   0.02910   0.02886  -3.11424
   D26        0.04566  -0.00021   0.00000  -0.01275  -0.01276   0.03291
   D27        2.14620  -0.00006   0.00000  -0.01084  -0.01093   2.13527
   D28       -2.06711  -0.00024   0.00000  -0.01315  -0.01307  -2.08018
   D29       -3.08432  -0.00019   0.00000  -0.01276  -0.01276  -3.09708
   D30       -0.98378  -0.00004   0.00000  -0.01085  -0.01094  -0.99472
   D31        1.08609  -0.00023   0.00000  -0.01316  -0.01307   1.07302
   D32        1.04401  -0.00083   0.00000  -0.01288  -0.01288   1.03113
   D33       -2.11218  -0.00087   0.00000  -0.01285  -0.01284  -2.12503
   D34       -1.04795   0.00084   0.00000   0.00861   0.00861  -1.03934
   D35        2.07905   0.00081   0.00000   0.00864   0.00864   2.08769
   D36        3.13918  -0.00004   0.00000  -0.00268  -0.00268   3.13650
   D37       -0.01701  -0.00007   0.00000  -0.00265  -0.00265  -0.01966
   D38       -1.13267   0.00096   0.00000   0.01244   0.01244  -1.12023
   D39        0.94920  -0.00068   0.00000  -0.00849  -0.00850   0.94070
   D40        3.03904  -0.00022   0.00000  -0.00285  -0.00284   3.03620
   D41        2.02430   0.00093   0.00000   0.01215   0.01215   2.03645
   D42       -2.17702  -0.00071   0.00000  -0.00878  -0.00879  -2.18581
   D43       -0.08718  -0.00025   0.00000  -0.00314  -0.00313  -0.09031
   D44       -0.00369  -0.00068   0.00000  -0.02860  -0.02844  -0.03213
   D45        3.11937   0.00027   0.00000   0.01658   0.01642   3.13579
   D46        3.12161  -0.00066   0.00000  -0.02834  -0.02818   3.09343
   D47       -0.03851   0.00029   0.00000   0.01683   0.01667  -0.02184
   D48        1.93618  -0.00258   0.00000  -0.10116  -0.10101   1.83517
   D49       -2.26870  -0.00135   0.00000  -0.06017  -0.06019  -2.32889
   D50       -0.26476   0.00121   0.00000  -0.02308  -0.02354  -0.28830
   D51       -1.22325  -0.00170   0.00000  -0.05789  -0.05752  -1.28077
   D52        0.85505  -0.00048   0.00000  -0.01690  -0.01670   0.83835
   D53        2.85899   0.00209   0.00000   0.02019   0.01995   2.87895
         Item               Value     Threshold  Converged?
 Maximum Force            0.015078     0.002500     NO 
 RMS     Force            0.002568     0.001667     NO 
 Maximum Displacement     0.613702     0.010000     NO 
 RMS     Displacement     0.176638     0.006667     NO 
 Predicted change in Energy=-2.724057D-03
 Lowest energy point so far.  Saving SCF results.
 GradGradGradGradGradGradGradGradGradGradGradGradGradGradGradGradGradGrad

 Leave Link  103 at Tue Jul  6 11:26:52 2021, MaxMem=   524288000 cpu:               0.6 elap:               0.1
 (Enter /opt/gaussian/g16_legacy/l202.exe)
                          Input orientation:                          
 ---------------------------------------------------------------------
 Center     Atomic      Atomic             Coordinates (Angstroms)
[...]
                 (A) (A) (A) (A) (A) (A) (A) (A) (A) (A) (A) (A)
                 (A) (A) (A) (A) (A) (A) (A) (A) (A) (A) (A) (A)
                 (A) (A) (A) (A) (A) (A) (A) (A) (A) (A) (A) (A)
                 (A) (A) (A) (A) (A) (A) (A) (A) (A) (A) (A) (A)
                 (A) (A) (A) (A) (A) (A) (A) (A) (A) (A) (A) (A)
                 (A) (A) (A) (A) (A) (A) (A) (A) (A) (A) (A) (A)
                 (A) (A) (A) (A) (A) (A) (A) (A) (A) (A) (A) (A)
                 (A) (A) (A) (A) (A) (A) (A) (A) (A) (A) (A) (A)
                 (A) (A) (A) (A) (A) (A) (A) (A) (A) (A) (A) (A)
                 (A) (A) (A) (A) (A) (A) (A) (A) (A) (A) (A) (A)
                 (A) (A) (A) (A) (A) (A) (A) (A) (A) (A) (A) (A)
                 (A) (A) (A) (A) (A) (A) (A) (A) (A)
 The electronic state is 1-A.
 Alpha  occ. eigenvalues --  -10.54475 -10.53983 -10.53972 -10.53897 -10.53468
 Alpha  occ. eigenvalues --  -10.53319 -10.53143 -10.53073 -10.53027 -10.52845
 Alpha  occ. eigenvalues --   -0.92302  -0.89691  -0.84490  -0.81454  -0.77582
 Alpha  occ. eigenvalues --   -0.76226  -0.71794  -0.68602  -0.58475  -0.58162
 Alpha  occ. eigenvalues --   -0.53099  -0.52562  -0.50251  -0.49647  -0.48399
 Alpha  occ. eigenvalues --   -0.47851  -0.46459  -0.45432  -0.44530  -0.44084
 Alpha  occ. eigenvalues --   -0.43045  -0.42193  -0.41333  -0.40720  -0.39643
 Alpha  occ. eigenvalues --   -0.37144  -0.36583  -0.28845  -0.27014
 Alpha virt. eigenvalues --    0.06946   0.07788   0.12649   0.14001   0.16114
 Alpha virt. eigenvalues --    0.16749   0.17358   0.19721   0.19900   0.20475
 Alpha virt. eigenvalues --    0.20956   0.21999   0.22564   0.22662   0.23050
 Alpha virt. eigenvalues --    0.24413   0.25408   0.25639   0.26796   0.27771
 Alpha virt. eigenvalues --    0.28256   0.29594   0.30707   0.32591   0.32937
 Alpha virt. eigenvalues --    0.38175   0.39340   0.48243   0.49666   0.51040
 Alpha virt. eigenvalues --    0.54810   0.55328   0.56991   0.57658   0.60428
 Alpha virt. eigenvalues --    0.60726   0.62072   0.63245   0.65038   0.66458
 Alpha virt. eigenvalues --    0.68471   0.69535   0.70035   0.71333   0.73184
 Alpha virt. eigenvalues --    0.75302   0.76324   0.77284   0.78652   0.81019
 Alpha virt. eigenvalues --    0.81725   0.83454   0.83845   0.84607   0.87230
 Alpha virt. eigenvalues --    0.88564   0.89727   0.90384   0.92183   0.93705
 Alpha virt. eigenvalues --    0.94648   0.94794   0.95246   0.96192   0.96747
 Alpha virt. eigenvalues --    0.97140   0.99376   0.99667   1.00427   1.01168
 Alpha virt. eigenvalues --    1.02455   1.04439   1.05152   1.07661   1.09451
 Alpha virt. eigenvalues --    1.11003   1.11927   1.22675   1.23403   1.24397
 Alpha virt. eigenvalues --    1.27500   1.28171   1.36853   1.37780   1.39191
 Alpha virt. eigenvalues --    1.40145   1.41919   1.46669   1.51167   1.52942
 Alpha virt. eigenvalues --    1.54097   1.55585   1.67074   1.70396   1.72762
 Alpha virt. eigenvalues --    1.75190   1.78221   1.79377   1.80044   1.82706
 Alpha virt. eigenvalues --    1.83738   1.85367   1.87339   1.89724   1.90912
 Alpha virt. eigenvalues --    1.91510   1.93644   1.95528   2.01052   2.03124
 Alpha virt. eigenvalues --    2.03914   2.05536   2.06846   2.09681   2.09944
 Alpha virt. eigenvalues --    2.10487   2.10786   2.11739   2.13381   2.15388
 Alpha virt. eigenvalues --    2.16125   2.16639   2.17359   2.18394   2.19636
 Alpha virt. eigenvalues --    2.20768   2.22197   2.23438   2.23949   2.25200
 Alpha virt. eigenvalues --    2.29054   2.30210   2.31738   2.34903   2.35961
 Alpha virt. eigenvalues --    2.38972   2.40116   2.43193   2.43937   2.46639
 Alpha virt. eigenvalues --    2.47266   2.48969   2.50099   2.52888   2.53043
 Alpha virt. eigenvalues --    2.56351   2.57883   2.61588   2.62535   2.64058
 Alpha virt. eigenvalues --    2.65389   2.66383   2.67561   2.70293   2.71599
 Alpha virt. eigenvalues --    2.74846   2.75834   2.76562   2.79371   2.84584
 Alpha virt. eigenvalues --    2.85582   2.86857   2.86922   2.87528   2.89848
 Alpha virt. eigenvalues --    2.90418   2.91411   2.92585   2.93984   3.03085
 Alpha virt. eigenvalues --    3.04467   3.09680   3.10441   3.17442   3.20205
 Alpha virt. eigenvalues --    3.20784   3.24500   3.30947   3.32286   3.40411
 Alpha virt. eigenvalues --    3.42170   3.43145   3.43520   3.44232   3.45059
 Alpha virt. eigenvalues --    3.45888   3.47139   3.48553   3.50281   3.52530
 Alpha virt. eigenvalues --    3.55989   4.18609   4.25469   4.35503   4.43272
 Alpha virt. eigenvalues --    4.51266   4.52478   4.54736   4.70030   4.71894
 Alpha virt. eigenvalues --    4.74614
          Condensed to atoms (all electrons):
               1          2          3          4          5          6
     1  C    5.059629   0.378058   0.388571   0.358164  -0.063746   0.004762
     2  H    0.378058   0.598884  -0.032167  -0.029951   0.003993  -0.000179
     3  H    0.388571  -0.032167   0.611679  -0.040708  -0.006830   0.000186
     4  C    0.358164  -0.029951  -0.040708   4.747901   0.374751  -0.035910
     5  C   -0.063746   0.003993  -0.006830   0.374751   5.005345   0.383953
     6  H    0.004762  -0.000179   0.000186  -0.035910   0.383953   0.581062
     7  H   -0.004603   0.000146   0.003377  -0.031942   0.377242  -0.027294
     8  H    0.000564   0.000040   0.000523  -0.037834   0.377487  -0.025745
     9  C   -0.056584  -0.007691   0.004934   0.719250  -0.044889  -0.005491
    10  H    0.006296  -0.000046  -0.000176  -0.030953  -0.013918   0.006627
    11  C   -0.013097  -0.000202   0.000246  -0.045515   0.006227   0.000078
    12  H    0.004181   0.002951  -0.000071  -0.008990   0.000107   0.000008
    13  H    0.000594  -0.000235  -0.000017  -0.001394  -0.000149  -0.000004
    14  H    0.000037   0.000193   0.000007   0.000992  -0.000132  -0.000007
    15  C   -0.000084   0.000003  -0.000002  -0.000126  -0.000068  -0.000011
    16  H   -0.000007   0.000000   0.000000   0.000001  -0.000003   0.000000
    17  H    0.000034  -0.000000  -0.000001  -0.000026   0.000215  -0.000010
    18  H   -0.000006   0.000000   0.000003   0.000005  -0.000010   0.000000
    19  C   -0.005288  -0.000011   0.000224   0.003895  -0.004119   0.000247
    20  C    0.000099  -0.000009   0.000002   0.000797   0.000088  -0.000047
    21  H   -0.000052   0.000001   0.000001   0.000179  -0.000013   0.000001
    22  H    0.000209  -0.000006  -0.000000  -0.000249   0.000649   0.000006
    23  H   -0.000744   0.000053   0.000001  -0.000055   0.000013  -0.000005
    24  C   -0.058963   0.005400  -0.005487  -0.003096  -0.003277  -0.000010
    25  H    0.000050  -0.000147   0.002531  -0.000494   0.000038   0.000003
    26  C    0.348031  -0.033137  -0.039768  -0.043914  -0.000050  -0.000088
    27  H   -0.040651  -0.003394  -0.003061   0.006022  -0.000186   0.000004
    28  H   -0.038668  -0.004842   0.005509  -0.009294  -0.000030   0.000010
               7          8          9         10         11         12
     1  C   -0.004603   0.000564  -0.056584   0.006296  -0.013097   0.004181
     2  H    0.000146   0.000040  -0.007691  -0.000046  -0.000202   0.002951
     3  H    0.003377   0.000523   0.004934  -0.000176   0.000246  -0.000071
     4  C   -0.031942  -0.037834   0.719250  -0.030953  -0.045515  -0.008990
     5  C    0.377242   0.377487  -0.044889  -0.013918   0.006227   0.000107
     6  H   -0.027294  -0.025745  -0.005491   0.006627   0.000078   0.000008
     7  H    0.592948  -0.034665  -0.000093   0.000299  -0.000170   0.000008
     8  H   -0.034665   0.583374  -0.001371   0.000213  -0.000179  -0.000009
     9  C   -0.000093  -0.001371   4.901475   0.377364   0.362486  -0.035427
    10  H    0.000299   0.000213   0.377364   0.611465  -0.054067   0.004435
    11  C   -0.000170  -0.000179   0.362486  -0.054067   4.981131   0.389241
    12  H    0.000008  -0.000009  -0.035427   0.004435   0.389241   0.581543
    13  H   -0.000006   0.000026  -0.035417  -0.000237   0.383028  -0.030313
    14  H    0.000016  -0.000004  -0.031750  -0.002791   0.386336  -0.027415
    15  C    0.000001   0.000294   0.000002  -0.000001  -0.000001  -0.000000
    16  H    0.000000   0.000026  -0.000000   0.000000   0.000000   0.000000
    17  H   -0.000006  -0.000084  -0.000003   0.000000   0.000000  -0.000000
    18  H    0.000000   0.000016   0.000000   0.000000   0.000000   0.000000
    19  C    0.000110   0.002635   0.000400  -0.000015   0.000023  -0.000012
    20  C    0.000014  -0.000389  -0.000132   0.000019  -0.000780   0.000033
    21  H    0.000000   0.000003   0.000180  -0.000001   0.000002   0.000001
    22  H   -0.000005  -0.000370   0.000505   0.000191  -0.000056   0.000003
    23  H    0.000001  -0.000020   0.000855  -0.000133   0.000336  -0.000185
    24  C    0.000198   0.007802  -0.001483   0.000006   0.000168   0.000115
    25  H   -0.000022   0.000372  -0.000011   0.000000  -0.000001   0.000000
    26  C    0.000046  -0.000838  -0.004968  -0.000171  -0.001160  -0.002194
    27  H    0.000017  -0.000045   0.000236   0.000005  -0.000096   0.000225
    28  H   -0.000008   0.000133   0.000787  -0.000069   0.001750   0.000856
              13         14         15         16         17         18
     1  C    0.000594   0.000037  -0.000084  -0.000007   0.000034  -0.000006
     2  H   -0.000235   0.000193   0.000003   0.000000  -0.000000   0.000000
     3  H   -0.000017   0.000007  -0.000002   0.000000  -0.000001   0.000003
     4  C   -0.001394   0.000992  -0.000126   0.000001  -0.000026   0.000005
     5  C   -0.000149  -0.000132  -0.000068  -0.000003   0.000215  -0.000010
     6  H   -0.000004  -0.000007  -0.000011   0.000000  -0.000010   0.000000
     7  H   -0.000006   0.000016   0.000001   0.000000  -0.000006   0.000000
     8  H    0.000026  -0.000004   0.000294   0.000026  -0.000084   0.000016
     9  C   -0.035417  -0.031750   0.000002  -0.000000  -0.000003   0.000000
    10  H   -0.000237  -0.002791  -0.000001   0.000000   0.000000   0.000000
    11  C    0.383028   0.386336  -0.000001   0.000000   0.000000   0.000000
    12  H   -0.030313  -0.027415  -0.000000   0.000000  -0.000000   0.000000
    13  H    0.586298  -0.033424   0.000000   0.000000   0.000000  -0.000000
    14  H   -0.033424   0.575922   0.000000   0.000000  -0.000000  -0.000000
    15  C    0.000000   0.000000   5.008829   0.380613   0.381649   0.384607
    16  H    0.000000   0.000000   0.380613   0.588982  -0.036611  -0.026270
    17  H    0.000000  -0.000000   0.381649  -0.036611   0.592796  -0.026696
    18  H   -0.000000  -0.000000   0.384607  -0.026270  -0.026696   0.572056
    19  C    0.000014  -0.000000   0.366666  -0.034476  -0.037170  -0.033824
    20  C   -0.000074   0.000016  -0.078667  -0.001780  -0.001044   0.004770
    21  H   -0.000061   0.000000  -0.003477   0.004495  -0.001010   0.000009
    22  H    0.000017  -0.000000  -0.002081  -0.000714   0.003929  -0.000038
    23  H    0.001676   0.000001   0.004925  -0.000017  -0.000038  -0.000177
    24  C    0.000013  -0.000004  -0.038027  -0.000842  -0.001523  -0.004917
    25  H   -0.000000   0.000000  -0.014460   0.000283   0.000224   0.006712
    26  C   -0.000107   0.000060   0.005941  -0.000200  -0.000122   0.000095
    27  H   -0.000028   0.000002  -0.000170   0.000011  -0.000003  -0.000009
    28  H    0.000132   0.000018   0.000063   0.000009  -0.000006   0.000012
              19         20         21         22         23         24
     1  C   -0.005288   0.000099  -0.000052   0.000209  -0.000744  -0.058963
     2  H   -0.000011  -0.000009   0.000001  -0.000006   0.000053   0.005400
     3  H    0.000224   0.000002   0.000001  -0.000000   0.000001  -0.005487
     4  C    0.003895   0.000797   0.000179  -0.000249  -0.000055  -0.003096
     5  C   -0.004119   0.000088  -0.000013   0.000649   0.000013  -0.003277
     6  H    0.000247  -0.000047   0.000001   0.000006  -0.000005  -0.000010
     7  H    0.000110   0.000014   0.000000  -0.000005   0.000001   0.000198
     8  H    0.002635  -0.000389   0.000003  -0.000370  -0.000020   0.007802
     9  C    0.000400  -0.000132   0.000180   0.000505   0.000855  -0.001483
    10  H   -0.000015   0.000019  -0.000001   0.000191  -0.000133   0.000006
    11  C    0.000023  -0.000780   0.000002  -0.000056   0.000336   0.000168
    12  H   -0.000012   0.000033   0.000001   0.000003  -0.000185   0.000115
    13  H    0.000014  -0.000074  -0.000061   0.000017   0.001676   0.000013
    14  H   -0.000000   0.000016   0.000000  -0.000000   0.000001  -0.000004
    15  C    0.366666  -0.078667  -0.003477  -0.002081   0.004925  -0.038027
    16  H   -0.034476  -0.001780   0.004495  -0.000714  -0.000017  -0.000842
    17  H   -0.037170  -0.001044  -0.001010   0.003929  -0.000038  -0.001523
    18  H   -0.033824   0.004770   0.000009  -0.000038  -0.000177  -0.004917
    19  C    4.719356   0.382808  -0.037475  -0.033907  -0.026358   0.714813
    20  C    0.382808   4.991769   0.379370   0.383137   0.381843  -0.051494
    21  H   -0.037475   0.379370   0.596373  -0.035157  -0.026968   0.001509
    22  H   -0.033907   0.383137  -0.035157   0.584006  -0.028157  -0.001242
    23  H   -0.026358   0.381843  -0.026968  -0.028157   0.577451  -0.008470
    24  C    0.714813  -0.051494   0.001509  -0.001242  -0.008470   4.914915
    25  H   -0.034514   0.006458  -0.000160  -0.000179  -0.000002   0.376248
    26  C   -0.038851  -0.015174   0.000206   0.000693   0.001638   0.372261
    27  H    0.002616   0.000371   0.000024  -0.000018  -0.000039  -0.033287
    28  H   -0.006370   0.000253   0.000026  -0.000292   0.003466  -0.040578
              25         26         27         28
     1  C    0.000050   0.348031  -0.040651  -0.038668
     2  H   -0.000147  -0.033137  -0.003394  -0.004842
     3  H    0.002531  -0.039768  -0.003061   0.005509
     4  C   -0.000494  -0.043914   0.006022  -0.009294
     5  C    0.000038  -0.000050  -0.000186  -0.000030
     6  H    0.000003  -0.000088   0.000004   0.000010
     7  H   -0.000022   0.000046   0.000017  -0.000008
     8  H    0.000372  -0.000838  -0.000045   0.000133
     9  C   -0.000011  -0.004968   0.000236   0.000787
    10  H    0.000000  -0.000171   0.000005  -0.000069
    11  C   -0.000001  -0.001160  -0.000096   0.001750
    12  H    0.000000  -0.002194   0.000225   0.000856
    13  H   -0.000000  -0.000107  -0.000028   0.000132
    14  H    0.000000   0.000060   0.000002   0.000018
    15  C   -0.014460   0.005941  -0.000170   0.000063
    16  H    0.000283  -0.000200   0.000011   0.000009
    17  H    0.000224  -0.000122  -0.000003  -0.000006
    18  H    0.006712   0.000095  -0.000009   0.000012
    19  C   -0.034514  -0.038851   0.002616  -0.006370
    20  C    0.006458  -0.015174   0.000371   0.000253
    21  H   -0.000160   0.000206   0.000024   0.000026
    22  H   -0.000179   0.000693  -0.000018  -0.000292
    23  H   -0.000002   0.001638  -0.000039   0.003466
    24  C    0.376248   0.372261  -0.033287  -0.040578
    25  H    0.618377  -0.053679  -0.004873   0.004857
    26  C   -0.053679   4.968871   0.382155   0.392834
    27  H   -0.004873   0.382155   0.609506  -0.032809
    28  H    0.004857   0.392834  -0.032809   0.610126
 Mulliken charges:
               1
     1  C   -0.266784
     2  H    0.122295
     3  H    0.110496
     4  C    0.108495
     5  C   -0.392690
     6  H    0.117855
     7  H    0.124390
     8  H    0.128045
     9  C   -0.143163
    10  H    0.095659
    11  C   -0.395729
    12  H    0.120908
    13  H    0.129668
    14  H    0.131928
    15  C   -0.396420
    16  H    0.126498
    17  H    0.125507
    18  H    0.123662
    19  C    0.098581
    20  C   -0.382260
    21  H    0.121992
    22  H    0.129124
    23  H    0.119109
    24  C   -0.140748
    25  H    0.092389
    26  C   -0.238409
    27  H    0.117476
    28  H    0.112125
 Sum of Mulliken charges =  -0.00000
 Mulliken charges with hydrogens summed into heavy atoms:
               1
     1  C   -0.033994
     4  C    0.108495
     5  C   -0.022400
     9  C   -0.047504
    11  C   -0.013224
    15  C   -0.020753
    19  C    0.098581
    20  C   -0.012035
    24  C   -0.048359
    26  C   -0.008808
 Electronic spatial extent (au):  <R**2>=           1799.2712
 Charge=              0.0000 electrons
 Dipole moment (field-independent basis, Debye):
    X=             -0.1034    Y=             -0.1163    Z=             -0.0549  Tot=              0.1650
 Quadrupole moment (field-independent basis, Debye-Ang):
   XX=            -64.8114   YY=            -63.5057   ZZ=            -64.1014
   XY=             -1.1257   XZ=              1.4643   YZ=              1.1620
 Traceless Quadrupole moment (field-independent basis, Debye-Ang):
   XX=             -0.6719   YY=              0.6338   ZZ=              0.0381
   XY=             -1.1257   XZ=              1.4643   YZ=              1.1620
 Octapole moment (field-independent basis, Debye-Ang**2):
  XXX=             -4.4865  YYY=              0.7955  ZZZ=             -2.5913  XYY=             -1.0381
  XXY=             -4.4058  XXZ=             -1.3599  XZZ=              3.2199  YZZ=              1.0030
  YYZ=              0.9148  XYZ=             -0.6856
 Hexadecapole moment (field-independent basis, Debye-Ang**3):
 XXXX=          -1452.1453 YYYY=           -548.0962 ZZZZ=           -472.3089 XXXY=            -11.4652
 XXXZ=              6.8472 YYYX=              2.6416 YYYZ=              1.3908 ZZZX=              2.4734
 ZZZY=              5.4872 XXYY=           -327.0847 XXZZ=           -327.2202 YYZZ=           -176.7157
 XXYZ=              7.8646 YYXZ=             -3.2527 ZZXY=             -3.2565
 N-N= 5.462104562501D+02 E-N=-1.997560798044D+03  KE= 3.881308116569D+02
 No NMR shielding tensors so no spin-rotation constants.
 Leave Link  601 at Tue Jul  6 11:36:11 2021, MaxMem=   524288000 cpu:               0.8 elap:               0.1
 (Enter /opt/gaussian/g16_legacy/l9999.exe)
 1\1\GINC-TRUENO95\FOpt\RM062X\6-31G(d,p)\C10H18\JRAMOS\06-Jul-2021\0\\
 #p opt=loose m062x/6-31g(d,p)\\Conformer number 408. Energy MM = 23.95
 9 kcal/mol\\0,1\C,-1.1610614914,-1.2761343065,-0.6845196093\H,-2.08347
 11291,-1.8089218705,-0.4284336793\H,-0.9010997973,-1.5774740859,-1.706
 3225059\C,-1.3827510238,0.2226932249,-0.6449259509\C,-0.7877919619,1.0
 078274945,-1.7828380555\H,-0.9528421503,2.0814212413,-1.6631691302\H,-
 1.2242268814,0.6968019619,-2.7393850993\H,0.2908543726,0.8244704673,-1
 .847979227\C,-2.0356804807,0.8298906152,0.3512030039\H,-2.1236497811,1
 .9156222295,0.3140235042\C,-2.6594881749,0.169868665,1.5464976824\H,-2
 .667956285,-0.9192983539,1.4654188248\H,-2.1200139686,0.4304319158,2.4
 655604506\H,-3.692476573,0.5055655491,1.6834318783\C,3.2159967556,0.41
 93180415,-0.0873051396\H,3.9764736242,0.4277942104,0.70214161\H,3.1233
 540069,1.4517022231,-0.4454385158\H,3.5816687505,-0.1981232717,-0.9107
 560591\C,1.8965219907,-0.0781522142,0.4426350096\C,1.3361933336,0.7395
 920455,1.5755614781\H,2.0727725367,0.8317082384,2.3820658191\H,1.11476
 81462,1.7554861779,1.2271013906\H,0.4148659878,0.3274039366,1.98770851
 75\C,1.2961685854,-1.1437126919,-0.0982716859\H,1.7966606032,-1.627024
 7772,-0.9388860825\C,-0.03751125,-1.7295037674,0.2723624265\H,0.028275
 7423,-2.823622582,0.2450329961\H,-0.3142534872,-1.4555303168,1.2949861
 484\\Version=EM64L-G16RevA.03\State=1-A\HF=-391.6922787\RMSD=4.881e-09
 \RMSF=7.588e-06\Dipole=0.0410918,0.03103,0.039555\Quadrupole=-0.502968
 8,0.4166149,0.0863539,0.8848862,-1.0503732,0.8745659\PG=C01 [X(C10H18)
 ]\\@


 ACCORDING TO HEN3RY, LIFE IS MUCH LIKE A SEWER........
 YOU GET OUT OF IT JUST WHAT YOU PUT INTO IT...........
                         TOM LEHRER - (THE 3 IS SILENT)
 Job cpu time:       0 days  1 hours  1 minutes 55.1 seconds.
 Elapsed time:       0 days  0 hours 10 minutes 22.3 seconds.
 File lengths (MBytes):  RWF=     42 Int=      0 D2E=      0 Chk=      6 Scr=      1
 Normal termination of Gaussian 16 at Tue Jul  6 11:36:12 2021.
