 Entering Gaussian System, Link 0=g16
 Input=dimer_13b_00001_gaussian.com
 Output=dimer_13b_00001_gaussian.log
 Initial command:
 /dragofs/sw/campus/0.2/software/gaussian/16.gaussian/gaussian/g16_legacy/l1.exe "/lustre/scratch-global/iem/jramos/Gau-3797214.inp" -scrdir="/lustre/scratch-global/iem/jramos/"
 Entering Link 1 = /dragofs/sw/campus/0.2/software/gaussian/16.gaussian/gaussian/g16_legacy/l1.exe PID=   3797215.
  
 Copyright (c) 1988,1990,1992,1993,1995,1998,2003,2009,2016,
            Gaussian, Inc.  All Rights Reserved.
  
 This is part of the Gaussian(R) 16 program.  It is based on
 the Gaussian(R) 09 system (copyright 2009, Gaussian, Inc.),
 the Gaussian(R) 03 system (copyright 2003, Gaussian, Inc.),
 the Gaussian(R) 98 system (copyright 1998, Gaussian, Inc.),
 the Gaussian(R) 94 system (copyright 1995, Gaussian, Inc.),
 the Gaussian 92(TM) system (copyright 1992, Gaussian, Inc.),
 the Gaussian 90(TM) system (copyright 1990, Gaussian, Inc.),
 the Gaussian 88(TM) system (copyright 1988, Gaussian, Inc.),
 the Gaussian 86(TM) system (copyright 1986, Carnegie Mellon
 University), and the Gaussian 82(TM) system (copyright 1983,
 Carnegie Mellon University). Gaussian is a federally registered
 trademark of Gaussian, Inc.
  
 This software contains proprietary and confidential information,
 including trade secrets, belonging to Gaussian, Inc.
  
 This software is provided under written license and may be
 used, copied, transmitted, or stored only in accord with that
 written license.
  
 The following legend is applicable only to US Government
 contracts under FAR:
  
                    RESTRICTED RIGHTS LEGEND
  
 Use, reproduction and disclosure by the US Government is
 subject to restrictions as set forth in subparagraphs (a)
 and (c) of the Commercial Computer Software - Restricted
 Rights clause in FAR 52.227-19.
  
 Gaussian, Inc.
 340 Quinnipiac St., Bldg. 40, Wallingford CT 06492
  
  
 ---------------------------------------------------------------
 Warning -- This program may not be used in any manner that
 competes with the business of Gaussian, Inc. or will provide
 assistance to any competitor of Gaussian, Inc.  The licensee
 of this program is prohibited from giving any competitor of
 Gaussian, Inc. access to this program.  By using this program,
 the user acknowledges that Gaussian, Inc. is engaged in the
 business of creating and licensing software in the field of
 computational chemistry and represents and warrants to the
 licensee that it is not a competitor of Gaussian, Inc. and that
 it will not use this program in any manner prohibited above.
 ---------------------------------------------------------------
  

 Cite this work as:
 Gaussian 16, Revision A.03,
 M. J. Frisch, G. W. Trucks, H. B. Schlegel, G. E. Scuseria, 
 M. A. Robb, J. R. Cheeseman, G. Scalmani, V. Barone, 
 G. A. Petersson, H. Nakatsuji, X. Li, M. Caricato, A. V. Marenich, 
 J. Bloino, B. G. Janesko, R. Gomperts, B. Mennucci, H. P. Hratchian, 
 J. V. Ortiz, A. F. Izmaylov, J. L. Sonnenberg, D. Williams-Young, 
 F. Ding, F. Lipparini, F. Egidi, J. Goings, B. Peng, A. Petrone, 
 T. Henderson, D. Ranasinghe, V. G. Zakrzewski, J. Gao, N. Rega, 
 G. Zheng, W. Liang, M. Hada, M. Ehara, K. Toyota, R. Fukuda, 
 J. Hasegawa, M. Ishida, T. Nakajima, Y. Honda, O. Kitao, H. Nakai, 
 T. Vreven, K. Throssell, J. A. Montgomery, Jr., J. E. Peralta, 
 F. Ogliaro, M. J. Bearpark, J. J. Heyd, E. N. Brothers, K. N. Kudin, 
 V. N. Staroverov, T. A. Keith, R. Kobayashi, J. Normand, 
 K. Raghavachari, A. P. Rendell, J. C. Burant, S. S. Iyengar, 
 J. Tomasi, M. Cossi, J. M. Millam, M. Klene, C. Adamo, R. Cammi, 
 J. W. Ochterski, R. L. Martin, K. Morokuma, O. Farkas, 
 J. B. Foresman, and D. J. Fox, Gaussian, Inc., Wallingford CT, 2016.
 
 ******************************************
 Gaussian 16:  EM64L-G16RevA.03 25-Dec-2016
                14-Apr-2023 
 ******************************************
 %chk=dimer_13b_00001_gaussian.chk
 %nproc=8
 Will use up to    8 processors via shared memory.
 %mem=4000Mb
 -------------------------------------
 #p opt=modredundant m062x/6-311g(d,p)
 -------------------------------------
 1/18=120,19=15,26=3,38=1/1,3;
 2/9=110,12=2,17=6,18=5,40=1/2;
 3/5=4,6=6,7=101,11=2,25=1,30=1,71=1,74=-55/1,2,3;
 4//1;
 5/5=2,38=5/2;
 6/7=2,8=2,9=2,10=2,28=1/1;
 7//1,2,3,16;
 1/18=20,19=15,26=3/3(2);
 2/9=110/2;
 99//99;
 2/9=110/2;
 3/5=4,6=6,7=101,11=2,25=1,30=1,71=1,74=-55/1,2,3;
 4/5=5,16=3,69=1/1;
 5/5=2,38=5/2;
 7//1,2,3,16;
 1/18=20,19=15,26=3/3(-5);
 2/9=110/2;
 6/7=2,8=2,9=2,10=2,19=2,28=1/1;
 99/9=1/99;
 Leave Link    1 at Fri Apr 14 15:52:05 2023, MaxMem=   524288000 cpu:               0.8 elap:               0.2
 (Enter /dragofs/sw/campus/0.2/software/gaussian/16.gaussian/gaussian/g16_legacy/l101.exe)
 ----------------------------------------------------
 Conformer number 00001. Energy MM = 203.669 kcal/mol
 ----------------------------------------------------
 Symbolic Z-matrix:
 Charge =  0 Multiplicity = 1
 C                     2.8027    1.0954    0.7848 
 H                     3.632     1.8335    0.7491 
 O                     3.083     0.1197    1.7884 
 H                     3.1896    0.636     2.6124 
 C                     0.4764    1.8031    0.5542 
 H                     0.5799    2.4879   -0.3112 
 O                     1.6865    1.8313    1.3147 
 C                     2.6862    0.4857   -0.6672 
 H                     3.6013   -0.0433   -0.9647 
 O                     2.8276    1.6713   -1.5445 
 H                     3.6252    1.5068   -2.103 
 C                     1.1981   -0.0038   -0.9645 
 H                     0.8733    0.4698   -1.9208 
 O                     0.9249   -1.4669   -1.282 
 C                     0.1886    0.3693    0.1255 
 H                     0.271    -0.3203    0.9717 
 O                    -1.1393    0.2152   -0.4054 
 H                    -1.0441   -0.5003   -1.076 
 C                    -0.6429    2.3391    1.4504 
 H                    -1.6117    2.287     0.9317 
 H                    -0.7175    1.7747    2.4145 
 O                    -0.4227    3.7321    1.7562 
 H                     0.4539    3.7864    2.1828 
 C                     2.0287   -2.4897   -1.0903 
 H                     1.6784   -3.1684   -0.3126 
 C                     4.3458   -2.4767   -0.6311 
 H                     4.2338   -3.3022    0.0953 
 O                     3.0833   -1.7347   -0.6344 
 C                     2.1875   -3.1834   -2.4425 
 H                     2.1432   -2.4508   -3.2612 
 O                     1.1188   -4.1111   -2.6611 
 H                     0.6592   -3.8464   -3.494 
 C                     3.5343   -3.92     -2.4741 
 H                     3.4966   -4.8153   -1.8316 
 O                     3.8159   -4.4015   -3.804 
 H                     3.2348   -5.1855   -3.9245 
 C                     4.6695   -3.0108   -2.0397 
 H                     4.7433   -2.1901   -2.7817 
 O                     5.8994   -3.73     -2.0666 
 H                     5.9745   -4.1332   -2.9553 
 C                     5.5185   -1.5956   -0.1302 
 H                     6.4706   -2.1443   -0.0903 
 H                     5.6609   -0.7286   -0.792 
 O                     5.2465   -1.1391    1.1969 
 H                     4.2778   -1.2567    1.3409 
 
 The following ModRedundant input section has been read:
 D      12      14      24      28 F                                           
 D       8      12      14      24 F                                           
 
 ITRead=  0  0  0  0  0  0  0  0  0  0  0  0  0  0  0  0  0  0  0  0
 ITRead=  0  0  0  0  0  0  0  0  0  0  0  0  0  0  0  0  0  0  0  0
 ITRead=  0  0  0  0  0
 MicOpt= -1 -1 -1 -1 -1 -1 -1 -1 -1 -1 -1 -1 -1 -1 -1 -1 -1 -1 -1 -1
 MicOpt= -1 -1 -1 -1 -1 -1 -1 -1 -1 -1 -1 -1 -1 -1 -1 -1 -1 -1 -1 -1
 MicOpt= -1 -1 -1 -1 -1
 NAtoms=     45 NQM=       45 NQMF=       0 NMMI=      0 NMMIF=      0
                NMic=       0 NMicF=      0.
                    Isotopes and Nuclear Properties:
 (Nuclear quadrupole moments (NQMom) in fm**2, nuclear magnetic moments (NMagM)
  in nuclear magnetons)

  Atom         1           2           3           4           5           6           7           8           9          10
 IAtWgt=          12           1          16           1          12           1          16          12           1          16
 AtmWgt=  12.0000000   1.0078250  15.9949146   1.0078250  12.0000000   1.0078250  15.9949146  12.0000000   1.0078250  15.9949146
 NucSpn=           0           1           0           1           0           1           0           0           1           0
 AtZEff=  -0.0000000  -0.0000000  -0.0000000  -0.0000000  -0.0000000  -0.0000000  -0.0000000  -0.0000000  -0.0000000  -0.0000000
 NQMom=    0.0000000   0.0000000   0.0000000   0.0000000   0.0000000   0.0000000   0.0000000   0.0000000   0.0000000   0.0000000
 NMagM=    0.0000000   2.7928460   0.0000000   2.7928460   0.0000000   2.7928460   0.0000000   0.0000000   2.7928460   0.0000000
 AtZNuc=   6.0000000   1.0000000   8.0000000   1.0000000   6.0000000   1.0000000   8.0000000   6.0000000   1.0000000   8.0000000

  Atom        11          12          13          14          15          16          17          18          19          20
 IAtWgt=           1          12           1          16          12           1          16           1          12           1
 AtmWgt=   1.0078250  12.0000000   1.0078250  15.9949146  12.0000000   1.0078250  15.9949146   1.0078250  12.0000000   1.0078250
 NucSpn=           1           0           1           0           0           1           0           1           0           1
 AtZEff=  -0.0000000  -0.0000000  -0.0000000  -0.0000000  -0.0000000  -0.0000000  -0.0000000  -0.0000000  -0.0000000  -0.0000000
 NQMom=    0.0000000   0.0000000   0.0000000   0.0000000   0.0000000   0.0000000   0.0000000   0.0000000   0.0000000   0.0000000
 NMagM=    2.7928460   0.0000000   2.7928460   0.0000000   0.0000000   2.7928460   0.0000000   2.7928460   0.0000000   2.7928460
 AtZNuc=   1.0000000   6.0000000   1.0000000   8.0000000   6.0000000   1.0000000   8.0000000   1.0000000   6.0000000   1.0000000

  Atom        21          22          23          24          25          26          27          28          29          30
 IAtWgt=           1          16           1          12           1          12           1          16          12           1
 AtmWgt=   1.0078250  15.9949146   1.0078250  12.0000000   1.0078250  12.0000000   1.0078250  15.9949146  12.0000000   1.0078250
 NucSpn=           1           0           1           0           1           0           1           0           0           1
 AtZEff=  -0.0000000  -0.0000000  -0.0000000  -0.0000000  -0.0000000  -0.0000000  -0.0000000  -0.0000000  -0.0000000  -0.0000000
 NQMom=    0.0000000   0.0000000   0.0000000   0.0000000   0.0000000   0.0000000   0.0000000   0.0000000   0.0000000   0.0000000
 NMagM=    2.7928460   0.0000000   2.7928460   0.0000000   2.7928460   0.0000000   2.7928460   0.0000000   0.0000000   2.7928460
 AtZNuc=   1.0000000   8.0000000   1.0000000   6.0000000   1.0000000   6.0000000   1.0000000   8.0000000   6.0000000   1.0000000

  Atom        31          32          33          34          35          36          37          38          39          40
 IAtWgt=          16           1          12           1          16           1          12           1          16           1
 AtmWgt=  15.9949146   1.0078250  12.0000000   1.0078250  15.9949146   1.0078250  12.0000000   1.0078250  15.9949146   1.0078250
 NucSpn=           0           1           0           1           0           1           0           1           0           1
 AtZEff=  -0.0000000  -0.0000000  -0.0000000  -0.0000000  -0.0000000  -0.0000000  -0.0000000  -0.0000000  -0.0000000  -0.0000000
 NQMom=    0.0000000   0.0000000   0.0000000   0.0000000   0.0000000   0.0000000   0.0000000   0.0000000   0.0000000   0.0000000
 NMagM=    0.0000000   2.7928460   0.0000000   2.7928460   0.0000000   2.7928460   0.0000000   2.7928460   0.0000000   2.7928460
 AtZNuc=   8.0000000   1.0000000   6.0000000   1.0000000   8.0000000   1.0000000   6.0000000   1.0000000   8.0000000   1.0000000

  Atom        41          42          43          44          45
 IAtWgt=          12           1           1          16           1
 AtmWgt=  12.0000000   1.0078250   1.0078250  15.9949146   1.0078250
 NucSpn=           0           1           1           0           1
 AtZEff=  -0.0000000  -0.0000000  -0.0000000  -0.0000000  -0.0000000
 NQMom=    0.0000000   0.0000000   0.0000000   0.0000000   0.0000000
 NMagM=    0.0000000   2.7928460   2.7928460   0.0000000   2.7928460
 AtZNuc=   6.0000000   1.0000000   1.0000000   8.0000000   1.0000000
 Leave Link  101 at Fri Apr 14 15:52:06 2023, MaxMem=   524288000 cpu:               2.2 elap:               0.6
 (Enter /dragofs/sw/campus/0.2/software/gaussian/16.gaussian/gaussian/g16_legacy/l103.exe)

 GradGradGradGradGradGradGradGradGradGradGradGradGradGradGradGradGradGrad
 Berny optimization.
 Initialization pass.
                           ----------------------------
                           !    Initial Parameters    !
                           ! (Angstroms and Degrees)  !
 --------------------------                            --------------------------
 ! Name  Definition              Value          Derivative Info.                !
 --------------------------------------------------------------------------------
 ! R1    R(1,2)                  1.1108         estimate D2E/DX2                !
 ! R2    R(1,3)                  1.4275         estimate D2E/DX2                !
 ! R3    R(1,7)                  1.4381         estimate D2E/DX2                !
 ! R4    R(1,8)                  1.5791         estimate D2E/DX2                !
 ! R5    R(3,4)                  0.9782         estimate D2E/DX2                !
 ! R6    R(5,6)                  1.1084         estimate D2E/DX2                !
 ! R7    R(5,7)                  1.4295         estimate D2E/DX2                !
 ! R8    R(5,15)                 1.5239         estimate D2E/DX2                !
 ! R9    R(5,19)                 1.5308         estimate D2E/DX2                !
 ! R10   R(8,9)                  1.0981         estimate D2E/DX2                !
 ! R11   R(8,10)                 1.4817         estimate D2E/DX2                !
 ! R12   R(8,12)                 1.5945         estimate D2E/DX2                !
 ! R13   R(10,11)                0.9875         estimate D2E/DX2                !
 ! R14   R(12,13)                1.1155         estimate D2E/DX2                !
 ! R15   R(12,14)                1.5219         estimate D2E/DX2                !
 ! R16   R(12,15)                1.5318         estimate D2E/DX2                !
 ! R17   R(14,24)                1.517          estimate D2E/DX2                !
 ! R18   R(15,16)                1.0947         estimate D2E/DX2                !
 ! R19   R(15,17)                1.4384         estimate D2E/DX2                !
 ! R20   R(17,18)                0.9852         estimate D2E/DX2                !
 ! R21   R(19,20)                1.1002         estimate D2E/DX2                !
 ! R22   R(19,21)                1.1196         estimate D2E/DX2                !
 ! R23   R(19,22)                1.4431         estimate D2E/DX2                !
 ! R24   R(22,23)                0.9764         estimate D2E/DX2                !
 ! R25   R(24,25)                1.09           estimate D2E/DX2                !
 ! R26   R(24,28)                1.3748         estimate D2E/DX2                !
 ! R27   R(24,29)                1.528          estimate D2E/DX2                !
 ! R28   R(26,27)                1.1053         estimate D2E/DX2                !
 ! R29   R(26,28)                1.4644         estimate D2E/DX2                !
 ! R30   R(26,37)                1.5408         estimate D2E/DX2                !
 ! R31   R(26,41)                1.55           estimate D2E/DX2                !
 ! R32   R(29,30)                1.0995         estimate D2E/DX2                !
 ! R33   R(29,31)                1.432          estimate D2E/DX2                !
 ! R34   R(29,33)                1.5354         estimate D2E/DX2                !
 ! R35   R(31,32)                0.9874         estimate D2E/DX2                !
 ! R36   R(33,34)                1.1026         estimate D2E/DX2                !
 ! R37   R(33,35)                1.4421         estimate D2E/DX2                !
 ! R38   R(33,37)                1.5179         estimate D2E/DX2                !
 ! R39   R(35,36)                0.9833         estimate D2E/DX2                !
 ! R40   R(37,38)                1.1089         estimate D2E/DX2                !
 ! R41   R(37,39)                1.425          estimate D2E/DX2                !
 ! R42   R(39,40)                0.9788         estimate D2E/DX2                !
 ! R43   R(41,42)                1.0996         estimate D2E/DX2                !
 ! R44   R(41,43)                1.1            estimate D2E/DX2                !
 ! R45   R(41,44)                1.4295         estimate D2E/DX2                !
 ! R46   R(44,45)                0.9864         estimate D2E/DX2                !
 ! A1    A(2,1,3)              109.2796         estimate D2E/DX2                !
 ! A2    A(2,1,7)              104.5536         estimate D2E/DX2                !
 ! A3    A(2,1,8)              106.385          estimate D2E/DX2                !
 ! A4    A(3,1,7)              104.0698         estimate D2E/DX2                !
 ! A5    A(3,1,8)              113.393          estimate D2E/DX2                !
 ! A6    A(7,1,8)              118.6273         estimate D2E/DX2                !
 ! A7    A(1,3,4)              104.6467         estimate D2E/DX2                !
 ! A8    A(6,5,7)              108.9129         estimate D2E/DX2                !
 ! A9    A(6,5,15)             112.2888         estimate D2E/DX2                !
 ! A10   A(6,5,19)             108.0016         estimate D2E/DX2                !
 ! A11   A(7,5,15)             109.1525         estimate D2E/DX2                !
 ! A12   A(7,5,19)             107.4935         estimate D2E/DX2                !
 ! A13   A(15,5,19)            110.8573         estimate D2E/DX2                !
 ! A14   A(1,7,5)              116.8013         estimate D2E/DX2                !
 ! A15   A(1,8,9)              111.9406         estimate D2E/DX2                !
 ! A16   A(1,8,10)             103.2059         estimate D2E/DX2                !
 ! A17   A(1,8,12)             111.0281         estimate D2E/DX2                !
 ! A18   A(9,8,10)              98.3687         estimate D2E/DX2                !
 ! A19   A(9,8,12)             125.4048         estimate D2E/DX2                !
 ! A20   A(10,8,12)            102.9627         estimate D2E/DX2                !
 ! A21   A(8,10,11)            106.1805         estimate D2E/DX2                !
 ! A22   A(8,12,13)            107.5327         estimate D2E/DX2                !
 ! A23   A(8,12,14)            120.104          estimate D2E/DX2                !
 ! A24   A(8,12,15)            114.0543         estimate D2E/DX2                !
 ! A25   A(13,12,14)           100.1979         estimate D2E/DX2                !
 ! A26   A(13,12,15)           108.3447         estimate D2E/DX2                !
 ! A27   A(14,12,15)           105.326          estimate D2E/DX2                !
 ! A28   A(12,14,24)           119.4201         estimate D2E/DX2                !
 ! A29   A(5,15,12)            107.7509         estimate D2E/DX2                !
 ! A30   A(5,15,16)            111.1624         estimate D2E/DX2                !
 ! A31   A(5,15,17)            112.2703         estimate D2E/DX2                !
 ! A32   A(12,15,16)           110.3043         estimate D2E/DX2                !
 ! A33   A(12,15,17)           108.6433         estimate D2E/DX2                !
 ! A34   A(16,15,17)           106.697          estimate D2E/DX2                !
 ! A35   A(15,17,18)           103.876          estimate D2E/DX2                !
 ! A36   A(5,19,20)            110.5657         estimate D2E/DX2                !
 ! A37   A(5,19,21)            112.1067         estimate D2E/DX2                !
 ! A38   A(5,19,22)            110.5171         estimate D2E/DX2                !
 ! A39   A(20,19,21)           108.8708         estimate D2E/DX2                !
 ! A40   A(20,19,22)           106.2601         estimate D2E/DX2                !
 ! A41   A(21,19,22)           108.3183         estimate D2E/DX2                !
 ! A42   A(19,22,23)           106.455          estimate D2E/DX2                !
 ! A43   A(14,24,25)           106.0294         estimate D2E/DX2                !
 ! A44   A(14,24,28)           103.2851         estimate D2E/DX2                !
 ! A45   A(14,24,29)           105.6571         estimate D2E/DX2                !
 ! A46   A(25,24,28)           110.6014         estimate D2E/DX2                !
 ! A47   A(25,24,29)           112.4636         estimate D2E/DX2                !
 ! A48   A(28,24,29)           117.5841         estimate D2E/DX2                !
 ! A49   A(27,26,28)           107.0108         estimate D2E/DX2                !
 ! A50   A(27,26,37)           111.2971         estimate D2E/DX2                !
 ! A51   A(27,26,41)           106.7886         estimate D2E/DX2                !
 ! A52   A(28,26,37)           110.7743         estimate D2E/DX2                !
 ! A53   A(28,26,41)           111.4057         estimate D2E/DX2                !
 ! A54   A(37,26,41)           109.483          estimate D2E/DX2                !
 ! A55   A(24,28,26)           112.5705         estimate D2E/DX2                !
 ! A56   A(24,29,30)           110.6247         estimate D2E/DX2                !
 ! A57   A(24,29,31)           110.5878         estimate D2E/DX2                !
 ! A58   A(24,29,33)           109.097          estimate D2E/DX2                !
 ! A59   A(30,29,31)           106.7335         estimate D2E/DX2                !
 ! A60   A(30,29,33)           109.8566         estimate D2E/DX2                !
 ! A61   A(31,29,33)           109.9194         estimate D2E/DX2                !
 ! A62   A(29,31,32)           107.606          estimate D2E/DX2                !
 ! A63   A(29,33,34)           110.3378         estimate D2E/DX2                !
 ! A64   A(29,33,35)           110.514          estimate D2E/DX2                !
 ! A65   A(29,33,37)           111.2698         estimate D2E/DX2                !
 ! A66   A(34,33,35)           105.8384         estimate D2E/DX2                !
 ! A67   A(34,33,37)           110.1921         estimate D2E/DX2                !
 ! A68   A(35,33,37)           108.5338         estimate D2E/DX2                !
 ! A69   A(33,35,36)           105.297          estimate D2E/DX2                !
 ! A70   A(26,37,33)           108.1879         estimate D2E/DX2                !
 ! A71   A(26,37,38)           111.6638         estimate D2E/DX2                !
 ! A72   A(26,37,39)           111.9328         estimate D2E/DX2                !
 ! A73   A(33,37,38)           107.5537         estimate D2E/DX2                !
 ! A74   A(33,37,39)           109.7411         estimate D2E/DX2                !
 ! A75   A(38,37,39)           107.6662         estimate D2E/DX2                !
 ! A76   A(37,39,40)           106.9341         estimate D2E/DX2                !
 ! A77   A(26,41,42)           112.5295         estimate D2E/DX2                !
 ! A78   A(26,41,43)           110.5834         estimate D2E/DX2                !
 ! A79   A(26,41,44)           109.7294         estimate D2E/DX2                !
 ! A80   A(42,41,43)           107.6406         estimate D2E/DX2                !
 ! A81   A(42,41,44)           106.8823         estimate D2E/DX2                !
 ! A82   A(43,41,44)           109.3581         estimate D2E/DX2                !
 ! A83   A(41,44,45)           106.518          estimate D2E/DX2                !
 ! D1    D(2,1,3,4)             57.6629         estimate D2E/DX2                !
 ! D2    D(7,1,3,4)            -53.5673         estimate D2E/DX2                !
 ! D3    D(8,1,3,4)            176.1483         estimate D2E/DX2                !
 ! D4    D(2,1,7,5)            126.5681         estimate D2E/DX2                !
 ! D5    D(3,1,7,5)           -118.8029         estimate D2E/DX2                !
 ! D6    D(8,1,7,5)              8.2908         estimate D2E/DX2                !
 ! D7    D(2,1,8,9)             62.1167         estimate D2E/DX2                !
 ! D8    D(2,1,8,10)           -42.6979         estimate D2E/DX2                !
 ! D9    D(2,1,8,12)          -152.3956         estimate D2E/DX2                !
 ! D10   D(3,1,8,9)            -58.0272         estimate D2E/DX2                !
 ! D11   D(3,1,8,10)          -162.8419         estimate D2E/DX2                !
 ! D12   D(3,1,8,12)            87.4605         estimate D2E/DX2                !
 ! D13   D(7,1,8,9)            179.4326         estimate D2E/DX2                !
 ! D14   D(7,1,8,10)            74.6179         estimate D2E/DX2                !
 ! D15   D(7,1,8,12)           -35.0797         estimate D2E/DX2                !
 ! D16   D(6,5,7,1)            -76.985          estimate D2E/DX2                !
 ! D17   D(15,5,7,1)            45.9311         estimate D2E/DX2                !
 ! D18   D(19,5,7,1)           166.2388         estimate D2E/DX2                !
 ! D19   D(6,5,15,12)           48.6439         estimate D2E/DX2                !
 ! D20   D(6,5,15,16)          169.6164         estimate D2E/DX2                !
 ! D21   D(6,5,15,17)          -70.9473         estimate D2E/DX2                !
 ! D22   D(7,5,15,12)          -72.2327         estimate D2E/DX2                !
 ! D23   D(7,5,15,16)           48.7397         estimate D2E/DX2                !
 ! D24   D(7,5,15,17)          168.176          estimate D2E/DX2                !
 ! D25   D(19,5,15,12)         169.5476         estimate D2E/DX2                !
 ! D26   D(19,5,15,16)         -69.4799         estimate D2E/DX2                !
 ! D27   D(19,5,15,17)          49.9564         estimate D2E/DX2                !
 ! D28   D(6,5,19,20)           65.7877         estimate D2E/DX2                !
 ! D29   D(6,5,19,21)         -172.5264         estimate D2E/DX2                !
 ! D30   D(6,5,19,22)          -51.5812         estimate D2E/DX2                !
 ! D31   D(7,5,19,20)         -176.841          estimate D2E/DX2                !
 ! D32   D(7,5,19,21)          -55.155          estimate D2E/DX2                !
 ! D33   D(7,5,19,22)           65.7901         estimate D2E/DX2                !
 ! D34   D(15,5,19,20)         -57.6186         estimate D2E/DX2                !
 ! D35   D(15,5,19,21)          64.0673         estimate D2E/DX2                !
 ! D36   D(15,5,19,22)        -174.9875         estimate D2E/DX2                !
 ! D37   D(1,8,10,11)          119.5494         estimate D2E/DX2                !
 ! D38   D(9,8,10,11)            4.5604         estimate D2E/DX2                !
 ! D39   D(12,8,10,11)        -124.8418         estimate D2E/DX2                !
 ! D40   D(1,8,12,13)          127.1696         estimate D2E/DX2                !
 ! D41   D(1,8,12,14)         -119.3903         estimate D2E/DX2                !
 ! D42   D(1,8,12,15)            7.0059         estimate D2E/DX2                !
 ! D43   D(9,8,12,13)          -92.9795         estimate D2E/DX2                !
 ! D44   D(9,8,12,14)           20.4606         estimate D2E/DX2                !
 ! D45   D(9,8,12,15)          146.8567         estimate D2E/DX2                !
 ! D46   D(10,8,12,13)          17.3148         estimate D2E/DX2                !
 ! D47   D(10,8,12,14)         130.7549         estimate D2E/DX2                !
 ! D48   D(10,8,12,15)        -102.849          estimate D2E/DX2                !
 ! D49   D(8,12,14,24)          10.0343         Frozen                          !
 ! D50   D(13,12,14,24)        127.2992         estimate D2E/DX2                !
 ! D51   D(15,12,14,24)       -120.3128         estimate D2E/DX2                !
 ! D52   D(8,12,15,5)           42.4409         estimate D2E/DX2                !
 ! D53   D(8,12,15,16)         -79.067          estimate D2E/DX2                !
 ! D54   D(8,12,15,17)         164.3086         estimate D2E/DX2                !
 ! D55   D(13,12,15,5)         -77.2664         estimate D2E/DX2                !
 ! D56   D(13,12,15,16)        161.2257         estimate D2E/DX2                !
 ! D57   D(13,12,15,17)         44.6013         estimate D2E/DX2                !
 ! D58   D(14,12,15,5)         176.2178         estimate D2E/DX2                !
 ! D59   D(14,12,15,16)         54.7099         estimate D2E/DX2                !
 ! D60   D(14,12,15,17)        -61.9145         estimate D2E/DX2                !
 ! D61   D(12,14,24,25)        116.3668         estimate D2E/DX2                !
 ! D62   D(12,14,24,28)          0.0073         Frozen                          !
 ! D63   D(12,14,24,29)       -124.069          estimate D2E/DX2                !
 ! D64   D(5,15,17,18)         148.4494         estimate D2E/DX2                !
 ! D65   D(12,15,17,18)         29.3802         estimate D2E/DX2                !
 ! D66   D(16,15,17,18)        -89.5368         estimate D2E/DX2                !
 ! D67   D(5,19,22,23)         -57.6613         estimate D2E/DX2                !
 ! D68   D(20,19,22,23)       -177.6513         estimate D2E/DX2                !
 ! D69   D(21,19,22,23)         65.5114         estimate D2E/DX2                !
 ! D70   D(14,24,28,26)       -168.6165         estimate D2E/DX2                !
 ! D71   D(25,24,28,26)         78.3129         estimate D2E/DX2                !
 ! D72   D(29,24,28,26)        -52.7537         estimate D2E/DX2                !
 ! D73   D(14,24,29,30)         42.1892         estimate D2E/DX2                !
 ! D74   D(14,24,29,31)        -75.8451         estimate D2E/DX2                !
 ! D75   D(14,24,29,33)        163.1448         estimate D2E/DX2                !
 ! D76   D(25,24,29,30)        157.4163         estimate D2E/DX2                !
 ! D77   D(25,24,29,31)         39.3819         estimate D2E/DX2                !
 ! D78   D(25,24,29,33)        -81.6282         estimate D2E/DX2                !
 ! D79   D(28,24,29,30)        -72.3733         estimate D2E/DX2                !
 ! D80   D(28,24,29,31)        169.5923         estimate D2E/DX2                !
 ! D81   D(28,24,29,33)         48.5822         estimate D2E/DX2                !
 ! D82   D(27,26,28,24)        -64.3493         estimate D2E/DX2                !
 ! D83   D(37,26,28,24)         57.1367         estimate D2E/DX2                !
 ! D84   D(41,26,28,24)        179.2679         estimate D2E/DX2                !
 ! D85   D(27,26,37,33)         59.5617         estimate D2E/DX2                !
 ! D86   D(27,26,37,38)        177.732          estimate D2E/DX2                !
 ! D87   D(27,26,37,39)        -61.4737         estimate D2E/DX2                !
 ! D88   D(28,26,37,33)        -59.3663         estimate D2E/DX2                !
 ! D89   D(28,26,37,38)         58.804          estimate D2E/DX2                !
 ! D90   D(28,26,37,39)        179.5983         estimate D2E/DX2                !
 ! D91   D(41,26,37,33)        177.3856         estimate D2E/DX2                !
 ! D92   D(41,26,37,38)        -64.4441         estimate D2E/DX2                !
 ! D93   D(41,26,37,39)         56.3502         estimate D2E/DX2                !
 ! D94   D(27,26,41,42)         61.6838         estimate D2E/DX2                !
 ! D95   D(27,26,41,43)       -177.9025         estimate D2E/DX2                !
 ! D96   D(27,26,41,44)        -57.1829         estimate D2E/DX2                !
 ! D97   D(28,26,41,42)        178.2022         estimate D2E/DX2                !
 ! D98   D(28,26,41,43)        -61.3841         estimate D2E/DX2                !
 ! D99   D(28,26,41,44)         59.3355         estimate D2E/DX2                !
 ! D100  D(37,26,41,42)        -58.9237         estimate D2E/DX2                !
 ! D101  D(37,26,41,43)         61.49           estimate D2E/DX2                !
 ! D102  D(37,26,41,44)       -177.7904         estimate D2E/DX2                !
 ! D103  D(24,29,31,32)        121.7858         estimate D2E/DX2                !
 ! D104  D(30,29,31,32)          1.3981         estimate D2E/DX2                !
 ! D105  D(33,29,31,32)       -117.6935         estimate D2E/DX2                !
 ! D106  D(24,29,33,34)         72.6459         estimate D2E/DX2                !
 ! D107  D(24,29,33,35)       -170.6447         estimate D2E/DX2                !
 ! D108  D(24,29,33,37)        -49.991          estimate D2E/DX2                !
 ! D109  D(30,29,33,34)       -165.9307         estimate D2E/DX2                !
 ! D110  D(30,29,33,35)        -49.2213         estimate D2E/DX2                !
 ! D111  D(30,29,33,37)         71.4323         estimate D2E/DX2                !
 ! D112  D(31,29,33,34)        -48.7712         estimate D2E/DX2                !
 ! D113  D(31,29,33,35)         67.9382         estimate D2E/DX2                !
 ! D114  D(31,29,33,37)       -171.4082         estimate D2E/DX2                !
 ! D115  D(29,33,35,36)        -75.5257         estimate D2E/DX2                !
 ! D116  D(34,33,35,36)         43.9384         estimate D2E/DX2                !
 ! D117  D(37,33,35,36)        162.2018         estimate D2E/DX2                !
 ! D118  D(29,33,37,26)         56.9667         estimate D2E/DX2                !
 ! D119  D(29,33,37,38)        -63.7958         estimate D2E/DX2                !
 ! D120  D(29,33,37,39)        179.3523         estimate D2E/DX2                !
 ! D121  D(34,33,37,26)        -65.7541         estimate D2E/DX2                !
 ! D122  D(34,33,37,38)        173.4833         estimate D2E/DX2                !
 ! D123  D(34,33,37,39)         56.6314         estimate D2E/DX2                !
 ! D124  D(35,33,37,26)        178.7783         estimate D2E/DX2                !
 ! D125  D(35,33,37,38)         58.0158         estimate D2E/DX2                !
 ! D126  D(35,33,37,39)        -58.8361         estimate D2E/DX2                !
 ! D127  D(26,37,39,40)        172.6759         estimate D2E/DX2                !
 ! D128  D(33,37,39,40)         52.5436         estimate D2E/DX2                !
 ! D129  D(38,37,39,40)        -64.2377         estimate D2E/DX2                !
 ! D130  D(26,41,44,45)        -17.7273         estimate D2E/DX2                !
 ! D131  D(42,41,44,45)       -140.0187         estimate D2E/DX2                !
 ! D132  D(43,41,44,45)        103.7309         estimate D2E/DX2                !
 --------------------------------------------------------------------------------
 Trust Radius=3.00D-01 FncErr=1.00D-07 GrdErr=1.00D-06 EigMax=2.50D+02 EigMin=1.00D-04
 Number of steps in this run=    270 maximum allowed number of steps=    270.
 GradGradGradGradGradGradGradGradGradGradGradGradGradGradGradGradGradGrad

 Leave Link  103 at Fri Apr 14 15:52:06 2023, MaxMem=   524288000 cpu:               0.4 elap:               0.1
 (Enter /dragofs/sw/campus/0.2/software/gaussian/16.gaussian/gaussian/g16_legacy/l202.exe)
                          Input orientation:                          
 ---------------------------------------------------------------------
 Center     Atomic      Atomic             Coordinates (Angstroms)
 Number     Number       Type             X           Y           Z
 ---------------------------------------------------------------------
      1          6           0        2.802700    1.095400    0.784800
      2          1           0        3.632000    1.833500    0.749100
      3          8           0        3.083000    0.119700    1.788400
      4          1           0        3.189600    0.636000    2.612400
      5          6           0        0.476400    1.803100    0.554200
      6          1           0        0.579900    2.487900   -0.311200
      7          8           0        1.686500    1.831300    1.314700
      8          6           0        2.686200    0.485700   -0.667200
      9          1           0        3.601300   -0.043300   -0.964700
     10          8           0        2.827600    1.671300   -1.544500
     11          1           0        3.625200    1.506800   -2.103000
     12          6           0        1.198100   -0.003800   -0.964500
     13          1           0        0.873300    0.469800   -1.920800
     14          8           0        0.924900   -1.466900   -1.282000
     15          6           0        0.188600    0.369300    0.125500
     16          1           0        0.271000   -0.320300    0.971700
     17          8           0       -1.139300    0.215200   -0.405400
     18          1           0       -1.044100   -0.500300   -1.076000
     19          6           0       -0.642900    2.339100    1.450400
     20          1           0       -1.611700    2.287000    0.931700
     21          1           0       -0.717500    1.774700    2.414500
     22          8           0       -0.422700    3.732100    1.756200
     23          1           0        0.453900    3.786400    2.182800
     24          6           0        2.028700   -2.489700   -1.090300
     25          1           0        1.678400   -3.168400   -0.312600
     26          6           0        4.345800   -2.476700   -0.631100
     27          1           0        4.233800   -3.302200    0.095300
     28          8           0        3.083300   -1.734700   -0.634400
     29          6           0        2.187500   -3.183400   -2.442500
     30          1           0        2.143200   -2.450800   -3.261200
     31          8           0        1.118800   -4.111100   -2.661100
     32          1           0        0.659200   -3.846400   -3.494000
     33          6           0        3.534300   -3.920000   -2.474100
     34          1           0        3.496600   -4.815300   -1.831600
     35          8           0        3.815900   -4.401500   -3.804000
     36          1           0        3.234800   -5.185500   -3.924500
     37          6           0        4.669500   -3.010800   -2.039700
     38          1           0        4.743300   -2.190100   -2.781700
     39          8           0        5.899400   -3.730000   -2.066600
     40          1           0        5.974500   -4.133200   -2.955300
     41          6           0        5.518500   -1.595600   -0.130200
     42          1           0        6.470600   -2.144300   -0.090300
     43          1           0        5.660900   -0.728600   -0.792000
     44          8           0        5.246500   -1.139100    1.196900
     45          1           0        4.277800   -1.256700    1.340900
 ---------------------------------------------------------------------
                    Distance matrix (angstroms):
                    1          2          3          4          5
     1  C    0.000000
     2  H    1.110768   0.000000
     3  O    1.427505   2.078138   0.000000
     4  H    1.923762   2.258675   0.978215   0.000000
     5  C    2.442476   3.161759   3.339378   3.599967   0.000000
     6  H    2.842730   3.296633   4.035121   4.334456   1.108413
     7  O    1.438140   2.026050   2.259243   2.317774   1.429510
     8  C    1.579117   2.171867   2.514235   3.321412   2.847907
     9  H    2.234983   2.541738   2.806201   3.664231   3.934622
    10  O    2.399566   2.435974   3.685229   4.299152   3.154371
    11  H    3.030700   2.870758   4.166656   4.814877   4.130793
    12  C    2.615919   3.497994   3.338646   4.143625   2.468236
    13  H    3.381454   4.074122   4.331687   5.093405   2.839162
    14  O    3.789878   4.727198   4.074561   4.971660   3.776994
    15  C    2.792027   3.793384   3.347400   3.906636   1.523941
    16  H    2.906655   3.998090   2.961071   3.482044   2.173781
    17  O    4.210783   5.168856   4.759170   5.293729   2.460233
    18  H    4.561437   5.535659   5.061832   5.728847   3.205483
    19  C    3.723167   4.361447   4.349978   4.351879   1.530785
    20  H    4.574759   5.266440   5.241310   5.348181   2.176425
    21  H    3.938169   4.657807   4.192234   4.074461   2.210638
    22  O    4.277734   4.589066   5.033925   4.834007   2.444223
    23  H    3.835720   3.996202   4.529062   4.194476   2.566383
    24  C    4.119225   4.964275   4.025845   4.982738   4.852025
    25  H    4.544043   5.473825   4.147132   5.031184   5.187674
    26  C    4.140752   4.581734   3.766953   4.641766   5.890151
    27  H    4.675718   5.212008   3.987522   4.789109   6.355528
    28  O    3.178416   3.866160   3.051026   4.021595   4.552442
    29  C    5.394633   6.119001   5.441774   6.414362   6.064096
    30  H    5.420387   6.054276   5.743619   6.717326   5.952408
    31  O    6.466637   7.299583   6.446379   7.391412   6.762292
    32  H    6.879252   7.687828   7.036228   7.986423   6.952567
    33  C    6.025770   6.595553   5.889971   6.837283   7.160672
    34  H    6.501032   7.133364   6.134304   7.039890   7.656165
    35  O    7.231844   7.722679   7.228646   8.181616   8.285121
    36  H    7.862183   8.441959   7.797783   8.753455   8.746888
    37  C    5.321994   5.685161   5.193396   6.093545   6.890866
    38  H    5.223060   5.467256   5.383083   6.284675   6.729065
    39  O    6.403477   6.634893   6.132970   6.949677   8.178797
    40  H    7.168467   7.403472   6.996472   7.842208   8.819600
    41  C    3.931193   4.011331   3.543295   4.233872   6.119014
    42  H    4.971413   4.958340   4.486763   5.079332   7.206093
    43  H    3.739329   3.613278   3.744816   4.422601   5.924593
    44  O    3.336911   3.412255   2.572000   3.063569   5.641228
    45  H    2.831526   3.211950   1.876774   2.526501   4.942865
                    6          7          8          9         10
     6  H    0.000000
     7  O    2.073460   0.000000
     8  C    2.927805   2.595759   0.000000
     9  H    3.995359   3.517989   1.098069   0.000000
    10  O    2.690728   3.082650   1.481653   1.968409   0.000000
    11  H    3.667009   3.942655   1.996469   1.923307   0.987496
    12  C    2.649064   2.966628   1.594503   2.403525   2.407827
    13  H    2.598004   3.603254   2.204172   2.935879   2.324756
    14  O    4.086798   4.266264   2.700519   3.048021   3.679330
    15  C    2.198247   2.407352   2.622962   3.606286   3.383552
    16  H    3.102779   2.598205   3.028006   3.862288   4.102918
    17  O    2.851261   3.681802   3.843977   4.780474   4.376536
    18  H    3.485919   4.313697   3.880007   4.669152   4.463788
    19  C    2.149562   2.387966   4.359155   5.433394   4.632467
    20  H    2.527503   3.351488   4.926775   6.016810   5.120355
    21  H    3.101829   2.644235   4.769022   5.777210   5.315271
    22  O    2.612926   2.873445   5.106588   6.152196   5.070105
    23  H    2.814607   2.468869   4.899008   5.871923   4.899068
    24  C    5.242377   4.957032   3.076414   2.910965   4.261274
    25  H    5.761982   5.257868   3.807079   3.726799   5.124542
    26  C    6.239519   5.423733   3.395790   2.566516   4.510558
    27  H    6.858680   5.859052   4.162290   3.484837   5.422365
    28  O    4.919535   4.297255   2.255868   1.799516   3.534756
    29  C    6.268210   6.286077   4.106420   3.747393   4.978378
    30  H    5.961306   6.283615   3.955593   3.632633   4.517430
    31  O    7.025613   7.172265   5.250043   5.058416   6.132124
    32  H    7.089419   7.511006   5.555773   5.432944   6.240795
    33  C    7.380230   7.130696   4.836771   4.160719   5.711936
    34  H    8.009712   7.573174   5.487547   4.851233   6.527325
    35  O    8.374675   8.341656   5.916119   5.205918   6.554462
    36  H    8.887379   8.892802   6.563039   5.944490   7.269520
    37  C    7.067407   6.602743   4.247676   3.332076   5.055678
    38  H    6.732084   6.503551   3.982798   3.035524   4.484527
    39  O    8.369038   7.753049   5.482253   4.481875   6.235590
    40  H    8.940466   8.496770   6.114128   5.130482   6.751708
    41  C    6.410733   5.340000   3.555573   2.604166   4.462491
    42  H    7.497094   6.377071   4.644502   3.662193   5.472198
    43  H    6.032711   5.175628   3.215422   2.177479   3.788584
    44  O    6.099725   4.637969   3.559492   2.929159   4.611366
    45  H    5.515970   4.031286   3.098647   2.691799   4.359105
                   11         12         13         14         15
    11  H    0.000000
    12  C    3.077159   0.000000
    13  H    2.946442   1.115483   0.000000
    14  O    4.099824   1.521876   2.039984   0.000000
    15  C    4.250922   1.531794   2.160152   2.427926   0.000000
    16  H    4.903339   2.169921   3.058362   2.611789   1.094711
    17  O    5.220205   2.413295   2.532157   2.803357   1.438374
    18  H    5.185127   2.299218   2.308940   2.203114   1.928563
    19  C    5.615697   3.835388   4.142238   4.940612   2.515326
    20  H    6.102724   4.091249   4.196927   5.042477   2.751111
    21  H    6.272051   4.272028   4.798774   5.183586   2.834729
    22  O    6.019209   4.897566   5.083556   6.170599   3.786990
    23  H    5.798431   4.982464   5.292945   6.310613   3.997429
    24  C    4.421129   2.624009   3.283797   1.516985   3.610820
    25  H    5.371504   3.266551   4.058447   2.098238   3.863516
    26  C    4.307438   4.016766   4.733228   3.625731   5.094553
    27  H    5.322537   4.606310   5.439265   4.026674   5.463009
    28  O    3.599689   2.580496   3.376203   2.269316   3.658354
    29  C    4.917338   3.643248   3.917290   2.426374   4.817873
    30  H    4.381820   3.486525   3.455318   2.523796   4.821116
    31  O    6.176918   4.444621   4.646822   2.988529   5.357648
    32  H    6.276049   4.631885   4.598954   3.259687   5.576233
    33  C    5.440233   4.803472   5.163081   3.774622   6.029073
    34  H    6.329229   5.402360   5.901012   4.257638   6.453928
    35  O    6.151242   5.852811   5.994573   4.830139   7.166506
    36  H    6.946737   6.305534   6.447784   5.113358   7.519151
    37  C    4.637163   4.716855   5.151684   4.120651   6.015948
    38  H    3.921460   4.544289   4.774214   4.165609   5.978932
    39  O    5.709412   6.099296   6.551432   5.521129   7.363613
    40  H    6.168892   6.620364   6.948384   5.950424   7.952388
    41  C    4.135385   4.679288   5.389806   4.737549   5.686304
    42  H    5.047553   5.757189   6.443137   5.712601   6.769659
    43  H    3.295422   4.524564   5.062753   4.818183   5.656258
    44  O    4.529762   4.727589   5.606558   4.992857   5.385677
    45  H    4.463549   4.045884   5.020967   4.262127   4.565373
                   16         17         18         19         20
    16  H    0.000000
    17  O    2.042575   0.000000
    18  H    2.440279   0.985245   0.000000
    19  C    2.852503   2.863801   3.821760   0.000000
    20  H    3.216236   2.510648   3.481676   1.100153   0.000000
    21  H    2.729071   3.249891   4.179220   1.119643   1.805752
    22  O    4.185523   4.189823   5.130371   1.443070   2.044954
    23  H    4.285464   4.689407   5.589238   1.958075   2.842561
    24  C    3.470972   4.221587   3.660603   6.075353   6.337023
    25  H    3.426642   4.404179   3.887614   6.231305   6.491104
    26  C    4.880884   6.114212   5.758048   7.239593   7.786333
    27  H    5.036228   6.441507   6.089238   7.579101   8.130719
    28  O    3.533994   4.656705   4.330610   5.901424   6.377285
    29  C    4.850472   5.173766   4.416966   7.325561   7.466219
    30  H    5.095253   5.102740   4.328791   7.273560   7.357067
    31  O    5.318474   5.376251   4.497617   7.849401   7.829401
    32  H    5.703206   5.410235   4.465909   8.025146   7.896987
    33  C    5.956551   6.574339   5.883093   8.486874   8.752579
    34  H    6.202259   6.987957   6.309367   8.893392   9.174597
    35  O    7.213170   7.577494   6.803010   9.639777   9.829635
    36  H    7.511794   7.790018   6.955145  10.027248  10.144432
    37  C    5.971107   6.842527   6.314788   8.308058   8.737813
    38  H    6.130712   6.785076   6.265687   8.211910   8.615091
    39  O    7.248187   8.238173   7.721687   9.591921  10.080214
    40  H    7.905027   8.718757   8.123452  10.251382  10.671371
    41  C    5.511518   6.905145   6.720263   7.479506   8.187916
    42  H    6.549035   7.973525   7.755324   8.548480   9.273860
    43  H    5.685804   6.876259   6.714894   7.360505   8.059510
    44  O    5.047450   6.721602   6.719062   6.844499   7.670945
    45  H    4.131295   5.878863   5.893740   6.095495   6.885598
                   21         22         23         24         25
    21  H    0.000000
    22  O    2.086068   0.000000
    23  H    2.339402   0.976403   0.000000
    24  C    6.165253   7.267924   7.251387   0.000000
    25  H    6.132834   7.504096   7.489704   1.090028   0.000000
    26  C    7.279223   8.184558   7.892486   2.362199   2.773971
    27  H    7.461164   8.597846   8.300214   2.632161   2.591207
    28  O    6.004811   6.920470   6.732972   1.374791   2.032928
    29  C    7.524110   8.500963   8.542651   1.528032   2.189950
    30  H    7.632301   8.365787   8.449469   2.174265   3.070054
    31  O    7.986010   9.132609   9.288486   2.433982   2.591773
    32  H    8.270577   9.282713   9.514612   3.081224   3.408777
    33  C    8.625881   9.597287   9.516522   2.495494   2.946413
    34  H    8.900343  10.064356   9.968083   2.848275   2.885393
    35  O    9.867467  10.725530  10.685809   3.770044   4.275432
    36  H   10.210190  11.187996  11.203906   4.093251   4.420056
    37  C    8.471167   9.263156   9.044485   2.854248   3.457512
    38  H    8.517069   9.074830   8.874895   3.212421   4.055507
    39  O    9.703883  10.500747  10.208190   4.180170   4.605296
    40  H   10.417336  11.179684  10.936049   4.663545   5.135287
    41  C    7.531409   8.200046   7.743776   3.728258   4.153714
    42  H    8.561622   9.244416   8.748764   4.566156   4.905444
    43  H    7.565193   7.962497   7.506498   4.047633   4.694971
    44  O    6.748487   7.495414   6.942735   4.172486   4.373555
    45  H    5.940962   6.866972   6.384659   3.534045   3.625678
                   26         27         28         29         30
    26  C    0.000000
    27  H    1.105283   0.000000
    28  O    1.464405   2.076817   0.000000
    29  C    2.904971   3.262190   2.484032   0.000000
    30  H    3.430677   4.044945   2.880393   1.099516   0.000000
    31  O    4.147974   4.237368   3.689722   1.431968   2.041105
    32  H    4.864493   5.094801   4.302656   1.970006   2.050403
    33  C    2.477559   2.733641   2.891960   1.535398   2.170998
    34  H    2.762497   2.558492   3.330796   2.179458   3.076737
    35  O    3.748726   4.072793   4.206529   2.447271   2.626364
    36  H    4.406632   4.550122   4.770297   2.702141   3.018301
    37  C    1.540843   2.198402   2.473728   2.520389   2.861443
    38  H    2.205726   3.126257   2.752069   2.762936   2.656766
    39  O    2.458677   2.762435   3.736688   3.770713   4.143967
    40  H    3.286116   3.609260   4.415701   3.937823   4.195582
    41  C    1.549988   2.147973   2.490736   4.354699   4.682646
    42  H    2.217595   2.525560   3.455086   4.995750   5.373541
    43  H    2.193452   3.073651   2.771479   4.562313   4.630025
    44  O    2.437626   2.630225   2.896176   5.175121   5.587995
    45  H    2.319872   2.395313   2.357355   4.732403   5.211690
                   31         32         33         34         35
    31  O    0.000000
    32  H    0.987431   0.000000
    33  C    2.430253   3.051526   0.000000
    34  H    2.614938   3.428291   1.102629   0.000000
    35  O    2.943620   3.220092   1.442142   2.040477   0.000000
    36  H    2.688489   2.934661   1.948038   2.141452   0.983287
    37  C    3.768855   4.346921   1.517902   2.162226   2.403213
    38  H    4.103874   4.464367   2.132804   3.057552   2.606810
    39  O    4.832474   5.432377   2.407458   2.646989   2.794717
    40  H    4.864655   5.350221   2.496314   2.804987   2.334916
    41  C    5.664853   6.324085   3.851461   4.165250   4.926330
    42  H    6.254525   6.946559   4.178214   4.360165   5.092539
    43  H    5.963683   6.483709   4.187711   4.739840   5.095720
    44  O    6.383953   7.097699   4.913377   5.074289   6.139941
    45  H    5.843191   6.570926   4.711707   4.831011   6.047571
                   36         37         38         39         40
    36  H    0.000000
    37  C    3.215611   0.000000
    38  H    3.543160   1.108855   0.000000
    39  O    3.559546   1.425000   2.054076   0.000000
    40  H    3.090735   1.949649   2.306865   0.978774   0.000000
    41  C    5.700823   2.523843   2.825742   2.906956   3.824727
    42  H    5.866889   2.791943   3.198327   2.597398   3.522792
    43  H    5.963428   2.783535   2.633795   3.269540   4.045925
    44  O    6.830009   3.783090   4.145729   4.217757   5.170627
    45  H    6.651899   3.828675   4.252500   4.511968   5.441542
                   41         42         43         44         45
    41  C    0.000000
    42  H    1.099617   0.000000
    43  H    1.099975   1.775445   0.000000
    44  O    1.429535   2.041012   2.072670   0.000000
    45  H    1.954053   2.764876   2.596366   0.986380   0.000000
 Stoichiometry    C12H22O11
 Framework group  C1[X(C12H22O11)]
 Deg. of freedom   129
 Full point group                 C1      NOp   1
 Largest Abelian subgroup         C1      NOp   1
 Largest concise Abelian subgroup C1      NOp   1
                         Standard orientation:                         
 ---------------------------------------------------------------------
 Center     Atomic      Atomic             Coordinates (Angstroms)
 Number     Number       Type             X           Y           Z
 ---------------------------------------------------------------------
      1          6           0        1.880684    1.521163    0.173291
      2          1           0        2.016894    2.404346    0.833018
      3          8           0        1.438064    1.956774   -1.112050
      4          1           0        2.132276    2.575199   -1.416228
      5          6           0        3.458296   -0.342802    0.222889
      6          1           0        3.552092   -0.472122    1.319729
      7          8           0        3.214171    1.036630   -0.061833
      8          6           0        0.849484    0.574278    0.903801
      9          1           0       -0.128389    1.056246    1.035050
     10          8           0        1.298547    0.609707    2.315319
     11          1           0        0.541492    0.971605    2.835940
     12          6           0        1.080925   -0.948904    0.492957
     13          1           0        1.185818   -1.538569    1.434017
     14          8           0       -0.029368   -1.731623   -0.193124
     15          6           0        2.329328   -1.181781   -0.363577
     16          1           0        2.132381   -0.906826   -1.404732
     17          8           0        2.635118   -2.587264   -0.358073
     18          1           0        1.757357   -3.019598   -0.242616
     19          6           0        4.800184   -0.713562   -0.413646
     20          1           0        5.012212   -1.783845   -0.272661
     21          1           0        4.825940   -0.480435   -1.508447
     22          8           0        5.878381   -0.000181    0.227469
     23          1           0        5.673497    0.950195    0.137075
     24          6           0       -1.262319   -0.998669   -0.686938
     25          1           0       -1.268253   -1.115817   -1.770637
     26          6           0       -2.191287    1.164072   -0.488050
     27          1           0       -2.447411    1.182197   -1.563095
     28          8           0       -1.011616    0.308598   -0.343060
     29          6           0       -2.449097   -1.691055   -0.018326
     30          1           0       -2.226431   -1.909263    1.036064
     31          8           0       -2.721117   -2.946709   -0.650678
     32          1           0       -2.654885   -3.649418    0.039853
     33          6           0       -3.681119   -0.779719   -0.113391
     34          1           0       -4.062757   -0.757889   -1.147637
     35          8           0       -4.757939   -1.299932    0.692595
     36          1           0       -5.118131   -2.060789    0.184449
     37          6           0       -3.362555    0.627745    0.357340
     38          1           0       -3.098052    0.568934    1.432579
     39          8           0       -4.522013    1.448023    0.241458
     40          1           0       -5.247734    0.982998    0.705223
     41          6           0       -1.883677    2.626390   -0.076388
     42          1           0       -2.748931    3.292076   -0.208124
     43          1           0       -1.583170    2.675525    0.980601
     44          8           0       -0.831697    3.146429   -0.892764
     45          1           0       -0.383145    2.368693   -1.301264
 ---------------------------------------------------------------------
 Rotational constants (GHZ):           0.4576353           0.1585908           0.1298950
 Leave Link  202 at Fri Apr 14 15:52:06 2023, MaxMem=   524288000 cpu:               0.8 elap:               0.2
 (Enter /dragofs/sw/campus/0.2/software/gaussian/16.gaussian/gaussian/g16_legacy/l301.exe)
 Standard basis: 6-311G(d,p) (5D, 7F)
 Ernie: Thresh=  0.10000D-02 Tol=  0.10000D-05 Strict=F.
 There are   569 symmetry adapted cartesian basis functions of A   symmetry.
 There are   546 symmetry adapted basis functions of A   symmetry.
   546 basis functions,   912 primitive gaussians,   569 cartesian basis functions
    91 alpha electrons       91 beta electrons
       nuclear repulsion energy      2347.6078081090 Hartrees.
 IExCor= 4336 DFT=T Ex+Corr=M062X ExCW=0 ScaHFX=  0.540000
 ScaDFX=  1.000000  1.000000  1.000000  1.000000 ScalE2=  1.000000  1.000000
 IRadAn=      5 IRanWt=     -1 IRanGd=            0 ICorTp=0 IEmpDi=  4
 NAtoms=   45 NActive=   45 NUniq=   45 SFac= 1.00D+00 NAtFMM=   60 NAOKFM=F Big=F
 Integral buffers will be    131072 words long.
 Raffenetti 2 integral format.
 Two-electron integral symmetry is turned on.
 Leave Link  301 at Fri Apr 14 15:52:06 2023, MaxMem=   524288000 cpu:               1.2 elap:               0.3
 (Enter /dragofs/sw/campus/0.2/software/gaussian/16.gaussian/gaussian/g16_legacy/l302.exe)
 NPDir=0 NMtPBC=     1 NCelOv=     1 NCel=       1 NClECP=     1 NCelD=      1
         NCelK=      1 NCelE2=     1 NClLst=     1 CellRange=     0.0.
 One-electron integrals computed using PRISM.
 One-electron integral symmetry used in STVInt
 NBasis=   546 RedAO= T EigKep=  5.37D-04  NBF=   546
 NBsUse=   546 1.00D-06 EigRej= -1.00D+00 NBFU=   546
 Precomputing XC quadrature grid using
 IXCGrd= 4 IRadAn=           5 IRanWt=          -1 IRanGd=           0 AccXCQ= 0.00D+00.
 Generated NRdTot=       0 NPtTot=           0 NUsed=           0 NTot=          32
 NSgBfM=   557   554   556   557   557 MxSgAt=    45 MxSgA2=    45.
 Leave Link  302 at Fri Apr 14 15:52:14 2023, MaxMem=   524288000 cpu:              38.6 elap:               7.3
 (Enter /dragofs/sw/campus/0.2/software/gaussian/16.gaussian/gaussian/g16_legacy/l303.exe)
 DipDrv:  MaxL=1.
 Leave Link  303 at Fri Apr 14 15:52:14 2023, MaxMem=   524288000 cpu:               2.4 elap:               0.6
 (Enter /dragofs/sw/campus/0.2/software/gaussian/16.gaussian/gaussian/g16_legacy/l401.exe)
 ExpMin= 1.03D-01 ExpMax= 8.59D+03 ExpMxC= 1.30D+03 IAcc=3 IRadAn=         5 AccDes= 0.00D+00
 Harris functional with IExCor= 1009 and IRadAn=       5 diagonalized for initial guess.
 HarFok:  IExCor= 1009 AccDes= 0.00D+00 IRadAn=         5 IDoV= 1 UseB2=F ITyADJ=14
 ICtDFT=  3500011 ScaDFX=  1.000000  1.000000  1.000000  1.000000
 FoFCou: FMM=F IPFlag=           0 FMFlag=      100000 FMFlg1=           0
         NFxFlg=           0 DoJE=T BraDBF=F KetDBF=T FulRan=T
         wScrn=  0.000000 ICntrl=       500 IOpCl=  0 I1Cent=   200000004 NGrid=           0
         NMat0=    1 NMatS0=      1 NMatT0=    0 NMatD0=    1 NMtDS0=    0 NMtDT0=    0
 Petite list used in FoFCou.
 Harris En= -1297.01626001231    
 JPrj=0 DoOrth=F DoCkMO=F.
 Leave Link  401 at Fri Apr 14 15:52:24 2023, MaxMem=   524288000 cpu:              53.1 elap:               9.4
 (Enter /dragofs/sw/campus/0.2/software/gaussian/16.gaussian/gaussian/g16_legacy/l502.exe)
 Integral symmetry usage will be decided dynamically.
 Closed shell SCF:
 Using DIIS extrapolation, IDIIS=  1040.
 NGot=   524288000 LenX=   523630196 LenY=   523305866
 Requested convergence on RMS density matrix=1.00D-08 within 128 cycles.
 Requested convergence on MAX density matrix=1.00D-06.
 Requested convergence on             energy=1.00D-06.
 No special actions if energy rises.
 Fock matrices will be formed incrementally for  20 cycles.
 Integral accuracy reduced to 1.0D-05 until final iterations.

 Cycle   1  Pass 0  IDiag  1:
 FoFJK:  IHMeth= 1 ICntrl=       0 DoSepK=F KAlg= 0 I1Cent=           0 FoldK=F
 IRaf= 750000000 NMat=       1 IRICut=       1 DoRegI=T DoRafI=F ISym2E= 0 IDoP0=0 IntGTp=1.
 FoFCou: FMM=F IPFlag=           0 FMFlag=      100000 FMFlg1=           0
         NFxFlg=           0 DoJE=F BraDBF=F KetDBF=F FulRan=T
         wScrn=  0.000000 ICntrl=         0 IOpCl=  0 I1Cent=           0 NGrid=           0
         NMat0=    1 NMatS0=      1 NMatT0=    0 NMatD0=    1 NMtDS0=    0 NMtDT0=    0
 Symmetry not used in FoFCou.
 E= -1297.22444888690    
 DIIS: error= 1.80D-02 at cycle   1 NSaved=   1.
 NSaved= 1 IEnMin= 1 EnMin= -1297.22444888690     IErMin= 1 ErrMin= 1.80D-02
 ErrMax= 1.80D-02  0.00D+00 EMaxC= 1.00D-01 BMatC= 8.47D-01 BMatP= 8.47D-01
 IDIUse=3 WtCom= 8.20D-01 WtEn= 1.80D-01
 Coeff-Com:  0.100D+01
 Coeff-En:   0.100D+01
 Coeff:      0.100D+01
 Gap=     0.365 Goal=   None    Shift=    0.000
 GapD=    0.365 DampG=1.000 DampE=0.500 DampFc=0.5000 IDamp=-1.
 Damping current iteration by 5.00D-01
 RMSDP=2.54D-03 MaxDP=1.92D-01              OVMax= 1.21D-01

 Cycle   2  Pass 0  IDiag  1:
 RMSU=  1.26D-03    CP:  1.01D+00
 E= -1297.45872593687     Delta-E=       -0.234277049969 Rises=F Damp=T
 DIIS: error= 6.65D-03 at cycle   2 NSaved=   2.
 NSaved= 2 IEnMin= 2 EnMin= -1297.45872593687     IErMin= 2 ErrMin= 6.65D-03
 ErrMax= 6.65D-03  0.00D+00 EMaxC= 1.00D-01 BMatC= 6.98D-02 BMatP= 8.47D-01
 IDIUse=3 WtCom= 9.33D-01 WtEn= 6.65D-02
 Coeff-Com: -0.676D-01 0.107D+01
 Coeff-En:   0.000D+00 0.100D+01
 Coeff:     -0.631D-01 0.106D+01
 Gap=     0.370 Goal=   None    Shift=    0.000
 RMSDP=4.68D-04 MaxDP=2.00D-02 DE=-2.34D-01 OVMax= 6.26D-02

 Cycle   3  Pass 0  IDiag  1:
 RMSU=  4.55D-04    CP:  1.01D+00  9.14D-01
 E= -1297.69390967340     Delta-E=       -0.235183736533 Rises=F Damp=F
 DIIS: error= 3.54D-03 at cycle   3 NSaved=   3.
 NSaved= 3 IEnMin= 3 EnMin= -1297.69390967340     IErMin= 3 ErrMin= 3.54D-03
 ErrMax= 3.54D-03  0.00D+00 EMaxC= 1.00D-01 BMatC= 2.17D-02 BMatP= 6.98D-02
 IDIUse=3 WtCom= 9.65D-01 WtEn= 3.54D-02
 Coeff-Com: -0.107D+00 0.364D+00 0.744D+00
 Coeff-En:   0.000D+00 0.000D+00 0.100D+01
 Coeff:     -0.104D+00 0.351D+00 0.753D+00
 Gap=     0.354 Goal=   None    Shift=    0.000
 RMSDP=2.62D-04 MaxDP=9.87D-03 DE=-2.35D-01 OVMax= 1.55D-02

 Cycle   4  Pass 0  IDiag  1:
 RMSU=  1.95D-04    CP:  1.01D+00  1.01D+00  7.30D-01
 E= -1297.70658298535     Delta-E=       -0.012673311956 Rises=F Damp=F
 DIIS: error= 1.28D-03 at cycle   4 NSaved=   4.
 NSaved= 4 IEnMin= 4 EnMin= -1297.70658298535     IErMin= 4 ErrMin= 1.28D-03
 ErrMax= 1.28D-03  0.00D+00 EMaxC= 1.00D-01 BMatC= 3.42D-03 BMatP= 2.17D-02
 IDIUse=3 WtCom= 9.87D-01 WtEn= 1.28D-02
 Coeff-Com: -0.418D-01 0.100D+00 0.368D+00 0.573D+00
 Coeff-En:   0.000D+00 0.000D+00 0.104D+00 0.896D+00
 Coeff:     -0.413D-01 0.992D-01 0.365D+00 0.578D+00
 Gap=     0.350 Goal=   None    Shift=    0.000
 RMSDP=1.07D-04 MaxDP=4.04D-03 DE=-1.27D-02 OVMax= 5.81D-03

 Cycle   5  Pass 0  IDiag  1:
 RMSU=  4.45D-05    CP:  1.01D+00  9.95D-01  8.19D-01  5.61D-01
 E= -1297.70948074428     Delta-E=       -0.002897758922 Rises=F Damp=F
 DIIS: error= 3.49D-04 at cycle   5 NSaved=   5.
 NSaved= 5 IEnMin= 5 EnMin= -1297.70948074428     IErMin= 5 ErrMin= 3.49D-04
 ErrMax= 3.49D-04  0.00D+00 EMaxC= 1.00D-01 BMatC= 9.63D-05 BMatP= 3.42D-03
 IDIUse=3 WtCom= 9.97D-01 WtEn= 3.49D-03
 Coeff-Com: -0.113D-01 0.229D-01 0.110D+00 0.227D+00 0.652D+00
 Coeff-En:   0.000D+00 0.000D+00 0.000D+00 0.000D+00 0.100D+01
 Coeff:     -0.113D-01 0.229D-01 0.110D+00 0.226D+00 0.653D+00
 Gap=     0.349 Goal=   None    Shift=    0.000
 RMSDP=2.14D-05 MaxDP=1.38D-03 DE=-2.90D-03 OVMax= 1.43D-03

 Cycle   6  Pass 0  IDiag  1:
 RMSU=  1.47D-05    CP:  1.01D+00  9.97D-01  8.24D-01  6.08D-01  7.33D-01
 E= -1297.70953798338     Delta-E=       -0.000057239106 Rises=F Damp=F
 DIIS: error= 1.48D-04 at cycle   6 NSaved=   6.
 NSaved= 6 IEnMin= 6 EnMin= -1297.70953798338     IErMin= 6 ErrMin= 1.48D-04
 ErrMax= 1.48D-04  0.00D+00 EMaxC= 1.00D-01 BMatC= 1.72D-05 BMatP= 9.63D-05
 IDIUse=3 WtCom= 9.99D-01 WtEn= 1.48D-03
 Coeff-Com: -0.147D-02 0.135D-02 0.188D-01 0.576D-01 0.334D+00 0.590D+00
 Coeff-En:   0.000D+00 0.000D+00 0.000D+00 0.000D+00 0.697D-01 0.930D+00
 Coeff:     -0.146D-02 0.135D-02 0.188D-01 0.575D-01 0.333D+00 0.591D+00
 Gap=     0.349 Goal=   None    Shift=    0.000
 RMSDP=6.73D-06 MaxDP=5.03D-04 DE=-5.72D-05 OVMax= 5.61D-04

 Initial convergence to 1.0D-05 achieved.  Increase integral accuracy.
 Cycle   7  Pass 1  IDiag  1:
 E= -1297.70966283037     Delta-E=       -0.000124846985 Rises=F Damp=F
 DIIS: error= 2.80D-05 at cycle   1 NSaved=   1.
 NSaved= 1 IEnMin= 1 EnMin= -1297.70966283037     IErMin= 1 ErrMin= 2.80D-05
 ErrMax= 2.80D-05  0.00D+00 EMaxC= 1.00D-01 BMatC= 1.01D-06 BMatP= 1.01D-06
 IDIUse=1 WtCom= 1.00D+00 WtEn= 0.00D+00
 Coeff-Com:  0.100D+01
 Coeff:      0.100D+01
 Gap=     0.349 Goal=   None    Shift=    0.000
 RMSDP=6.73D-06 MaxDP=5.03D-04 DE=-1.25D-04 OVMax= 1.37D-04

 Cycle   8  Pass 1  IDiag  1:
 RMSU=  1.19D-05    CP:  1.00D+00
 E= -1297.70966360341     Delta-E=       -0.000000773042 Rises=F Damp=F
 DIIS: error= 2.23D-05 at cycle   2 NSaved=   2.
 NSaved= 2 IEnMin= 2 EnMin= -1297.70966360341     IErMin= 2 ErrMin= 2.23D-05
 ErrMax= 2.23D-05  0.00D+00 EMaxC= 1.00D-01 BMatC= 3.85D-07 BMatP= 1.01D-06
 IDIUse=1 WtCom= 1.00D+00 WtEn= 0.00D+00
 Coeff-Com:  0.335D+00 0.665D+00
 Coeff:      0.335D+00 0.665D+00
 Gap=     0.349 Goal=   None    Shift=    0.000
 RMSDP=1.34D-06 MaxDP=1.10D-04 DE=-7.73D-07 OVMax= 1.23D-04

 Cycle   9  Pass 1  IDiag  1:
 RMSU=  1.32D-06    CP:  1.00D+00  1.02D+00
 E= -1297.70966379592     Delta-E=       -0.000000192510 Rises=F Damp=F
 DIIS: error= 1.35D-05 at cycle   3 NSaved=   3.
 NSaved= 3 IEnMin= 3 EnMin= -1297.70966379592     IErMin= 3 ErrMin= 1.35D-05
 ErrMax= 1.35D-05  0.00D+00 EMaxC= 1.00D-01 BMatC= 1.22D-07 BMatP= 3.85D-07
 IDIUse=1 WtCom= 1.00D+00 WtEn= 0.00D+00
 Coeff-Com: -0.251D-01 0.353D+00 0.672D+00
 Coeff:     -0.251D-01 0.353D+00 0.672D+00
 Gap=     0.349 Goal=   None    Shift=    0.000
 RMSDP=6.12D-07 MaxDP=4.81D-05 DE=-1.93D-07 OVMax= 4.55D-05

 Cycle  10  Pass 1  IDiag  1:
 RMSU=  3.37D-07    CP:  1.00D+00  1.03D+00  6.57D-01
 E= -1297.70966387904     Delta-E=       -0.000000083119 Rises=F Damp=F
 DIIS: error= 1.81D-06 at cycle   4 NSaved=   4.
 NSaved= 4 IEnMin= 4 EnMin= -1297.70966387904     IErMin= 4 ErrMin= 1.81D-06
 ErrMax= 1.81D-06  0.00D+00 EMaxC= 1.00D-01 BMatC= 2.92D-09 BMatP= 1.22D-07
 IDIUse=1 WtCom= 1.00D+00 WtEn= 0.00D+00
 Coeff-Com: -0.196D-01 0.118D+00 0.265D+00 0.637D+00
 Coeff:     -0.196D-01 0.118D+00 0.265D+00 0.637D+00
 Gap=     0.349 Goal=   None    Shift=    0.000
 RMSDP=1.23D-07 MaxDP=5.54D-06 DE=-8.31D-08 OVMax= 7.88D-06

 Cycle  11  Pass 1  IDiag  1:
 RMSU=  1.10D-07    CP:  1.00D+00  1.04D+00  6.85D-01  8.88D-01
 E= -1297.70966388140     Delta-E=       -0.000000002363 Rises=F Damp=F
 DIIS: error= 3.81D-07 at cycle   5 NSaved=   5.
 NSaved= 5 IEnMin= 5 EnMin= -1297.70966388140     IErMin= 5 ErrMin= 3.81D-07
 ErrMax= 3.81D-07  0.00D+00 EMaxC= 1.00D-01 BMatC= 3.37D-10 BMatP= 2.92D-09
 IDIUse=1 WtCom= 1.00D+00 WtEn= 0.00D+00
 Coeff-Com: -0.339D-02-0.966D-02-0.374D-02 0.232D+00 0.785D+00
 Coeff:     -0.339D-02-0.966D-02-0.374D-02 0.232D+00 0.785D+00
 Gap=     0.349 Goal=   None    Shift=    0.000
 RMSDP=4.17D-08 MaxDP=1.66D-06 DE=-2.36D-09 OVMax= 2.72D-06

 Cycle  12  Pass 1  IDiag  1:
 RMSU=  2.62D-08    CP:  1.00D+00  1.04D+00  6.85D-01  9.82D-01  9.58D-01
 E= -1297.70966388179     Delta-E=       -0.000000000389 Rises=F Damp=F
 DIIS: error= 1.66D-07 at cycle   6 NSaved=   6.
 NSaved= 6 IEnMin= 6 EnMin= -1297.70966388179     IErMin= 6 ErrMin= 1.66D-07
 ErrMax= 1.66D-07  0.00D+00 EMaxC= 1.00D-01 BMatC= 4.93D-11 BMatP= 3.37D-10
 IDIUse=1 WtCom= 1.00D+00 WtEn= 0.00D+00
 Coeff-Com:  0.707D-03-0.173D-01-0.313D-01 0.320D-01 0.344D+00 0.672D+00
 Coeff:      0.707D-03-0.173D-01-0.313D-01 0.320D-01 0.344D+00 0.672D+00
 Gap=     0.349 Goal=   None    Shift=    0.000
 RMSDP=1.59D-08 MaxDP=6.88D-07 DE=-3.89D-10 OVMax= 9.05D-07

 Cycle  13  Pass 1  IDiag  1:
 RMSU=  1.06D-08    CP:  1.00D+00  1.04D+00  6.85D-01  1.00D+00  1.04D+00
                    CP:  8.48D-01
 E= -1297.70966388179     Delta-E=       -0.000000000000 Rises=F Damp=F
 DIIS: error= 4.30D-08 at cycle   7 NSaved=   7.
 NSaved= 7 IEnMin= 7 EnMin= -1297.70966388179     IErMin= 7 ErrMin= 4.30D-08
 ErrMax= 4.30D-08  0.00D+00 EMaxC= 1.00D-01 BMatC= 4.14D-12 BMatP= 4.93D-11
 IDIUse=1 WtCom= 1.00D+00 WtEn= 0.00D+00
 Coeff-Com:  0.609D-03-0.637D-02-0.129D-01-0.885D-02 0.721D-01 0.279D+00
 Coeff-Com:  0.677D+00
 Coeff:      0.609D-03-0.637D-02-0.129D-01-0.885D-02 0.721D-01 0.279D+00
 Coeff:      0.677D+00
 Gap=     0.349 Goal=   None    Shift=    0.000
 RMSDP=4.17D-09 MaxDP=2.13D-07 DE=-4.55D-13 OVMax= 2.72D-07

 SCF Done:  E(RM062X) =  -1297.70966388     A.U. after   13 cycles
            NFock= 13  Conv=0.42D-08     -V/T= 2.0038
 KE= 1.292826056097D+03 PE=-7.743034815589D+03 EE= 2.804891287501D+03
 Leave Link  502 at Fri Apr 14 15:56:55 2023, MaxMem=   524288000 cpu:            1840.4 elap:             270.9
 (Enter /dragofs/sw/campus/0.2/software/gaussian/16.gaussian/gaussian/g16_legacy/l601.exe)
 Copying SCF densities to generalized density rwf, IOpCl= 0 IROHF=0.

 **********************************************************************

            Population analysis using the SCF density.

 **********************************************************************

 Orbital symmetries:
       Occupied  (A) (A) (A) (A) (A) (A) (A) (A) (A) (A) (A) (A)
                 (A) (A) (A) (A) (A) (A) (A) (A) (A) (A) (A) (A)
                 (A) (A) (A) (A) (A) (A) (A) (A) (A) (A) (A) (A)
                 (A) (A) (A) (A) (A) (A) (A) (A) (A) (A) (A) (A)
                 (A) (A) (A) (A) (A) (A) (A) (A) (A) (A) (A) (A)
                 (A) (A) (A) (A) (A) (A) (A) (A) (A) (A) (A) (A)
                 (A) (A) (A) (A) (A) (A) (A) (A) (A) (A) (A) (A)
                 (A) (A) (A) (A) (A) (A) (A)
       Virtual   (A) (A) (A) (A) (A) (A) (A) (A) (A) (A) (A) (A)
                 (A) (A) (A) (A) (A) (A) (A) (A) (A) (A) (A) (A)
                 (A) (A) (A) (A) (A) (A) (A) (A) (A) (A) (A) (A)
                 (A) (A) (A) (A) (A) (A) (A) (A) (A) (A) (A) (A)
                 (A) (A) (A) (A) (A) (A) (A) (A) (A) (A) (A) (A)
                 (A) (A) (A) (A) (A) (A) (A) (A) (A) (A) (A) (A)
                 (A) (A) (A) (A) (A) (A) (A) (A) (A) (A) (A) (A)
                 (A) (A) (A) (A) (A) (A) (A) (A) (A) (A) (A) (A)
                 (A) (A) (A) (A) (A) (A) (A) (A) (A) (A) (A) (A)
                 (A) (A) (A) (A) (A) (A) (A) (A) (A) (A) (A) (A)
                 (A) (A) (A) (A) (A) (A) (A) (A) (A) (A) (A) (A)
                 (A) (A) (A) (A) (A) (A) (A) (A) (A) (A) (A) (A)
                 (A) (A) (A) (A) (A) (A) (A) (A) (A) (A) (A) (A)
                 (A) (A) (A) (A) (A) (A) (A) (A) (A) (A) (A) (A)
                 (A) (A) (A) (A) (A) (A) (A) (A) (A) (A) (A) (A)
                 (A) (A) (A) (A) (A) (A) (A) (A) (A) (A) (A) (A)
                 (A) (A) (A) (A) (A) (A) (A) (A) (A) (A) (A) (A)
                 (A) (A) (A) (A) (A) (A) (A) (A) (A) (A) (A) (A)
                 (A) (A) (A) (A) (A) (A) (A) (A) (A) (A) (A) (A)
                 (A) (A) (A) (A) (A) (A) (A) (A) (A) (A) (A) (A)
                 (A) (A) (A) (A) (A) (A) (A) (A) (A) (A) (A) (A)
                 (A) (A) (A) (A) (A) (A) (A) (A) (A) (A) (A) (A)
                 (A) (A) (A) (A) (A) (A) (A) (A) (A) (A) (A) (A)
                 (A) (A) (A) (A) (A) (A) (A) (A) (A) (A) (A) (A)
                 (A) (A) (A) (A) (A) (A) (A) (A) (A) (A) (A) (A)
                 (A) (A) (A) (A) (A) (A) (A) (A) (A) (A) (A) (A)
                 (A) (A) (A) (A) (A) (A) (A) (A) (A) (A) (A) (A)
                 (A) (A) (A) (A) (A) (A) (A) (A) (A) (A) (A) (A)
                 (A) (A) (A) (A) (A) (A) (A) (A) (A) (A) (A) (A)
                 (A) (A) (A) (A) (A) (A) (A) (A) (A) (A) (A) (A)
                 (A) (A) (A) (A) (A) (A) (A) (A) (A) (A) (A) (A)
                 (A) (A) (A) (A) (A) (A) (A) (A) (A) (A) (A) (A)
                 (A) (A) (A) (A) (A) (A) (A) (A) (A) (A) (A) (A)
                 (A) (A) (A) (A) (A) (A) (A) (A) (A) (A) (A) (A)
                 (A) (A) (A) (A) (A) (A) (A) (A) (A) (A) (A) (A)
                 (A) (A) (A) (A) (A) (A) (A) (A) (A) (A) (A) (A)
                 (A) (A) (A) (A) (A) (A) (A) (A) (A) (A) (A) (A)
                 (A) (A) (A) (A) (A) (A) (A) (A) (A) (A) (A)
 The electronic state is 1-A.
 Alpha  occ. eigenvalues --  -19.67092 -19.64897 -19.64777 -19.63827 -19.63623
 Alpha  occ. eigenvalues --  -19.63538 -19.63362 -19.62405 -19.61562 -19.60171
 Alpha  occ. eigenvalues --  -19.59773 -10.67062 -10.65643 -10.63199 -10.62337
 Alpha  occ. eigenvalues --  -10.62140 -10.62082 -10.61653 -10.61640 -10.59891
 Alpha  occ. eigenvalues --  -10.59407 -10.59204 -10.57620  -1.23169  -1.19888
 Alpha  occ. eigenvalues --   -1.18214  -1.16698  -1.14926  -1.14635  -1.13731
 Alpha  occ. eigenvalues --   -1.13248  -1.12577  -1.11159  -1.10801  -0.91550
 Alpha  occ. eigenvalues --   -0.89986  -0.87562  -0.85807  -0.79853  -0.77706
 Alpha  occ. eigenvalues --   -0.75075  -0.73231  -0.72449  -0.70510  -0.69596
 Alpha  occ. eigenvalues --   -0.65625  -0.64318  -0.63010  -0.62658  -0.61731
 Alpha  occ. eigenvalues --   -0.60147  -0.59674  -0.58605  -0.58322  -0.57424
 Alpha  occ. eigenvalues --   -0.56929  -0.55934  -0.55253  -0.53458  -0.52843
 Alpha  occ. eigenvalues --   -0.52642  -0.52449  -0.51797  -0.51279  -0.50392
 Alpha  occ. eigenvalues --   -0.48788  -0.48142  -0.47613  -0.47057  -0.46580
 Alpha  occ. eigenvalues --   -0.45627  -0.45398  -0.45111  -0.43648  -0.42888
 Alpha  occ. eigenvalues --   -0.42524  -0.42208  -0.41346  -0.40186  -0.39408
 Alpha  occ. eigenvalues --   -0.38731  -0.37941  -0.37881  -0.36709  -0.36558
 Alpha  occ. eigenvalues --   -0.35926  -0.35454  -0.34047  -0.33737  -0.33473
 Alpha  occ. eigenvalues --   -0.32519
 Alpha virt. eigenvalues --    0.02405   0.03409   0.05424   0.06021   0.07051
 Alpha virt. eigenvalues --    0.07835   0.08457   0.09210   0.10039   0.10152
 Alpha virt. eigenvalues --    0.11157   0.11607   0.12135   0.12732   0.13700
 Alpha virt. eigenvalues --    0.14073   0.14767   0.15043   0.15375   0.16037
 Alpha virt. eigenvalues --    0.16229   0.16466   0.17156   0.17773   0.18361
 Alpha virt. eigenvalues --    0.19022   0.19858   0.21244   0.21807   0.21979
 Alpha virt. eigenvalues --    0.23011   0.24338   0.24927   0.25345   0.26293
 Alpha virt. eigenvalues --    0.26588   0.27767   0.28712   0.29371   0.30368
 Alpha virt. eigenvalues --    0.31002   0.32524   0.33019   0.33802   0.35429
 Alpha virt. eigenvalues --    0.35634   0.37860   0.39246   0.39523   0.40347
 Alpha virt. eigenvalues --    0.41227   0.42159   0.42521   0.43570   0.44091
 Alpha virt. eigenvalues --    0.44224   0.45280   0.46436   0.47113   0.47533
 Alpha virt. eigenvalues --    0.48272   0.48482   0.49275   0.49471   0.50186
 Alpha virt. eigenvalues --    0.50692   0.51832   0.52052   0.52394   0.53322
 Alpha virt. eigenvalues --    0.53825   0.54629   0.55367   0.55965   0.56218
 Alpha virt. eigenvalues --    0.56586   0.57449   0.58188   0.58882   0.59283
 Alpha virt. eigenvalues --    0.59489   0.59904   0.60606   0.61311   0.62217
 Alpha virt. eigenvalues --    0.62468   0.63141   0.63298   0.63637   0.64219
 Alpha virt. eigenvalues --    0.64866   0.65467   0.66239   0.66657   0.67005
 Alpha virt. eigenvalues --    0.67440   0.68230   0.68724   0.69454   0.73540
 Alpha virt. eigenvalues --    0.74138   0.75324   0.75559   0.78756   0.80649
 Alpha virt. eigenvalues --    0.81568   0.82227   0.83891   0.85687   0.86972
 Alpha virt. eigenvalues --    0.87662   0.88413   0.89937   0.90485   0.90718
 Alpha virt. eigenvalues --    0.91008   0.91149   0.92624   0.92828   0.93782
 Alpha virt. eigenvalues --    0.95031   0.95914   0.96736   0.97297   0.98503
 Alpha virt. eigenvalues --    0.98868   1.00214   1.00687   1.01457   1.02164
 Alpha virt. eigenvalues --    1.02752   1.04454   1.05855   1.05997   1.06561
 Alpha virt. eigenvalues --    1.07285   1.08311   1.09486   1.10073   1.11825
 Alpha virt. eigenvalues --    1.12685   1.12866   1.14658   1.15171   1.16324
 Alpha virt. eigenvalues --    1.16986   1.20015   1.20852   1.22446   1.22696
 Alpha virt. eigenvalues --    1.23867   1.26506   1.27327   1.28530   1.30045
 Alpha virt. eigenvalues --    1.31160   1.32040   1.33952   1.34461   1.37572
 Alpha virt. eigenvalues --    1.38541   1.38683   1.40155   1.40210   1.42018
 Alpha virt. eigenvalues --    1.42691   1.44287   1.44542   1.45546   1.45954
 Alpha virt. eigenvalues --    1.46651   1.47083   1.47876   1.48595   1.49581
 Alpha virt. eigenvalues --    1.50471   1.50822   1.51797   1.52267   1.52863
 Alpha virt. eigenvalues --    1.53313   1.54376   1.55327   1.55702   1.56137
 Alpha virt. eigenvalues --    1.56659   1.57560   1.58217   1.59398   1.59598
 Alpha virt. eigenvalues --    1.60863   1.61242   1.62116   1.62383   1.63251
 Alpha virt. eigenvalues --    1.63532   1.64872   1.65216   1.65580   1.65907
 Alpha virt. eigenvalues --    1.66887   1.67411   1.68885   1.69054   1.69389
 Alpha virt. eigenvalues --    1.70120   1.70613   1.71181   1.73258   1.73467
 Alpha virt. eigenvalues --    1.75436   1.75955   1.77204   1.77288   1.77814
 Alpha virt. eigenvalues --    1.78750   1.79676   1.80519   1.81802   1.82499
 Alpha virt. eigenvalues --    1.82964   1.84147   1.85307   1.86538   1.88472
 Alpha virt. eigenvalues --    1.88692   1.90706   1.91222   1.91920   1.92420
 Alpha virt. eigenvalues --    1.94031   1.95101   1.95443   1.96529   1.98069
 Alpha virt. eigenvalues --    1.98463   1.99632   2.00549   2.00917   2.01755
 Alpha virt. eigenvalues --    2.01842   2.02434   2.04285   2.05211   2.06178
 Alpha virt. eigenvalues --    2.06555   2.07275   2.08755   2.08945   2.09396
 Alpha virt. eigenvalues --    2.11439   2.11997   2.12249   2.12744   2.14222
 Alpha virt. eigenvalues --    2.14971   2.16269   2.16929   2.17076   2.19018
 Alpha virt. eigenvalues --    2.20908   2.21113   2.21821   2.23723   2.24043
 Alpha virt. eigenvalues --    2.26282   2.26861   2.28261   2.29671   2.32188
 Alpha virt. eigenvalues --    2.33487   2.35494   2.39431   2.42602   2.42958
 Alpha virt. eigenvalues --    2.43455   2.44527   2.45246   2.46046   2.50120
 Alpha virt. eigenvalues --    2.50764   2.51679   2.52108   2.53290   2.54799
 Alpha virt. eigenvalues --    2.55777   2.56769   2.57303   2.58028   2.59058
 Alpha virt. eigenvalues --    2.61196   2.63072   2.64297   2.65520   2.66327
 Alpha virt. eigenvalues --    2.67901   2.72365   2.74379   2.75753   2.76376
[...]
    31  O    0.000000  -0.000000   0.000000  -0.000000  -0.000000  -0.036411
    32  H   -0.000000  -0.000000   0.000000  -0.000000  -0.000000  -0.012374
    33  C    0.000000   0.000000   0.000000  -0.000000  -0.000000  -0.053579
    34  H    0.000000   0.000000   0.000000  -0.000000  -0.000000  -0.000709
    35  O   -0.000000  -0.000000  -0.000000   0.000000   0.000000   0.005629
    36  H   -0.000000   0.000000  -0.000000   0.000000   0.000000   0.001502
    37  C   -0.000000   0.000000   0.000000   0.000000   0.000000  -0.005454
    38  H   -0.000000   0.000000  -0.000000   0.000000   0.000000   0.000473
    39  O    0.000000  -0.000000   0.000000   0.000000  -0.000000  -0.000264
    40  H    0.000000   0.000000   0.000000  -0.000000   0.000000  -0.000326
    41  C   -0.000000   0.000000   0.000000   0.000000   0.000000   0.005722
    42  H   -0.000000  -0.000000   0.000000   0.000000   0.000000  -0.000126
    43  H   -0.000000   0.000000  -0.000000   0.000000   0.000000  -0.000945
    44  O   -0.000000  -0.000000   0.000000   0.000000   0.000000  -0.000489
    45  H    0.000009  -0.000000  -0.000007   0.000000  -0.000002  -0.000209
              25         26         27         28         29         30
     1  C   -0.000032  -0.000375  -0.000061  -0.000130   0.000016   0.000024
     2  H    0.000004   0.000022  -0.000014  -0.000176   0.000002   0.000000
     3  O    0.000018   0.000085   0.000159  -0.002307   0.000077  -0.000002
     4  H    0.000040   0.000069   0.000063  -0.000008  -0.000005   0.000001
     5  C   -0.000120  -0.000002  -0.000003   0.000004   0.000012  -0.000011
     6  H   -0.000001  -0.000000  -0.000000  -0.000006  -0.000001  -0.000001
     7  O    0.000002  -0.000000  -0.000000  -0.000004  -0.000000  -0.000000
     8  C   -0.000120   0.001274  -0.000246  -0.025849  -0.000078  -0.000563
     9  H    0.002179  -0.004977   0.000821   0.019976  -0.002434   0.001727
    10  O    0.000003  -0.000004   0.000001   0.000143   0.000021   0.000011
    11  H   -0.000014   0.000004  -0.000001  -0.000136   0.000047  -0.000048
    12  C    0.003846   0.000295  -0.000009   0.003984  -0.000196   0.000729
    13  H   -0.000742   0.000011  -0.000006  -0.000151   0.000650  -0.000589
    14  O   -0.040135   0.003019  -0.000107  -0.038100  -0.049579   0.001221
    15  C    0.000899   0.000007   0.000022  -0.000841  -0.000475   0.000156
    16  H   -0.001134   0.000019  -0.000005   0.000079   0.000292  -0.000040
    17  O    0.000129   0.000000  -0.000000  -0.000002  -0.000034   0.000001
    18  H   -0.000146  -0.000003  -0.000001   0.000066  -0.000005  -0.000009
    19  C    0.000001   0.000000  -0.000000  -0.000000  -0.000000   0.000000
    20  H   -0.000000   0.000000   0.000000   0.000000   0.000000   0.000000
    21  H    0.000003  -0.000000   0.000000   0.000000  -0.000000   0.000000
    22  O   -0.000000  -0.000000  -0.000000   0.000000   0.000000  -0.000000
    23  H   -0.000000  -0.000000   0.000000   0.000000   0.000000  -0.000000
    24  C    0.410174  -0.076411  -0.008878   0.227162   0.228165  -0.035177
    25  H    0.582053  -0.005316   0.009365  -0.038324  -0.094954   0.011145
    26  C   -0.005316   5.424467   0.384446   0.202686  -0.007770   0.001345
    27  H    0.009365   0.384446   0.554635  -0.039688  -0.000603   0.000307
    28  O   -0.038324   0.202686  -0.039688   8.215537  -0.041403   0.002797
    29  C   -0.094954  -0.007770  -0.000603  -0.041403   5.352540   0.360372
    30  H    0.011145   0.001345   0.000307   0.002797   0.360372   0.580830
    31  O    0.009649   0.000096  -0.000101   0.002045   0.233385  -0.035839
    32  H   -0.000057  -0.000014   0.000029   0.000400  -0.042546  -0.004352
    33  C   -0.001461  -0.026418  -0.011724  -0.004442   0.186548  -0.048471
    34  H    0.006942  -0.001308   0.005078   0.000461  -0.050988   0.011394
    35  O   -0.000231   0.002977  -0.000079  -0.000067  -0.036615   0.004896
    36  H   -0.000098  -0.000840  -0.000076  -0.000042  -0.010645  -0.001646
    37  C   -0.001210   0.112459  -0.054523  -0.040580  -0.055687  -0.000633
    38  H    0.000150  -0.046693   0.010642   0.003058   0.000168   0.007103
    39  O   -0.000103  -0.047214   0.008342   0.001424   0.006476  -0.000048
    40  H   -0.000014   0.011045  -0.000742  -0.000252   0.001577  -0.000072
    41  C    0.000442   0.308881  -0.034512  -0.041519  -0.001286  -0.000144
    42  H    0.000070  -0.042083  -0.007802   0.004624   0.000016   0.000008
    43  H   -0.000084  -0.052900   0.012110  -0.005580  -0.000033  -0.000113
    44  O   -0.000094  -0.041816   0.008854  -0.003299   0.000020   0.000004
    45  H   -0.000577  -0.008925  -0.002526   0.009512   0.000176  -0.000047
              31         32         33         34         35         36
     1  C    0.000000  -0.000009  -0.000003   0.000001   0.000000  -0.000000
     2  H   -0.000000   0.000000  -0.000000   0.000000  -0.000000   0.000000
     3  O   -0.000000   0.000000  -0.000004  -0.000000   0.000000   0.000000
     4  H    0.000000  -0.000000   0.000000   0.000000  -0.000000  -0.000000
     5  C   -0.000000  -0.000000  -0.000000  -0.000000   0.000000   0.000000
     6  H    0.000000  -0.000001  -0.000000  -0.000000   0.000000   0.000000
     7  O    0.000000  -0.000000   0.000000   0.000000  -0.000000  -0.000000
     8  C   -0.000002   0.000192   0.000046  -0.000011   0.000000   0.000000
     9  H    0.000024   0.000041  -0.000191   0.000012  -0.000009  -0.000002
    10  O   -0.000000  -0.000005  -0.000000  -0.000000   0.000000  -0.000000
    11  H   -0.000000  -0.000004  -0.000003  -0.000000   0.000000   0.000000
    12  C    0.000230   0.000212   0.000163   0.000000  -0.000001  -0.000002
    13  H    0.000161  -0.000476  -0.000060  -0.000003   0.000000  -0.000000
    14  O   -0.004615   0.016303   0.005817  -0.000182  -0.000021  -0.000019
    15  C   -0.000035   0.000038   0.000017   0.000002  -0.000000  -0.000000
    16  H   -0.000009  -0.000016  -0.000019  -0.000005   0.000000   0.000000
    17  O    0.000001   0.000059  -0.000000  -0.000000   0.000000  -0.000000
    18  H    0.000078   0.000297   0.000000   0.000000  -0.000000  -0.000000
    19  C    0.000000  -0.000000   0.000000   0.000000  -0.000000  -0.000000
    20  H   -0.000000  -0.000000   0.000000   0.000000  -0.000000   0.000000
    21  H    0.000000   0.000000   0.000000   0.000000  -0.000000  -0.000000
    22  O   -0.000000  -0.000000  -0.000000  -0.000000   0.000000   0.000000
    23  H   -0.000000  -0.000000  -0.000000  -0.000000   0.000000   0.000000
    24  C   -0.036411  -0.012374  -0.053579  -0.000709   0.005629   0.001502
    25  H    0.009649  -0.000057  -0.001461   0.006942  -0.000231  -0.000098
    26  C    0.000096  -0.000014  -0.026418  -0.001308   0.002977  -0.000840
    27  H   -0.000101   0.000029  -0.011724   0.005078  -0.000079  -0.000076
    28  O    0.002045   0.000400  -0.004442   0.000461  -0.000067  -0.000042
    29  C    0.233385  -0.042546   0.186548  -0.050988  -0.036615  -0.010645
    30  H   -0.035839  -0.004352  -0.048471   0.011394   0.004896  -0.001646
    31  O    7.969444   0.323631  -0.044886   0.002679  -0.002242   0.014525
    32  H    0.323631   0.440235   0.010794  -0.000573  -0.000473  -0.000756
    33  C   -0.044886   0.010794   5.322314   0.380839   0.236870  -0.042069
    34  H    0.002679  -0.000573   0.380839   0.567486  -0.037056  -0.004931
    35  O   -0.002242  -0.000473   0.236870  -0.037056   7.970520   0.325659
    36  H    0.014525  -0.000756  -0.042069  -0.004931   0.325659   0.432084
    37  C    0.004026  -0.000693   0.209877  -0.053468  -0.048431   0.012274
    38  H   -0.000206  -0.000014  -0.055791   0.011313   0.003469  -0.000821
    39  O   -0.000015   0.000007  -0.030962   0.006656  -0.003645  -0.000464
    40  H   -0.000023   0.000006  -0.005354  -0.001513   0.015884  -0.000892
    41  C    0.000007  -0.000002   0.006386  -0.000627  -0.000050   0.000023
    42  H    0.000000  -0.000000   0.000304   0.000028  -0.000006   0.000003
    43  H    0.000000  -0.000000  -0.000319  -0.000070  -0.000001  -0.000002
    44  O   -0.000000   0.000000  -0.000190  -0.000012   0.000000  -0.000000
    45  H   -0.000002  -0.000001   0.000052  -0.000020   0.000000   0.000000
              37         38         39         40         41         42
     1  C   -0.000005   0.000001   0.000000  -0.000000   0.000934   0.000014
     2  H   -0.000002  -0.000002   0.000000  -0.000000   0.000076   0.000003
     3  O    0.000001   0.000002  -0.000000  -0.000000  -0.000475  -0.000080
     4  H   -0.000001   0.000001   0.000000  -0.000000   0.000035  -0.000002
     5  C    0.000000  -0.000000  -0.000000   0.000000   0.000002   0.000000
     6  H    0.000000  -0.000000   0.000000  -0.000000   0.000000   0.000000
     7  O   -0.000000  -0.000000   0.000000  -0.000000  -0.000001  -0.000000
     8  C   -0.000024  -0.000124  -0.000000  -0.000000  -0.000081  -0.000005
     9  H    0.000039   0.000443   0.000010   0.000001   0.000694   0.000181
    10  O    0.000000   0.000001  -0.000000   0.000000  -0.000003   0.000000
    11  H    0.000002  -0.000000  -0.000000  -0.000000   0.000000  -0.000000
    12  C   -0.000035  -0.000013  -0.000000   0.000000  -0.000134  -0.000002
    13  H    0.000006  -0.000000  -0.000000  -0.000000   0.000003   0.000000
    14  O   -0.000693  -0.000075   0.000000   0.000001  -0.000090   0.000004
    15  C   -0.000005   0.000000   0.000000   0.000000  -0.000004  -0.000000
    16  H    0.000009   0.000000  -0.000000   0.000000  -0.000006   0.000000
    17  O   -0.000000  -0.000000   0.000000   0.000000  -0.000000  -0.000000
    18  H   -0.000000   0.000000  -0.000000   0.000000   0.000000  -0.000000
    19  C   -0.000000  -0.000000   0.000000   0.000000  -0.000000  -0.000000
    20  H    0.000000   0.000000  -0.000000   0.000000   0.000000  -0.000000
    21  H    0.000000  -0.000000   0.000000   0.000000   0.000000   0.000000
    22  O    0.000000   0.000000   0.000000  -0.000000   0.000000   0.000000
    23  H    0.000000   0.000000  -0.000000   0.000000   0.000000   0.000000
    24  C   -0.005454   0.000473  -0.000264  -0.000326   0.005722  -0.000126
    25  H   -0.001210   0.000150  -0.000103  -0.000014   0.000442   0.000070
    26  C    0.112459  -0.046693  -0.047214   0.011045   0.308881  -0.042083
    27  H   -0.054523   0.010642   0.008342  -0.000742  -0.034512  -0.007802
    28  O   -0.040580   0.003058   0.001424  -0.000252  -0.041519   0.004624
    29  C   -0.055687   0.000168   0.006476   0.001577  -0.001286   0.000016
    30  H   -0.000633   0.007103  -0.000048  -0.000072  -0.000144   0.000008
    31  O    0.004026  -0.000206  -0.000015  -0.000023   0.000007   0.000000
    32  H   -0.000693  -0.000014   0.000007   0.000006  -0.000002  -0.000000
    33  C    0.209877  -0.055791  -0.030962  -0.005354   0.006386   0.000304
    34  H   -0.053468   0.011313   0.006656  -0.001513  -0.000627   0.000028
    35  O   -0.048431   0.003469  -0.003645   0.015884  -0.000050  -0.000006
    36  H    0.012274  -0.000821  -0.000464  -0.000892   0.000023   0.000003
    37  C    5.360245   0.379997   0.224226  -0.046687  -0.046572  -0.002469
    38  H    0.379997   0.578186  -0.033283  -0.004271  -0.010525  -0.000201
    39  O    0.224226  -0.033283   7.960479   0.321634  -0.002449   0.012488
    40  H   -0.046687  -0.004271   0.321634   0.437789  -0.000236  -0.000226
    41  C   -0.046572  -0.010525  -0.002449  -0.000236   4.789107   0.405068
    42  H   -0.002469  -0.000201   0.012488  -0.000226   0.405068   0.542714
    43  H   -0.002101   0.006912  -0.000360  -0.000137   0.388942  -0.042314
    44  O    0.005844  -0.000018   0.000001   0.000011   0.289814  -0.031147
    45  H    0.000273  -0.000158  -0.000047   0.000004  -0.050082   0.006347
              43         44         45
     1  C   -0.000263   0.000809  -0.002852
     2  H   -0.000195   0.000609  -0.000639
     3  O   -0.000014  -0.010312   0.033010
     4  H    0.000045   0.000699  -0.003377
     5  C   -0.000001   0.000000  -0.000038
     6  H    0.000000  -0.000000  -0.000000
     7  O   -0.000002  -0.000002   0.000546
     8  C    0.000289  -0.000304  -0.000974
     9  H    0.000650   0.000665   0.000837
    10  O   -0.000018   0.000000   0.000008
    11  H   -0.000002  -0.000000  -0.000011
    12  C   -0.000042  -0.000017  -0.000059
    13  H    0.000006  -0.000001   0.000012
    14  O    0.000002   0.000002   0.000014
    15  C    0.000002  -0.000001   0.000063
    16  H    0.000001  -0.000005  -0.000041
    17  O   -0.000000   0.000000  -0.000000
    18  H    0.000000  -0.000000  -0.000000
    19  C   -0.000000  -0.000000   0.000009
    20  H    0.000000  -0.000000  -0.000000
    21  H   -0.000000   0.000000  -0.000007
    22  O    0.000000   0.000000   0.000000
    23  H    0.000000   0.000000  -0.000002
    24  C   -0.000945  -0.000489  -0.000209
    25  H   -0.000084  -0.000094  -0.000577
    26  C   -0.052900  -0.041816  -0.008925
    27  H    0.012110   0.008854  -0.002526
    28  O   -0.005580  -0.003299   0.009512
    29  C   -0.000033   0.000020   0.000176
    30  H   -0.000113   0.000004  -0.000047
    31  O    0.000000  -0.000000  -0.000002
    32  H   -0.000000   0.000000  -0.000001
    33  C   -0.000319  -0.000190   0.000052
    34  H   -0.000070  -0.000012  -0.000020
    35  O   -0.000001   0.000000   0.000000
    36  H   -0.000002  -0.000000   0.000000
    37  C   -0.002101   0.005844   0.000273
    38  H    0.006912  -0.000018  -0.000158
    39  O   -0.000360   0.000001  -0.000047
    40  H   -0.000137   0.000011   0.000004
    41  C    0.388942   0.289814  -0.050082
    42  H   -0.042314  -0.031147   0.006347
    43  H    0.622492  -0.038760  -0.003190
    44  O   -0.038760   7.914427   0.330831
    45  H   -0.003190   0.330831   0.421095
 Mulliken charges:
               1
     1  C    0.267571
     2  H    0.166846
     3  O   -0.434194
     4  H    0.282743
     5  C   -0.006943
     6  H    0.176308
     7  O   -0.428162
     8  C   -0.159328
     9  H    0.199204
    10  O   -0.401679
    11  H    0.264823
    12  C    0.095509
    13  H    0.163414
    14  O   -0.459132
    15  C   -0.039538
    16  H    0.159365
    17  O   -0.422679
    18  H    0.262864
    19  C    0.005003
    20  H    0.153937
    21  H    0.110583
    22  O   -0.416424
    23  H    0.255890
    24  C    0.264445
    25  H    0.147854
    26  C   -0.090138
    27  H    0.166835
    28  O   -0.411051
    29  C    0.024776
    30  H    0.143731
    31  O   -0.435598
    32  H    0.270121
    33  C   -0.034083
    34  H    0.158584
    35  O   -0.436979
    36  H    0.277231
    37  C    0.049996
    38  H    0.150276
    39  O   -0.422891
    40  H    0.272792
    41  C   -0.007338
    42  H    0.154589
    43  H    0.115994
    44  O   -0.426126
    45  H    0.270996
 Sum of Mulliken charges =  -0.00000
 Mulliken charges with hydrogens summed into heavy atoms:
               1
     1  C    0.434417
     3  O   -0.151452
     5  C    0.169365
     7  O   -0.428162
     8  C    0.039876
    10  O   -0.136856
    12  C    0.258923
    14  O   -0.459132
    15  C    0.119827
    17  O   -0.159815
    19  C    0.269523
    22  O   -0.160534
    24  C    0.412299
    26  C    0.076697
    28  O   -0.411051
    29  C    0.168507
    31  O   -0.165476
    33  C    0.124500
    35  O   -0.159748
    37  C    0.200273
    39  O   -0.150099
    41  C    0.263246
    44  O   -0.155130
 Electronic spatial extent (au):  <R**2>=           8352.2827
 Charge=             -0.0000 electrons
 Dipole moment (field-independent basis, Debye):
    X=             -2.6589    Y=             -2.2366    Z=              1.0954  Tot=              3.6431
 Quadrupole moment (field-independent basis, Debye-Ang):
   XX=           -163.8447   YY=           -138.3287   ZZ=           -129.8581
   XY=             11.6486   XZ=             -4.3554   YZ=              0.5266
 Traceless Quadrupole moment (field-independent basis, Debye-Ang):
   XX=            -19.8342   YY=              5.6818   ZZ=             14.1524
   XY=             11.6486   XZ=             -4.3554   YZ=              0.5266
 Octapole moment (field-independent basis, Debye-Ang**2):
  XXX=           -185.1448  YYY=            -45.8218  ZZZ=             11.7131  XYY=             24.8066
  XXY=             11.5772  XXZ=             -6.0536  XZZ=              3.9487  YZZ=             -9.0006
  YYZ=             11.5605  XYZ=            -17.1123
 Hexadecapole moment (field-independent basis, Debye-Ang**3):
 XXXX=          -8539.8686 YYYY=          -2123.9222 ZZZZ=           -574.8891 XXXY=            228.5569
 XXXZ=             33.8677 YYYX=            173.2008 YYYZ=             26.5071 ZZZX=             -7.6693
 ZZZY=            -29.5309 XXYY=          -1542.8378 XXZZ=          -1395.5646 YYZZ=           -451.0147
 XXYZ=             13.7898 YYXZ=            -42.2488 ZZXY=              3.3252
 N-N= 2.356328275007D+03 E-N=-7.760679075769D+03  KE= 1.294056056119D+03
 No NMR shielding tensors so no spin-rotation constants.
 Leave Link  601 at Fri Apr 14 17:50:08 2023, MaxMem=   524288000 cpu:              10.9 elap:               1.6
 (Enter /dragofs/sw/campus/0.2/software/gaussian/16.gaussian/gaussian/g16_legacy/l9999.exe)
 1\1\GINC-DRAGO31010034\FOpt\RM062X\6-311G(d,p)\C12H22O11\JRAMOS\14-Apr
 -2023\0\\#p opt=modredundant m062x/6-311g(d,p)\\Conformer number 00001
 . Energy MM = 203.669 kcal/mol\\0,1\C,2.7155991136,1.3370075248,0.5983
 409349\H,3.5871962917,1.9891548047,0.6916447949\O,2.8928158832,0.15686
 45215,1.3557090191\H,2.8679673382,0.4131495233,2.2840888339\C,0.335685
 031,1.8041070997,0.5257256633\H,0.1821157069,2.4789272125,-0.323040844
 7\O,1.633373466,2.0752469631,1.0829593258\C,2.5441766313,0.9255191328,
 -0.8606637714\H,3.4232589494,0.3740191164,-1.1807944167\O,2.4287845826
 ,2.1640029814,-1.5442607113\H,2.5362273103,2.0042426768,-2.4844854442\
 C,1.2367137554,0.1148023268,-1.0800689181\H,0.7785254291,0.5395487189,
 -1.9786173915\O,1.2301528944,-1.3022642168,-1.3101691207\C,0.254008631
 ,0.3591838514,0.0638950146\H,0.5346816029,-0.2955640478,0.8970934653\O
 ,-1.0709671232,0.1084335877,-0.3515339406\H,-1.0998699015,-0.806939416
 5,-0.645109719\C,-0.6600881294,2.1278094477,1.6218978935\H,-1.67281637
 71,2.0176955506,1.2364899752\H,-0.5187728187,1.4124581093,2.4451838149
 \O,-0.5064650851,3.4574205489,2.0604978749\H,0.4310195,3.57849113,2.24
 03276747\C,2.2648942838,-2.2461103114,-1.2042010073\H,1.9424873987,-2.
 9948406487,-0.4645927236\C,4.4980968092,-2.6754486433,-0.5902756481\H,
 4.138041602,-3.4064570893,0.1467135484\O,3.4836868201,-1.6893270498,-0
 .8102112006\C,2.4424780282,-2.9108945044,-2.5661736742\H,2.7656611916,
 -2.136394964,-3.2766014512\O,1.2609254826,-3.5441217038,-3.0010675145\
 H,0.5685377517,-2.8760687531,-3.0157471541\C,3.5149249854,-3.976612488
 4,-2.4614062448\H,3.16485773,-4.7536969935,-1.7654980462\O,3.821193869
 8,-4.5464928585,-3.7164027306\H,2.9972473184,-4.8766828248,-4.08876937
 37\C,4.7978582384,-3.3842700156,-1.9055791143\H,5.1806084362,-2.648215
 9449,-2.6284230594\O,5.7509229631,-4.3894263114,-1.6558187194\H,5.8049
 209662,-4.9243480065,-2.4548397845\C,5.681596522,-1.9312680207,-0.0090
 803623\H,6.4962255671,-2.6377513262,0.1527302556\H,6.0135401587,-1.184
 2726303,-0.7460375658\O,5.3524115885,-1.3420428581,1.2211532887\H,4.51
 88596064,-0.8629732003,1.1080182751\\Version=EM64L-G16RevA.03\State=1-
 A\HF=-1297.8037596\RMSD=5.604e-09\RMSF=5.449e-04\Dipole=-0.0226977,-0.
 7593159,-1.2154399\Quadrupole=-5.9932833,-4.0044323,9.9977156,13.18025
 5,0.8464086,-2.8733492\PG=C01 [X(C12H22O11)]\\@


 THE PROGRESS OF RIVERS TO THE SEA IS NOT AS RAPID
 AS THAT OF MAN TO ERROR.
                                              -- VOLTAIRE
 Job cpu time:       0 days 13 hours 43 minutes 28.9 seconds.
 Elapsed time:       0 days  1 hours 58 minutes  1.7 seconds.
 File lengths (MBytes):  RWF=    189 Int=      0 D2E=      0 Chk=     24 Scr=      1
 Normal termination of Gaussian 16 at Fri Apr 14 17:50:08 2023.
