 Entering Gaussian System, Link 0=g16
 Input=dimer_13b_00000_gaussian.com
 Output=dimer_13b_00000_gaussian.log
 Initial command:
 /dragofs/sw/campus/0.2/software/gaussian/16.gaussian/gaussian/g16_legacy/l1.exe "/lustre/scratch-global/iem/jramos/Gau-2478701.inp" -scrdir="/lustre/scratch-global/iem/jramos/"
 Entering Link 1 = /dragofs/sw/campus/0.2/software/gaussian/16.gaussian/gaussian/g16_legacy/l1.exe PID=   2478702.
  
 Copyright (c) 1988,1990,1992,1993,1995,1998,2003,2009,2016,
            Gaussian, Inc.  All Rights Reserved.
  
 This is part of the Gaussian(R) 16 program.  It is based on
 the Gaussian(R) 09 system (copyright 2009, Gaussian, Inc.),
 the Gaussian(R) 03 system (copyright 2003, Gaussian, Inc.),
 the Gaussian(R) 98 system (copyright 1998, Gaussian, Inc.),
 the Gaussian(R) 94 system (copyright 1995, Gaussian, Inc.),
 the Gaussian 92(TM) system (copyright 1992, Gaussian, Inc.),
 the Gaussian 90(TM) system (copyright 1990, Gaussian, Inc.),
 the Gaussian 88(TM) system (copyright 1988, Gaussian, Inc.),
 the Gaussian 86(TM) system (copyright 1986, Carnegie Mellon
 University), and the Gaussian 82(TM) system (copyright 1983,
 Carnegie Mellon University). Gaussian is a federally registered
 trademark of Gaussian, Inc.
  
 This software contains proprietary and confidential information,
 including trade secrets, belonging to Gaussian, Inc.
  
 This software is provided under written license and may be
 used, copied, transmitted, or stored only in accord with that
 written license.
  
 The following legend is applicable only to US Government
 contracts under FAR:
  
                    RESTRICTED RIGHTS LEGEND
  
 Use, reproduction and disclosure by the US Government is
 subject to restrictions as set forth in subparagraphs (a)
 and (c) of the Commercial Computer Software - Restricted
 Rights clause in FAR 52.227-19.
  
 Gaussian, Inc.
 340 Quinnipiac St., Bldg. 40, Wallingford CT 06492
  
  
 ---------------------------------------------------------------
 Warning -- This program may not be used in any manner that
 competes with the business of Gaussian, Inc. or will provide
 assistance to any competitor of Gaussian, Inc.  The licensee
 of this program is prohibited from giving any competitor of
 Gaussian, Inc. access to this program.  By using this program,
 the user acknowledges that Gaussian, Inc. is engaged in the
 business of creating and licensing software in the field of
 computational chemistry and represents and warrants to the
 licensee that it is not a competitor of Gaussian, Inc. and that
 it will not use this program in any manner prohibited above.
 ---------------------------------------------------------------
  

 Cite this work as:
 Gaussian 16, Revision A.03,
 M. J. Frisch, G. W. Trucks, H. B. Schlegel, G. E. Scuseria, 
 M. A. Robb, J. R. Cheeseman, G. Scalmani, V. Barone, 
 G. A. Petersson, H. Nakatsuji, X. Li, M. Caricato, A. V. Marenich, 
 J. Bloino, B. G. Janesko, R. Gomperts, B. Mennucci, H. P. Hratchian, 
 J. V. Ortiz, A. F. Izmaylov, J. L. Sonnenberg, D. Williams-Young, 
 F. Ding, F. Lipparini, F. Egidi, J. Goings, B. Peng, A. Petrone, 
 T. Henderson, D. Ranasinghe, V. G. Zakrzewski, J. Gao, N. Rega, 
 G. Zheng, W. Liang, M. Hada, M. Ehara, K. Toyota, R. Fukuda, 
 J. Hasegawa, M. Ishida, T. Nakajima, Y. Honda, O. Kitao, H. Nakai, 
 T. Vreven, K. Throssell, J. A. Montgomery, Jr., J. E. Peralta, 
 F. Ogliaro, M. J. Bearpark, J. J. Heyd, E. N. Brothers, K. N. Kudin, 
 V. N. Staroverov, T. A. Keith, R. Kobayashi, J. Normand, 
 K. Raghavachari, A. P. Rendell, J. C. Burant, S. S. Iyengar, 
 J. Tomasi, M. Cossi, J. M. Millam, M. Klene, C. Adamo, R. Cammi, 
 J. W. Ochterski, R. L. Martin, K. Morokuma, O. Farkas, 
 J. B. Foresman, and D. J. Fox, Gaussian, Inc., Wallingford CT, 2016.
 
 ******************************************
 Gaussian 16:  EM64L-G16RevA.03 25-Dec-2016
                14-Apr-2023 
 ******************************************
 %chk=dimer_13b_00000_gaussian.chk
 %nproc=8
 Will use up to    8 processors via shared memory.
 %mem=4000Mb
 -------------------------------------
 #p opt=modredundant m062x/6-311g(d,p)
 -------------------------------------
 1/18=120,19=15,26=3,38=1/1,3;
 2/9=110,12=2,17=6,18=5,40=1/2;
 3/5=4,6=6,7=101,11=2,25=1,30=1,71=1,74=-55/1,2,3;
 4//1;
 5/5=2,38=5/2;
 6/7=2,8=2,9=2,10=2,28=1/1;
 7//1,2,3,16;
 1/18=20,19=15,26=3/3(2);
 2/9=110/2;
 99//99;
 2/9=110/2;
 3/5=4,6=6,7=101,11=2,25=1,30=1,71=1,74=-55/1,2,3;
 4/5=5,16=3,69=1/1;
 5/5=2,38=5/2;
 7//1,2,3,16;
 1/18=20,19=15,26=3/3(-5);
 2/9=110/2;
 6/7=2,8=2,9=2,10=2,19=2,28=1/1;
 99/9=1/99;
 Leave Link    1 at Fri Apr 14 15:52:05 2023, MaxMem=   524288000 cpu:               0.2 elap:               0.0
 (Enter /dragofs/sw/campus/0.2/software/gaussian/16.gaussian/gaussian/g16_legacy/l101.exe)
 ----------------------------------------------------
 Conformer number 00000. Energy MM = 235.984 kcal/mol
 ----------------------------------------------------
 Symbolic Z-matrix:
 Charge =  0 Multiplicity = 1
 C                     2.2115    1.5491   -0.6245 
 H                     1.4769    1.9154   -1.3765 
 O                     3.4655    2.0696   -0.9881 
 H                     4.14      1.6767   -0.4294 
 C                     0.4524    1.528     0.9922 
 H                    -0.2454    1.8878    0.1989 
 O                     1.7814    1.9729    0.6757 
 C                     2.2519    0.0327   -0.6428 
 H                     2.969    -0.319     0.1377 
 O                     2.7136   -0.4845   -1.8833 
 H                     3.5505   -0.9333   -1.7419 
 C                     0.8876   -0.5196   -0.3236 
 H                     0.1644   -0.173    -1.1028 
 O                     0.9299   -1.9487   -0.2955 
 C                     0.4494    0.0073    1.014 
 H                     1.1569   -0.3406    1.802 
 O                    -0.8337   -0.4852    1.3538 
 H                    -0.7361   -1.1878    2.0006 
 C                     0.0542    2.1482    2.3136 
 H                    -0.9758    1.8345    2.5905 
 H                     0.7455    1.8217    3.1214 
 O                     0.0701    3.5693    2.2501 
 H                     0.9809    3.8718    2.2576 
 C                     2.1995   -2.4894   -0.5649 
 H                     2.5289   -3.129     0.2854 
 C                     4.4724   -1.9632   -1.088 
 H                     4.7901   -2.6171   -0.2417 
 O                     3.1607   -1.454    -0.8068 
 C                     2.0754   -3.3133   -1.8258 
 H                     1.7373   -2.6458   -2.6549 
 O                     1.0774   -4.3135   -1.6746 
 H                     0.4558   -4.2462   -2.402 
 C                     3.4138   -3.9088   -2.1913 
 H                     3.7539   -4.5735   -1.3618 
 O                     3.3294   -4.7133   -3.3603 
 H                     3.6022   -5.6082   -3.1446 
 C                     4.4087   -2.7865   -2.3638 
 H                     4.0819   -2.1265   -3.2003 
 O                     5.6973   -3.2768   -2.6936 
 H                     5.9648   -2.9055   -3.5385 
 C                     5.411    -0.7804   -1.1774 
 H                     6.4473   -1.1253   -1.385 
 H                     5.1003   -0.0984   -1.9998 
 O                     5.4375   -0.0412    0.0383 
 H                     4.6273    0.4698    0.1108 
 
 The following ModRedundant input section has been read:
 D      12      14      24      28 F                                           
 D       8      12      14      24 F                                           
 
 ITRead=  0  0  0  0  0  0  0  0  0  0  0  0  0  0  0  0  0  0  0  0
 ITRead=  0  0  0  0  0  0  0  0  0  0  0  0  0  0  0  0  0  0  0  0
 ITRead=  0  0  0  0  0
 MicOpt= -1 -1 -1 -1 -1 -1 -1 -1 -1 -1 -1 -1 -1 -1 -1 -1 -1 -1 -1 -1
 MicOpt= -1 -1 -1 -1 -1 -1 -1 -1 -1 -1 -1 -1 -1 -1 -1 -1 -1 -1 -1 -1
 MicOpt= -1 -1 -1 -1 -1
 NAtoms=     45 NQM=       45 NQMF=       0 NMMI=      0 NMMIF=      0
                NMic=       0 NMicF=      0.
                    Isotopes and Nuclear Properties:
 (Nuclear quadrupole moments (NQMom) in fm**2, nuclear magnetic moments (NMagM)
  in nuclear magnetons)

  Atom         1           2           3           4           5           6           7           8           9          10
 IAtWgt=          12           1          16           1          12           1          16          12           1          16
 AtmWgt=  12.0000000   1.0078250  15.9949146   1.0078250  12.0000000   1.0078250  15.9949146  12.0000000   1.0078250  15.9949146
 NucSpn=           0           1           0           1           0           1           0           0           1           0
 AtZEff=  -0.0000000  -0.0000000  -0.0000000  -0.0000000  -0.0000000  -0.0000000  -0.0000000  -0.0000000  -0.0000000  -0.0000000
 NQMom=    0.0000000   0.0000000   0.0000000   0.0000000   0.0000000   0.0000000   0.0000000   0.0000000   0.0000000   0.0000000
 NMagM=    0.0000000   2.7928460   0.0000000   2.7928460   0.0000000   2.7928460   0.0000000   0.0000000   2.7928460   0.0000000
 AtZNuc=   6.0000000   1.0000000   8.0000000   1.0000000   6.0000000   1.0000000   8.0000000   6.0000000   1.0000000   8.0000000

  Atom        11          12          13          14          15          16          17          18          19          20
 IAtWgt=           1          12           1          16          12           1          16           1          12           1
 AtmWgt=   1.0078250  12.0000000   1.0078250  15.9949146  12.0000000   1.0078250  15.9949146   1.0078250  12.0000000   1.0078250
 NucSpn=           1           0           1           0           0           1           0           1           0           1
 AtZEff=  -0.0000000  -0.0000000  -0.0000000  -0.0000000  -0.0000000  -0.0000000  -0.0000000  -0.0000000  -0.0000000  -0.0000000
 NQMom=    0.0000000   0.0000000   0.0000000   0.0000000   0.0000000   0.0000000   0.0000000   0.0000000   0.0000000   0.0000000
 NMagM=    2.7928460   0.0000000   2.7928460   0.0000000   0.0000000   2.7928460   0.0000000   2.7928460   0.0000000   2.7928460
 AtZNuc=   1.0000000   6.0000000   1.0000000   8.0000000   6.0000000   1.0000000   8.0000000   1.0000000   6.0000000   1.0000000

  Atom        21          22          23          24          25          26          27          28          29          30
 IAtWgt=           1          16           1          12           1          12           1          16          12           1
 AtmWgt=   1.0078250  15.9949146   1.0078250  12.0000000   1.0078250  12.0000000   1.0078250  15.9949146  12.0000000   1.0078250
 NucSpn=           1           0           1           0           1           0           1           0           0           1
 AtZEff=  -0.0000000  -0.0000000  -0.0000000  -0.0000000  -0.0000000  -0.0000000  -0.0000000  -0.0000000  -0.0000000  -0.0000000
 NQMom=    0.0000000   0.0000000   0.0000000   0.0000000   0.0000000   0.0000000   0.0000000   0.0000000   0.0000000   0.0000000
 NMagM=    2.7928460   0.0000000   2.7928460   0.0000000   2.7928460   0.0000000   2.7928460   0.0000000   0.0000000   2.7928460
 AtZNuc=   1.0000000   8.0000000   1.0000000   6.0000000   1.0000000   6.0000000   1.0000000   8.0000000   6.0000000   1.0000000

  Atom        31          32          33          34          35          36          37          38          39          40
 IAtWgt=          16           1          12           1          16           1          12           1          16           1
 AtmWgt=  15.9949146   1.0078250  12.0000000   1.0078250  15.9949146   1.0078250  12.0000000   1.0078250  15.9949146   1.0078250
 NucSpn=           0           1           0           1           0           1           0           1           0           1
 AtZEff=  -0.0000000  -0.0000000  -0.0000000  -0.0000000  -0.0000000  -0.0000000  -0.0000000  -0.0000000  -0.0000000  -0.0000000
 NQMom=    0.0000000   0.0000000   0.0000000   0.0000000   0.0000000   0.0000000   0.0000000   0.0000000   0.0000000   0.0000000
 NMagM=    0.0000000   2.7928460   0.0000000   2.7928460   0.0000000   2.7928460   0.0000000   2.7928460   0.0000000   2.7928460
 AtZNuc=   8.0000000   1.0000000   6.0000000   1.0000000   8.0000000   1.0000000   6.0000000   1.0000000   8.0000000   1.0000000

  Atom        41          42          43          44          45
 IAtWgt=          12           1           1          16           1
 AtmWgt=  12.0000000   1.0078250   1.0078250  15.9949146   1.0078250
 NucSpn=           0           1           1           0           1
 AtZEff=  -0.0000000  -0.0000000  -0.0000000  -0.0000000  -0.0000000
 NQMom=    0.0000000   0.0000000   0.0000000   0.0000000   0.0000000
 NMagM=    0.0000000   2.7928460   2.7928460   0.0000000   2.7928460
 AtZNuc=   6.0000000   1.0000000   1.0000000   8.0000000   1.0000000
 Leave Link  101 at Fri Apr 14 15:52:05 2023, MaxMem=   524288000 cpu:               1.1 elap:               0.2
 (Enter /dragofs/sw/campus/0.2/software/gaussian/16.gaussian/gaussian/g16_legacy/l103.exe)

 GradGradGradGradGradGradGradGradGradGradGradGradGradGradGradGradGradGrad
 Berny optimization.
 Initialization pass.
                           ----------------------------
                           !    Initial Parameters    !
                           ! (Angstroms and Degrees)  !
 --------------------------                            --------------------------
 ! Name  Definition              Value          Derivative Info.                !
 --------------------------------------------------------------------------------
 ! R1    R(1,2)                  1.1132         estimate D2E/DX2                !
 ! R2    R(1,3)                  1.4056         estimate D2E/DX2                !
 ! R3    R(1,7)                  1.4336         estimate D2E/DX2                !
 ! R4    R(1,8)                  1.517          estimate D2E/DX2                !
 ! R5    R(3,4)                  0.9599         estimate D2E/DX2                !
 ! R6    R(5,6)                  1.1161         estimate D2E/DX2                !
 ! R7    R(5,7)                  1.4368         estimate D2E/DX2                !
 ! R8    R(5,15)                 1.5209         estimate D2E/DX2                !
 ! R9    R(5,19)                 1.513          estimate D2E/DX2                !
 ! R10   R(8,9)                  1.1167         estimate D2E/DX2                !
 ! R11   R(8,10)                 1.4211         estimate D2E/DX2                !
 ! R12   R(8,12)                 1.5061         estimate D2E/DX2                !
 ! R13   R(10,11)                0.9601         estimate D2E/DX2                !
 ! R14   R(10,28)                1.5161         estimate D2E/DX2                !
 ! R15   R(12,13)                1.1182         estimate D2E/DX2                !
 ! R16   R(12,14)                1.43           estimate D2E/DX2                !
 ! R17   R(12,15)                1.5029         estimate D2E/DX2                !
 ! R18   R(14,24)                1.406          estimate D2E/DX2                !
 ! R19   R(15,16)                1.1147         estimate D2E/DX2                !
 ! R20   R(15,17)                1.4158         estimate D2E/DX2                !
 ! R21   R(17,18)                0.96           estimate D2E/DX2                !
 ! R22   R(19,20)                1.1117         estimate D2E/DX2                !
 ! R23   R(19,21)                1.1122         estimate D2E/DX2                !
 ! R24   R(19,22)                1.4226         estimate D2E/DX2                !
 ! R25   R(22,23)                0.9597         estimate D2E/DX2                !
 ! R26   R(24,25)                1.1138         estimate D2E/DX2                !
 ! R27   R(24,28)                1.4333         estimate D2E/DX2                !
 ! R28   R(24,29)                1.5113         estimate D2E/DX2                !
 ! R29   R(26,27)                1.1157         estimate D2E/DX2                !
 ! R30   R(26,28)                1.4349         estimate D2E/DX2                !
 ! R31   R(26,37)                1.5197         estimate D2E/DX2                !
 ! R32   R(26,41)                1.5126         estimate D2E/DX2                !
 ! R33   R(29,30)                1.1168         estimate D2E/DX2                !
 ! R34   R(29,31)                1.421          estimate D2E/DX2                !
 ! R35   R(29,33)                1.5098         estimate D2E/DX2                !
 ! R36   R(31,32)                0.9592         estimate D2E/DX2                !
 ! R37   R(33,34)                1.116          estimate D2E/DX2                !
 ! R38   R(33,35)                1.4216         estimate D2E/DX2                !
 ! R39   R(33,37)                1.5097         estimate D2E/DX2                !
 ! R40   R(35,36)                0.9601         estimate D2E/DX2                !
 ! R41   R(37,38)                1.1145         estimate D2E/DX2                !
 ! R42   R(37,39)                1.4176         estimate D2E/DX2                !
 ! R43   R(39,40)                0.9609         estimate D2E/DX2                !
 ! R44   R(41,42)                1.1117         estimate D2E/DX2                !
 ! R45   R(41,43)                1.1127         estimate D2E/DX2                !
 ! R46   R(41,44)                1.423          estimate D2E/DX2                !
 ! R47   R(44,45)                0.9606         estimate D2E/DX2                !
 ! A1    A(2,1,3)              106.9852         estimate D2E/DX2                !
 ! A2    A(2,1,7)              108.5065         estimate D2E/DX2                !
 ! A3    A(2,1,8)              109.7746         estimate D2E/DX2                !
 ! A4    A(3,1,7)              113.1296         estimate D2E/DX2                !
 ! A5    A(3,1,8)              110.0764         estimate D2E/DX2                !
 ! A6    A(7,1,8)              108.3264         estimate D2E/DX2                !
 ! A7    A(1,3,4)              108.9507         estimate D2E/DX2                !
 ! A8    A(6,5,7)              108.7786         estimate D2E/DX2                !
 ! A9    A(6,5,15)             109.3471         estimate D2E/DX2                !
 ! A10   A(6,5,19)             108.9088         estimate D2E/DX2                !
 ! A11   A(7,5,15)             108.3366         estimate D2E/DX2                !
 ! A12   A(7,5,19)             107.9924         estimate D2E/DX2                !
 ! A13   A(15,5,19)            113.3796         estimate D2E/DX2                !
 ! A14   A(1,7,5)              112.6912         estimate D2E/DX2                !
 ! A15   A(1,8,9)              108.8729         estimate D2E/DX2                !
 ! A16   A(1,8,10)             112.5179         estimate D2E/DX2                !
 ! A17   A(1,8,12)             109.8695         estimate D2E/DX2                !
 ! A18   A(9,8,10)             106.6694         estimate D2E/DX2                !
 ! A19   A(9,8,12)             108.5464         estimate D2E/DX2                !
 ! A20   A(10,8,12)            110.2339         estimate D2E/DX2                !
 ! A21   A(8,10,11)            108.9512         estimate D2E/DX2                !
 ! A22   A(8,10,28)             73.0664         estimate D2E/DX2                !
 ! A23   A(11,10,28)            48.6599         estimate D2E/DX2                !
 ! A24   A(8,12,13)            108.9369         estimate D2E/DX2                !
 ! A25   A(8,12,14)            110.1119         estimate D2E/DX2                !
 ! A26   A(8,12,15)            108.916          estimate D2E/DX2                !
 ! A27   A(13,12,14)           110.0354         estimate D2E/DX2                !
 ! A28   A(13,12,15)           108.8414         estimate D2E/DX2                !
 ! A29   A(14,12,15)           109.968          estimate D2E/DX2                !
 ! A30   A(12,14,24)           114.0335         estimate D2E/DX2                !
 ! A31   A(5,15,12)            109.7071         estimate D2E/DX2                !
 ! A32   A(5,15,16)            108.7206         estimate D2E/DX2                !
 ! A33   A(5,15,17)            110.6747         estimate D2E/DX2                !
 ! A34   A(12,15,16)           109.5531         estimate D2E/DX2                !
 ! A35   A(12,15,17)           110.8484         estimate D2E/DX2                !
 ! A36   A(16,15,17)           107.277          estimate D2E/DX2                !
 ! A37   A(15,17,18)           108.9159         estimate D2E/DX2                !
 ! A38   A(5,19,20)            110.2236         estimate D2E/DX2                !
 ! A39   A(5,19,21)            110.5113         estimate D2E/DX2                !
 ! A40   A(5,19,22)            111.5642         estimate D2E/DX2                !
 ! A41   A(20,19,21)           108.1869         estimate D2E/DX2                !
 ! A42   A(20,19,22)           107.6584         estimate D2E/DX2                !
 ! A43   A(21,19,22)           108.5854         estimate D2E/DX2                !
 ! A44   A(19,22,23)           108.9723         estimate D2E/DX2                !
 ! A45   A(14,24,25)           109.9748         estimate D2E/DX2                !
 ! A46   A(14,24,28)           111.1053         estimate D2E/DX2                !
 ! A47   A(14,24,29)           107.1791         estimate D2E/DX2                !
 ! A48   A(25,24,28)           110.2017         estimate D2E/DX2                !
 ! A49   A(25,24,29)           110.3742         estimate D2E/DX2                !
 ! A50   A(28,24,29)           107.9426         estimate D2E/DX2                !
 ! A51   A(27,26,28)           108.6415         estimate D2E/DX2                !
 ! A52   A(27,26,37)           109.3429         estimate D2E/DX2                !
 ! A53   A(27,26,41)           109.053          estimate D2E/DX2                !
 ! A54   A(28,26,37)           108.5693         estimate D2E/DX2                !
 ! A55   A(28,26,41)           107.5376         estimate D2E/DX2                !
 ! A56   A(37,26,41)           113.5792         estimate D2E/DX2                !
 ! A57   A(10,28,24)           112.5812         estimate D2E/DX2                !
 ! A58   A(10,28,26)           110.9377         estimate D2E/DX2                !
 ! A59   A(24,28,26)           112.9391         estimate D2E/DX2                !
 ! A60   A(24,29,30)           108.5663         estimate D2E/DX2                !
 ! A61   A(24,29,31)           110.6472         estimate D2E/DX2                !
 ! A62   A(24,29,33)           110.133          estimate D2E/DX2                !
 ! A63   A(30,29,31)           106.6822         estimate D2E/DX2                !
 ! A64   A(30,29,33)           108.9284         estimate D2E/DX2                !
 ! A65   A(31,29,33)           111.7602         estimate D2E/DX2                !
 ! A66   A(29,31,32)           108.9693         estimate D2E/DX2                !
 ! A67   A(29,33,34)           108.9729         estimate D2E/DX2                !
 ! A68   A(29,33,35)           111.694          estimate D2E/DX2                !
 ! A69   A(29,33,37)           108.5809         estimate D2E/DX2                !
 ! A70   A(34,33,35)           106.9915         estimate D2E/DX2                !
 ! A71   A(34,33,37)           109.0782         estimate D2E/DX2                !
 ! A72   A(35,33,37)           111.4611         estimate D2E/DX2                !
 ! A73   A(33,35,36)           109.0183         estimate D2E/DX2                !
 ! A74   A(26,37,33)           109.5381         estimate D2E/DX2                !
 ! A75   A(26,37,38)           108.7575         estimate D2E/DX2                !
 ! A76   A(26,37,39)           110.1556         estimate D2E/DX2                !
 ! A77   A(33,37,38)           109.4362         estimate D2E/DX2                !
 ! A78   A(33,37,39)           111.6233         estimate D2E/DX2                !
 ! A79   A(38,37,39)           107.2619         estimate D2E/DX2                !
 ! A80   A(37,39,40)           108.9033         estimate D2E/DX2                !
 ! A81   A(26,41,42)           110.2951         estimate D2E/DX2                !
 ! A82   A(26,41,43)           110.4697         estimate D2E/DX2                !
 ! A83   A(26,41,44)           111.5464         estimate D2E/DX2                !
 ! A84   A(42,41,43)           108.2057         estimate D2E/DX2                !
 ! A85   A(42,41,44)           107.6571         estimate D2E/DX2                !
 ! A86   A(43,41,44)           108.5567         estimate D2E/DX2                !
 ! A87   A(41,44,45)           108.9709         estimate D2E/DX2                !
 ! D1    D(2,1,3,4)           -172.4137         estimate D2E/DX2                !
 ! D2    D(7,1,3,4)             68.1557         estimate D2E/DX2                !
 ! D3    D(8,1,3,4)            -53.1866         estimate D2E/DX2                !
 ! D4    D(2,1,7,5)             56.5593         estimate D2E/DX2                !
 ! D5    D(3,1,7,5)            175.1113         estimate D2E/DX2                !
 ! D6    D(8,1,7,5)            -62.5647         estimate D2E/DX2                !
 ! D7    D(2,1,8,9)           -178.268          estimate D2E/DX2                !
 ! D8    D(2,1,8,10)            63.7049         estimate D2E/DX2                !
 ! D9    D(2,1,8,12)           -59.5197         estimate D2E/DX2                !
 ! D10   D(3,1,8,9)             64.2214         estimate D2E/DX2                !
 ! D11   D(3,1,8,10)           -53.8057         estimate D2E/DX2                !
 ! D12   D(3,1,8,12)          -177.0303         estimate D2E/DX2                !
 ! D13   D(7,1,8,9)            -59.9471         estimate D2E/DX2                !
 ! D14   D(7,1,8,10)          -177.9742         estimate D2E/DX2                !
 ! D15   D(7,1,8,12)            58.8012         estimate D2E/DX2                !
 ! D16   D(6,5,7,1)            -56.1971         estimate D2E/DX2                !
 ! D17   D(15,5,7,1)            62.5747         estimate D2E/DX2                !
 ! D18   D(19,5,7,1)          -174.2515         estimate D2E/DX2                !
 ! D19   D(6,5,15,12)           59.6374         estimate D2E/DX2                !
 ! D20   D(6,5,15,16)          179.4224         estimate D2E/DX2                !
 ! D21   D(6,5,15,17)          -62.9937         estimate D2E/DX2                !
 ! D22   D(7,5,15,12)          -58.774          estimate D2E/DX2                !
 ! D23   D(7,5,15,16)           61.011          estimate D2E/DX2                !
 ! D24   D(7,5,15,17)          178.5949         estimate D2E/DX2                !
 ! D25   D(19,5,15,12)        -178.6287         estimate D2E/DX2                !
 ! D26   D(19,5,15,16)         -58.8438         estimate D2E/DX2                !
 ! D27   D(19,5,15,17)          58.7401         estimate D2E/DX2                !
 ! D28   D(6,5,19,20)           61.5231         estimate D2E/DX2                !
 ! D29   D(6,5,19,21)         -178.9417         estimate D2E/DX2                !
 ! D30   D(6,5,19,22)          -58.0276         estimate D2E/DX2                !
 ! D31   D(7,5,19,20)          179.4938         estimate D2E/DX2                !
 ! D32   D(7,5,19,21)          -60.9709         estimate D2E/DX2                !
 ! D33   D(7,5,19,22)           59.9431         estimate D2E/DX2                !
 ! D34   D(15,5,19,20)         -60.4554         estimate D2E/DX2                !
 ! D35   D(15,5,19,21)          59.0798         estimate D2E/DX2                !
 ! D36   D(15,5,19,22)         179.9939         estimate D2E/DX2                !
 ! D37   D(1,8,10,11)          114.6438         estimate D2E/DX2                !
 ! D38   D(1,8,10,28)          148.0717         estimate D2E/DX2                !
 ! D39   D(9,8,10,11)           -4.6748         estimate D2E/DX2                !
 ! D40   D(9,8,10,28)           28.7531         estimate D2E/DX2                !
 ! D41   D(12,8,10,11)        -122.3354         estimate D2E/DX2                !
 ! D42   D(12,8,10,28)         -88.9075         estimate D2E/DX2                !
 ! D43   D(1,8,12,13)           61.1703         estimate D2E/DX2                !
 ! D44   D(1,8,12,14)         -178.0752         estimate D2E/DX2                !
 ! D45   D(1,8,12,15)          -57.4168         estimate D2E/DX2                !
 ! D46   D(9,8,12,13)         -179.8806         estimate D2E/DX2                !
 ! D47   D(9,8,12,14)          -59.1261         estimate D2E/DX2                !
 ! D48   D(9,8,12,15)           61.5323         estimate D2E/DX2                !
 ! D49   D(10,8,12,13)         -63.3853         estimate D2E/DX2                !
 ! D50   D(10,8,12,14)          57.3692         estimate D2E/DX2                !
 ! D51   D(10,8,12,15)         178.0276         estimate D2E/DX2                !
 ! D52   D(8,10,28,24)          90.6197         estimate D2E/DX2                !
 ! D53   D(8,10,28,26)        -141.7129         estimate D2E/DX2                !
 ! D54   D(11,10,28,24)       -133.3247         estimate D2E/DX2                !
 ! D55   D(11,10,28,26)         -5.6573         estimate D2E/DX2                !
 ! D56   D(8,12,14,24)          -0.0029         Frozen                          !
 ! D57   D(13,12,14,24)        120.0897         estimate D2E/DX2                !
 ! D58   D(15,12,14,24)       -120.0268         estimate D2E/DX2                !
 ! D59   D(8,12,15,5)           57.3237         estimate D2E/DX2                !
 ! D60   D(8,12,15,16)         -61.9512         estimate D2E/DX2                !
 ! D61   D(8,12,15,17)         179.8518         estimate D2E/DX2                !
 ! D62   D(13,12,15,5)         -61.3233         estimate D2E/DX2                !
 ! D63   D(13,12,15,16)        179.4018         estimate D2E/DX2                !
 ! D64   D(13,12,15,17)         61.2048         estimate D2E/DX2                !
 ! D65   D(14,12,15,5)         178.0705         estimate D2E/DX2                !
 ! D66   D(14,12,15,16)         58.7956         estimate D2E/DX2                !
 ! D67   D(14,12,15,17)        -59.4014         estimate D2E/DX2                !
 ! D68   D(12,14,24,25)        122.2865         estimate D2E/DX2                !
 ! D69   D(12,14,24,28)          0.0008         Frozen                          !
 ! D70   D(12,14,24,29)       -117.7068         estimate D2E/DX2                !
 ! D71   D(5,15,17,18)        -135.0907         estimate D2E/DX2                !
 ! D72   D(12,15,17,18)        102.9453         estimate D2E/DX2                !
 ! D73   D(16,15,17,18)        -16.6255         estimate D2E/DX2                !
 ! D74   D(5,19,22,23)         -74.622          estimate D2E/DX2                !
 ! D75   D(20,19,22,23)        164.3209         estimate D2E/DX2                !
 ! D76   D(21,19,22,23)         47.4093         estimate D2E/DX2                !
 ! D77   D(14,24,28,10)        -53.3308         estimate D2E/DX2                !
 ! D78   D(14,24,28,26)       -179.9336         estimate D2E/DX2                !
 ! D79   D(25,24,28,10)       -175.4848         estimate D2E/DX2                !
 ! D80   D(25,24,28,26)         57.9124         estimate D2E/DX2                !
 ! D81   D(29,24,28,10)         63.9122         estimate D2E/DX2                !
 ! D82   D(29,24,28,26)        -62.6906         estimate D2E/DX2                !
 ! D83   D(14,24,29,30)         59.8404         estimate D2E/DX2                !
 ! D84   D(14,24,29,31)        -56.9144         estimate D2E/DX2                !
 ! D85   D(14,24,29,33)        179.0234         estimate D2E/DX2                !
 ! D86   D(25,24,29,30)        179.5918         estimate D2E/DX2                !
 ! D87   D(25,24,29,31)         62.8369         estimate D2E/DX2                !
 ! D88   D(25,24,29,33)        -61.2253         estimate D2E/DX2                !
 ! D89   D(28,24,29,30)        -59.9133         estimate D2E/DX2                !
 ! D90   D(28,24,29,31)       -176.6682         estimate D2E/DX2                !
 ! D91   D(28,24,29,33)         59.2697         estimate D2E/DX2                !
 ! D92   D(27,26,28,10)        176.2957         estimate D2E/DX2                !
 ! D93   D(27,26,28,24)        -56.2321         estimate D2E/DX2                !
 ! D94   D(37,26,28,10)        -64.8828         estimate D2E/DX2                !
 ! D95   D(37,26,28,24)         62.5895         estimate D2E/DX2                !
 ! D96   D(41,26,28,10)         58.3964         estimate D2E/DX2                !
 ! D97   D(41,26,28,24)       -174.1313         estimate D2E/DX2                !
 ! D98   D(27,26,37,33)         59.9344         estimate D2E/DX2                !
 ! D99   D(27,26,37,38)        179.4991         estimate D2E/DX2                !
 ! D100  D(27,26,37,39)        -63.212          estimate D2E/DX2                !
 ! D101  D(28,26,37,33)        -58.4444         estimate D2E/DX2                !
 ! D102  D(28,26,37,38)         61.1203         estimate D2E/DX2                !
 ! D103  D(28,26,37,39)        178.4092         estimate D2E/DX2                !
 ! D104  D(41,26,37,33)       -178.0129         estimate D2E/DX2                !
 ! D105  D(41,26,37,38)        -58.4482         estimate D2E/DX2                !
 ! D106  D(41,26,37,39)         58.8408         estimate D2E/DX2                !
 ! D107  D(27,26,41,42)         61.8065         estimate D2E/DX2                !
 ! D108  D(27,26,41,43)       -178.6157         estimate D2E/DX2                !
 ! D109  D(27,26,41,44)        -57.7783         estimate D2E/DX2                !
 ! D110  D(28,26,41,42)        179.4389         estimate D2E/DX2                !
 ! D111  D(28,26,41,43)        -60.9832         estimate D2E/DX2                !
 ! D112  D(28,26,41,44)         59.8541         estimate D2E/DX2                !
 ! D113  D(37,26,41,42)        -60.4069         estimate D2E/DX2                !
 ! D114  D(37,26,41,43)         59.1709         estimate D2E/DX2                !
 ! D115  D(37,26,41,44)       -179.9918         estimate D2E/DX2                !
 ! D116  D(24,29,31,32)        127.0379         estimate D2E/DX2                !
 ! D117  D(30,29,31,32)          9.125          estimate D2E/DX2                !
 ! D118  D(33,29,31,32)       -109.8378         estimate D2E/DX2                !
 ! D119  D(24,29,33,34)         60.8609         estimate D2E/DX2                !
 ! D120  D(24,29,33,35)        178.8528         estimate D2E/DX2                !
 ! D121  D(24,29,33,37)        -57.8386         estimate D2E/DX2                !
 ! D122  D(30,29,33,34)        179.8228         estimate D2E/DX2                !
 ! D123  D(30,29,33,35)        -62.1853         estimate D2E/DX2                !
 ! D124  D(30,29,33,37)         61.1233         estimate D2E/DX2                !
 ! D125  D(31,29,33,34)        -62.5547         estimate D2E/DX2                !
 ! D126  D(31,29,33,35)         55.4371         estimate D2E/DX2                !
 ! D127  D(31,29,33,37)        178.7457         estimate D2E/DX2                !
 ! D128  D(29,33,35,36)       -120.4108         estimate D2E/DX2                !
 ! D129  D(34,33,35,36)         -1.2384         estimate D2E/DX2                !
 ! D130  D(37,33,35,36)        117.9292         estimate D2E/DX2                !
 ! D131  D(29,33,37,26)         57.0162         estimate D2E/DX2                !
 ! D132  D(29,33,37,38)        -62.1308         estimate D2E/DX2                !
 ! D133  D(29,33,37,39)        179.2903         estimate D2E/DX2                !
 ! D134  D(34,33,37,26)        -61.617          estimate D2E/DX2                !
 ! D135  D(34,33,37,38)        179.2361         estimate D2E/DX2                !
 ! D136  D(34,33,37,39)         60.6572         estimate D2E/DX2                !
 ! D137  D(35,33,37,26)       -179.5354         estimate D2E/DX2                !
 ! D138  D(35,33,37,38)         61.3177         estimate D2E/DX2                !
 ! D139  D(35,33,37,39)        -57.2612         estimate D2E/DX2                !
 ! D140  D(26,37,39,40)       -117.1689         estimate D2E/DX2                !
 ! D141  D(33,37,39,40)        120.9123         estimate D2E/DX2                !
 ! D142  D(38,37,39,40)          1.0443         estimate D2E/DX2                !
 ! D143  D(26,41,44,45)        -74.7582         estimate D2E/DX2                !
 ! D144  D(42,41,44,45)        164.1081         estimate D2E/DX2                !
 ! D145  D(43,41,44,45)         47.1901         estimate D2E/DX2                !
 --------------------------------------------------------------------------------
 Trust Radius=3.00D-01 FncErr=1.00D-07 GrdErr=1.00D-06 EigMax=2.50D+02 EigMin=1.00D-04
 Number of steps in this run=    270 maximum allowed number of steps=    270.
 GradGradGradGradGradGradGradGradGradGradGradGradGradGradGradGradGradGrad

 Leave Link  103 at Fri Apr 14 15:52:05 2023, MaxMem=   524288000 cpu:               0.1 elap:               0.0
 (Enter /dragofs/sw/campus/0.2/software/gaussian/16.gaussian/gaussian/g16_legacy/l202.exe)
                          Input orientation:                          
 ---------------------------------------------------------------------
 Center     Atomic      Atomic             Coordinates (Angstroms)
 Number     Number       Type             X           Y           Z
 ---------------------------------------------------------------------
      1          6           0        2.211500    1.549100   -0.624500
      2          1           0        1.476900    1.915400   -1.376500
      3          8           0        3.465500    2.069600   -0.988100
      4          1           0        4.140000    1.676700   -0.429400
      5          6           0        0.452400    1.528000    0.992200
      6          1           0       -0.245400    1.887800    0.198900
      7          8           0        1.781400    1.972900    0.675700
      8          6           0        2.251900    0.032700   -0.642800
      9          1           0        2.969000   -0.319000    0.137700
     10          8           0        2.713600   -0.484500   -1.883300
     11          1           0        3.550500   -0.933300   -1.741900
     12          6           0        0.887600   -0.519600   -0.323600
     13          1           0        0.164400   -0.173000   -1.102800
     14          8           0        0.929900   -1.948700   -0.295500
     15          6           0        0.449400    0.007300    1.014000
     16          1           0        1.156900   -0.340600    1.802000
     17          8           0       -0.833700   -0.485200    1.353800
     18          1           0       -0.736100   -1.187800    2.000600
     19          6           0        0.054200    2.148200    2.313600
     20          1           0       -0.975800    1.834500    2.590500
     21          1           0        0.745500    1.821700    3.121400
     22          8           0        0.070100    3.569300    2.250100
     23          1           0        0.980900    3.871800    2.257600
     24          6           0        2.199500   -2.489400   -0.564900
     25          1           0        2.528900   -3.129000    0.285400
     26          6           0        4.472400   -1.963200   -1.088000
     27          1           0        4.790100   -2.617100   -0.241700
     28          8           0        3.160700   -1.454000   -0.806800
     29          6           0        2.075400   -3.313300   -1.825800
     30          1           0        1.737300   -2.645800   -2.654900
     31          8           0        1.077400   -4.313500   -1.674600
     32          1           0        0.455800   -4.246200   -2.402000
     33          6           0        3.413800   -3.908800   -2.191300
     34          1           0        3.753900   -4.573500   -1.361800
     35          8           0        3.329400   -4.713300   -3.360300
     36          1           0        3.602200   -5.608200   -3.144600
     37          6           0        4.408700   -2.786500   -2.363800
     38          1           0        4.081900   -2.126500   -3.200300
     39          8           0        5.697300   -3.276800   -2.693600
     40          1           0        5.964800   -2.905500   -3.538500
     41          6           0        5.411000   -0.780400   -1.177400
     42          1           0        6.447300   -1.125300   -1.385000
     43          1           0        5.100300   -0.098400   -1.999800
     44          8           0        5.437500   -0.041200    0.038300
     45          1           0        4.627300    0.469800    0.110800
 ---------------------------------------------------------------------
                    Distance matrix (angstroms):
                    1          2          3          4          5
     1  C    0.000000
     2  H    1.113246   0.000000
     3  O    1.405575   2.032034   0.000000
     4  H    1.942539   2.836561   0.959930   0.000000
     5  C    2.389267   2.609678   3.646051   3.954928   0.000000
     6  H    2.613248   2.334302   3.900359   4.435207   1.116112
     7  O    1.433566   2.075464   2.369340   2.621445   1.436784
     8  C    1.517048   2.164140   2.396042   2.512608   2.854356
     9  H    2.155122   3.084106   2.686884   2.382365   3.236488
    10  O    2.443811   2.746961   2.808943   2.969718   4.175127
    11  H    3.033779   3.542376   3.097232   2.980313   4.809524
    12  C    2.474424   2.717554   3.713635   3.925944   2.472528
    13  H    2.717539   2.481730   3.992452   4.436243   2.713922
    14  O    3.739698   4.049573   4.801635   4.844192   3.738131
    15  C    2.857766   3.226622   4.166335   4.300096   1.520859
    16  H    3.251315   3.910856   4.350098   4.236453   2.154939
    17  O    4.162366   4.307701   5.522193   5.708880   2.416150
    18  H    4.803136   5.092350   6.098887   6.155210   3.131289
    19  C    3.693954   3.961705   4.748091   4.943695   1.513046
    20  H    4.536139   4.664694   5.708485   5.942736   2.165239
    21  H    4.031778   4.557941   4.934354   4.914452   2.169253
    22  O    4.114624   4.226902   4.925828   5.227403   2.428039
    23  H    3.900745   4.156946   4.467184   4.692371   2.715501
    24  C    4.038958   4.536861   4.750404   4.597857   4.649346
    25  H    4.776325   5.414295   5.433642   5.118724   5.147724
    26  C    4.202708   4.909154   4.157800   3.713908   5.716302
    27  H    4.914564   5.727881   4.927153   4.346790   6.125358
    28  O    3.154810   3.809540   3.541402   3.301930   4.411759
    29  C    5.010447   5.281986   5.622253   5.577868   5.832104
    30  H    4.684504   4.744118   5.291493   5.423082   5.689720
    31  O    6.062918   6.248813   6.849691   6.841969   6.451788
    32  H    6.310903   6.329266   7.137698   7.248809   6.697909
    33  C    5.804228   6.191671   6.098494   5.901650   6.961563
    34  H    6.356795   6.876828   6.659850   6.331149   7.325948
    35  O    6.924735   7.162882   7.187043   7.076676   8.134815
    36  H    7.714395   8.015462   7.976076   7.793029   8.829479
    37  C    5.162391   5.628328   5.134577   4.871782   6.747589
    38  H    4.862425   5.142881   4.783412   4.705910   6.641212
    39  O    6.302483   6.819492   6.039342   5.664711   8.011255
    40  H    6.513226   6.932284   6.123942   5.830348   8.400578
    41  C    3.996132   4.773272   3.455909   2.865709   5.884181
    42  H    5.066831   5.826732   4.388171   3.753400   6.973515
    43  H    3.598732   4.192007   2.897642   2.557208   5.761963
    44  O    3.657244   4.638566   3.065576   2.203050   5.312583
    45  H    2.746205   3.771848   2.262017   1.409214   4.396185
                    6          7          8          9         10
     6  H    0.000000
     7  O    2.083866   0.000000
     8  C    3.222788   2.392528   0.000000
     9  H    3.899497   2.636787   1.116739   0.000000
    10  O    4.326551   3.668282   1.421092   2.043786   0.000000
    11  H    5.112159   4.173788   1.956410   2.061165   0.960113
    12  C    2.711507   2.830201   1.506067   2.141323   2.401702
    13  H    2.471691   3.222210   2.147456   3.070169   2.684145
    14  O    4.042832   4.128829   2.407124   2.646037   2.801174
    15  C    2.164120   2.398386   2.448395   2.687519   3.709827
    16  H    3.082554   2.647798   2.704704   2.460501   4.003181
    17  O    2.703890   3.652509   3.711544   3.995879   4.802307
    18  H    3.598086   4.252434   4.171969   4.237095   5.242112
    19  C    2.151633   2.386769   4.248003   4.395188   5.622943
    20  H    2.501215   3.359727   4.911085   5.120082   6.245344
    21  H    3.086626   2.660338   4.431587   4.292903   5.851410
    22  O    2.671031   2.820599   5.063266   5.290060   6.364462
    23  H    3.110999   2.597889   4.976590   5.099934   6.255130
    24  C    5.071568   4.650378   2.523847   2.407574   2.453997
    25  H    5.733455   5.171119   3.306755   2.848088   3.425019
    26  C    6.224464   5.083798   3.018682   2.542822   2.431550
    27  H    6.770858   5.564351   3.691176   2.956622   3.399218
    28  O    4.876533   3.980442   1.750169   1.488978   1.516140
    29  C    6.044581   5.855583   3.553359   3.690486   2.900468
    30  H    5.712163   5.694491   3.389354   3.837929   2.493942
    31  O    6.611802   6.748211   4.618822   4.776883   4.169166
    32  H    6.699427   7.064464   4.962836   5.309346   4.417816
    33  C    7.259709   6.743798   4.391274   4.302180   3.508700
    34  H    7.757486   7.134249   4.897963   4.578792   4.251365
    35  O    8.307925   7.961838   5.574076   5.628123   4.521448
    36  H    9.064934   8.682343   6.316808   6.257002   5.350962
    37  C    7.076522   6.228415   3.944809   3.797209   2.898870
    38  H    6.811365   6.092681   3.814689   3.955736   2.510557
    39  O    8.387809   7.365175   5.198976   4.920209   4.166052
    40  H    8.689676   7.684992   5.550110   5.401782   4.378496
    41  C    6.403777   4.918194   3.305577   2.811715   2.803893
    42  H    7.508645   5.967910   4.415111   3.881663   3.820922
    43  H    6.111938   4.739587   3.157850   3.026551   2.420533
    44  O    6.003514   4.222552   3.258436   2.486070   3.362840
    45  H    5.075598   3.267655   2.530117   1.836542   2.923931
                   11         12         13         14         15
    11  H    0.000000
    12  C    3.045285   0.000000
    13  H    3.528764   1.118169   0.000000
    14  O    3.160800   1.430002   2.095432   0.000000
    15  C    4.254002   1.502936   2.143496   2.402417   0.000000
    16  H    4.317388   2.150056   3.074249   2.652738   1.114690
    17  O    5.385663   2.403690   2.669936   2.823528   1.415756
    18  H    5.696140   2.912868   3.387006   2.937107   1.951167
    19  C    6.177931   3.842725   4.131816   4.935468   2.535468
    20  H    6.849657   4.184020   4.355523   5.125748   2.802714
    21  H    6.253778   4.167722   4.707480   5.091672   2.796580
    22  O    6.951450   4.900137   5.025499   6.137398   3.789414
    23  H    6.759277   5.094673   5.321594   6.356032   4.094312
    24  C    2.373179   2.378953   3.129964   1.405993   3.433553
    25  H    3.158276   3.142247   4.031860   2.070593   3.832957
    26  C    1.529110   3.939426   4.665179   3.630093   4.948313
    27  H    2.573401   4.431221   5.302096   3.918009   5.225508
    28  O    1.139072   2.504709   3.272062   2.341500   3.577968
    29  C    2.801314   3.387069   3.746483   2.348642   4.662052
    30  H    2.655922   3.267671   3.316288   2.589326   4.707277
    31  O    4.188855   4.031737   4.278348   2.741524   5.127599
    32  H    4.581289   4.288793   4.285300   3.152875   5.455397
    33  C    3.012349   4.621327   5.069481   3.688605   5.864934
    34  H    3.665638   5.072242   5.684716   4.000193   6.127632
    35  O    4.117828   5.724601   5.977278   4.774266   7.050742
    36  H    4.881079   6.420354   6.747504   5.352616   7.666025
    37  C    2.134858   4.658261   5.141458   4.133016   5.906853
    38  H    1.957816   4.589236   4.854119   4.290056   5.958899
    39  O    3.317601   6.029284   6.540428   5.499349   7.216098
    40  H    3.598081   6.465761   6.858851   6.064877   7.722001
    41  C    1.950256   4.610655   5.282169   4.714120   5.480892
    42  H    2.925011   5.692425   6.360923   5.683898   6.558414
    43  H    1.779171   4.553449   5.017298   4.870368   5.543017
    44  O    2.743305   4.589273   5.396764   4.905959   5.082862
    45  H    2.561383   3.892682   4.669421   4.436777   4.299363
                   16         17         18         19         20
    16  H    0.000000
    17  O    2.045551   0.000000
    18  H    2.083420   0.959960   0.000000
    19  C    2.769803   2.940132   3.442592   0.000000
    20  H    3.146617   2.632608   3.088646   1.111747   0.000000
    21  H    2.566244   3.307578   3.536725   1.112222   1.801358
    22  O    4.082799   4.249609   4.831378   1.422607   2.054096
    23  H    4.240620   4.805526   5.349177   1.957730   2.844308
    24  C    3.362525   4.110782   4.110195   5.864760   6.223760
    25  H    3.457981   4.408881   4.167780   6.171432   6.498672
    26  C    4.688014   6.025078   6.104848   6.927841   7.591888
    27  H    4.749664   6.222358   6.132674   7.187934   7.815606
    28  O    3.472854   4.643490   4.810136   5.688856   6.282238
    29  C    4.779280   5.154694   5.202271   7.144779   7.437296
    30  H    5.051215   5.229523   5.469657   7.106423   7.412707
    31  O    5.279868   5.242079   5.154210   7.662000   7.759163
    32  H    5.780906   5.469366   5.491568   7.955282   7.996840
    33  C    5.811376   6.506153   6.495963   8.262462   8.667162
    34  H    5.888249   6.718240   6.552007   8.507502   8.891187
    35  O    7.105604   7.578322   7.595834   9.486847   9.839738
    36  H    7.628627   8.133753   8.051948  10.126302  10.451949
    37  C    5.823274   6.826367   6.933455   8.074095   8.653992
    38  H    6.063668   6.899045   7.151478   8.055962   8.648885
    39  O    7.031851   8.174866   8.233351   9.292322   9.928613
    40  H    7.629912   8.718489   8.861951   9.732531  10.402123
    41  C    5.212256   6.744657   6.931991   7.032715   7.862950
    42  H    6.225838   7.805364   7.941500   8.078810   8.925661
    43  H    5.482951   6.827049   7.159159   7.008263   7.856586
    44  O    4.639377   6.423054   6.578651   6.241024   7.152789
    45  H    3.944690   5.681513   5.923263   5.346270   6.277424
                   21         22         23         24         25
    21  H    0.000000
    22  O    2.066261   0.000000
    23  H    2.237068   0.959750   0.000000
    24  C    5.855639   7.011877   7.065151   0.000000
    25  H    5.977695   7.400876   7.436200   1.113823   0.000000
    26  C    6.777485   7.818677   7.578314   2.390940   2.650002
    27  H    6.882745   8.170619   7.928577   2.613804   2.377583
    28  O    5.656338   6.643041   6.519680   1.433344   2.097069
    29  C    7.253389   8.246476   8.336531   1.511318   2.167209
    30  H    7.369387   8.091109   8.196579   2.146204   3.083095
    31  O    7.794386   8.863208   9.081335   2.412029   2.711364
    32  H    8.210438   9.103452   9.374941   3.082494   3.573234
    33  C    8.257314   9.318173   9.287058   2.476772   2.743206
    34  H    8.369476   9.639574   9.597535   2.719316   2.510074
    35  O    9.560084  10.521458  10.525217   3.746554   4.054866
    36  H   10.130494  11.216284  11.221648   4.283612   4.366155
    37  C    8.046239   8.972609   8.800006   2.864415   3.266376
    38  H    8.166011   8.845538   8.682423   3.258905   3.945494
    39  O    9.183096  10.147642   9.892487   4.169648   4.351442
    40  H    9.692357  10.496591  10.215960   4.815903   5.145636
    41  C    6.856931   7.693690   7.284777   3.689115   3.995273
    42  H    7.842383   8.713317   8.253549   4.536203   4.707325
    43  H    6.991263   7.537678   7.131437   4.023737   4.584624
    44  O    5.915299   6.836428   6.332310   4.103922   4.249179
    45  H    5.095068   5.911986   5.429419   3.886856   4.169548
                   26         27         28         29         30
    26  C    0.000000
    27  H    1.115680   0.000000
    28  O    1.434892   2.080164   0.000000
    29  C    2.848285   3.219264   2.381855   0.000000
    30  H    3.225196   3.891522   2.619528   1.116815   0.000000
    31  O    4.170616   4.326097   3.642795   1.421009   2.043937
    32  H    4.803307   5.109503   4.202086   1.955866   2.065788
    33  C    2.474523   2.713601   2.829654   1.509810   2.149592
    34  H    2.721190   2.481096   3.223537   2.149596   3.074868
    35  O    3.746044   4.031546   4.143894   2.426357   2.703133
    36  H    4.274679   4.334122   4.787234   3.055637   3.534611
    37  C    1.519719   2.162746   2.399439   2.451785   2.690895
    38  H    2.154291   3.081485   2.651360   2.706250   2.462576
    39  O    2.409124   2.696299   3.649240   3.724590   4.010144
    40  H    3.019957   3.511693   4.175166   4.269318   4.326656
    41  C    1.512606   2.152793   2.378010   4.238187   4.377076
    42  H    2.165760   2.505776   3.353222   4.908682   5.109664
    43  H    2.168667   3.087230   2.650085   4.417678   4.269446
    44  O    2.427767   2.670728   2.809629   5.048289   5.265809
    45  H    2.716727   3.111224   2.587260   4.957263   5.070321
                   31         32         33         34         35
    31  O    0.000000
    32  H    0.959180   0.000000
    33  C    2.426835   2.984627   0.000000
    34  H    2.707230   3.473702   1.116049   0.000000
    35  O    2.841290   3.064979   1.421585   2.047864   0.000000
    36  H    3.195585   3.508038   1.957610   2.066880   0.960100
    37  C    3.728845   4.213977   1.509682   2.150845   2.422903
    38  H    4.017182   4.275396   2.154305   3.078226   2.698776
    39  O    4.843200   5.338360   2.422004   2.689224   2.848679
    40  H    5.416942   5.782576   3.054367   3.522545   3.200817
    41  C    5.613385   6.169718   3.847556   4.143379   4.956391
    42  H    6.251745   6.831719   4.195249   4.375503   5.147510
    43  H    5.835799   6.239983   4.171343   4.716604   5.126826
    44  O    6.340114   6.960921   4.901511   5.033541   6.150048
    45  H    6.218473   6.779103   5.093563   5.325998   6.371625
                   36         37         38         39         40
    36  H    0.000000
    37  C    3.036788   0.000000
    38  H    3.515032   1.114509   0.000000
    39  O    3.166745   1.417622   2.046815   0.000000
    40  H    3.611319   1.953338   2.065559   0.960872   0.000000
    41  C    5.518087   2.537043   2.769588   2.934765   3.224521
    42  H    5.593494   2.805980   3.145287   2.627525   2.835398
    43  H    5.823467   2.799409   2.567397   3.307566   3.315836
    44  O    6.670132   3.790143   4.083461   4.242627   4.612565
    45  H    6.970692   4.095720   4.242831   4.800684   5.147713
                   41         42         43         44         45
    41  C    0.000000
    42  H    1.111743   0.000000
    43  H    1.112655   1.801919   0.000000
    44  O    1.423041   2.054447   2.066598   0.000000
    45  H    1.958736   2.845024   2.236339   0.960625   0.000000
 Stoichiometry    C12H22O11
 Framework group  C1[X(C12H22O11)]
 Deg. of freedom   129
 Full point group                 C1      NOp   1
 Largest Abelian subgroup         C1      NOp   1
 Largest concise Abelian subgroup C1      NOp   1
                         Standard orientation:                         
 ---------------------------------------------------------------------
 Center     Atomic      Atomic             Coordinates (Angstroms)
 Number     Number       Type             X           Y           Z
 ---------------------------------------------------------------------
      1          6           0        1.844729    1.183365    0.993991
      2          1           0        2.070109    0.846132    2.030714
      3          8           0        1.471440    2.536086    1.074256
      4          1           0        1.156654    2.824162    0.214379
      5          6           0        3.445748   -0.400926    0.196898
      6          1           0        3.628776   -0.708348    1.254110
      7          8           0        3.006477    0.966985    0.182428
      8          6           0        0.704426    0.361440    0.423392
      9          1           0        0.512091    0.690299   -0.626353
     10          8           0       -0.510218    0.546314    1.137509
     11          1           0       -1.150195    0.969102    0.560017
     12          6           0        1.082357   -1.096346    0.407068
     13          1           0        1.274387   -1.433199    1.455856
     14          8           0        0.028602   -1.871055   -0.171146
     15          6           0        2.342278   -1.264090   -0.394978
     16          1           0        2.160888   -0.941561   -1.446456
     17          8           0        2.737409   -2.623022   -0.434235
     18          1           0        2.502955   -2.990701   -1.289434
     19          6           0        4.747722   -0.481836   -0.569671
     20          1           0        5.126900   -1.526914   -0.573908
     21          1           0        4.599393   -0.162086   -1.624563
     22          8           0        5.751231    0.338951    0.016066
     23          1           0        5.561394    1.257374   -0.187845
     24          6           0       -1.083038   -1.112373   -0.577931
     25          1           0       -1.274585   -1.270101   -1.663765
     26          6           0       -1.997335    1.093078   -0.706933
     27          1           0       -2.196049    0.917977   -1.790720
     28          8           0       -0.883659    0.281091   -0.307787
     29          6           0       -2.265710   -1.580319    0.238399
     30          1           0       -2.039050   -1.415649    1.319502
     31          8           0       -2.468131   -2.976980    0.072179
     32          1           0       -2.501317   -3.392225    0.936180
     33          6           0       -3.497330   -0.788504   -0.129931
     34          1           0       -3.722646   -0.949981   -1.211005
     35          8           0       -4.637616   -1.220124    0.601065
     36          1           0       -5.310132   -1.518536   -0.015754
     37          6           0       -3.214626    0.676259    0.101777
     38          1           0       -3.002351    0.846558    1.182549
     39          8           0       -4.328361    1.483777   -0.240512
     40          1           0       -4.603310    1.979830    0.535124
     41          6           0       -1.602718    2.539219   -0.504621
     42          1           0       -2.433131    3.211994   -0.810824
     43          1           0       -1.374548    2.734058    0.566816
     44          8           0       -0.460417    2.882714   -1.280641
     45          1           0        0.320697    2.500132   -0.872850
 ---------------------------------------------------------------------
 Rotational constants (GHZ):           0.4815849           0.1738397           0.1376851
 Leave Link  202 at Fri Apr 14 15:52:05 2023, MaxMem=   524288000 cpu:               0.1 elap:               0.0
 (Enter /dragofs/sw/campus/0.2/software/gaussian/16.gaussian/gaussian/g16_legacy/l301.exe)
 Standard basis: 6-311G(d,p) (5D, 7F)
 Ernie: Thresh=  0.10000D-02 Tol=  0.10000D-05 Strict=F.
 There are   569 symmetry adapted cartesian basis functions of A   symmetry.
 There are   546 symmetry adapted basis functions of A   symmetry.
   546 basis functions,   912 primitive gaussians,   569 cartesian basis functions
    91 alpha electrons       91 beta electrons
       nuclear repulsion energy      2441.1547239749 Hartrees.
 IExCor= 4336 DFT=T Ex+Corr=M062X ExCW=0 ScaHFX=  0.540000
 ScaDFX=  1.000000  1.000000  1.000000  1.000000 ScalE2=  1.000000  1.000000
 IRadAn=      5 IRanWt=     -1 IRanGd=            0 ICorTp=0 IEmpDi=  4
 NAtoms=   45 NActive=   45 NUniq=   45 SFac= 1.00D+00 NAtFMM=   60 NAOKFM=F Big=F
 Integral buffers will be    131072 words long.
 Raffenetti 2 integral format.
 Two-electron integral symmetry is turned on.
 Leave Link  301 at Fri Apr 14 15:52:05 2023, MaxMem=   524288000 cpu:               0.4 elap:               0.1
 (Enter /dragofs/sw/campus/0.2/software/gaussian/16.gaussian/gaussian/g16_legacy/l302.exe)
 NPDir=0 NMtPBC=     1 NCelOv=     1 NCel=       1 NClECP=     1 NCelD=      1
         NCelK=      1 NCelE2=     1 NClLst=     1 CellRange=     0.0.
 One-electron integrals computed using PRISM.
 One-electron integral symmetry used in STVInt
 NBasis=   546 RedAO= T EigKep=  4.96D-04  NBF=   546
 NBsUse=   546 1.00D-06 EigRej= -1.00D+00 NBFU=   546
 Precomputing XC quadrature grid using
 IXCGrd= 4 IRadAn=           5 IRanWt=          -1 IRanGd=           0 AccXCQ= 0.00D+00.
 Generated NRdTot=       0 NPtTot=           0 NUsed=           0 NTot=          32
 NSgBfM=   563   562   562   563   563 MxSgAt=    45 MxSgA2=    45.
 Leave Link  302 at Fri Apr 14 15:52:06 2023, MaxMem=   524288000 cpu:               6.1 elap:               0.8
 (Enter /dragofs/sw/campus/0.2/software/gaussian/16.gaussian/gaussian/g16_legacy/l303.exe)
 DipDrv:  MaxL=1.
 Leave Link  303 at Fri Apr 14 15:52:06 2023, MaxMem=   524288000 cpu:               0.5 elap:               0.1
 (Enter /dragofs/sw/campus/0.2/software/gaussian/16.gaussian/gaussian/g16_legacy/l401.exe)
 ExpMin= 1.03D-01 ExpMax= 8.59D+03 ExpMxC= 1.30D+03 IAcc=3 IRadAn=         5 AccDes= 0.00D+00
 Harris functional with IExCor= 1009 and IRadAn=       5 diagonalized for initial guess.
 HarFok:  IExCor= 1009 AccDes= 0.00D+00 IRadAn=         5 IDoV= 1 UseB2=F ITyADJ=14
 ICtDFT=  3500011 ScaDFX=  1.000000  1.000000  1.000000  1.000000
 FoFCou: FMM=F IPFlag=           0 FMFlag=      100000 FMFlg1=           0
         NFxFlg=           0 DoJE=T BraDBF=F KetDBF=T FulRan=T
         wScrn=  0.000000 ICntrl=       500 IOpCl=  0 I1Cent=   200000004 NGrid=           0
         NMat0=    1 NMatS0=      1 NMatT0=    0 NMatD0=    1 NMtDS0=    0 NMtDT0=    0
 Petite list used in FoFCou.
 Harris En= -1296.62424123132    
 JPrj=0 DoOrth=F DoCkMO=F.
 Leave Link  401 at Fri Apr 14 15:52:11 2023, MaxMem=   524288000 cpu:              39.3 elap:               4.9
 (Enter /dragofs/sw/campus/0.2/software/gaussian/16.gaussian/gaussian/g16_legacy/l502.exe)
 Integral symmetry usage will be decided dynamically.
 Closed shell SCF:
 Using DIIS extrapolation, IDIIS=  1040.
 NGot=   524288000 LenX=   523630196 LenY=   523305866
 Requested convergence on RMS density matrix=1.00D-08 within 128 cycles.
 Requested convergence on MAX density matrix=1.00D-06.
 Requested convergence on             energy=1.00D-06.
 No special actions if energy rises.
 Fock matrices will be formed incrementally for  20 cycles.
 Integral accuracy reduced to 1.0D-05 until final iterations.

 Cycle   1  Pass 0  IDiag  1:
 FoFJK:  IHMeth= 1 ICntrl=       0 DoSepK=F KAlg= 0 I1Cent=           0 FoldK=F
 IRaf= 770000000 NMat=       1 IRICut=       1 DoRegI=T DoRafI=F ISym2E= 0 IDoP0=0 IntGTp=1.
 FoFCou: FMM=F IPFlag=           0 FMFlag=      100000 FMFlg1=           0
         NFxFlg=           0 DoJE=F BraDBF=F KetDBF=F FulRan=T
         wScrn=  0.000000 ICntrl=         0 IOpCl=  0 I1Cent=           0 NGrid=           0
         NMat0=    1 NMatS0=      1 NMatT0=    0 NMatD0=    1 NMtDS0=    0 NMtDT0=    0
 Symmetry not used in FoFCou.
 E= -1296.75790034970    
 DIIS: error= 1.82D-02 at cycle   1 NSaved=   1.
 NSaved= 1 IEnMin= 1 EnMin= -1296.75790034970     IErMin= 1 ErrMin= 1.82D-02
 ErrMax= 1.82D-02  0.00D+00 EMaxC= 1.00D-01 BMatC= 9.20D-01 BMatP= 9.20D-01
 IDIUse=3 WtCom= 8.18D-01 WtEn= 1.82D-01
 Coeff-Com:  0.100D+01
 Coeff-En:   0.100D+01
 Coeff:      0.100D+01
 Gap=     0.170 Goal=   None    Shift=    0.000
 GapD=    0.170 DampG=1.000 DampE=0.500 DampFc=0.5000 IDamp=-1.
 Damping current iteration by 5.00D-01
 RMSDP=3.84D-03 MaxDP=3.56D-01              OVMax= 2.13D-01

 Cycle   2  Pass 0  IDiag  1:
 RMSU=  1.89D-03    CP:  1.04D+00
 E= -1297.00683423084     Delta-E=       -0.248933881139 Rises=F Damp=T
 DIIS: error= 5.50D-03 at cycle   2 NSaved=   2.
 NSaved= 2 IEnMin= 2 EnMin= -1297.00683423084     IErMin= 2 ErrMin= 5.50D-03
 ErrMax= 5.50D-03  0.00D+00 EMaxC= 1.00D-01 BMatC= 7.48D-02 BMatP= 9.20D-01
 IDIUse=3 WtCom= 9.45D-01 WtEn= 5.50D-02
 Coeff-Com: -0.532D-01 0.105D+01
 Coeff-En:   0.000D+00 0.100D+01
 Coeff:     -0.503D-01 0.105D+01
 Gap=     0.273 Goal=   None    Shift=    0.000
 RMSDP=8.73D-04 MaxDP=5.51D-02 DE=-2.49D-01 OVMax= 1.62D-01

 Cycle   3  Pass 0  IDiag  1:
 RMSU=  7.73D-04    CP:  1.03D+00  7.86D-01
 E= -1297.26372646645     Delta-E=       -0.256892235605 Rises=F Damp=F
 DIIS: error= 4.29D-03 at cycle   3 NSaved=   3.
 NSaved= 3 IEnMin= 3 EnMin= -1297.26372646645     IErMin= 3 ErrMin= 4.29D-03
 ErrMax= 4.29D-03  0.00D+00 EMaxC= 1.00D-01 BMatC= 3.11D-02 BMatP= 7.48D-02
 IDIUse=3 WtCom= 9.57D-01 WtEn= 4.29D-02
 Coeff-Com: -0.107D+00 0.404D+00 0.703D+00
 Coeff-En:   0.000D+00 0.000D+00 0.100D+01
 Coeff:     -0.103D+00 0.387D+00 0.716D+00
 Gap=     0.220 Goal=   None    Shift=    0.000
 RMSDP=4.76D-04 MaxDP=5.09D-02 DE=-2.57D-01 OVMax= 4.03D-02

 Cycle   4  Pass 0  IDiag  1:
 RMSU=  2.94D-04    CP:  1.04D+00  9.25D-01  6.63D-01
 E= -1297.28143187449     Delta-E=       -0.017705408045 Rises=F Damp=F
 DIIS: error= 1.74D-03 at cycle   4 NSaved=   4.
 NSaved= 4 IEnMin= 4 EnMin= -1297.28143187449     IErMin= 4 ErrMin= 1.74D-03
 ErrMax= 1.74D-03  0.00D+00 EMaxC= 1.00D-01 BMatC= 5.39D-03 BMatP= 3.11D-02
 IDIUse=3 WtCom= 9.83D-01 WtEn= 1.74D-02
 Coeff-Com: -0.466D-01 0.115D+00 0.364D+00 0.567D+00
 Coeff-En:   0.000D+00 0.000D+00 0.110D+00 0.890D+00
 Coeff:     -0.458D-01 0.113D+00 0.360D+00 0.573D+00
 Gap=     0.237 Goal=   None    Shift=    0.000
 RMSDP=2.01D-04 MaxDP=2.75D-02 DE=-1.77D-02 OVMax= 1.89D-02

 Cycle   5  Pass 0  IDiag  1:
 RMSU=  7.38D-05    CP:  1.04D+00  8.87D-01  8.21D-01  5.93D-01
 E= -1297.28544982564     Delta-E=       -0.004017951150 Rises=F Damp=F
 DIIS: error= 4.53D-04 at cycle   5 NSaved=   5.
 NSaved= 5 IEnMin= 5 EnMin= -1297.28544982564     IErMin= 5 ErrMin= 4.53D-04
 ErrMax= 4.53D-04  0.00D+00 EMaxC= 1.00D-01 BMatC= 2.36D-04 BMatP= 5.39D-03
 IDIUse=3 WtCom= 9.95D-01 WtEn= 4.53D-03
 Coeff-Com: -0.151D-01 0.309D-01 0.124D+00 0.264D+00 0.595D+00
 Coeff-En:   0.000D+00 0.000D+00 0.000D+00 0.000D+00 0.100D+01
 Coeff:     -0.150D-01 0.308D-01 0.124D+00 0.263D+00 0.597D+00
 Gap=     0.233 Goal=   None    Shift=    0.000
 RMSDP=3.97D-05 MaxDP=5.30D-03 DE=-4.02D-03 OVMax= 2.23D-03

 Cycle   6  Pass 0  IDiag  1:
 RMSU=  2.83D-05    CP:  1.04D+00  8.91D-01  8.07D-01  6.56D-01  7.85D-01
 E= -1297.28559702644     Delta-E=       -0.000147200802 Rises=F Damp=F
 DIIS: error= 1.10D-04 at cycle   6 NSaved=   6.
 NSaved= 6 IEnMin= 6 EnMin= -1297.28559702644     IErMin= 6 ErrMin= 1.10D-04
 ErrMax= 1.10D-04  0.00D+00 EMaxC= 1.00D-01 BMatC= 2.26D-05 BMatP= 2.36D-04
 IDIUse=3 WtCom= 9.99D-01 WtEn= 1.10D-03
 Coeff-Com: -0.159D-02 0.114D-02 0.120D-01 0.550D-01 0.268D+00 0.665D+00
 Coeff-En:   0.000D+00 0.000D+00 0.000D+00 0.000D+00 0.000D+00 0.100D+01
 Coeff:     -0.159D-02 0.114D-02 0.120D-01 0.549D-01 0.268D+00 0.666D+00
 Gap=     0.234 Goal=   None    Shift=    0.000
 RMSDP=1.85D-05 MaxDP=1.98D-03 DE=-1.47D-04 OVMax= 1.96D-03

 Cycle   7  Pass 0  IDiag  1:
 RMSU=  9.70D-06    CP:  1.04D+00  8.88D-01  8.18D-01  6.58D-01  9.12D-01
                    CP:  7.41D-01
 E= -1297.28561736800     Delta-E=       -0.000020341558 Rises=F Damp=F
 DIIS: error= 2.85D-05 at cycle   7 NSaved=   7.
 NSaved= 7 IEnMin= 7 EnMin= -1297.28561736800     IErMin= 7 ErrMin= 2.85D-05
 ErrMax= 2.85D-05  0.00D+00 EMaxC= 1.00D-01 BMatC= 1.37D-06 BMatP= 2.26D-05
 IDIUse=1 WtCom= 1.00D+00 WtEn= 0.00D+00
 Coeff-Com:  0.840D-03-0.214D-02-0.813D-02-0.668D-02 0.789D-03 0.163D+00
 Coeff-Com:  0.852D+00
 Coeff:      0.840D-03-0.214D-02-0.813D-02-0.668D-02 0.789D-03 0.163D+00
 Coeff:      0.852D+00
 Gap=     0.234 Goal=   None    Shift=    0.000
 RMSDP=5.73D-06 MaxDP=2.99D-04 DE=-2.03D-05 OVMax= 8.04D-04

 Initial convergence to 1.0D-05 achieved.  Increase integral accuracy.
 Cycle   8  Pass 1  IDiag  1:
 E= -1297.28551668057     Delta-E=        0.000100687435 Rises=F Damp=F
 DIIS: error= 3.45D-05 at cycle   1 NSaved=   1.
 NSaved= 1 IEnMin= 1 EnMin= -1297.28551668057     IErMin= 1 ErrMin= 3.45D-05
 ErrMax= 3.45D-05  0.00D+00 EMaxC= 1.00D-01 BMatC= 1.04D-06 BMatP= 1.04D-06
 IDIUse=1 WtCom= 1.00D+00 WtEn= 0.00D+00
 Coeff-Com:  0.100D+01
 Coeff:      0.100D+01
 Gap=     0.234 Goal=   None    Shift=    0.000
 RMSDP=5.73D-06 MaxDP=2.99D-04 DE= 1.01D-04 OVMax= 3.69D-04

 Cycle   9  Pass 1  IDiag  1:
 RMSU=  1.48D-05    CP:  1.00D+00
 E= -1297.28551737428     Delta-E=       -0.000000693714 Rises=F Damp=F
 DIIS: error= 2.54D-05 at cycle   2 NSaved=   2.
 NSaved= 2 IEnMin= 2 EnMin= -1297.28551737428     IErMin= 2 ErrMin= 2.54D-05
 ErrMax= 2.54D-05  0.00D+00 EMaxC= 1.00D-01 BMatC= 5.17D-07 BMatP= 1.04D-06
 IDIUse=1 WtCom= 1.00D+00 WtEn= 0.00D+00
 Coeff-Com:  0.384D+00 0.616D+00
 Coeff:      0.384D+00 0.616D+00
 Gap=     0.234 Goal=   None    Shift=    0.000
 RMSDP=1.74D-06 MaxDP=1.11D-04 DE=-6.94D-07 OVMax= 1.41D-04

 Cycle  10  Pass 1  IDiag  1:
 RMSU=  1.71D-06    CP:  1.00D+00  1.02D+00
 E= -1297.28551768285     Delta-E=       -0.000000308568 Rises=F Damp=F
 DIIS: error= 1.12D-05 at cycle   3 NSaved=   3.
 NSaved= 3 IEnMin= 3 EnMin= -1297.28551768285     IErMin= 3 ErrMin= 1.12D-05
 ErrMax= 1.12D-05  0.00D+00 EMaxC= 1.00D-01 BMatC= 8.87D-08 BMatP= 5.17D-07
 IDIUse=1 WtCom= 1.00D+00 WtEn= 0.00D+00
 Coeff-Com: -0.248D-01 0.280D+00 0.745D+00
 Coeff:     -0.248D-01 0.280D+00 0.745D+00
 Gap=     0.234 Goal=   None    Shift=    0.000
 RMSDP=8.20D-07 MaxDP=9.45D-05 DE=-3.09D-07 OVMax= 1.04D-04

 Cycle  11  Pass 1  IDiag  1:
 RMSU=  7.14D-07    CP:  1.00D+00  1.04D+00  8.76D-01
 E= -1297.28551775142     Delta-E=       -0.000000068567 Rises=F Damp=F
 DIIS: error= 1.49D-06 at cycle   4 NSaved=   4.
 NSaved= 4 IEnMin= 4 EnMin= -1297.28551775142     IErMin= 4 ErrMin= 1.49D-06
 ErrMax= 1.49D-06  0.00D+00 EMaxC= 1.00D-01 BMatC= 3.23D-09 BMatP= 8.87D-08
 IDIUse=1 WtCom= 1.00D+00 WtEn= 0.00D+00
 Coeff-Com: -0.202D-01 0.896D-01 0.283D+00 0.647D+00
 Coeff:     -0.202D-01 0.896D-01 0.283D+00 0.647D+00
 Gap=     0.234 Goal=   None    Shift=    0.000
 RMSDP=2.24D-07 MaxDP=2.02D-05 DE=-6.86D-08 OVMax= 3.65D-05

 Cycle  12  Pass 1  IDiag  1:
 RMSU=  1.66D-07    CP:  1.00D+00  1.04D+00  9.25D-01  1.16D+00
 E= -1297.28551775563     Delta-E=       -0.000000004217 Rises=F Damp=F
 DIIS: error= 4.71D-07 at cycle   5 NSaved=   5.
 NSaved= 5 IEnMin= 5 EnMin= -1297.28551775563     IErMin= 5 ErrMin= 4.71D-07
 ErrMax= 4.71D-07  0.00D+00 EMaxC= 1.00D-01 BMatC= 4.75D-10 BMatP= 3.23D-09
 IDIUse=1 WtCom= 1.00D+00 WtEn= 0.00D+00
 Coeff-Com:  0.243D-02-0.540D-01-0.137D+00 0.138D+00 0.105D+01
 Coeff:      0.243D-02-0.540D-01-0.137D+00 0.138D+00 0.105D+01
 Gap=     0.234 Goal=   None    Shift=    0.000
 RMSDP=2.69D-07 MaxDP=4.15D-05 DE=-4.22D-09 OVMax= 4.83D-05

 Cycle  13  Pass 1  IDiag  1:
 RMSU=  7.19D-08    CP:  1.00D+00  1.05D+00  9.78D-01  1.49D+00  1.28D+00
 E= -1297.28551775725     Delta-E=       -0.000000001614 Rises=F Damp=F
 DIIS: error= 3.43D-07 at cycle   6 NSaved=   6.
 NSaved= 6 IEnMin= 6 EnMin= -1297.28551775725     IErMin= 6 ErrMin= 3.43D-07
 ErrMax= 3.43D-07  0.00D+00 EMaxC= 1.00D-01 BMatC= 1.56D-10 BMatP= 4.75D-10
 IDIUse=1 WtCom= 1.00D+00 WtEn= 0.00D+00
 Coeff-Com:  0.373D-02-0.402D-01-0.110D+00-0.213D-01 0.536D+00 0.632D+00
 Coeff:      0.373D-02-0.402D-01-0.110D+00-0.213D-01 0.536D+00 0.632D+00
 Gap=     0.234 Goal=   None    Shift=    0.000
 RMSDP=6.77D-08 MaxDP=6.97D-06 DE=-1.61D-09 OVMax= 1.20D-05

 Cycle  14  Pass 1  IDiag  1:
 RMSU=  3.13D-08    CP:  1.00D+00  1.05D+00  9.87D-01  1.56D+00  1.48D+00
                    CP:  1.00D+00
 E= -1297.28551775757     Delta-E=       -0.000000000319 Rises=F Damp=F
 DIIS: error= 9.40D-08 at cycle   7 NSaved=   7.
 NSaved= 7 IEnMin= 7 EnMin= -1297.28551775757     IErMin= 7 ErrMin= 9.40D-08
 ErrMax= 9.40D-08  0.00D+00 EMaxC= 1.00D-01 BMatC= 9.65D-12 BMatP= 1.56D-10
 IDIUse=1 WtCom= 1.00D+00 WtEn= 0.00D+00
 Coeff-Com:  0.693D-03-0.330D-02-0.109D-01-0.232D-01 0.157D-01 0.190D+00
 Coeff-Com:  0.831D+00
 Coeff:      0.693D-03-0.330D-02-0.109D-01-0.232D-01 0.157D-01 0.190D+00
 Coeff:      0.831D+00
 Gap=     0.234 Goal=   None    Shift=    0.000
 RMSDP=2.49D-08 MaxDP=4.80D-06 DE=-3.19D-10 OVMax= 4.40D-06

 Cycle  15  Pass 1  IDiag  1:
 RMSU=  9.72D-09    CP:  1.00D+00  1.05D+00  9.90D-01  1.58D+00  1.52D+00
                    CP:  1.16D+00  1.10D+00
 E= -1297.28551775761     Delta-E=       -0.000000000041 Rises=F Damp=F
 DIIS: error= 4.63D-08 at cycle   8 NSaved=   8.
 NSaved= 8 IEnMin= 8 EnMin= -1297.28551775761     IErMin= 8 ErrMin= 4.63D-08
 ErrMax= 4.63D-08  0.00D+00 EMaxC= 1.00D-01 BMatC= 3.40D-12 BMatP= 9.65D-12
 IDIUse=1 WtCom= 1.00D+00 WtEn= 0.00D+00
 Coeff-Com: -0.191D-03 0.417D-02 0.104D-01-0.116D-01-0.795D-01 0.939D-03
 Coeff-Com:  0.426D+00 0.650D+00
 Coeff:     -0.191D-03 0.417D-02 0.104D-01-0.116D-01-0.795D-01 0.939D-03
 Coeff:      0.426D+00 0.650D+00
 Gap=     0.234 Goal=   None    Shift=    0.000
 RMSDP=1.01D-08 MaxDP=8.42D-07 DE=-4.09D-11 OVMax= 1.74D-06

 Cycle  16  Pass 1  IDiag  1:
 RMSU=  4.53D-09    CP:  1.00D+00  1.05D+00  9.91D-01  1.59D+00  1.55D+00
                    CP:  1.20D+00  1.28D+00  1.05D+00
 E= -1297.28551775764     Delta-E=       -0.000000000037 Rises=F Damp=F
 DIIS: error= 1.03D-08 at cycle   9 NSaved=   9.
 NSaved= 9 IEnMin= 9 EnMin= -1297.28551775764     IErMin= 9 ErrMin= 1.03D-08
 ErrMax= 1.03D-08  0.00D+00 EMaxC= 1.00D-01 BMatC= 2.32D-13 BMatP= 3.40D-12
 IDIUse=1 WtCom= 1.00D+00 WtEn= 0.00D+00
 Coeff-Com: -0.164D-03 0.210D-02 0.561D-02-0.529D-03-0.316D-01-0.223D-01
 Coeff-Com:  0.491D-01 0.235D+00 0.763D+00
 Coeff:     -0.164D-03 0.210D-02 0.561D-02-0.529D-03-0.316D-01-0.223D-01
 Coeff:      0.491D-01 0.235D+00 0.763D+00
 Gap=     0.234 Goal=   None    Shift=    0.000
 RMSDP=3.13D-09 MaxDP=4.98D-07 DE=-3.68D-11 OVMax= 4.65D-07

 SCF Done:  E(RM062X) =  -1297.28551776     A.U. after   16 cycles
            NFock= 16  Conv=0.31D-08     -V/T= 2.0013
 KE= 1.295660675384D+03 PE=-7.930504699414D+03 EE= 2.896403782297D+03
 Leave Link  502 at Fri Apr 14 15:56:22 2023, MaxMem=   524288000 cpu:            1998.0 elap:             250.6
 (Enter /dragofs/sw/campus/0.2/software/gaussian/16.gaussian/gaussian/g16_legacy/l601.exe)
 Copying SCF densities to generalized density rwf, IOpCl= 0 IROHF=0.

 **********************************************************************

            Population analysis using the SCF density.

 **********************************************************************

 Orbital symmetries:
       Occupied  (A) (A) (A) (A) (A) (A) (A) (A) (A) (A) (A) (A)
                 (A) (A) (A) (A) (A) (A) (A) (A) (A) (A) (A) (A)
                 (A) (A) (A) (A) (A) (A) (A) (A) (A) (A) (A) (A)
                 (A) (A) (A) (A) (A) (A) (A) (A) (A) (A) (A) (A)
                 (A) (A) (A) (A) (A) (A) (A) (A) (A) (A) (A) (A)
                 (A) (A) (A) (A) (A) (A) (A) (A) (A) (A) (A) (A)
                 (A) (A) (A) (A) (A) (A) (A) (A) (A) (A) (A) (A)
                 (A) (A) (A) (A) (A) (A) (A)
       Virtual   (A) (A) (A) (A) (A) (A) (A) (A) (A) (A) (A) (A)
                 (A) (A) (A) (A) (A) (A) (A) (A) (A) (A) (A) (A)
                 (A) (A) (A) (A) (A) (A) (A) (A) (A) (A) (A) (A)
                 (A) (A) (A) (A) (A) (A) (A) (A) (A) (A) (A) (A)
                 (A) (A) (A) (A) (A) (A) (A) (A) (A) (A) (A) (A)
                 (A) (A) (A) (A) (A) (A) (A) (A) (A) (A) (A) (A)
                 (A) (A) (A) (A) (A) (A) (A) (A) (A) (A) (A) (A)
                 (A) (A) (A) (A) (A) (A) (A) (A) (A) (A) (A) (A)
                 (A) (A) (A) (A) (A) (A) (A) (A) (A) (A) (A) (A)
                 (A) (A) (A) (A) (A) (A) (A) (A) (A) (A) (A) (A)
                 (A) (A) (A) (A) (A) (A) (A) (A) (A) (A) (A) (A)
                 (A) (A) (A) (A) (A) (A) (A) (A) (A) (A) (A) (A)
                 (A) (A) (A) (A) (A) (A) (A) (A) (A) (A) (A) (A)
                 (A) (A) (A) (A) (A) (A) (A) (A) (A) (A) (A) (A)
                 (A) (A) (A) (A) (A) (A) (A) (A) (A) (A) (A) (A)
                 (A) (A) (A) (A) (A) (A) (A) (A) (A) (A) (A) (A)
                 (A) (A) (A) (A) (A) (A) (A) (A) (A) (A) (A) (A)
                 (A) (A) (A) (A) (A) (A) (A) (A) (A) (A) (A) (A)
                 (A) (A) (A) (A) (A) (A) (A) (A) (A) (A) (A) (A)
                 (A) (A) (A) (A) (A) (A) (A) (A) (A) (A) (A) (A)
                 (A) (A) (A) (A) (A) (A) (A) (A) (A) (A) (A) (A)
                 (A) (A) (A) (A) (A) (A) (A) (A) (A) (A) (A) (A)
                 (A) (A) (A) (A) (A) (A) (A) (A) (A) (A) (A) (A)
                 (A) (A) (A) (A) (A) (A) (A) (A) (A) (A) (A) (A)
                 (A) (A) (A) (A) (A) (A) (A) (A) (A) (A) (A) (A)
                 (A) (A) (A) (A) (A) (A) (A) (A) (A) (A) (A) (A)
                 (A) (A) (A) (A) (A) (A) (A) (A) (A) (A) (A) (A)
                 (A) (A) (A) (A) (A) (A) (A) (A) (A) (A) (A) (A)
                 (A) (A) (A) (A) (A) (A) (A) (A) (A) (A) (A) (A)
                 (A) (A) (A) (A) (A) (A) (A) (A) (A) (A) (A) (A)
                 (A) (A) (A) (A) (A) (A) (A) (A) (A) (A) (A) (A)
                 (A) (A) (A) (A) (A) (A) (A) (A) (A) (A) (A) (A)
                 (A) (A) (A) (A) (A) (A) (A) (A) (A) (A) (A) (A)
                 (A) (A) (A) (A) (A) (A) (A) (A) (A) (A) (A) (A)
                 (A) (A) (A) (A) (A) (A) (A) (A) (A) (A) (A) (A)
                 (A) (A) (A) (A) (A) (A) (A) (A) (A) (A) (A) (A)
                 (A) (A) (A) (A) (A) (A) (A) (A) (A) (A) (A) (A)
                 (A) (A) (A) (A) (A) (A) (A) (A) (A) (A) (A)
 The electronic state is 1-A.
 Alpha  occ. eigenvalues --  -19.65262 -19.65115 -19.65064 -19.64543 -19.63915
 Alpha  occ. eigenvalues --  -19.63568 -19.62912 -19.62638 -19.62337 -19.60604
 Alpha  occ. eigenvalues --  -19.56017 -10.67110 -10.64263 -10.63151 -10.62369
 Alpha  occ. eigenvalues --  -10.62357 -10.61005 -10.60689 -10.60362 -10.60331
 Alpha  occ. eigenvalues --  -10.59967 -10.59072 -10.58817  -1.36560  -1.20068
 Alpha  occ. eigenvalues --   -1.19767  -1.18405  -1.17958  -1.16297  -1.15770
 Alpha  occ. eigenvalues --   -1.14545  -1.14305  -1.12855  -1.10060  -0.94126
 Alpha  occ. eigenvalues --   -0.91970  -0.90510  -0.87752  -0.82305  -0.79430
 Alpha  occ. eigenvalues --   -0.76804  -0.76215  -0.73119  -0.72845  -0.70859
 Alpha  occ. eigenvalues --   -0.68843  -0.66373  -0.65114  -0.63539  -0.62733
 Alpha  occ. eigenvalues --   -0.62329  -0.61791  -0.61077  -0.59796  -0.59283
 Alpha  occ. eigenvalues --   -0.57632  -0.57162  -0.55804  -0.55168  -0.54814
 Alpha  occ. eigenvalues --   -0.54165  -0.53797  -0.53000  -0.51678  -0.50570
 Alpha  occ. eigenvalues --   -0.50210  -0.49408  -0.48764  -0.48420  -0.47661
 Alpha  occ. eigenvalues --   -0.45826  -0.45409  -0.44334  -0.43566  -0.43298
 Alpha  occ. eigenvalues --   -0.42297  -0.41425  -0.41155  -0.40034  -0.39835
 Alpha  occ. eigenvalues --   -0.39496  -0.39100  -0.38800  -0.38389  -0.36837
 Alpha  occ. eigenvalues --   -0.35713  -0.34728  -0.34244  -0.33127  -0.31182
 Alpha  occ. eigenvalues --   -0.19991
 Alpha virt. eigenvalues --    0.03458   0.04765   0.05318   0.05872   0.06059
 Alpha virt. eigenvalues --    0.07612   0.08517   0.09135   0.09669   0.10406
 Alpha virt. eigenvalues --    0.11411   0.11889   0.12894   0.13090   0.13614
 Alpha virt. eigenvalues --    0.13994   0.14880   0.15385   0.15977   0.16957
 Alpha virt. eigenvalues --    0.17476   0.18405   0.18916   0.19776   0.20112
 Alpha virt. eigenvalues --    0.21084   0.21806   0.22235   0.22715   0.23573
 Alpha virt. eigenvalues --    0.24465   0.26211   0.26521   0.27344   0.27868
 Alpha virt. eigenvalues --    0.28951   0.29611   0.30644   0.31217   0.31799
 Alpha virt. eigenvalues --    0.32341   0.33917   0.34312   0.35206   0.35923
 Alpha virt. eigenvalues --    0.36500   0.38787   0.39603   0.40167   0.40894
 Alpha virt. eigenvalues --    0.41378   0.41816   0.42354   0.42957   0.43786
[...]
    31  O    0.000000  -0.000000   0.000000  -0.000000  -0.000000  -0.038586
    32  H   -0.000000  -0.000000   0.000000  -0.000000  -0.000000  -0.011485
    33  C    0.000000   0.000000   0.000000  -0.000000  -0.000000  -0.055805
    34  H    0.000000   0.000000   0.000000  -0.000000  -0.000000  -0.000974
    35  O   -0.000000  -0.000000  -0.000000   0.000000   0.000000   0.005613
    36  H   -0.000000  -0.000000  -0.000000   0.000000  -0.000000   0.001545
    37  C   -0.000000   0.000000  -0.000000  -0.000000   0.000000  -0.003397
    38  H   -0.000000   0.000000  -0.000000  -0.000000  -0.000000   0.000851
    39  O    0.000000  -0.000000   0.000000   0.000000  -0.000000  -0.000287
    40  H    0.000000   0.000000   0.000000  -0.000000   0.000000  -0.000304
    41  C   -0.000000  -0.000000   0.000000   0.000000   0.000000   0.005227
    42  H   -0.000000  -0.000000   0.000000   0.000000   0.000000  -0.000112
    43  H   -0.000000  -0.000000   0.000000   0.000000  -0.000000  -0.000863
    44  O    0.000000   0.000000   0.000000  -0.000000  -0.000000  -0.000474
    45  H    0.000000  -0.000000  -0.000002   0.000000   0.000000   0.000042
              25         26         27         28         29         30
     1  C    0.000011   0.000005  -0.000003   0.000191  -0.000006   0.000024
     2  H   -0.000004   0.000004   0.000000  -0.000032   0.000000   0.000000
     3  O    0.000000   0.000000  -0.000000  -0.000004  -0.000000  -0.000000
     4  H    0.000002  -0.000009  -0.000000  -0.000062  -0.000001  -0.000000
     5  C   -0.000087  -0.000000  -0.000000   0.000013   0.000012  -0.000014
     6  H   -0.000004  -0.000000   0.000000  -0.000001   0.000000  -0.000004
     7  O   -0.000001  -0.000000   0.000000  -0.000001  -0.000000  -0.000001
     8  C   -0.000565  -0.000672  -0.000216  -0.023249   0.000668  -0.001456
     9  H   -0.001397   0.000508  -0.000073   0.002748   0.000745   0.000015
    10  O    0.000019   0.000494  -0.000087  -0.019695  -0.001237   0.002199
    11  H    0.001968  -0.007368   0.001230   0.032684  -0.001742   0.003466
    12  C    0.004895  -0.000093   0.000105   0.008747  -0.002185   0.001206
    13  H   -0.000803   0.000031  -0.000003  -0.000159   0.000717  -0.000365
    14  O   -0.040094   0.002651  -0.000077  -0.038349  -0.049892  -0.000280
    15  C    0.000764   0.000034   0.000002  -0.001036  -0.000601   0.000278
    16  H   -0.000652  -0.000007   0.000003  -0.000015   0.000102  -0.000018
    17  O    0.000198   0.000000  -0.000000  -0.000002  -0.000067  -0.000007
    18  H   -0.000150  -0.000003  -0.000001   0.000137   0.000034  -0.000008
    19  C    0.000001   0.000000   0.000000  -0.000000  -0.000000   0.000000
    20  H   -0.000000  -0.000000   0.000000   0.000000   0.000000   0.000000
    21  H    0.000001   0.000000   0.000000  -0.000000  -0.000000   0.000000
    22  O   -0.000000  -0.000000  -0.000000   0.000000   0.000000   0.000000
    23  H    0.000000  -0.000000  -0.000000   0.000000   0.000000   0.000000
    24  C    0.414801  -0.072727  -0.007145   0.203037   0.213806  -0.029527
    25  H    0.567316  -0.001292   0.006942  -0.038185  -0.092174   0.009861
    26  C   -0.001292   5.416491   0.391907   0.191081  -0.010121   0.002543
    27  H    0.006942   0.391907   0.529272  -0.037037  -0.000239   0.000044
    28  O   -0.038185   0.191081  -0.037037   8.290933  -0.039078  -0.000850
    29  C   -0.092174  -0.010121  -0.000239  -0.039078   5.363831   0.363789
    30  H    0.009861   0.002543   0.000044  -0.000850   0.363789   0.559947
    31  O    0.009083   0.000126  -0.000099   0.001995   0.236330  -0.034282
    32  H   -0.000291  -0.000016   0.000024   0.000316  -0.039798  -0.005419
    33  C   -0.000146  -0.024051  -0.009729  -0.002141   0.184754  -0.047156
    34  H    0.007421  -0.000875   0.005025   0.000361  -0.050453   0.010729
    35  O   -0.000225   0.003031  -0.000102  -0.000059  -0.037245   0.005551
    36  H   -0.000101  -0.000819  -0.000069  -0.000040  -0.010640  -0.001616
    37  C   -0.001808   0.110419  -0.052581  -0.038579  -0.055169  -0.001452
    38  H    0.000037  -0.043628   0.009732   0.001587   0.000202   0.006653
    39  O   -0.000104  -0.046757   0.008163   0.001445   0.006286  -0.000055
    40  H   -0.000010   0.010764  -0.000620  -0.000238   0.001526  -0.000055
    41  C    0.000143   0.292196  -0.031564  -0.041884  -0.001381  -0.000276
    42  H    0.000061  -0.042486  -0.006370   0.004244  -0.000008  -0.000002
    43  H   -0.000163  -0.056027   0.009839  -0.005618   0.000107  -0.000375
    44  O   -0.000063  -0.040542   0.008032  -0.003371   0.000008   0.000007
    45  H   -0.000053  -0.008163  -0.001809   0.009375   0.000050  -0.000026
              31         32         33         34         35         36
     1  C    0.000000  -0.000004  -0.000000  -0.000000  -0.000000  -0.000000
     2  H    0.000000  -0.000001   0.000000  -0.000000   0.000000   0.000000
     3  O   -0.000000   0.000000   0.000000   0.000000  -0.000000   0.000000
     4  H    0.000000   0.000000   0.000000   0.000000  -0.000000   0.000000
     5  C   -0.000000   0.000003  -0.000000  -0.000000   0.000000   0.000000
     6  H   -0.000000   0.000002  -0.000000  -0.000000   0.000000   0.000000
     7  O   -0.000000   0.000000   0.000000   0.000000  -0.000000   0.000000
     8  C   -0.000015   0.000196  -0.000004  -0.000023   0.000000   0.000001
     9  H   -0.000005  -0.000020  -0.000129  -0.000008   0.000000  -0.000000
    10  O    0.000001  -0.000035   0.000045  -0.000001   0.000000  -0.000000
    11  H    0.000017   0.000023  -0.000945   0.000058  -0.000044  -0.000007
    12  C    0.000346   0.000256   0.000306   0.000025  -0.000002  -0.000003
    13  H    0.000160  -0.000326  -0.000077  -0.000004   0.000001   0.000000
    14  O   -0.004526   0.014505   0.005683  -0.000171  -0.000021  -0.000020
    15  C   -0.000048  -0.000142   0.000014  -0.000001  -0.000000   0.000000
    16  H   -0.000001  -0.000008  -0.000007  -0.000002   0.000000   0.000000
    17  O    0.000003   0.000201  -0.000000   0.000000  -0.000000  -0.000000
    18  H    0.000329   0.000615   0.000003   0.000002  -0.000000  -0.000001
    19  C    0.000000  -0.000000   0.000000   0.000000  -0.000000  -0.000000
    20  H   -0.000000  -0.000000   0.000000   0.000000  -0.000000  -0.000000
    21  H    0.000000   0.000000   0.000000   0.000000  -0.000000  -0.000000
    22  O   -0.000000  -0.000000  -0.000000  -0.000000   0.000000   0.000000
    23  H   -0.000000  -0.000000  -0.000000  -0.000000   0.000000  -0.000000
    24  C   -0.038586  -0.011485  -0.055805  -0.000974   0.005613   0.001545
    25  H    0.009083  -0.000291  -0.000146   0.007421  -0.000225  -0.000101
    26  C    0.000126  -0.000016  -0.024051  -0.000875   0.003031  -0.000819
    27  H   -0.000099   0.000024  -0.009729   0.005025  -0.000102  -0.000069
    28  O    0.001995   0.000316  -0.002141   0.000361  -0.000059  -0.000040
    29  C    0.236330  -0.039798   0.184754  -0.050453  -0.037245  -0.010640
    30  H   -0.034282  -0.005419  -0.047156   0.010729   0.005551  -0.001616
    31  O    7.965518   0.323721  -0.044914   0.002237  -0.002299   0.014992
    32  H    0.323721   0.435264   0.010481  -0.000574  -0.000464  -0.000748
    33  C   -0.044914   0.010481   5.307270   0.381702   0.240332  -0.042437
    34  H    0.002237  -0.000574   0.381702   0.565428  -0.036674  -0.004734
    35  O   -0.002299  -0.000464   0.240332  -0.036674   7.963869   0.326494
    36  H    0.014992  -0.000748  -0.042437  -0.004734   0.326494   0.428278
    37  C    0.003987  -0.000652   0.206517  -0.054181  -0.049612   0.012445
    38  H   -0.000246  -0.000023  -0.055193   0.011247   0.004235  -0.000817
    39  O   -0.000015   0.000007  -0.029486   0.006729  -0.003774  -0.000463
    40  H   -0.000019   0.000005  -0.005418  -0.001445   0.015518  -0.000847
    41  C    0.000007  -0.000001   0.006448  -0.000647  -0.000056   0.000025
    42  H    0.000000  -0.000000   0.000251   0.000010  -0.000005   0.000003
    43  H    0.000000   0.000001  -0.000163  -0.000079   0.000002  -0.000001
    44  O   -0.000000   0.000000  -0.000182  -0.000005   0.000000  -0.000000
    45  H   -0.000001   0.000000   0.000066  -0.000004  -0.000000   0.000000
              37         38         39         40         41         42
     1  C    0.000003  -0.000002  -0.000000   0.000000  -0.000030   0.000001
     2  H   -0.000000   0.000000  -0.000000  -0.000000  -0.000002  -0.000000
     3  O   -0.000000  -0.000000   0.000000  -0.000000  -0.000003  -0.000000
     4  H   -0.000001  -0.000000   0.000000  -0.000000   0.000041   0.000000
     5  C   -0.000000   0.000000  -0.000000  -0.000000   0.000000  -0.000000
     6  H    0.000000   0.000000  -0.000000  -0.000000   0.000000   0.000000
     7  O    0.000000  -0.000000   0.000000   0.000000   0.000000   0.000000
     8  C    0.000166  -0.000090  -0.000000   0.000000   0.001052   0.000030
     9  H    0.000508   0.000022  -0.000002   0.000000  -0.000707   0.000004
    10  O   -0.000140  -0.000117   0.000000  -0.000000   0.001104   0.000011
    11  H    0.000540   0.001532   0.000022  -0.000004   0.000449   0.000195
    12  C   -0.000212  -0.000009   0.000000  -0.000000  -0.000093  -0.000003
    13  H    0.000004   0.000004  -0.000000  -0.000000  -0.000012  -0.000000
    14  O   -0.000610  -0.000084   0.000000   0.000001  -0.000084   0.000004
    15  C   -0.000002  -0.000000   0.000000   0.000000  -0.000006   0.000000
    16  H    0.000000   0.000000  -0.000000  -0.000000   0.000000  -0.000000
    17  O   -0.000000  -0.000000   0.000000   0.000000   0.000000   0.000000
    18  H   -0.000001   0.000000   0.000000   0.000000   0.000001  -0.000000
    19  C   -0.000000  -0.000000   0.000000   0.000000  -0.000000  -0.000000
    20  H    0.000000   0.000000  -0.000000   0.000000  -0.000000  -0.000000
    21  H   -0.000000  -0.000000   0.000000   0.000000   0.000000   0.000000
    22  O   -0.000000  -0.000000   0.000000  -0.000000   0.000000   0.000000
    23  H    0.000000  -0.000000  -0.000000   0.000000   0.000000   0.000000
    24  C   -0.003397   0.000851  -0.000287  -0.000304   0.005227  -0.000112
    25  H   -0.001808   0.000037  -0.000104  -0.000010   0.000143   0.000061
    26  C    0.110419  -0.043628  -0.046757   0.010764   0.292196  -0.042486
    27  H   -0.052581   0.009732   0.008163  -0.000620  -0.031564  -0.006370
    28  O   -0.038579   0.001587   0.001445  -0.000238  -0.041884   0.004244
    29  C   -0.055169   0.000202   0.006286   0.001526  -0.001381  -0.000008
    30  H   -0.001452   0.006653  -0.000055  -0.000055  -0.000276  -0.000002
    31  O    0.003987  -0.000246  -0.000015  -0.000019   0.000007   0.000000
    32  H   -0.000652  -0.000023   0.000007   0.000005  -0.000001  -0.000000
    33  C    0.206517  -0.055193  -0.029486  -0.005418   0.006448   0.000251
    34  H   -0.054181   0.011247   0.006729  -0.001445  -0.000647   0.000010
    35  O   -0.049612   0.004235  -0.003774   0.015518  -0.000056  -0.000005
    36  H    0.012445  -0.000817  -0.000463  -0.000847   0.000025   0.000003
    37  C    5.378792   0.379469   0.221142  -0.045376  -0.051881  -0.002506
    38  H    0.379469   0.571206  -0.033220  -0.004098  -0.010502  -0.000116
    39  O    0.221142  -0.033220   7.960787   0.322379  -0.002142   0.012663
    40  H   -0.045376  -0.004098   0.322379   0.431963  -0.000299  -0.000250
    41  C   -0.051881  -0.010502  -0.002142  -0.000299   4.837864   0.403143
    42  H   -0.002506  -0.000116   0.012663  -0.000250   0.403143   0.517352
    43  H    0.000134   0.005982  -0.000474  -0.000106   0.400360  -0.034001
    44  O    0.005490  -0.000001   0.000009   0.000011   0.271865  -0.028295
    45  H   -0.000250  -0.000139  -0.000019   0.000003  -0.046277   0.007528
              43         44         45
     1  C   -0.000028   0.000001  -0.000074
     2  H   -0.000002  -0.000000  -0.000082
     3  O    0.000001   0.000000   0.000160
     4  H   -0.000000   0.000077  -0.000205
     5  C    0.000001  -0.000000   0.000015
     6  H    0.000000   0.000000  -0.000004
     7  O   -0.000000   0.000000  -0.000073
     8  C    0.000007  -0.000286   0.001971
     9  H   -0.000431   0.002036  -0.002123
    10  O    0.001427  -0.000169   0.001862
    11  H    0.001659   0.000101   0.000571
    12  C   -0.000000  -0.000022   0.000622
    13  H   -0.000003  -0.000001  -0.000061
    14  O   -0.000000   0.000002  -0.000039
    15  C   -0.000009   0.000001  -0.000086
    16  H    0.000002  -0.000009  -0.000149
    17  O    0.000000  -0.000000   0.000000
    18  H    0.000000  -0.000000   0.000001
    19  C   -0.000000   0.000000   0.000000
    20  H   -0.000000   0.000000  -0.000000
    21  H    0.000000   0.000000  -0.000002
    22  O    0.000000  -0.000000   0.000000
    23  H   -0.000000  -0.000000   0.000000
    24  C   -0.000863  -0.000474   0.000042
    25  H   -0.000163  -0.000063  -0.000053
    26  C   -0.056027  -0.040542  -0.008163
    27  H    0.009839   0.008032  -0.001809
    28  O   -0.005618  -0.003371   0.009375
    29  C    0.000107   0.000008   0.000050
    30  H   -0.000375   0.000007  -0.000026
    31  O    0.000000  -0.000000  -0.000001
    32  H    0.000001   0.000000   0.000000
    33  C   -0.000163  -0.000182   0.000066
    34  H   -0.000079  -0.000005  -0.000004
    35  O    0.000002   0.000000  -0.000000
    36  H   -0.000001  -0.000000   0.000000
    37  C    0.000134   0.005490  -0.000250
    38  H    0.005982  -0.000001  -0.000139
    39  O   -0.000474   0.000009  -0.000019
    40  H   -0.000106   0.000011   0.000003
    41  C    0.400360   0.271865  -0.046277
    42  H   -0.034001  -0.028295   0.007528
    43  H    0.586326  -0.036082  -0.006552
    44  O   -0.036082   7.886999   0.326815
    45  H   -0.006552   0.326815   0.463243
 Mulliken charges:
               1
     1  C    0.232510
     2  H    0.155037
     3  O   -0.369441
     4  H    0.244602
     5  C   -0.091630
     6  H    0.164083
     7  O   -0.402579
     8  C   -0.027176
     9  H    0.117118
    10  O   -0.403818
    11  H    0.257677
    12  C    0.011680
    13  H    0.170707
    14  O   -0.468803
    15  C    0.048344
    16  H    0.147836
    17  O   -0.419473
    18  H    0.264773
    19  C    0.005588
    20  H    0.155017
    21  H    0.120978
    22  O   -0.414801
    23  H    0.257790
    24  C    0.259355
    25  H    0.154849
    26  C   -0.066629
    27  H    0.177505
    28  O   -0.459211
    29  C    0.019068
    30  H    0.156930
    31  O   -0.433797
    32  H    0.274387
    33  C   -0.025889
    34  H    0.159879
    35  O   -0.434061
    36  H    0.279577
    37  C    0.038793
    38  H    0.155523
    39  O   -0.422834
    40  H    0.276917
    41  C   -0.032078
    42  H    0.168653
    43  H    0.135130
    44  O   -0.391953
    45  H    0.253865
 Sum of Mulliken charges =  -0.00000
 Mulliken charges with hydrogens summed into heavy atoms:
               1
     1  C    0.387547
     3  O   -0.124839
     5  C    0.072453
     7  O   -0.402579
     8  C    0.089942
    10  O   -0.146140
    12  C    0.182387
    14  O   -0.468803
    15  C    0.196180
    17  O   -0.154701
    19  C    0.281583
    22  O   -0.157011
    24  C    0.414204
    26  C    0.110876
    28  O   -0.459211
    29  C    0.175998
    31  O   -0.159409
    33  C    0.133990
    35  O   -0.154484
    37  C    0.194316
    39  O   -0.145917
    41  C    0.271705
    44  O   -0.138088
 Electronic spatial extent (au):  <R**2>=           8804.6954
 Charge=             -0.0000 electrons
 Dipole moment (field-independent basis, Debye):
    X=             -4.0245    Y=             -2.4188    Z=             -0.6839  Tot=              4.7449
 Quadrupole moment (field-independent basis, Debye-Ang):
   XX=           -158.5251   YY=           -141.3467   ZZ=           -140.2091
   XY=              8.4181   XZ=             -4.3018   YZ=             -2.5341
 Traceless Quadrupole moment (field-independent basis, Debye-Ang):
   XX=            -11.8315   YY=              5.3469   ZZ=              6.4846
   XY=              8.4181   XZ=             -4.3018   YZ=             -2.5341
 Octapole moment (field-independent basis, Debye-Ang**2):
  XXX=           -190.0818  YYY=            -34.0243  ZZZ=             -2.8376  XYY=             -8.1436
  XXY=             16.3996  XXZ=             14.2742  XZZ=              4.5883  YZZ=            -25.1820
  YYZ=              6.8412  XYZ=            -24.2152
 Hexadecapole moment (field-independent basis, Debye-Ang**3):
 XXXX=          -8926.0679 YYYY=          -2233.0977 ZZZZ=           -654.9490 XXXY=            318.1384
 XXXZ=             26.7547 YYYX=            123.9091 YYYZ=            -18.2008 ZZZX=             -9.1078
 ZZZY=             -2.9296 XXYY=          -1685.7905 XXZZ=          -1446.9805 YYZZ=           -525.0352
 XXYZ=            -12.4004 YYXZ=            -89.8828 ZZXY=              5.1169
 N-N= 2.322854955840D+03 E-N=-7.692394659365D+03  KE= 1.294084331399D+03
 No NMR shielding tensors so no spin-rotation constants.
 Leave Link  601 at Fri Apr 14 17:37:29 2023, MaxMem=   524288000 cpu:               1.8 elap:               0.3
 (Enter /dragofs/sw/campus/0.2/software/gaussian/16.gaussian/gaussian/g16_legacy/l9999.exe)
 1\1\GINC-DRAGO31010012\FOpt\RM062X\6-311G(d,p)\C12H22O11\JRAMOS\14-Apr
 -2023\0\\#p opt=modredundant m062x/6-311g(d,p)\\Conformer number 00000
 . Energy MM = 235.984 kcal/mol\\0,1\C,1.7935011649,2.2092856232,-0.445
 5699348\H,1.0090943266,2.4388450028,-1.1775327884\O,2.7899275984,3.142
 3415911,-0.6326134281\H,3.489661272,2.9618007286,0.0033109784\C,0.1624
 652712,1.528951957,1.1317224948\H,-0.6270563403,1.7467705358,0.3977823
 2\O,1.2967647939,2.3436996718,0.8701922703\C,2.293678684,0.7709233878,
 -0.6701194382\H,3.1174517222,0.6017367611,0.0383267844\O,2.7179545442,
 0.7080499084,-2.0050943287\H,3.1843761145,-0.1286993323,-2.0983632241\
 C,1.1479007944,-0.1961595119,-0.3670239515\H,0.3674771055,-0.010721745
 9,-1.11408853\O,1.375298708,-1.6206499267,-0.4092928187\C,0.5686113994
 ,0.0699812937,1.019126843\H,1.3500454347,-0.1372301202,1.7664685063\O,
 -0.5734802518,-0.7191052164,1.2500878166\H,-0.3231054476,-1.627854679,
 1.0573863651\C,-0.3284804191,1.9126135777,2.5132382218\H,-1.2210674316
 ,1.3358296035,2.7532663173\H,0.4563174583,1.6664476811,3.2424462599\O,
 -0.6658491892,3.2777708805,2.5573848125\H,0.092431027,3.7545283408,2.2
 043922734\C,2.5247136489,-2.3675521164,-0.6944122981\H,2.7429170002,-2
 .9835862335,0.19014863\C,4.8480596366,-2.3364330797,-1.1912670083\H,5.
 0529257027,-2.920934442,-0.2853074312\O,3.6486295878,-1.5728504374,-0.
 9900839467\C,2.2264964855,-3.2649222456,-1.8917315968\H,2.032217702,-2
 .6152252893,-2.7574185984\O,1.1398212802,-4.1234313106,-1.6392768656\H
 ,0.368132874,-3.5731217853,-1.4736278147\C,3.4341123364,-4.1369818357,
 -2.1697862473\H,3.6069860598,-4.7826333073,-1.295593838\O,3.2702187838
 ,-4.9177114649,-3.332183761\H,2.4529604346,-5.416510506,-3.2310002373\
 C,4.6633108282,-3.2724524698,-2.3797213424\H,4.5055444139,-2.670623293
 9,-3.2880405208\O,5.8261005582,-4.0557778189,-2.4899990565\H,5.6423685
 961,-4.736989023,-3.1458518816\C,5.9595649835,-1.3283141484,-1.4047798
 44\H,6.8983317991,-1.8662741738,-1.5316120578\H,5.7555931161,-0.764578
 007,-2.3260740952\O,6.0964930525,-0.4731251741,-0.2957323704\H,5.26408
 27803,-0.0019278495,-0.2029816391\\Version=EM64L-G16RevA.03\State=1-A\
 HF=-1297.8085348\RMSD=5.054e-09\RMSF=1.691e-04\Dipole=0.1281196,-1.819
 2224,-0.3987108\Quadrupole=-4.2507896,0.4415447,3.8092449,7.6175946,6.
 0390775,-0.5252427\PG=C01 [X(C12H22O11)]\\@


 LIVE PURE, SPEAK TRUE, RIGHT WRONG, FOLLOW THE KING...
 ELSE, WHEREFORE BORN......
           IDYLLS OF THE KING, TENNYSON
 Job cpu time:       0 days 13 hours 59 minutes  5.8 seconds.
 Elapsed time:       0 days  1 hours 45 minutes 22.3 seconds.
 File lengths (MBytes):  RWF=    189 Int=      0 D2E=      0 Chk=     24 Scr=      1
 Normal termination of Gaussian 16 at Fri Apr 14 17:37:29 2023.
