 Entering Gaussian System, Link 0=g16
 Input=dimer_13b_00003_gaussian.com
 Output=dimer_13b_00003_gaussian.log
 Initial command:
 /dragofs/sw/campus/0.2/software/gaussian/16.gaussian/gaussian/g16_legacy/l1.exe "/lustre/scratch-global/iem/jramos/Gau-2345694.inp" -scrdir="/lustre/scratch-global/iem/jramos/"
 Entering Link 1 = /dragofs/sw/campus/0.2/software/gaussian/16.gaussian/gaussian/g16_legacy/l1.exe PID=   2345695.
  
 Copyright (c) 1988,1990,1992,1993,1995,1998,2003,2009,2016,
            Gaussian, Inc.  All Rights Reserved.
  
 This is part of the Gaussian(R) 16 program.  It is based on
 the Gaussian(R) 09 system (copyright 2009, Gaussian, Inc.),
 the Gaussian(R) 03 system (copyright 2003, Gaussian, Inc.),
 the Gaussian(R) 98 system (copyright 1998, Gaussian, Inc.),
 the Gaussian(R) 94 system (copyright 1995, Gaussian, Inc.),
 the Gaussian 92(TM) system (copyright 1992, Gaussian, Inc.),
 the Gaussian 90(TM) system (copyright 1990, Gaussian, Inc.),
 the Gaussian 88(TM) system (copyright 1988, Gaussian, Inc.),
 the Gaussian 86(TM) system (copyright 1986, Carnegie Mellon
 University), and the Gaussian 82(TM) system (copyright 1983,
 Carnegie Mellon University). Gaussian is a federally registered
 trademark of Gaussian, Inc.
  
 This software contains proprietary and confidential information,
 including trade secrets, belonging to Gaussian, Inc.
  
 This software is provided under written license and may be
 used, copied, transmitted, or stored only in accord with that
 written license.
  
 The following legend is applicable only to US Government
 contracts under FAR:
  
                    RESTRICTED RIGHTS LEGEND
  
 Use, reproduction and disclosure by the US Government is
 subject to restrictions as set forth in subparagraphs (a)
 and (c) of the Commercial Computer Software - Restricted
 Rights clause in FAR 52.227-19.
  
 Gaussian, Inc.
 340 Quinnipiac St., Bldg. 40, Wallingford CT 06492
  
  
 ---------------------------------------------------------------
 Warning -- This program may not be used in any manner that
 competes with the business of Gaussian, Inc. or will provide
 assistance to any competitor of Gaussian, Inc.  The licensee
 of this program is prohibited from giving any competitor of
 Gaussian, Inc. access to this program.  By using this program,
 the user acknowledges that Gaussian, Inc. is engaged in the
 business of creating and licensing software in the field of
 computational chemistry and represents and warrants to the
 licensee that it is not a competitor of Gaussian, Inc. and that
 it will not use this program in any manner prohibited above.
 ---------------------------------------------------------------
  

 Cite this work as:
 Gaussian 16, Revision A.03,
 M. J. Frisch, G. W. Trucks, H. B. Schlegel, G. E. Scuseria, 
 M. A. Robb, J. R. Cheeseman, G. Scalmani, V. Barone, 
 G. A. Petersson, H. Nakatsuji, X. Li, M. Caricato, A. V. Marenich, 
 J. Bloino, B. G. Janesko, R. Gomperts, B. Mennucci, H. P. Hratchian, 
 J. V. Ortiz, A. F. Izmaylov, J. L. Sonnenberg, D. Williams-Young, 
 F. Ding, F. Lipparini, F. Egidi, J. Goings, B. Peng, A. Petrone, 
 T. Henderson, D. Ranasinghe, V. G. Zakrzewski, J. Gao, N. Rega, 
 G. Zheng, W. Liang, M. Hada, M. Ehara, K. Toyota, R. Fukuda, 
 J. Hasegawa, M. Ishida, T. Nakajima, Y. Honda, O. Kitao, H. Nakai, 
 T. Vreven, K. Throssell, J. A. Montgomery, Jr., J. E. Peralta, 
 F. Ogliaro, M. J. Bearpark, J. J. Heyd, E. N. Brothers, K. N. Kudin, 
 V. N. Staroverov, T. A. Keith, R. Kobayashi, J. Normand, 
 K. Raghavachari, A. P. Rendell, J. C. Burant, S. S. Iyengar, 
 J. Tomasi, M. Cossi, J. M. Millam, M. Klene, C. Adamo, R. Cammi, 
 J. W. Ochterski, R. L. Martin, K. Morokuma, O. Farkas, 
 J. B. Foresman, and D. J. Fox, Gaussian, Inc., Wallingford CT, 2016.
 
 ******************************************
 Gaussian 16:  EM64L-G16RevA.03 25-Dec-2016
                14-Apr-2023 
 ******************************************
 %chk=dimer_13b_00003_gaussian.chk
 %nproc=8
 Will use up to    8 processors via shared memory.
 %mem=4000Mb
 -------------------------------------
 #p opt=modredundant m062x/6-311g(d,p)
 -------------------------------------
 1/18=120,19=15,26=3,38=1/1,3;
 2/9=110,12=2,17=6,18=5,40=1/2;
 3/5=4,6=6,7=101,11=2,25=1,30=1,71=1,74=-55/1,2,3;
 4//1;
 5/5=2,38=5/2;
 6/7=2,8=2,9=2,10=2,28=1/1;
 7//1,2,3,16;
 1/18=20,19=15,26=3/3(2);
 2/9=110/2;
 99//99;
 2/9=110/2;
 3/5=4,6=6,7=101,11=2,25=1,30=1,71=1,74=-55/1,2,3;
 4/5=5,16=3,69=1/1;
 5/5=2,38=5/2;
 7//1,2,3,16;
 1/18=20,19=15,26=3/3(-5);
 2/9=110/2;
 6/7=2,8=2,9=2,10=2,19=2,28=1/1;
 99/9=1/99;
 Leave Link    1 at Fri Apr 14 15:52:35 2023, MaxMem=   524288000 cpu:               0.3 elap:               0.0
 (Enter /dragofs/sw/campus/0.2/software/gaussian/16.gaussian/gaussian/g16_legacy/l101.exe)
 ----------------------------------------------------
 Conformer number 00003. Energy MM = 185.557 kcal/mol
 ----------------------------------------------------
 Symbolic Z-matrix:
 Charge =  0 Multiplicity = 1
 C                     0.6378    1.5027   -0.9142 
 H                    -0.449     1.3551   -0.8797 
 O                     0.8815    2.343    -2.0263 
 H                     1.743     2.0824   -2.4435 
 C                     0.7346    1.4898    1.4756 
 H                    -0.3614    1.3987    1.5275 
 O                     1.0708    2.194     0.2644 
 C                     1.3781    0.1399   -1.0385 
 H                     2.4422    0.4215   -1.0596 
 O                     1.0471   -0.5459   -2.2499 
 H                     0.1769   -0.9635   -2.1544 
 C                     1.009    -0.6503    0.2195 
 H                    -0.0787   -0.8145    0.2232 
 O                     1.5116   -2.056     0.3243 
 C                     1.3874    0.101     1.5014 
 H                     2.4829    0.1829    1.5716 
 O                     0.9259   -0.6574    2.6273 
 H                     1.1908   -1.5985    2.4257 
 C                     1.198     2.3502    2.6647 
 H                     0.9863    1.8559    3.6182 
 H                     2.2737    2.5736    2.6023 
 O                     0.5075    3.6051    2.6571 
 H                     0.6426    3.969     1.7571 
 C                     2.7604   -2.4279   -0.3067 
 H                     3.3967   -2.7835    0.5114 
 C                     4.6351   -1.8151   -1.6451 
 H                     5.3357   -2.2067   -0.8921 
 O                     3.4248   -1.4262   -0.9854 
 C                     2.4303   -3.6272   -1.2524 
 H                     1.6377   -3.3256   -1.9468 
 O                     1.9197   -4.7789   -0.5577 
 H                     2.2873   -4.7727    0.3623 
 C                     3.6666   -4.058    -2.0548 
 H                     4.374    -4.5857   -1.4091 
 O                     3.3027   -4.9995   -3.0782 
 H                     2.8722   -5.764    -2.6259 
 C                     4.3417   -2.8615   -2.7175 
 H                     3.6859   -2.4544   -3.4937 
 O                     5.553    -3.2652   -3.3455 
 H                     5.3796   -4.1217   -3.8082 
 C                     5.2445   -0.5403   -2.2411 
 H                     6.1702   -0.7432   -2.7833 
 H                     4.535    -0.0407   -2.909 
 O                     5.5489    0.3824   -1.1876 
 H                     4.7517    0.4248   -0.6296 
 
 The following ModRedundant input section has been read:
 D      12      14      24      28 F                                           
 D       8      12      14      24 F                                           
 
 ITRead=  0  0  0  0  0  0  0  0  0  0  0  0  0  0  0  0  0  0  0  0
 ITRead=  0  0  0  0  0  0  0  0  0  0  0  0  0  0  0  0  0  0  0  0
 ITRead=  0  0  0  0  0
 MicOpt= -1 -1 -1 -1 -1 -1 -1 -1 -1 -1 -1 -1 -1 -1 -1 -1 -1 -1 -1 -1
 MicOpt= -1 -1 -1 -1 -1 -1 -1 -1 -1 -1 -1 -1 -1 -1 -1 -1 -1 -1 -1 -1
 MicOpt= -1 -1 -1 -1 -1
 NAtoms=     45 NQM=       45 NQMF=       0 NMMI=      0 NMMIF=      0
                NMic=       0 NMicF=      0.
                    Isotopes and Nuclear Properties:
 (Nuclear quadrupole moments (NQMom) in fm**2, nuclear magnetic moments (NMagM)
  in nuclear magnetons)

  Atom         1           2           3           4           5           6           7           8           9          10
 IAtWgt=          12           1          16           1          12           1          16          12           1          16
 AtmWgt=  12.0000000   1.0078250  15.9949146   1.0078250  12.0000000   1.0078250  15.9949146  12.0000000   1.0078250  15.9949146
 NucSpn=           0           1           0           1           0           1           0           0           1           0
 AtZEff=  -0.0000000  -0.0000000  -0.0000000  -0.0000000  -0.0000000  -0.0000000  -0.0000000  -0.0000000  -0.0000000  -0.0000000
 NQMom=    0.0000000   0.0000000   0.0000000   0.0000000   0.0000000   0.0000000   0.0000000   0.0000000   0.0000000   0.0000000
 NMagM=    0.0000000   2.7928460   0.0000000   2.7928460   0.0000000   2.7928460   0.0000000   0.0000000   2.7928460   0.0000000
 AtZNuc=   6.0000000   1.0000000   8.0000000   1.0000000   6.0000000   1.0000000   8.0000000   6.0000000   1.0000000   8.0000000

  Atom        11          12          13          14          15          16          17          18          19          20
 IAtWgt=           1          12           1          16          12           1          16           1          12           1
 AtmWgt=   1.0078250  12.0000000   1.0078250  15.9949146  12.0000000   1.0078250  15.9949146   1.0078250  12.0000000   1.0078250
 NucSpn=           1           0           1           0           0           1           0           1           0           1
 AtZEff=  -0.0000000  -0.0000000  -0.0000000  -0.0000000  -0.0000000  -0.0000000  -0.0000000  -0.0000000  -0.0000000  -0.0000000
 NQMom=    0.0000000   0.0000000   0.0000000   0.0000000   0.0000000   0.0000000   0.0000000   0.0000000   0.0000000   0.0000000
 NMagM=    2.7928460   0.0000000   2.7928460   0.0000000   0.0000000   2.7928460   0.0000000   2.7928460   0.0000000   2.7928460
 AtZNuc=   1.0000000   6.0000000   1.0000000   8.0000000   6.0000000   1.0000000   8.0000000   1.0000000   6.0000000   1.0000000

  Atom        21          22          23          24          25          26          27          28          29          30
 IAtWgt=           1          16           1          12           1          12           1          16          12           1
 AtmWgt=   1.0078250  15.9949146   1.0078250  12.0000000   1.0078250  12.0000000   1.0078250  15.9949146  12.0000000   1.0078250
 NucSpn=           1           0           1           0           1           0           1           0           0           1
 AtZEff=  -0.0000000  -0.0000000  -0.0000000  -0.0000000  -0.0000000  -0.0000000  -0.0000000  -0.0000000  -0.0000000  -0.0000000
 NQMom=    0.0000000   0.0000000   0.0000000   0.0000000   0.0000000   0.0000000   0.0000000   0.0000000   0.0000000   0.0000000
 NMagM=    2.7928460   0.0000000   2.7928460   0.0000000   2.7928460   0.0000000   2.7928460   0.0000000   0.0000000   2.7928460
 AtZNuc=   1.0000000   8.0000000   1.0000000   6.0000000   1.0000000   6.0000000   1.0000000   8.0000000   6.0000000   1.0000000

  Atom        31          32          33          34          35          36          37          38          39          40
 IAtWgt=          16           1          12           1          16           1          12           1          16           1
 AtmWgt=  15.9949146   1.0078250  12.0000000   1.0078250  15.9949146   1.0078250  12.0000000   1.0078250  15.9949146   1.0078250
 NucSpn=           0           1           0           1           0           1           0           1           0           1
 AtZEff=  -0.0000000  -0.0000000  -0.0000000  -0.0000000  -0.0000000  -0.0000000  -0.0000000  -0.0000000  -0.0000000  -0.0000000
 NQMom=    0.0000000   0.0000000   0.0000000   0.0000000   0.0000000   0.0000000   0.0000000   0.0000000   0.0000000   0.0000000
 NMagM=    0.0000000   2.7928460   0.0000000   2.7928460   0.0000000   2.7928460   0.0000000   2.7928460   0.0000000   2.7928460
 AtZNuc=   8.0000000   1.0000000   6.0000000   1.0000000   8.0000000   1.0000000   6.0000000   1.0000000   8.0000000   1.0000000

  Atom        41          42          43          44          45
 IAtWgt=          12           1           1          16           1
 AtmWgt=  12.0000000   1.0078250   1.0078250  15.9949146   1.0078250
 NucSpn=           0           1           1           0           1
 AtZEff=  -0.0000000  -0.0000000  -0.0000000  -0.0000000  -0.0000000
 NQMom=    0.0000000   0.0000000   0.0000000   0.0000000   0.0000000
 NMagM=    0.0000000   2.7928460   2.7928460   0.0000000   2.7928460
 AtZNuc=   6.0000000   1.0000000   1.0000000   8.0000000   1.0000000
 Leave Link  101 at Fri Apr 14 15:52:35 2023, MaxMem=   524288000 cpu:               1.1 elap:               0.2
 (Enter /dragofs/sw/campus/0.2/software/gaussian/16.gaussian/gaussian/g16_legacy/l103.exe)

 GradGradGradGradGradGradGradGradGradGradGradGradGradGradGradGradGradGrad
 Berny optimization.
 Initialization pass.
                           ----------------------------
                           !    Initial Parameters    !
                           ! (Angstroms and Degrees)  !
 --------------------------                            --------------------------
 ! Name  Definition              Value          Derivative Info.                !
 --------------------------------------------------------------------------------
 ! R1    R(1,2)                  1.0973         estimate D2E/DX2                !
 ! R2    R(1,3)                  1.415          estimate D2E/DX2                !
 ! R3    R(1,7)                  1.4333         estimate D2E/DX2                !
 ! R4    R(1,8)                  1.5559         estimate D2E/DX2                !
 ! R5    R(3,4)                  0.992          estimate D2E/DX2                !
 ! R6    R(5,6)                  1.101          estimate D2E/DX2                !
 ! R7    R(5,7)                  1.4408         estimate D2E/DX2                !
 ! R8    R(5,15)                 1.5348         estimate D2E/DX2                !
 ! R9    R(5,19)                 1.5392         estimate D2E/DX2                !
 ! R10   R(8,9)                  1.1009         estimate D2E/DX2                !
 ! R11   R(8,10)                 1.4309         estimate D2E/DX2                !
 ! R12   R(8,12)                 1.5308         estimate D2E/DX2                !
 ! R13   R(10,11)                0.9699         estimate D2E/DX2                !
 ! R14   R(12,13)                1.1            estimate D2E/DX2                !
 ! R15   R(12,14)                1.4965         estimate D2E/DX2                !
 ! R16   R(12,15)                1.5333         estimate D2E/DX2                !
 ! R17   R(14,24)                1.4477         estimate D2E/DX2                !
 ! R18   R(15,16)                1.1008         estimate D2E/DX2                !
 ! R19   R(15,17)                1.4338         estimate D2E/DX2                !
 ! R20   R(17,18)                0.9982         estimate D2E/DX2                !
 ! R21   R(19,20)                1.0947         estimate D2E/DX2                !
 ! R22   R(19,21)                1.1004         estimate D2E/DX2                !
 ! R23   R(19,22)                1.4323         estimate D2E/DX2                !
 ! R24   R(22,23)                0.9801         estimate D2E/DX2                !
 ! R25   R(24,25)                1.0957         estimate D2E/DX2                !
 ! R26   R(24,28)                1.3804         estimate D2E/DX2                !
 ! R27   R(24,29)                1.5626         estimate D2E/DX2                !
 ! R28   R(26,27)                1.1005         estimate D2E/DX2                !
 ! R29   R(26,28)                1.4322         estimate D2E/DX2                !
 ! R30   R(26,37)                1.5268         estimate D2E/DX2                !
 ! R31   R(26,41)                1.5335         estimate D2E/DX2                !
 ! R32   R(29,30)                1.0961         estimate D2E/DX2                !
 ! R33   R(29,31)                1.4387         estimate D2E/DX2                !
 ! R34   R(29,33)                1.5355         estimate D2E/DX2                !
 ! R35   R(31,32)                0.9907         estimate D2E/DX2                !
 ! R36   R(33,34)                1.0935         estimate D2E/DX2                !
 ! R37   R(33,35)                1.4374         estimate D2E/DX2                !
 ! R38   R(33,37)                1.5253         estimate D2E/DX2                !
 ! R39   R(35,36)                0.9871         estimate D2E/DX2                !
 ! R40   R(37,38)                1.0947         estimate D2E/DX2                !
 ! R41   R(37,39)                1.4229         estimate D2E/DX2                !
 ! R42   R(39,40)                0.9888         estimate D2E/DX2                !
 ! R43   R(41,42)                1.0918         estimate D2E/DX2                !
 ! R44   R(41,43)                1.095          estimate D2E/DX2                !
 ! R45   R(41,44)                1.4331         estimate D2E/DX2                !
 ! R46   R(44,45)                0.974          estimate D2E/DX2                !
 ! A1    A(2,1,3)              105.9716         estimate D2E/DX2                !
 ! A2    A(2,1,7)              109.7682         estimate D2E/DX2                !
 ! A3    A(2,1,8)              110.8513         estimate D2E/DX2                !
 ! A4    A(3,1,7)              107.9272         estimate D2E/DX2                !
 ! A5    A(3,1,8)              112.0503         estimate D2E/DX2                !
 ! A6    A(7,1,8)              110.1454         estimate D2E/DX2                !
 ! A7    A(1,3,4)              108.9101         estimate D2E/DX2                !
 ! A8    A(6,5,7)              108.2008         estimate D2E/DX2                !
 ! A9    A(6,5,15)             110.349          estimate D2E/DX2                !
 ! A10   A(6,5,19)             108.0317         estimate D2E/DX2                !
 ! A11   A(7,5,15)             110.925          estimate D2E/DX2                !
 ! A12   A(7,5,19)             107.8171         estimate D2E/DX2                !
 ! A13   A(15,5,19)            111.3948         estimate D2E/DX2                !
 ! A14   A(1,7,5)              112.6449         estimate D2E/DX2                !
 ! A15   A(1,8,9)              103.732          estimate D2E/DX2                !
 ! A16   A(1,8,10)             112.1718         estimate D2E/DX2                !
 ! A17   A(1,8,12)             105.7698         estimate D2E/DX2                !
 ! A18   A(9,8,10)             109.2662         estimate D2E/DX2                !
 ! A19   A(9,8,12)             112.3861         estimate D2E/DX2                !
 ! A20   A(10,8,12)            113.1146         estimate D2E/DX2                !
 ! A21   A(8,10,11)            109.3017         estimate D2E/DX2                !
 ! A22   A(8,12,13)            108.5565         estimate D2E/DX2                !
 ! A23   A(8,12,14)            117.4812         estimate D2E/DX2                !
 ! A24   A(8,12,15)            112.0016         estimate D2E/DX2                !
 ! A25   A(13,12,14)           101.0482         estimate D2E/DX2                !
 ! A26   A(13,12,15)           108.322          estimate D2E/DX2                !
 ! A27   A(14,12,15)           108.5921         estimate D2E/DX2                !
 ! A28   A(12,14,24)           120.0307         estimate D2E/DX2                !
 ! A29   A(5,15,12)            108.9272         estimate D2E/DX2                !
 ! A30   A(5,15,16)            110.9183         estimate D2E/DX2                !
 ! A31   A(5,15,17)            110.7889         estimate D2E/DX2                !
 ! A32   A(12,15,16)           109.5956         estimate D2E/DX2                !
 ! A33   A(12,15,17)           108.536          estimate D2E/DX2                !
 ! A34   A(16,15,17)           108.035          estimate D2E/DX2                !
 ! A35   A(15,17,18)           104.7537         estimate D2E/DX2                !
 ! A36   A(5,19,20)            111.2408         estimate D2E/DX2                !
 ! A37   A(5,19,21)            111.3453         estimate D2E/DX2                !
 ! A38   A(5,19,22)            109.9083         estimate D2E/DX2                !
 ! A39   A(20,19,21)           109.2754         estimate D2E/DX2                !
 ! A40   A(20,19,22)           107.8786         estimate D2E/DX2                !
 ! A41   A(21,19,22)           107.0425         estimate D2E/DX2                !
 ! A42   A(19,22,23)           105.2898         estimate D2E/DX2                !
 ! A43   A(14,24,25)           105.0024         estimate D2E/DX2                !
 ! A44   A(14,24,28)           116.2992         estimate D2E/DX2                !
 ! A45   A(14,24,29)           106.1839         estimate D2E/DX2                !
 ! A46   A(25,24,28)           108.8503         estimate D2E/DX2                !
 ! A47   A(25,24,29)           108.9939         estimate D2E/DX2                !
 ! A48   A(28,24,29)           111.1659         estimate D2E/DX2                !
 ! A49   A(27,26,28)           108.6277         estimate D2E/DX2                !
 ! A50   A(27,26,37)           111.0416         estimate D2E/DX2                !
 ! A51   A(27,26,41)           107.9829         estimate D2E/DX2                !
 ! A52   A(28,26,37)           110.3184         estimate D2E/DX2                !
 ! A53   A(28,26,41)           106.8041         estimate D2E/DX2                !
 ! A54   A(37,26,41)           111.9078         estimate D2E/DX2                !
 ! A55   A(24,28,26)           115.8592         estimate D2E/DX2                !
 ! A56   A(24,29,30)           108.9655         estimate D2E/DX2                !
 ! A57   A(24,29,31)           113.4004         estimate D2E/DX2                !
 ! A58   A(24,29,33)           111.1925         estimate D2E/DX2                !
 ! A59   A(30,29,31)           105.6377         estimate D2E/DX2                !
 ! A60   A(30,29,33)           109.1688         estimate D2E/DX2                !
 ! A61   A(31,29,33)           108.2696         estimate D2E/DX2                !
 ! A62   A(29,31,32)           108.1621         estimate D2E/DX2                !
 ! A63   A(29,33,34)           110.3445         estimate D2E/DX2                !
 ! A64   A(29,33,35)           110.6081         estimate D2E/DX2                !
 ! A65   A(29,33,37)           111.3035         estimate D2E/DX2                !
 ! A66   A(34,33,35)           105.5506         estimate D2E/DX2                !
 ! A67   A(34,33,37)           110.412          estimate D2E/DX2                !
 ! A68   A(35,33,37)           108.4524         estimate D2E/DX2                !
 ! A69   A(33,35,36)           106.9456         estimate D2E/DX2                !
 ! A70   A(26,37,33)           108.5122         estimate D2E/DX2                !
 ! A71   A(26,37,38)           110.9953         estimate D2E/DX2                !
 ! A72   A(26,37,39)           109.9294         estimate D2E/DX2                !
 ! A73   A(33,37,38)           109.5509         estimate D2E/DX2                !
 ! A74   A(33,37,39)           110.2418         estimate D2E/DX2                !
 ! A75   A(38,37,39)           107.6115         estimate D2E/DX2                !
 ! A76   A(37,39,40)           107.6376         estimate D2E/DX2                !
 ! A77   A(26,41,42)           112.0517         estimate D2E/DX2                !
 ! A78   A(26,41,43)           111.0292         estimate D2E/DX2                !
 ! A79   A(26,41,44)           109.5068         estimate D2E/DX2                !
 ! A80   A(42,41,43)           109.3439         estimate D2E/DX2                !
 ! A81   A(42,41,44)           107.735          estimate D2E/DX2                !
 ! A82   A(43,41,44)           106.9922         estimate D2E/DX2                !
 ! A83   A(41,44,45)           105.9807         estimate D2E/DX2                !
 ! D1    D(2,1,3,4)           -145.4162         estimate D2E/DX2                !
 ! D2    D(7,1,3,4)             97.0455         estimate D2E/DX2                !
 ! D3    D(8,1,3,4)            -24.3931         estimate D2E/DX2                !
 ! D4    D(2,1,7,5)             58.5237         estimate D2E/DX2                !
 ! D5    D(3,1,7,5)            173.5847         estimate D2E/DX2                !
 ! D6    D(8,1,7,5)            -63.8016         estimate D2E/DX2                !
 ! D7    D(2,1,8,9)           -179.8272         estimate D2E/DX2                !
 ! D8    D(2,1,8,10)            62.3738         estimate D2E/DX2                !
 ! D9    D(2,1,8,12)           -61.3769         estimate D2E/DX2                !
 ! D10   D(3,1,8,9)             62.0112         estimate D2E/DX2                !
 ! D11   D(3,1,8,10)           -55.7879         estimate D2E/DX2                !
 ! D12   D(3,1,8,12)          -179.5386         estimate D2E/DX2                !
 ! D13   D(7,1,8,9)            -58.1433         estimate D2E/DX2                !
 ! D14   D(7,1,8,10)          -175.9424         estimate D2E/DX2                !
 ! D15   D(7,1,8,12)            60.3069         estimate D2E/DX2                !
 ! D16   D(6,5,7,1)            -61.2184         estimate D2E/DX2                !
 ! D17   D(15,5,7,1)            59.9542         estimate D2E/DX2                !
 ! D18   D(19,5,7,1)          -177.8297         estimate D2E/DX2                !
 ! D19   D(6,5,15,12)           66.0802         estimate D2E/DX2                !
 ! D20   D(6,5,15,16)         -173.2137         estimate D2E/DX2                !
 ! D21   D(6,5,15,17)          -53.2378         estimate D2E/DX2                !
 ! D22   D(7,5,15,12)          -53.8188         estimate D2E/DX2                !
 ! D23   D(7,5,15,16)           66.8873         estimate D2E/DX2                !
 ! D24   D(7,5,15,17)         -173.1368         estimate D2E/DX2                !
 ! D25   D(19,5,15,12)        -173.9271         estimate D2E/DX2                !
 ! D26   D(19,5,15,16)         -53.221          estimate D2E/DX2                !
 ! D27   D(19,5,15,17)          66.7549         estimate D2E/DX2                !
 ! D28   D(6,5,19,20)           64.391          estimate D2E/DX2                !
 ! D29   D(6,5,19,21)         -173.458          estimate D2E/DX2                !
 ! D30   D(6,5,19,22)          -55.0207         estimate D2E/DX2                !
 ! D31   D(7,5,19,20)         -178.8875         estimate D2E/DX2                !
 ! D32   D(7,5,19,21)          -56.7365         estimate D2E/DX2                !
 ! D33   D(7,5,19,22)           61.7007         estimate D2E/DX2                !
 ! D34   D(15,5,19,20)         -56.9617         estimate D2E/DX2                !
 ! D35   D(15,5,19,21)          65.1894         estimate D2E/DX2                !
 ! D36   D(15,5,19,22)        -176.3734         estimate D2E/DX2                !
 ! D37   D(1,8,10,11)          -77.9558         estimate D2E/DX2                !
 ! D38   D(9,8,10,11)          167.5889         estimate D2E/DX2                !
 ! D39   D(12,8,10,11)          41.5844         estimate D2E/DX2                !
 ! D40   D(1,8,12,13)           62.1295         estimate D2E/DX2                !
 ! D41   D(1,8,12,14)          175.8619         estimate D2E/DX2                !
 ! D42   D(1,8,12,15)          -57.427          estimate D2E/DX2                !
 ! D43   D(9,8,12,13)          174.6546         estimate D2E/DX2                !
 ! D44   D(9,8,12,14)          -71.613          estimate D2E/DX2                !
 ! D45   D(9,8,12,15)           55.0981         estimate D2E/DX2                !
 ! D46   D(10,8,12,13)         -61.026          estimate D2E/DX2                !
 ! D47   D(10,8,12,14)          52.7064         estimate D2E/DX2                !
 ! D48   D(10,8,12,15)         179.4175         estimate D2E/DX2                !
 ! D49   D(8,12,14,24)          30.0974         Frozen                          !
 ! D50   D(13,12,14,24)        147.9404         estimate D2E/DX2                !
 ! D51   D(15,12,14,24)        -98.2556         estimate D2E/DX2                !
 ! D52   D(8,12,15,5)           55.2518         estimate D2E/DX2                !
 ! D53   D(8,12,15,16)         -66.2632         estimate D2E/DX2                !
 ! D54   D(8,12,15,17)         175.9634         estimate D2E/DX2                !
 ! D55   D(13,12,15,5)         -64.4421         estimate D2E/DX2                !
 ! D56   D(13,12,15,16)        174.0428         estimate D2E/DX2                !
 ! D57   D(13,12,15,17)         56.2695         estimate D2E/DX2                !
 ! D58   D(14,12,15,5)        -173.3699         estimate D2E/DX2                !
 ! D59   D(14,12,15,16)         65.115          estimate D2E/DX2                !
 ! D60   D(14,12,15,17)        -52.6583         estimate D2E/DX2                !
 ! D61   D(12,14,24,25)        120.3549         estimate D2E/DX2                !
 ! D62   D(12,14,24,28)         -0.0139         Frozen                          !
 ! D63   D(12,14,24,29)       -124.2642         estimate D2E/DX2                !
 ! D64   D(5,15,17,18)         164.7345         estimate D2E/DX2                !
 ! D65   D(12,15,17,18)         45.1814         estimate D2E/DX2                !
 ! D66   D(16,15,17,18)        -73.5809         estimate D2E/DX2                !
 ! D67   D(5,19,22,23)         -52.6568         estimate D2E/DX2                !
 ! D68   D(20,19,22,23)       -174.1026         estimate D2E/DX2                !
 ! D69   D(21,19,22,23)         68.4022         estimate D2E/DX2                !
 ! D70   D(14,24,28,26)       -177.9071         estimate D2E/DX2                !
 ! D71   D(25,24,28,26)         63.8091         estimate D2E/DX2                !
 ! D72   D(29,24,28,26)        -56.2558         estimate D2E/DX2                !
 ! D73   D(14,24,29,30)         55.9223         estimate D2E/DX2                !
 ! D74   D(14,24,29,31)        -61.4187         estimate D2E/DX2                !
 ! D75   D(14,24,29,33)        176.2953         estimate D2E/DX2                !
 ! D76   D(25,24,29,30)        168.5635         estimate D2E/DX2                !
 ! D77   D(25,24,29,31)         51.2224         estimate D2E/DX2                !
 ! D78   D(25,24,29,33)        -71.0636         estimate D2E/DX2                !
 ! D79   D(28,24,29,30)        -71.4568         estimate D2E/DX2                !
 ! D80   D(28,24,29,31)        171.2021         estimate D2E/DX2                !
 ! D81   D(28,24,29,33)         48.9162         estimate D2E/DX2                !
 ! D82   D(27,26,28,24)        -59.9094         estimate D2E/DX2                !
 ! D83   D(37,26,28,24)         62.0181         estimate D2E/DX2                !
 ! D84   D(41,26,28,24)       -176.1492         estimate D2E/DX2                !
 ! D85   D(27,26,37,33)         62.5021         estimate D2E/DX2                !
 ! D86   D(27,26,37,38)       -177.067          estimate D2E/DX2                !
 ! D87   D(27,26,37,39)        -58.1289         estimate D2E/DX2                !
 ! D88   D(28,26,37,33)        -57.988          estimate D2E/DX2                !
 ! D89   D(28,26,37,38)         62.4428         estimate D2E/DX2                !
 ! D90   D(28,26,37,39)       -178.619          estimate D2E/DX2                !
 ! D91   D(41,26,37,33)       -176.751          estimate D2E/DX2                !
 ! D92   D(41,26,37,38)        -56.3202         estimate D2E/DX2                !
 ! D93   D(41,26,37,39)         62.618          estimate D2E/DX2                !
 ! D94   D(27,26,41,42)         64.322          estimate D2E/DX2                !
 ! D95   D(27,26,41,43)       -173.0887         estimate D2E/DX2                !
 ! D96   D(27,26,41,44)        -55.1613         estimate D2E/DX2                !
 ! D97   D(28,26,41,42)       -179.0095         estimate D2E/DX2                !
 ! D98   D(28,26,41,43)        -56.4202         estimate D2E/DX2                !
 ! D99   D(28,26,41,44)         61.5072         estimate D2E/DX2                !
 ! D100  D(37,26,41,42)        -58.1851         estimate D2E/DX2                !
 ! D101  D(37,26,41,43)         64.4042         estimate D2E/DX2                !
 ! D102  D(37,26,41,44)       -177.6683         estimate D2E/DX2                !
 ! D103  D(24,29,31,32)        -28.1352         estimate D2E/DX2                !
 ! D104  D(30,29,31,32)       -147.4015         estimate D2E/DX2                !
 ! D105  D(33,29,31,32)         95.7598         estimate D2E/DX2                !
 ! D106  D(24,29,33,34)         73.4288         estimate D2E/DX2                !
 ! D107  D(24,29,33,35)       -170.1538         estimate D2E/DX2                !
 ! D108  D(24,29,33,37)        -49.517          estimate D2E/DX2                !
 ! D109  D(30,29,33,34)       -166.3183         estimate D2E/DX2                !
 ! D110  D(30,29,33,35)        -49.901          estimate D2E/DX2                !
 ! D111  D(30,29,33,37)         70.7358         estimate D2E/DX2                !
 ! D112  D(31,29,33,34)        -51.781          estimate D2E/DX2                !
 ! D113  D(31,29,33,35)         64.6364         estimate D2E/DX2                !
 ! D114  D(31,29,33,37)       -174.7268         estimate D2E/DX2                !
 ! D115  D(29,33,35,36)        -57.894          estimate D2E/DX2                !
 ! D116  D(34,33,35,36)         61.4589         estimate D2E/DX2                !
 ! D117  D(37,33,35,36)        179.7854         estimate D2E/DX2                !
 ! D118  D(29,33,37,26)         53.9467         estimate D2E/DX2                !
 ! D119  D(29,33,37,38)        -67.3765         estimate D2E/DX2                !
 ! D120  D(29,33,37,39)        174.384          estimate D2E/DX2                !
 ! D121  D(34,33,37,26)        -68.9604         estimate D2E/DX2                !
 ! D122  D(34,33,37,38)        169.7164         estimate D2E/DX2                !
 ! D123  D(34,33,37,39)         51.4769         estimate D2E/DX2                !
 ! D124  D(35,33,37,26)        175.8429         estimate D2E/DX2                !
 ! D125  D(35,33,37,38)         54.5197         estimate D2E/DX2                !
 ! D126  D(35,33,37,39)        -63.7198         estimate D2E/DX2                !
 ! D127  D(26,37,39,40)        162.14           estimate D2E/DX2                !
 ! D128  D(33,37,39,40)         42.5582         estimate D2E/DX2                !
 ! D129  D(38,37,39,40)        -76.8658         estimate D2E/DX2                !
 ! D130  D(26,41,44,45)        -48.2295         estimate D2E/DX2                !
 ! D131  D(42,41,44,45)       -170.3345         estimate D2E/DX2                !
 ! D132  D(43,41,44,45)         72.19           estimate D2E/DX2                !
 --------------------------------------------------------------------------------
 Trust Radius=3.00D-01 FncErr=1.00D-07 GrdErr=1.00D-06 EigMax=2.50D+02 EigMin=1.00D-04
 Number of steps in this run=    270 maximum allowed number of steps=    270.
 GradGradGradGradGradGradGradGradGradGradGradGradGradGradGradGradGradGrad

 Leave Link  103 at Fri Apr 14 15:52:35 2023, MaxMem=   524288000 cpu:               0.1 elap:               0.0
 (Enter /dragofs/sw/campus/0.2/software/gaussian/16.gaussian/gaussian/g16_legacy/l202.exe)
                          Input orientation:                          
 ---------------------------------------------------------------------
 Center     Atomic      Atomic             Coordinates (Angstroms)
 Number     Number       Type             X           Y           Z
 ---------------------------------------------------------------------
      1          6           0        0.637800    1.502700   -0.914200
      2          1           0       -0.449000    1.355100   -0.879700
      3          8           0        0.881500    2.343000   -2.026300
      4          1           0        1.743000    2.082400   -2.443500
      5          6           0        0.734600    1.489800    1.475600
      6          1           0       -0.361400    1.398700    1.527500
      7          8           0        1.070800    2.194000    0.264400
      8          6           0        1.378100    0.139900   -1.038500
      9          1           0        2.442200    0.421500   -1.059600
     10          8           0        1.047100   -0.545900   -2.249900
     11          1           0        0.176900   -0.963500   -2.154400
     12          6           0        1.009000   -0.650300    0.219500
     13          1           0       -0.078700   -0.814500    0.223200
     14          8           0        1.511600   -2.056000    0.324300
     15          6           0        1.387400    0.101000    1.501400
     16          1           0        2.482900    0.182900    1.571600
     17          8           0        0.925900   -0.657400    2.627300
     18          1           0        1.190800   -1.598500    2.425700
     19          6           0        1.198000    2.350200    2.664700
     20          1           0        0.986300    1.855900    3.618200
     21          1           0        2.273700    2.573600    2.602300
     22          8           0        0.507500    3.605100    2.657100
     23          1           0        0.642600    3.969000    1.757100
     24          6           0        2.760400   -2.427900   -0.306700
     25          1           0        3.396700   -2.783500    0.511400
     26          6           0        4.635100   -1.815100   -1.645100
     27          1           0        5.335700   -2.206700   -0.892100
     28          8           0        3.424800   -1.426200   -0.985400
     29          6           0        2.430300   -3.627200   -1.252400
     30          1           0        1.637700   -3.325600   -1.946800
     31          8           0        1.919700   -4.778900   -0.557700
     32          1           0        2.287300   -4.772700    0.362300
     33          6           0        3.666600   -4.058000   -2.054800
     34          1           0        4.374000   -4.585700   -1.409100
     35          8           0        3.302700   -4.999500   -3.078200
     36          1           0        2.872200   -5.764000   -2.625900
     37          6           0        4.341700   -2.861500   -2.717500
     38          1           0        3.685900   -2.454400   -3.493700
     39          8           0        5.553000   -3.265200   -3.345500
     40          1           0        5.379600   -4.121700   -3.808200
     41          6           0        5.244500   -0.540300   -2.241100
     42          1           0        6.170200   -0.743200   -2.783300
     43          1           0        4.535000   -0.040700   -2.909000
     44          8           0        5.548900    0.382400   -1.187600
     45          1           0        4.751700    0.424800   -0.629600
 ---------------------------------------------------------------------
                    Distance matrix (angstroms):
                    1          2          3          4          5
     1  C    0.000000
     2  H    1.097320   0.000000
     3  O    1.415012   2.015160   0.000000
     4  H    1.973899   2.789140   0.992044   0.000000
     5  C    2.391794   2.639411   3.607331   4.089913   0.000000
     6  H    2.640287   2.409188   3.881494   4.545854   1.101004
     7  O    1.433347   2.079065   2.303333   2.792316   1.440810
     8  C    1.555866   2.200051   2.464956   2.424971   2.925239
     9  H    2.108553   3.043519   2.657528   2.272146   3.237963
    10  O    2.479593   2.780209   2.902269   2.725751   4.256886
    11  H    2.798690   2.718918   3.383166   3.437114   4.416629
    12  C    2.461397   2.712127   3.744291   3.885611   2.496620
    13  H    2.678893   2.461844   3.994001   4.338422   2.745863
    14  O    3.868043   4.114507   5.027280   4.984036   3.808138
    15  C    2.891675   3.258031   4.210364   4.428841   1.534790
    16  H    3.365333   3.997369   4.491703   4.502952   2.184893
    17  O    4.158276   4.270779   5.537180   5.821269   2.444070
    18  H    4.591098   4.726348   5.954107   6.128871   3.263189
    19  C    3.720296   4.033064   4.701670   5.144167   1.539151
    20  H    4.559479   4.747841   5.666448   6.112946   2.188177
    21  H    4.023527   4.584993   4.838939   5.097354   2.193833
    22  O    4.146233   4.299575   4.864875   5.464540   2.433518
    23  H    3.635726   3.869984   4.124932   4.734467   2.496826
    24  C    4.508226   4.993963   5.408214   5.093508   4.756977
    25  H    5.292955   5.818297   6.248772   5.928165   5.126163
    26  C    5.245991   6.040205   5.614679   4.918556   5.989577
    27  H    5.985850   6.793330   6.467308   5.806093   6.359264
    28  O    4.043624   4.770024   4.664624   4.155091   4.668699
    29  C    5.444567   5.766506   6.216188   5.872873   6.041612
    30  H    5.037712   5.234689   5.719369   5.431783   5.976327
    31  O    6.420970   6.583341   7.345482   7.117928   6.695922
    32  H    6.612938   6.824942   7.636417   7.427057   6.547459
    33  C    6.433971   6.900774   6.980716   6.446382   7.199891
    34  H    7.160498   7.670378   7.783661   7.242631   7.647119
    35  O    7.352768   7.699974   7.802628   7.279342   8.333261
    36  H    7.792778   8.047432   8.369340   7.929335   8.602863
    37  C    6.001417   6.641388   6.287890   5.592000   7.037547
    38  H    5.621688   6.200216   5.747432   5.045823   6.997201
    39  O    7.266587   7.965635   7.417217   6.627709   8.310837
    40  H    7.905301   8.517278   8.074678   7.319708   8.999083
    41  C    5.211161   6.153202   5.234055   4.379500   6.186628
    42  H    6.256601   7.200025   6.169929   5.263039   7.257428
    43  H    4.642142   5.559368   4.450758   3.538292   6.000849
    44  O    5.044673   6.084057   5.131471   4.353408   5.612170
    45  H    4.262281   5.289167   4.539682   3.884604   4.658668
                    6          7          8          9         10
     6  H    0.000000
     7  O    2.068604   0.000000
     8  C    3.345862   2.451797   0.000000
     9  H    3.938043   2.602973   1.100933   0.000000
    10  O    4.475946   3.718779   1.430864   2.073398   0.000000
    11  H    4.407510   4.076697   1.976261   2.872002   0.969927
    12  C    2.790566   2.845326   1.530756   2.199753   2.471900
    13  H    2.584448   3.220888   2.150589   3.086780   2.730530
    14  O    4.109838   4.273218   2.587861   2.986503   3.020375
    15  C    2.177845   2.451745   2.540215   2.788197   3.821850
    16  H    3.093567   2.783401   2.834617   2.642310   4.146870
    17  O    2.663503   3.706046   3.778659   4.129942   4.879980
    18  H    3.492749   4.366769   3.880438   4.218260   4.794773
    19  C    2.151814   2.408738   4.316428   4.374737   5.706440
    20  H    2.529101   3.371858   4.978255   5.104798   6.340894
    21  H    3.078853   2.656472   4.469946   4.250816   5.897429
    22  O    2.626630   2.834347   5.140332   5.262341   6.449854
    23  H    2.768966   2.358418   4.797744   4.874127   6.050123
    24  C    5.268092   4.954075   3.006640   2.964319   3.202085
    25  H    5.713718   5.499666   3.875978   3.694744   4.260546
    26  C    6.734903   5.694147   3.846822   3.186534   3.853621
    27  H    7.163122   6.236427   4.603321   3.912523   4.795203
    28  O    5.350704   4.495460   2.577687   2.094040   2.833257
    29  C    6.386008   6.167276   3.917132   4.053305   3.521741
    30  H    6.195657   5.973003   3.591948   3.933841   2.857868
    31  O    6.907548   7.072327   4.971830   5.250626   4.641472
    32  H    6.816119   7.072791   5.188692   5.387533   5.121281
    33  C    7.670282   7.155723   4.887992   4.749263   4.385737
    34  H    8.176838   7.725028   5.607500   5.378295   5.300490
    35  O    8.693392   8.240194   5.854733   5.848286   5.060471
    36  H    8.888823   8.656133   6.293505   6.395202   5.540842
    37  C    7.634689   6.719270   4.539864   4.139423   4.054016
    38  H    7.512620   6.524545   4.252569   3.967674   3.486069
    39  O    8.970965   7.932488   5.860610   5.337993   5.375692
    40  H    9.586636   8.662557   6.468731   6.068261   5.829683
    41  C    7.027673   5.583341   4.105846   3.189653   4.197413
    42  H    8.113725   6.627179   5.175753   4.269151   5.154570
    43  H    6.762332   5.202406   3.673881   2.830852   3.585399
    44  O    6.583030   5.044163   4.180504   3.109582   4.717672
    45  H    5.634301   4.180709   3.410212   2.349192   4.158328
                   11         12         13         14         15
    11  H    0.000000
    12  C    2.534933   0.000000
    13  H    2.395937   1.100030   0.000000
    14  O    3.019757   1.496523   2.020049   0.000000
    15  C    3.995415   1.533266   2.149741   2.460414   0.000000
    16  H    4.529343   2.166744   3.061827   2.740776   1.100798
    17  O    4.849676   2.409244   2.610287   2.757342   1.433807
    18  H    4.733765   2.408205   2.660318   2.174420   1.944552
    19  C    5.936917   3.875271   4.195976   4.999041   2.539299
    20  H    6.475110   4.222880   4.448740   5.140883   2.778740
    21  H    6.287594   4.203657   4.761630   5.215676   2.848027
    22  O    6.643187   4.929688   5.079406   6.204694   3.793229
    23  H    6.312390   4.882253   5.074938   6.253695   3.947345
    24  C    3.497561   2.550324   3.308223   1.447747   3.398483
    25  H    4.559167   3.215099   4.004800   2.029252   3.652085
    26  C    4.567292   4.240530   5.168332   3.700381   4.911156
    27  H    5.454555   4.730578   5.700688   4.015729   5.161724
    28  O    3.482744   2.808896   3.756249   2.402560   3.559145
    29  C    3.603708   3.612273   4.047685   2.408041   4.750845
    30  H    2.785058   3.499336   3.736382   2.604934   4.867681
    31  O    4.488216   4.298692   4.507757   2.891134   5.323219
    32  H    5.029669   4.318405   4.613529   2.825529   5.085304
    33  C    4.665175   4.883410   5.453150   3.783140   5.927781
    34  H    5.593876   5.427977   6.059116   4.194924   6.273432
    35  O    5.187806   5.920424   6.312474   4.842441   7.117318
    36  H    5.525555   6.141477   6.428276   4.929927   7.323760
    37  C    4.611404   4.962083   5.690155   4.232120   5.941667
    38  H    4.040989   4.920206   5.538667   4.411737   6.063349
    39  O    5.968165   6.339942   7.103351   5.591289   7.223293
    40  H    6.306930   6.882959   7.548695   6.025454   7.871512
    41  C    5.085979   4.899603   5.872344   4.776313   5.412466
    42  H    6.030232   5.971886   6.934903   5.751798   6.476612
    43  H    4.518187   4.753083   5.629891   4.863806   5.420248
    44  O    5.621791   4.863856   5.923918   4.952921   4.962659
    45  H    5.018086   3.985551   5.059239   4.190769   3.995563
                   16         17         18         19         20
    16  H    0.000000
    17  O    2.060305   0.000000
    18  H    2.360592   0.998240   0.000000
    19  C    2.746457   3.020115   3.955933   0.000000
    20  H    3.037649   2.702260   3.660158   1.094674   0.000000
    21  H    2.611810   3.500936   4.313963   1.100423   1.790124
    22  O    4.097800   4.283089   5.253370   1.432348   2.052477
    23  H    4.213747   4.716045   5.634235   1.937194   2.836726
    24  C    3.228203   3.886955   3.258459   5.839568   6.074801
    25  H    3.280028   3.886153   3.151946   5.985471   6.081634
    26  C    4.355586   5.775105   5.336809   6.909252   7.381891
    27  H    4.463012   5.850884   5.343959   7.108919   7.467584
    28  O    3.164590   4.459502   4.081182   5.704653   6.157239
    29  C    4.742848   5.112241   4.379544   7.252003   7.474775
    30  H    5.040146   5.343065   4.722431   7.326252   7.631611
    31  O    5.428680   5.302700   4.421189   7.856766   7.894932
    32  H    5.104766   4.890739   3.941507   7.564610   7.498788
    33  C    5.704135   6.402935   5.679226   8.332628   8.622131
    34  H    5.932991   6.604049   5.810492   8.648094   8.845590
    35  O    7.010705   7.553525   6.805868   9.561838   9.859208
    36  H    7.289457   7.580340   6.759967   9.830241  10.030368
    37  C    5.578520   6.715105   6.162455   8.124823   8.582171
    38  H    5.836080   6.950788   6.480539   8.197543   8.743320
    39  O    6.744834   7.992810   7.423842   9.307054   9.776172
    40  H    7.474135   8.558766   7.923010  10.063285  10.496866
    41  C    4.762996   6.508866   6.271467   6.985415   7.629249
    42  H    5.780917   7.535558   7.256696   7.998287   8.637554
    43  H    4.933243   6.637510   6.486096   6.922290   7.667770
    44  O    4.129569   6.083319   5.997744   6.135371   6.788537
    45  H    3.170371   5.139582   5.109658   5.214246   5.854066
                   21         22         23         24         25
    21  H    0.000000
    22  O    2.046084   0.000000
    23  H    2.306944   0.980140   0.000000
    24  C    5.806390   7.089200   7.047317   0.000000
    25  H    5.859310   7.332511   7.398182   1.095727   0.000000
    26  C    6.548076   8.057579   7.808382   2.383556   2.668694
    27  H    6.666179   8.347775   8.196506   2.650244   2.462160
    28  O    5.495000   6.862392   6.661090   1.380385   2.020758
    29  C    7.302955   8.443193   8.363923   1.562573   2.180997
    30  H    7.476588   8.396895   8.241377   2.180883   3.070945
    31  O    8.010629   9.089593   9.138656   2.509378   2.702984
    32  H    7.680228   8.866867   9.003767   2.483842   2.282524
    33  C    8.222340   9.534412   9.386580   2.556223   2.877947
    34  H    8.471019   9.928394   9.855509   2.911201   2.809157
    35  O    9.522540  10.711954  10.530444   3.819480   4.219564
    36  H    9.859404  11.012808  10.904728   4.064573   4.359029
    37  C    7.881447   9.241446   8.964436   2.915557   3.365250
    38  H    8.027223   9.200658   8.837004   3.318768   4.028991
    39  O    8.956658  10.425416  10.123349   4.211175   4.444923
    40  H    9.775897  11.191108  10.902805   4.689314   4.937774
    41  C    6.479240   7.975956   7.582669   3.670925   4.002820
    42  H    7.428900   8.976182   8.565887   4.538557   4.765519
    43  H    6.505572   7.777794   7.280176   3.952201   4.529659
    44  O    5.467324   7.112189   6.753276   4.055799   4.188256
    45  H    4.604672   6.239386   5.928102   3.493914   3.664846
                   26         27         28         29         30
    26  C    0.000000
    27  H    1.100545   0.000000
    28  O    1.432227   2.066258   0.000000
    29  C    2.880809   3.254072   2.429963   0.000000
    30  H    3.370021   4.004939   2.779521   1.096070   0.000000
    31  O    4.164126   4.289183   3.699845   1.438657   2.030075
    32  H    4.276589   4.177394   3.782759   1.984912   2.801432
    33  C    2.477185   2.750469   2.851045   1.535536   2.159747
    34  H    2.792865   2.617594   3.326100   2.172843   3.060116
    35  O    3.737575   4.088013   4.142848   2.444961   2.618059
    36  H    4.434365   4.661467   4.670451   2.578312   2.816196
    37  C    1.526787   2.179193   2.429190   2.527106   2.849734
    38  H    2.174168   3.090553   2.723405   2.824078   2.710537
    39  O    2.415924   2.680823   3.671679   3.776687   4.158075
    40  H    3.248644   3.488953   4.365222   3.933829   4.254457
    41  C    1.533525   2.145928   2.381787   4.292575   4.566565
    42  H    2.191119   2.532757   3.352037   4.964671   5.283188
    43  H    2.180816   3.066034   2.617707   4.476278   4.484500
    44  O    2.423498   2.614615   2.797091   5.080035   5.442714
    45  H    2.462110   2.708275   2.305094   4.711208   5.049506
                   31         32         33         34         35
    31  O    0.000000
    32  H    0.990741   0.000000
    33  C    2.410947   2.873262   0.000000
    34  H    2.604956   2.743564   1.093531   0.000000
    35  O    2.883448   3.594373   1.437426   2.026033   0.000000
    36  H    2.480953   3.202206   1.966637   2.263713   0.987100
    37  C    3.769250   4.166343   1.525301   2.164675   2.404302
    38  H    4.140394   4.711617   2.154609   3.059653   2.607109
    39  O    4.823275   5.165766   2.419286   2.623625   2.853611
    40  H    4.792554   5.232513   2.452109   2.642387   2.370010
    41  C    5.643922   5.782381   3.859882   4.220812   4.935158
    42  H    6.269523   6.419391   4.217419   4.458651   5.140585
    43  H    5.900758   6.176195   4.197913   4.788804   5.112425
    44  O    6.340890   6.294067   4.900229   5.109938   6.130631
    45  H    5.924853   5.837049   4.827435   5.084819   6.125216
                   36         37         38         39         40
    36  H    0.000000
    37  C    3.254586   0.000000
    38  H    3.516907   1.094665   0.000000
    39  O    3.734771   1.422886   2.040937   0.000000
    40  H    3.222117   1.963407   2.397378   0.988813   0.000000
    41  C    5.750037   2.535739   2.768035   2.956341   3.911583
    42  H    6.009161   2.799096   3.099132   2.656593   3.617973
    43  H    5.966675   2.833893   2.624651   3.409436   4.263387
    44  O    6.856505   3.784285   4.103206   4.238105   5.213744
    45  H    6.768972   3.914996   4.198665   4.651268   5.582868
                   41         42         43         44         45
    41  C    0.000000
    42  H    1.091819   0.000000
    43  H    1.095025   1.784148   0.000000
    44  O    1.433142   2.049207   2.042113   0.000000
    45  H    1.941958   2.831040   2.336517   0.974007   0.000000
 Stoichiometry    C12H22O11
 Framework group  C1[X(C12H22O11)]
 Deg. of freedom   129
 Full point group                 C1      NOp   1
 Largest Abelian subgroup         C1      NOp   1
 Largest concise Abelian subgroup C1      NOp   1
                         Standard orientation:                         
 ---------------------------------------------------------------------
 Center     Atomic      Atomic             Coordinates (Angstroms)
 Number     Number       Type             X           Y           Z
 ---------------------------------------------------------------------
      1          6           0        2.389286    0.765575    1.576643
      2          1           0        2.765996    0.067431    2.334796
      3          8           0        2.364687    2.037376    2.196464
      4          1           0        1.588533    2.548930    1.849985
      5          6           0        3.522794   -0.456053   -0.139010
      6          1           0        3.954643   -1.131199    0.615903
      7          8           0        3.306552    0.828345    0.477023
      8          6           0        0.981300    0.332504    1.075900
      9          1           0        0.721922    1.099471    0.329885
     10          8           0        0.007731    0.345415    2.124408
     11          1           0        0.117665   -0.446352    2.673749
     12          6           0        1.170272   -1.050847    0.448330
     13          1           0        1.519603   -1.744082    1.227727
     14          8           0       -0.053441   -1.760874   -0.039494
     15          6           0        2.207573   -1.032598   -0.680643
     16          1           0        1.829568   -0.428403   -1.519580
     17          8           0        2.394987   -2.374670   -1.149175
     18          1           0        1.471957   -2.744556   -1.236837
     19          6           0        4.559376   -0.271373   -1.261676
     20          1           0        4.751882   -1.214599   -1.782807
     21          1           0        4.230688    0.485418   -1.989800
     22          8           0        5.799170    0.187295   -0.710173
     23          1           0        5.568225    0.975396   -0.175163
     24          6           0       -1.187132   -1.001602   -0.523458
     25          1           0       -1.324649   -1.327191   -1.560617
     26          6           0       -2.201572    1.115141   -0.937764
     27          1           0       -2.426317    0.834832   -1.978012
     28          8           0       -1.057527    0.372500   -0.500823
     29          6           0       -2.415815   -1.466428    0.322657
     30          1           0       -2.189903   -1.325644    1.385912
     31          8           0       -2.716994   -2.865125    0.172085
     32          1           0       -2.415292   -3.150915   -0.727285
     33          6           0       -3.673424   -0.661848   -0.036427
     34          1           0       -4.056762   -0.971182   -1.012734
     35          8           0       -4.731966   -0.934195    0.897119
     36          1           0       -4.896618   -1.907076    0.869588
     37          6           0       -3.393901    0.837581   -0.025409
     38          1           0       -3.188399    1.164388    0.998923
     39          8           0       -4.533798    1.554249   -0.485439
     40          1           0       -5.332809    1.143134   -0.072745
     41          6           0       -1.801584    2.595502   -0.922191
     42          1           0       -2.624105    3.245588   -1.227016
     43          1           0       -1.449496    2.896988    0.069887
     44          8           0       -0.716496    2.807646   -1.834044
     45          1           0       -0.062594    2.112600   -1.639075
 ---------------------------------------------------------------------
 Rotational constants (GHZ):           0.4270489           0.1497452           0.1343695
 Leave Link  202 at Fri Apr 14 15:52:35 2023, MaxMem=   524288000 cpu:               0.0 elap:               0.0
 (Enter /dragofs/sw/campus/0.2/software/gaussian/16.gaussian/gaussian/g16_legacy/l301.exe)
 Standard basis: 6-311G(d,p) (5D, 7F)
 Ernie: Thresh=  0.10000D-02 Tol=  0.10000D-05 Strict=F.
 There are   569 symmetry adapted cartesian basis functions of A   symmetry.
 There are   546 symmetry adapted basis functions of A   symmetry.
   546 basis functions,   912 primitive gaussians,   569 cartesian basis functions
    91 alpha electrons       91 beta electrons
       nuclear repulsion energy      2326.6505116181 Hartrees.
 IExCor= 4336 DFT=T Ex+Corr=M062X ExCW=0 ScaHFX=  0.540000
 ScaDFX=  1.000000  1.000000  1.000000  1.000000 ScalE2=  1.000000  1.000000
 IRadAn=      5 IRanWt=     -1 IRanGd=            0 ICorTp=0 IEmpDi=  4
 NAtoms=   45 NActive=   45 NUniq=   45 SFac= 1.00D+00 NAtFMM=   60 NAOKFM=F Big=F
 Integral buffers will be    131072 words long.
 Raffenetti 2 integral format.
 Two-electron integral symmetry is turned on.
 Leave Link  301 at Fri Apr 14 15:52:35 2023, MaxMem=   524288000 cpu:               0.4 elap:               0.1
 (Enter /dragofs/sw/campus/0.2/software/gaussian/16.gaussian/gaussian/g16_legacy/l302.exe)
 NPDir=0 NMtPBC=     1 NCelOv=     1 NCel=       1 NClECP=     1 NCelD=      1
         NCelK=      1 NCelE2=     1 NClLst=     1 CellRange=     0.0.
 One-electron integrals computed using PRISM.
 One-electron integral symmetry used in STVInt
 NBasis=   546 RedAO= T EigKep=  8.50D-04  NBF=   546
 NBsUse=   546 1.00D-06 EigRej= -1.00D+00 NBFU=   546
 Precomputing XC quadrature grid using
 IXCGrd= 4 IRadAn=           5 IRanWt=          -1 IRanGd=           0 AccXCQ= 0.00D+00.
 Generated NRdTot=       0 NPtTot=           0 NUsed=           0 NTot=          32
 NSgBfM=   561   556   556   557   561 MxSgAt=    45 MxSgA2=    45.
 Leave Link  302 at Fri Apr 14 15:52:36 2023, MaxMem=   524288000 cpu:               6.1 elap:               0.8
 (Enter /dragofs/sw/campus/0.2/software/gaussian/16.gaussian/gaussian/g16_legacy/l303.exe)
 DipDrv:  MaxL=1.
 Leave Link  303 at Fri Apr 14 15:52:36 2023, MaxMem=   524288000 cpu:               0.5 elap:               0.1
 (Enter /dragofs/sw/campus/0.2/software/gaussian/16.gaussian/gaussian/g16_legacy/l401.exe)
 ExpMin= 1.03D-01 ExpMax= 8.59D+03 ExpMxC= 1.30D+03 IAcc=3 IRadAn=         5 AccDes= 0.00D+00
 Harris functional with IExCor= 1009 and IRadAn=       5 diagonalized for initial guess.
 HarFok:  IExCor= 1009 AccDes= 0.00D+00 IRadAn=         5 IDoV= 1 UseB2=F ITyADJ=14
 ICtDFT=  3500011 ScaDFX=  1.000000  1.000000  1.000000  1.000000
 FoFCou: FMM=F IPFlag=           0 FMFlag=      100000 FMFlg1=           0
         NFxFlg=           0 DoJE=T BraDBF=F KetDBF=T FulRan=T
         wScrn=  0.000000 ICntrl=       500 IOpCl=  0 I1Cent=   200000004 NGrid=           0
         NMat0=    1 NMatS0=      1 NMatT0=    0 NMatD0=    1 NMtDS0=    0 NMtDT0=    0
 Petite list used in FoFCou.
 Harris En= -1297.08025141619    
 JPrj=0 DoOrth=F DoCkMO=F.
 Leave Link  401 at Fri Apr 14 15:52:41 2023, MaxMem=   524288000 cpu:              36.9 elap:               4.7
 (Enter /dragofs/sw/campus/0.2/software/gaussian/16.gaussian/gaussian/g16_legacy/l502.exe)
 Integral symmetry usage will be decided dynamically.
 Closed shell SCF:
 Using DIIS extrapolation, IDIIS=  1040.
 NGot=   524288000 LenX=   523630196 LenY=   523305866
 Requested convergence on RMS density matrix=1.00D-08 within 128 cycles.
 Requested convergence on MAX density matrix=1.00D-06.
 Requested convergence on             energy=1.00D-06.
 No special actions if energy rises.
 Fock matrices will be formed incrementally for  20 cycles.
 Integral accuracy reduced to 1.0D-05 until final iterations.

 Cycle   1  Pass 0  IDiag  1:
 FoFJK:  IHMeth= 1 ICntrl=       0 DoSepK=F KAlg= 0 I1Cent=           0 FoldK=F
 IRaf= 750000000 NMat=       1 IRICut=       1 DoRegI=T DoRafI=F ISym2E= 0 IDoP0=0 IntGTp=1.
 FoFCou: FMM=F IPFlag=           0 FMFlag=      100000 FMFlg1=           0
         NFxFlg=           0 DoJE=F BraDBF=F KetDBF=F FulRan=T
         wScrn=  0.000000 ICntrl=         0 IOpCl=  0 I1Cent=           0 NGrid=           0
         NMat0=    1 NMatS0=      1 NMatT0=    0 NMatD0=    1 NMtDS0=    0 NMtDT0=    0
 Symmetry not used in FoFCou.
 E= -1297.29088327045    
 DIIS: error= 2.17D-02 at cycle   1 NSaved=   1.
 NSaved= 1 IEnMin= 1 EnMin= -1297.29088327045     IErMin= 1 ErrMin= 2.17D-02
 ErrMax= 2.17D-02  0.00D+00 EMaxC= 1.00D-01 BMatC= 8.41D-01 BMatP= 8.41D-01
 IDIUse=3 WtCom= 7.83D-01 WtEn= 2.17D-01
 Coeff-Com:  0.100D+01
 Coeff-En:   0.100D+01
 Coeff:      0.100D+01
 Gap=     0.402 Goal=   None    Shift=    0.000
 GapD=    0.402 DampG=2.000 DampE=0.500 DampFc=1.0000 IDamp=-1.
 RMSDP=2.51D-03 MaxDP=1.91D-01              OVMax= 1.08D-01

 Cycle   2  Pass 0  IDiag  1:
 RMSU=  2.50D-03    CP:  1.02D+00
 E= -1297.34846308974     Delta-E=       -0.057579819284 Rises=F Damp=F
 DIIS: error= 2.34D-02 at cycle   2 NSaved=   2.
 NSaved= 2 IEnMin= 2 EnMin= -1297.34846308974     IErMin= 1 ErrMin= 2.17D-02
 ErrMax= 2.34D-02  0.00D+00 EMaxC= 1.00D-01 BMatC= 6.39D-01 BMatP= 8.41D-01
 IDIUse=3 WtCom= 7.66D-01 WtEn= 2.34D-01
 Coeff-Com:  0.462D+00 0.538D+00
 Coeff-En:   0.465D+00 0.535D+00
 Coeff:      0.463D+00 0.537D+00
 Gap=     0.394 Goal=   None    Shift=    0.000
 RMSDP=1.42D-03 MaxDP=1.01D-01 DE=-5.76D-02 OVMax= 5.81D-02

 Cycle   3  Pass 0  IDiag  1:
 RMSU=  4.61D-04    CP:  1.01D+00  4.64D-01
 E= -1297.75915422054     Delta-E=       -0.410691130809 Rises=F Damp=F
 DIIS: error= 3.96D-03 at cycle   3 NSaved=   3.
 NSaved= 3 IEnMin= 3 EnMin= -1297.75915422054     IErMin= 3 ErrMin= 3.96D-03
 ErrMax= 3.96D-03  0.00D+00 EMaxC= 1.00D-01 BMatC= 2.45D-02 BMatP= 6.39D-01
 IDIUse=3 WtCom= 9.60D-01 WtEn= 3.96D-02
 Coeff-Com:  0.707D-01 0.190D+00 0.740D+00
 Coeff-En:   0.000D+00 0.000D+00 0.100D+01
 Coeff:      0.679D-01 0.182D+00 0.750D+00
 Gap=     0.376 Goal=   None    Shift=    0.000
 RMSDP=2.72D-04 MaxDP=1.01D-02 DE=-4.11D-01 OVMax= 1.41D-02

 Cycle   4  Pass 0  IDiag  1:
 RMSU=  1.94D-04    CP:  1.01D+00  5.15D-01  6.97D-01
 E= -1297.77360256716     Delta-E=       -0.014448346611 Rises=F Damp=F
 DIIS: error= 1.36D-03 at cycle   4 NSaved=   4.
 NSaved= 4 IEnMin= 4 EnMin= -1297.77360256716     IErMin= 4 ErrMin= 1.36D-03
 ErrMax= 1.36D-03  0.00D+00 EMaxC= 1.00D-01 BMatC= 3.16D-03 BMatP= 2.45D-02
 IDIUse=3 WtCom= 9.86D-01 WtEn= 1.36D-02
 Coeff-Com:  0.383D-02 0.489D-01 0.351D+00 0.597D+00
 Coeff-En:   0.000D+00 0.000D+00 0.666D-01 0.933D+00
 Coeff:      0.378D-02 0.482D-01 0.347D+00 0.601D+00
 Gap=     0.368 Goal=   None    Shift=    0.000
 RMSDP=1.06D-04 MaxDP=3.99D-03 DE=-1.44D-02 OVMax= 5.18D-03

 Cycle   5  Pass 0  IDiag  1:
 RMSU=  4.21D-05    CP:  1.01D+00  5.08D-01  7.96D-01  5.67D-01
 E= -1297.77635314388     Delta-E=       -0.002750576726 Rises=F Damp=F
 DIIS: error= 2.63D-04 at cycle   5 NSaved=   5.
 NSaved= 5 IEnMin= 5 EnMin= -1297.77635314388     IErMin= 5 ErrMin= 2.63D-04
 ErrMax= 2.63D-04  0.00D+00 EMaxC= 1.00D-01 BMatC= 7.89D-05 BMatP= 3.16D-03
 IDIUse=3 WtCom= 9.97D-01 WtEn= 2.63D-03
 Coeff-Com: -0.177D-02 0.920D-02 0.878D-01 0.212D+00 0.693D+00
 Coeff-En:   0.000D+00 0.000D+00 0.000D+00 0.000D+00 0.100D+01
 Coeff:     -0.177D-02 0.918D-02 0.876D-01 0.211D+00 0.694D+00
 Gap=     0.367 Goal=   None    Shift=    0.000
 RMSDP=2.05D-05 MaxDP=1.14D-03 DE=-2.75D-03 OVMax= 1.07D-03

 Cycle   6  Pass 0  IDiag  1:
 RMSU=  1.37D-05    CP:  1.01D+00  5.10D-01  8.00D-01  6.16D-01  7.35D-01
 E= -1297.77640144821     Delta-E=       -0.000048304331 Rises=F Damp=F
 DIIS: error= 1.23D-04 at cycle   6 NSaved=   6.
 NSaved= 6 IEnMin= 6 EnMin= -1297.77640144821     IErMin= 6 ErrMin= 1.23D-04
 ErrMax= 1.23D-04  0.00D+00 EMaxC= 1.00D-01 BMatC= 1.62D-05 BMatP= 7.89D-05
 IDIUse=3 WtCom= 9.99D-01 WtEn= 1.23D-03
 Coeff-Com: -0.131D-02 0.482D-03 0.146D-01 0.590D-01 0.358D+00 0.569D+00
 Coeff-En:   0.000D+00 0.000D+00 0.000D+00 0.000D+00 0.592D-01 0.941D+00
 Coeff:     -0.131D-02 0.481D-03 0.146D-01 0.589D-01 0.357D+00 0.570D+00
 Gap=     0.367 Goal=   None    Shift=    0.000
 RMSDP=6.42D-06 MaxDP=5.00D-04 DE=-4.83D-05 OVMax= 4.37D-04

 Initial convergence to 1.0D-05 achieved.  Increase integral accuracy.
 Cycle   7  Pass 1  IDiag  1:
 E= -1297.77637566602     Delta-E=        0.000025782188 Rises=F Damp=F
 DIIS: error= 3.12D-05 at cycle   1 NSaved=   1.
 NSaved= 1 IEnMin= 1 EnMin= -1297.77637566602     IErMin= 1 ErrMin= 3.12D-05
 ErrMax= 3.12D-05  0.00D+00 EMaxC= 1.00D-01 BMatC= 1.12D-06 BMatP= 1.12D-06
 IDIUse=1 WtCom= 1.00D+00 WtEn= 0.00D+00
 Coeff-Com:  0.100D+01
 Coeff:      0.100D+01
 Gap=     0.367 Goal=   None    Shift=    0.000
 RMSDP=6.42D-06 MaxDP=5.00D-04 DE= 2.58D-05 OVMax= 1.51D-04

 Cycle   8  Pass 1  IDiag  1:
 RMSU=  1.27D-05    CP:  1.00D+00
 E= -1297.77637634860     Delta-E=       -0.000000682576 Rises=F Damp=F
 DIIS: error= 2.47D-05 at cycle   2 NSaved=   2.
 NSaved= 2 IEnMin= 2 EnMin= -1297.77637634860     IErMin= 2 ErrMin= 2.47D-05
 ErrMax= 2.47D-05  0.00D+00 EMaxC= 1.00D-01 BMatC= 5.89D-07 BMatP= 1.12D-06
 IDIUse=1 WtCom= 1.00D+00 WtEn= 0.00D+00
 Coeff-Com:  0.394D+00 0.606D+00
 Coeff:      0.394D+00 0.606D+00
 Gap=     0.367 Goal=   None    Shift=    0.000
 RMSDP=1.48D-06 MaxDP=1.21D-04 DE=-6.83D-07 OVMax= 9.87D-05

 Cycle   9  Pass 1  IDiag  1:
 RMSU=  1.47D-06    CP:  1.00D+00  1.01D+00
 E= -1297.77637668369     Delta-E=       -0.000000335091 Rises=F Damp=F
 DIIS: error= 1.17D-05 at cycle   3 NSaved=   3.
 NSaved= 3 IEnMin= 3 EnMin= -1297.77637668369     IErMin= 3 ErrMin= 1.17D-05
 ErrMax= 1.17D-05  0.00D+00 EMaxC= 1.00D-01 BMatC= 1.05D-07 BMatP= 5.89D-07
 IDIUse=1 WtCom= 1.00D+00 WtEn= 0.00D+00
 Coeff-Com: -0.168D-01 0.288D+00 0.729D+00
 Coeff:     -0.168D-01 0.288D+00 0.729D+00
 Gap=     0.367 Goal=   None    Shift=    0.000
 RMSDP=5.84D-07 MaxDP=4.09D-05 DE=-3.35D-07 OVMax= 3.31D-05

 Cycle  10  Pass 1  IDiag  1:
 RMSU=  3.27D-07    CP:  1.00D+00  1.03D+00  7.18D-01
 E= -1297.77637675448     Delta-E=       -0.000000070785 Rises=F Damp=F
 DIIS: error= 1.25D-06 at cycle   4 NSaved=   4.
 NSaved= 4 IEnMin= 4 EnMin= -1297.77637675448     IErMin= 4 ErrMin= 1.25D-06
 ErrMax= 1.25D-06  0.00D+00 EMaxC= 1.00D-01 BMatC= 3.32D-09 BMatP= 1.05D-07
 IDIUse=1 WtCom= 1.00D+00 WtEn= 0.00D+00
 Coeff-Com: -0.174D-01 0.104D+00 0.309D+00 0.604D+00
 Coeff:     -0.174D-01 0.104D+00 0.309D+00 0.604D+00
 Gap=     0.367 Goal=   None    Shift=    0.000
 RMSDP=1.26D-07 MaxDP=5.74D-06 DE=-7.08D-08 OVMax= 6.53D-06

 Cycle  11  Pass 1  IDiag  1:
 RMSU=  1.06D-07    CP:  1.00D+00  1.03D+00  7.46D-01  8.41D-01
 E= -1297.77637675745     Delta-E=       -0.000000002978 Rises=F Damp=F
 DIIS: error= 3.63D-07 at cycle   5 NSaved=   5.
 NSaved= 5 IEnMin= 5 EnMin= -1297.77637675745     IErMin= 5 ErrMin= 3.63D-07
 ErrMax= 3.63D-07  0.00D+00 EMaxC= 1.00D-01 BMatC= 1.99D-10 BMatP= 3.32D-09
 IDIUse=1 WtCom= 1.00D+00 WtEn= 0.00D+00
 Coeff-Com: -0.244D-02-0.602D-02-0.352D-02 0.168D+00 0.844D+00
 Coeff:     -0.244D-02-0.602D-02-0.352D-02 0.168D+00 0.844D+00
 Gap=     0.367 Goal=   None    Shift=    0.000
 RMSDP=3.40D-08 MaxDP=1.28D-06 DE=-2.98D-09 OVMax= 2.01D-06

 Cycle  12  Pass 1  IDiag  1:
 RMSU=  2.54D-08    CP:  1.00D+00  1.03D+00  7.49D-01  9.06D-01  1.06D+00
 E= -1297.77637675760     Delta-E=       -0.000000000142 Rises=F Damp=F
 DIIS: error= 1.89D-07 at cycle   6 NSaved=   6.
 NSaved= 6 IEnMin= 6 EnMin= -1297.77637675760     IErMin= 6 ErrMin= 1.89D-07
 ErrMax= 1.89D-07  0.00D+00 EMaxC= 1.00D-01 BMatC= 4.03D-11 BMatP= 1.99D-10
 IDIUse=1 WtCom= 1.00D+00 WtEn= 0.00D+00
 Coeff-Com:  0.708D-03-0.140D-01-0.353D-01 0.133D-01 0.382D+00 0.653D+00
 Coeff:      0.708D-03-0.140D-01-0.353D-01 0.133D-01 0.382D+00 0.653D+00
 Gap=     0.367 Goal=   None    Shift=    0.000
 RMSDP=1.45D-08 MaxDP=6.24D-07 DE=-1.42D-10 OVMax= 7.32D-07

 Cycle  13  Pass 1  IDiag  1:
 RMSU=  9.95D-09    CP:  1.00D+00  1.03D+00  7.49D-01  9.27D-01  1.12D+00
                    CP:  8.46D-01
 E= -1297.77637675752     Delta-E=        0.000000000072 Rises=F Damp=F
 DIIS: error= 3.44D-08 at cycle   7 NSaved=   7.
 NSaved= 7 IEnMin= 6 EnMin= -1297.77637675760     IErMin= 7 ErrMin= 3.44D-08
 ErrMax= 3.44D-08  0.00D+00 EMaxC= 1.00D-01 BMatC= 2.94D-12 BMatP= 4.03D-11
 IDIUse=1 WtCom= 1.00D+00 WtEn= 0.00D+00
 Coeff-Com:  0.542D-03-0.542D-02-0.149D-01-0.100D-01 0.842D-01 0.266D+00
 Coeff-Com:  0.680D+00
 Coeff:      0.542D-03-0.542D-02-0.149D-01-0.100D-01 0.842D-01 0.266D+00
 Coeff:      0.680D+00
 Gap=     0.367 Goal=   None    Shift=    0.000
 RMSDP=3.40D-09 MaxDP=1.68D-07 DE= 7.19D-11 OVMax= 2.07D-07

 SCF Done:  E(RM062X) =  -1297.77637676     A.U. after   13 cycles
            NFock= 13  Conv=0.34D-08     -V/T= 2.0037
 KE= 1.292941787746D+03 PE=-7.699605487261D+03 EE= 2.782236811139D+03
 Leave Link  502 at Fri Apr 14 15:55:45 2023, MaxMem=   524288000 cpu:            1463.3 elap:             183.6
 (Enter /dragofs/sw/campus/0.2/software/gaussian/16.gaussian/gaussian/g16_legacy/l601.exe)
 Copying SCF densities to generalized density rwf, IOpCl= 0 IROHF=0.

 **********************************************************************

            Population analysis using the SCF density.

 **********************************************************************

 Orbital symmetries:
       Occupied  (A) (A) (A) (A) (A) (A) (A) (A) (A) (A) (A) (A)
                 (A) (A) (A) (A) (A) (A) (A) (A) (A) (A) (A) (A)
                 (A) (A) (A) (A) (A) (A) (A) (A) (A) (A) (A) (A)
                 (A) (A) (A) (A) (A) (A) (A) (A) (A) (A) (A) (A)
                 (A) (A) (A) (A) (A) (A) (A) (A) (A) (A) (A) (A)
                 (A) (A) (A) (A) (A) (A) (A) (A) (A) (A) (A) (A)
                 (A) (A) (A) (A) (A) (A) (A) (A) (A) (A) (A) (A)
                 (A) (A) (A) (A) (A) (A) (A)
       Virtual   (A) (A) (A) (A) (A) (A) (A) (A) (A) (A) (A) (A)
                 (A) (A) (A) (A) (A) (A) (A) (A) (A) (A) (A) (A)
                 (A) (A) (A) (A) (A) (A) (A) (A) (A) (A) (A) (A)
                 (A) (A) (A) (A) (A) (A) (A) (A) (A) (A) (A) (A)
                 (A) (A) (A) (A) (A) (A) (A) (A) (A) (A) (A) (A)
                 (A) (A) (A) (A) (A) (A) (A) (A) (A) (A) (A) (A)
                 (A) (A) (A) (A) (A) (A) (A) (A) (A) (A) (A) (A)
                 (A) (A) (A) (A) (A) (A) (A) (A) (A) (A) (A) (A)
                 (A) (A) (A) (A) (A) (A) (A) (A) (A) (A) (A) (A)
                 (A) (A) (A) (A) (A) (A) (A) (A) (A) (A) (A) (A)
                 (A) (A) (A) (A) (A) (A) (A) (A) (A) (A) (A) (A)
                 (A) (A) (A) (A) (A) (A) (A) (A) (A) (A) (A) (A)
                 (A) (A) (A) (A) (A) (A) (A) (A) (A) (A) (A) (A)
                 (A) (A) (A) (A) (A) (A) (A) (A) (A) (A) (A) (A)
                 (A) (A) (A) (A) (A) (A) (A) (A) (A) (A) (A) (A)
                 (A) (A) (A) (A) (A) (A) (A) (A) (A) (A) (A) (A)
                 (A) (A) (A) (A) (A) (A) (A) (A) (A) (A) (A) (A)
                 (A) (A) (A) (A) (A) (A) (A) (A) (A) (A) (A) (A)
                 (A) (A) (A) (A) (A) (A) (A) (A) (A) (A) (A) (A)
                 (A) (A) (A) (A) (A) (A) (A) (A) (A) (A) (A) (A)
                 (A) (A) (A) (A) (A) (A) (A) (A) (A) (A) (A) (A)
                 (A) (A) (A) (A) (A) (A) (A) (A) (A) (A) (A) (A)
                 (A) (A) (A) (A) (A) (A) (A) (A) (A) (A) (A) (A)
                 (A) (A) (A) (A) (A) (A) (A) (A) (A) (A) (A) (A)
                 (A) (A) (A) (A) (A) (A) (A) (A) (A) (A) (A) (A)
                 (A) (A) (A) (A) (A) (A) (A) (A) (A) (A) (A) (A)
                 (A) (A) (A) (A) (A) (A) (A) (A) (A) (A) (A) (A)
                 (A) (A) (A) (A) (A) (A) (A) (A) (A) (A) (A) (A)
                 (A) (A) (A) (A) (A) (A) (A) (A) (A) (A) (A) (A)
                 (A) (A) (A) (A) (A) (A) (A) (A) (A) (A) (A) (A)
                 (A) (A) (A) (A) (A) (A) (A) (A) (A) (A) (A) (A)
                 (A) (A) (A) (A) (A) (A) (A) (A) (A) (A) (A) (A)
                 (A) (A) (A) (A) (A) (A) (A) (A) (A) (A) (A) (A)
                 (A) (A) (A) (A) (A) (A) (A) (A) (A) (A) (A) (A)
                 (A) (A) (A) (A) (A) (A) (A) (A) (A) (A) (A) (A)
                 (A) (A) (A) (A) (A) (A) (A) (A) (A) (A) (A) (A)
                 (A) (A) (A) (A) (A) (A) (A) (A) (A) (A) (A) (A)
                 (A) (A) (A) (A) (A) (A) (A) (A) (A) (A) (A)
 The electronic state is 1-A.
 Alpha  occ. eigenvalues --  -19.67338 -19.66772 -19.65141 -19.65088 -19.64696
 Alpha  occ. eigenvalues --  -19.63868 -19.63778 -19.63461 -19.63177 -19.62300
 Alpha  occ. eigenvalues --  -19.60776 -10.68431 -10.66215 -10.63248 -10.62553
 Alpha  occ. eigenvalues --  -10.62464 -10.61736 -10.61560 -10.61234 -10.61201
 Alpha  occ. eigenvalues --  -10.61112 -10.60008 -10.58971  -1.23815  -1.20684
 Alpha  occ. eigenvalues --   -1.17617  -1.17481  -1.16866  -1.15889  -1.14774
 Alpha  occ. eigenvalues --   -1.14266  -1.14066  -1.13940  -1.12493  -0.92124
 Alpha  occ. eigenvalues --   -0.90807  -0.88429  -0.87754  -0.80566  -0.78268
 Alpha  occ. eigenvalues --   -0.76081  -0.74564  -0.72958  -0.71922  -0.70176
 Alpha  occ. eigenvalues --   -0.69882  -0.64776  -0.63340  -0.62473  -0.61620
 Alpha  occ. eigenvalues --   -0.61445  -0.61200  -0.59638  -0.58493  -0.58046
 Alpha  occ. eigenvalues --   -0.57936  -0.56393  -0.55544  -0.55260  -0.54589
 Alpha  occ. eigenvalues --   -0.54066  -0.53431  -0.52877  -0.51058  -0.50163
 Alpha  occ. eigenvalues --   -0.49596  -0.49247  -0.48700  -0.48509  -0.47624
 Alpha  occ. eigenvalues --   -0.47222  -0.45642  -0.45358  -0.45065  -0.44305
 Alpha  occ. eigenvalues --   -0.43935  -0.42940  -0.41606  -0.41376  -0.40834
 Alpha  occ. eigenvalues --   -0.40141  -0.39563  -0.38619  -0.38399  -0.37521
 Alpha  occ. eigenvalues --   -0.36823  -0.36072  -0.35599  -0.34757  -0.34536
 Alpha  occ. eigenvalues --   -0.33705
 Alpha virt. eigenvalues --    0.03019   0.03352   0.04333   0.04824   0.06364
 Alpha virt. eigenvalues --    0.07385   0.07975   0.08458   0.09567   0.09746
 Alpha virt. eigenvalues --    0.10863   0.11609   0.12009   0.12917   0.13207
 Alpha virt. eigenvalues --    0.13396   0.13592   0.14050   0.14722   0.15295
 Alpha virt. eigenvalues --    0.16048   0.16796   0.17499   0.17788   0.19439
 Alpha virt. eigenvalues --    0.19798   0.20184   0.20690   0.21404   0.22160
 Alpha virt. eigenvalues --    0.23208   0.23837   0.24598   0.25171   0.25384
 Alpha virt. eigenvalues --    0.26294   0.27640   0.28320   0.29235   0.29701
 Alpha virt. eigenvalues --    0.30504   0.31387   0.32590   0.33602   0.34722
 Alpha virt. eigenvalues --    0.35433   0.37855   0.38381   0.39466   0.40466
 Alpha virt. eigenvalues --    0.41293   0.41515   0.42417   0.42742   0.42923
 Alpha virt. eigenvalues --    0.43416   0.44609   0.44700   0.45448   0.45542
 Alpha virt. eigenvalues --    0.47393   0.47631   0.48111   0.48578   0.49212
 Alpha virt. eigenvalues --    0.50278   0.50802   0.51456   0.52375   0.52796
 Alpha virt. eigenvalues --    0.53441   0.53692   0.54348   0.54991   0.55551
 Alpha virt. eigenvalues --    0.55966   0.56671   0.57958   0.58373   0.58957
 Alpha virt. eigenvalues --    0.59462   0.60030   0.60154   0.60414   0.61612
 Alpha virt. eigenvalues --    0.62205   0.62472   0.62875   0.63139   0.63667
 Alpha virt. eigenvalues --    0.64279   0.64567   0.65373   0.66057   0.66698
 Alpha virt. eigenvalues --    0.67140   0.67412   0.68384   0.68778   0.69569
 Alpha virt. eigenvalues --    0.71684   0.73080   0.74133   0.76919   0.79026
 Alpha virt. eigenvalues --    0.81280   0.82559   0.82776   0.84685   0.85777
 Alpha virt. eigenvalues --    0.88235   0.88361   0.89930   0.90433   0.90717
 Alpha virt. eigenvalues --    0.91451   0.92462   0.92695   0.93764   0.95037
 Alpha virt. eigenvalues --    0.95657   0.95927   0.95987   0.96303   0.98126
 Alpha virt. eigenvalues --    0.99115   0.99535   1.00836   1.01234   1.02082
 Alpha virt. eigenvalues --    1.02748   1.04223   1.05157   1.05513   1.06453
 Alpha virt. eigenvalues --    1.07283   1.09089   1.09775   1.10654   1.10995
 Alpha virt. eigenvalues --    1.12210   1.12670   1.13381   1.14557   1.15442
 Alpha virt. eigenvalues --    1.16395   1.16757   1.18419   1.19000   1.20352
 Alpha virt. eigenvalues --    1.22170   1.23632   1.24781   1.25020   1.26345
 Alpha virt. eigenvalues --    1.27112   1.29714   1.30480   1.32366   1.34990
 Alpha virt. eigenvalues --    1.36448   1.38582   1.38930   1.39534   1.40677
 Alpha virt. eigenvalues --    1.41407   1.42054   1.43722   1.45161   1.45396
 Alpha virt. eigenvalues --    1.45922   1.46310   1.46589   1.48333   1.49220
 Alpha virt. eigenvalues --    1.49838   1.50320   1.50730   1.51127   1.52063
 Alpha virt. eigenvalues --    1.52194   1.52677   1.53648   1.54070   1.54780
 Alpha virt. eigenvalues --    1.55654   1.56650   1.56921   1.57179   1.57888
 Alpha virt. eigenvalues --    1.58125   1.58844   1.59683   1.60498   1.61110
 Alpha virt. eigenvalues --    1.61744   1.62218   1.63002   1.64162   1.64501
 Alpha virt. eigenvalues --    1.65138   1.66157   1.66726   1.67404   1.68497
 Alpha virt. eigenvalues --    1.69371   1.69422   1.71675   1.72901   1.73351
 Alpha virt. eigenvalues --    1.73938   1.74094   1.74899   1.75531   1.76482
 Alpha virt. eigenvalues --    1.77803   1.78830   1.79230   1.81186   1.81988
 Alpha virt. eigenvalues --    1.82134   1.82980   1.84541   1.85446   1.85849
 Alpha virt. eigenvalues --    1.87922   1.88525   1.89107   1.91643   1.92021
 Alpha virt. eigenvalues --    1.92048   1.93217   1.94012   1.94448   1.95791
 Alpha virt. eigenvalues --    1.96821   1.98332   1.98482   1.99455   2.01311
 Alpha virt. eigenvalues --    2.02329   2.03041   2.03485   2.04355   2.04871
 Alpha virt. eigenvalues --    2.05521   2.06274   2.06626   2.07920   2.09201
 Alpha virt. eigenvalues --    2.10281   2.10465   2.11123   2.11699   2.12889
 Alpha virt. eigenvalues --    2.14648   2.16465   2.17074   2.17508   2.19312
 Alpha virt. eigenvalues --    2.19872   2.21044   2.21754   2.21938   2.23464
 Alpha virt. eigenvalues --    2.24978   2.27967   2.29033   2.30027   2.31862
 Alpha virt. eigenvalues --    2.33442   2.33912   2.39238   2.40465   2.42780
 Alpha virt. eigenvalues --    2.43262   2.45260   2.46248   2.49833   2.50246
 Alpha virt. eigenvalues --    2.50610   2.51431   2.51656   2.53591   2.55168
 Alpha virt. eigenvalues --    2.55675   2.56588   2.56747   2.58448   2.58700
 Alpha virt. eigenvalues --    2.60538   2.60860   2.62070   2.64573   2.65150
 Alpha virt. eigenvalues --    2.66058   2.71211   2.73773   2.74922   2.76569
[...]
    37  C   -0.000000   0.000000  -0.000000   0.000000   0.000000   0.001119
    38  H   -0.000000   0.000000   0.000000  -0.000000   0.000000   0.001759
    39  O   -0.000000  -0.000000   0.000000   0.000000  -0.000000  -0.000304
    40  H    0.000000   0.000000  -0.000000  -0.000000   0.000000  -0.000296
    41  C    0.000000  -0.000000   0.000000   0.000000   0.000000   0.004836
    42  H   -0.000000  -0.000000  -0.000000   0.000000   0.000000  -0.000178
    43  H   -0.000000  -0.000000  -0.000001   0.000000   0.000000  -0.000972
    44  O   -0.000000  -0.000000   0.000004  -0.000000  -0.000000  -0.000401
    45  H    0.000002  -0.000001  -0.000053   0.000000   0.000000  -0.000134
              25         26         27         28         29         30
     1  C    0.000093   0.000016   0.000013   0.000596  -0.000041   0.000297
     2  H   -0.000007   0.000007  -0.000000  -0.000079   0.000004  -0.000042
     3  O   -0.000000  -0.000000  -0.000000  -0.000005  -0.000000  -0.000007
     4  H   -0.000000   0.000031   0.000000  -0.000107  -0.000001  -0.000008
     5  C   -0.000122  -0.000010  -0.000004  -0.000066   0.000012  -0.000029
     6  H   -0.000011   0.000001   0.000000  -0.000013  -0.000000  -0.000004
     7  O   -0.000002   0.000003   0.000000  -0.000008  -0.000000  -0.000006
     8  C   -0.000547   0.001134   0.000105  -0.030719   0.001150  -0.001749
     9  H   -0.000203  -0.005342  -0.000613   0.004414   0.000382  -0.000524
    10  O    0.000082   0.000342  -0.000005  -0.002401  -0.003476   0.014323
    11  H    0.000004   0.000014  -0.000000  -0.000027   0.000208  -0.000570
    12  C    0.004539  -0.000630  -0.000018   0.005983  -0.002621  -0.000518
    13  H   -0.000826   0.000048  -0.000002  -0.000097   0.000149  -0.000657
    14  O   -0.042351   0.003432  -0.000186  -0.041055  -0.055046   0.003224
    15  C    0.001024   0.000223   0.000041  -0.000019  -0.000156   0.000431
    16  H   -0.001731   0.000354   0.000007   0.002100   0.000307  -0.000042
    17  O    0.000625   0.000000  -0.000001   0.000004  -0.000034  -0.000005
    18  H   -0.000951  -0.000016   0.000002   0.000194   0.000153  -0.000043
    19  C    0.000005  -0.000000  -0.000000   0.000002  -0.000000   0.000000
    20  H   -0.000001   0.000000   0.000000   0.000000   0.000000   0.000000
    21  H    0.000003  -0.000000   0.000000  -0.000014  -0.000000  -0.000000
    22  O   -0.000000  -0.000000  -0.000000   0.000000  -0.000000  -0.000000
    23  H    0.000000  -0.000000   0.000000   0.000000   0.000000   0.000000
    24  C    0.403874  -0.073072  -0.007959   0.231520   0.217363  -0.030020
    25  H    0.600213  -0.004642   0.009251  -0.037615  -0.085315   0.008797
    26  C   -0.004642   5.372781   0.381791   0.207506  -0.000861   0.002508
    27  H    0.009251   0.381791   0.555793  -0.038578  -0.000362   0.000354
    28  O   -0.037615   0.207506  -0.038578   8.243300  -0.041868   0.000288
    29  C   -0.085315  -0.000861  -0.000362  -0.041868   5.384888   0.368793
    30  H    0.008797   0.002508   0.000354   0.000288   0.368793   0.509089
    31  O    0.001349  -0.000168  -0.000074   0.001755   0.235574  -0.030627
    32  H    0.006974  -0.000229   0.000019   0.000121  -0.058273   0.008011
    33  C   -0.001405  -0.031618  -0.015075   0.000584   0.209143  -0.046165
    34  H    0.006062  -0.000631   0.006033   0.000247  -0.042419   0.009942
    35  O   -0.000286   0.003216  -0.000064  -0.000092  -0.037577   0.005108
    36  H   -0.000218  -0.000957  -0.000078  -0.000071  -0.015845  -0.002722
    37  C   -0.002012   0.131242  -0.050104  -0.045207  -0.066966  -0.006854
    38  H    0.000213  -0.046029   0.009676   0.002063  -0.000553   0.007331
    39  O   -0.000015  -0.047488   0.007910   0.001482   0.005826  -0.000051
    40  H    0.000001   0.010936  -0.000685  -0.000246   0.001337  -0.000021
    41  C    0.000448   0.315390  -0.032609  -0.044474  -0.001398  -0.000251
    42  H    0.000078  -0.038243  -0.005689   0.004349   0.000026   0.000008
    43  H    0.000039  -0.058225   0.011612  -0.003263   0.000004  -0.000071
    44  O   -0.000060  -0.035929   0.007269  -0.005539   0.000003   0.000006
    45  H   -0.000525  -0.007870  -0.001650   0.012977   0.000185  -0.000013
              31         32         33         34         35         36
     1  C    0.000000  -0.000000  -0.000000  -0.000000  -0.000000  -0.000000
     2  H   -0.000000  -0.000000   0.000000   0.000000   0.000000   0.000000
     3  O   -0.000000   0.000000  -0.000000  -0.000000   0.000000   0.000000
     4  H   -0.000000   0.000000   0.000000   0.000000  -0.000000   0.000000
     5  C   -0.000000  -0.000001  -0.000000  -0.000000   0.000000   0.000000
     6  H   -0.000000   0.000000  -0.000000   0.000000   0.000000   0.000000
     7  O   -0.000000   0.000000   0.000000   0.000000   0.000000   0.000000
     8  C   -0.000022   0.000021  -0.000117  -0.000009  -0.000001   0.000001
     9  H   -0.000003  -0.000002  -0.000184   0.000008   0.000001   0.000000
    10  O    0.000012  -0.000010  -0.000083  -0.000015  -0.000000  -0.000006
    11  H   -0.000006   0.000002   0.000014   0.000000  -0.000002   0.000001
    12  C    0.000119  -0.000001   0.000296  -0.000004  -0.000002  -0.000002
    13  H    0.000259  -0.000027  -0.000009  -0.000003   0.000000  -0.000000
    14  O    0.000151   0.001480   0.005466  -0.000107  -0.000021  -0.000039
    15  C   -0.000020   0.000001   0.000033   0.000001  -0.000000  -0.000000
    16  H   -0.000002  -0.000003  -0.000025  -0.000004   0.000000   0.000000
    17  O    0.000000  -0.000002   0.000000  -0.000000  -0.000000  -0.000000
    18  H    0.000013   0.000006  -0.000005  -0.000003   0.000000   0.000000
    19  C    0.000000   0.000000   0.000000   0.000000  -0.000000  -0.000000
    20  H   -0.000000   0.000000   0.000000   0.000000  -0.000000  -0.000000
    21  H    0.000000   0.000000   0.000000   0.000000  -0.000000   0.000000
    22  O   -0.000000  -0.000000  -0.000000   0.000000   0.000000   0.000000
    23  H   -0.000000  -0.000000  -0.000000  -0.000000   0.000000  -0.000000
    24  C   -0.032732  -0.004835  -0.064981   0.002153   0.006016   0.002100
    25  H    0.001349   0.006974  -0.001405   0.006062  -0.000286  -0.000218
    26  C   -0.000168  -0.000229  -0.031618  -0.000631   0.003216  -0.000957
    27  H   -0.000074   0.000019  -0.015075   0.006033  -0.000064  -0.000078
    28  O    0.001755   0.000121   0.000584   0.000247  -0.000092  -0.000071
    29  C    0.235574  -0.058273   0.209143  -0.042419  -0.037577  -0.015845
    30  H   -0.030627   0.008011  -0.046165   0.009942   0.005108  -0.002722
    31  O    7.935253   0.314886  -0.042138  -0.002259  -0.005038   0.022225
    32  H    0.314886   0.477997   0.001131   0.004764   0.000224  -0.000791
    33  C   -0.042138   0.001131   5.314008   0.363159   0.245314  -0.044664
    34  H   -0.002259   0.004764   0.363159   0.606045  -0.038960  -0.003025
    35  O   -0.005038   0.000224   0.245314  -0.038960   7.964553   0.325530
    36  H    0.022225  -0.000791  -0.044664  -0.003025   0.325530   0.434848
    37  C    0.006226   0.000481   0.204857  -0.058276  -0.049345   0.013463
    38  H   -0.000137   0.000027  -0.060281   0.011521   0.004202  -0.000583
    39  O   -0.000021   0.000001  -0.025950   0.006260  -0.003540  -0.000527
    40  H   -0.000027  -0.000005  -0.005485  -0.001312   0.014583  -0.000815
    41  C    0.000010  -0.000001   0.007964  -0.000811  -0.000067   0.000024
    42  H    0.000000   0.000000   0.000230   0.000032  -0.000007   0.000003
    43  H    0.000001   0.000000  -0.000475  -0.000085  -0.000010  -0.000003
    44  O   -0.000000  -0.000000  -0.000182  -0.000007   0.000000  -0.000000
    45  H   -0.000002  -0.000001   0.000024  -0.000019   0.000000   0.000000
              37         38         39         40         41         42
     1  C    0.000002   0.000016   0.000000   0.000000  -0.000059   0.000001
     2  H   -0.000000  -0.000001  -0.000000  -0.000000  -0.000004  -0.000000
     3  O    0.000000  -0.000000  -0.000000   0.000000  -0.000005  -0.000000
     4  H   -0.000003   0.000003   0.000000  -0.000000  -0.000003  -0.000006
     5  C   -0.000000  -0.000000   0.000000  -0.000000   0.000005   0.000000
     6  H   -0.000000   0.000000   0.000000  -0.000000  -0.000001  -0.000000
     7  O    0.000000  -0.000000  -0.000000   0.000000  -0.000006  -0.000000
     8  C   -0.000043   0.000194   0.000001  -0.000001  -0.000200  -0.000049
     9  H    0.000422  -0.000404  -0.000000   0.000002   0.001787   0.000559
    10  O   -0.000212   0.001839   0.000000  -0.000000  -0.000201  -0.000007
    11  H    0.000007  -0.000103   0.000000  -0.000000   0.000007  -0.000000
    12  C    0.000071  -0.000053  -0.000000   0.000000   0.000074  -0.000000
    13  H   -0.000001  -0.000008  -0.000000   0.000000  -0.000010  -0.000000
    14  O   -0.000534  -0.000097   0.000000   0.000001  -0.000112   0.000004
    15  C   -0.000011  -0.000002  -0.000000  -0.000000  -0.000081  -0.000003
    16  H    0.000080   0.000003  -0.000000   0.000000  -0.000225  -0.000004
    17  O   -0.000000  -0.000000   0.000000   0.000000   0.000000   0.000000
    18  H   -0.000001   0.000000   0.000000  -0.000000   0.000002  -0.000000
    19  C   -0.000000  -0.000000  -0.000000   0.000000   0.000000  -0.000000
    20  H    0.000000   0.000000  -0.000000   0.000000  -0.000000  -0.000000
    21  H   -0.000000   0.000000   0.000000  -0.000000   0.000000  -0.000000
    22  O    0.000000  -0.000000   0.000000  -0.000000   0.000000   0.000000
    23  H    0.000000   0.000000  -0.000000   0.000000   0.000000   0.000000
    24  C    0.001119   0.001759  -0.000304  -0.000296   0.004836  -0.000178
    25  H   -0.002012   0.000213  -0.000015   0.000001   0.000448   0.000078
    26  C    0.131242  -0.046029  -0.047488   0.010936   0.315390  -0.038243
    27  H   -0.050104   0.009676   0.007910  -0.000685  -0.032609  -0.005689
    28  O   -0.045207   0.002063   0.001482  -0.000246  -0.044474   0.004349
    29  C   -0.066966  -0.000553   0.005826   0.001337  -0.001398   0.000026
    30  H   -0.006854   0.007331  -0.000051  -0.000021  -0.000251   0.000008
    31  O    0.006226  -0.000137  -0.000021  -0.000027   0.000010   0.000000
    32  H    0.000481   0.000027   0.000001  -0.000005  -0.000001   0.000000
    33  C    0.204857  -0.060281  -0.025950  -0.005485   0.007964   0.000230
    34  H   -0.058276   0.011521   0.006260  -0.001312  -0.000811   0.000032
    35  O   -0.049345   0.004202  -0.003540   0.014583  -0.000067  -0.000007
    36  H    0.013463  -0.000583  -0.000527  -0.000815   0.000024   0.000003
    37  C    5.368363   0.393150   0.213136  -0.046543  -0.054979  -0.003844
    38  H    0.393150   0.550324  -0.032992  -0.004039  -0.010502   0.000211
    39  O    0.213136  -0.032992   7.968987   0.323019  -0.001215   0.012372
    40  H   -0.046543  -0.004039   0.323019   0.434712  -0.000248  -0.000279
    41  C   -0.054979  -0.010502  -0.001215  -0.000248   4.814152   0.404692
    42  H   -0.003844   0.000211   0.012372  -0.000279   0.404692   0.520892
    43  H   -0.001545   0.006342  -0.000260  -0.000148   0.396505  -0.036499
    44  O    0.005255   0.000014   0.000003   0.000010   0.273797  -0.028932
    45  H    0.000945  -0.000070  -0.000051   0.000005  -0.054736   0.006323
              43         44         45
     1  C    0.000134  -0.000017   0.000122
     2  H   -0.000014  -0.000000  -0.000024
     3  O   -0.000002   0.000001  -0.000026
     4  H    0.000092  -0.000011  -0.000132
     5  C   -0.000003   0.000002   0.000020
     6  H   -0.000001   0.000000  -0.000007
     7  O   -0.000011   0.000001  -0.000171
     8  C    0.002058  -0.001212  -0.000122
     9  H   -0.009287   0.006544   0.003941
    10  O    0.001713   0.000006   0.000016
    11  H   -0.000046  -0.000002  -0.000011
    12  C    0.000173  -0.000003  -0.000243
    13  H   -0.000014  -0.000000   0.000002
    14  O   -0.000012   0.000001  -0.000017
    15  C    0.000017  -0.000043   0.000409
    16  H   -0.000016   0.000169   0.001304
    17  O    0.000000   0.000000  -0.000009
    18  H    0.000001  -0.000000   0.000002
    19  C   -0.000000  -0.000000   0.000002
    20  H   -0.000000  -0.000000  -0.000001
    21  H   -0.000001   0.000004  -0.000053
    22  O    0.000000  -0.000000   0.000000
    23  H    0.000000  -0.000000   0.000000
    24  C   -0.000972  -0.000401  -0.000134
    25  H    0.000039  -0.000060  -0.000525
    26  C   -0.058225  -0.035929  -0.007870
    27  H    0.011612   0.007269  -0.001650
    28  O   -0.003263  -0.005539   0.012977
    29  C    0.000004   0.000003   0.000185
    30  H   -0.000071   0.000006  -0.000013
    31  O    0.000001  -0.000000  -0.000002
    32  H    0.000000  -0.000000  -0.000001
    33  C   -0.000475  -0.000182   0.000024
    34  H   -0.000085  -0.000007  -0.000019
    35  O   -0.000010   0.000000   0.000000
    36  H   -0.000003  -0.000000   0.000000
    37  C   -0.001545   0.005255   0.000945
    38  H    0.006342   0.000014  -0.000070
    39  O   -0.000260   0.000003  -0.000051
    40  H   -0.000148   0.000010   0.000005
    41  C    0.396505   0.273797  -0.054736
    42  H   -0.036499  -0.028932   0.006323
    43  H    0.596369  -0.039252  -0.001384
    44  O   -0.039252   7.891998   0.331410
    45  H   -0.001384   0.331410   0.457174
 Mulliken charges:
               1
     1  C    0.205134
     2  H    0.135267
     3  O   -0.375005
     4  H    0.258383
     5  C   -0.076136
     6  H    0.165327
     7  O   -0.396157
     8  C   -0.021817
     9  H    0.144707
    10  O   -0.392790
    11  H    0.255455
    12  C   -0.016341
    13  H    0.163853
    14  O   -0.418798
    15  C    0.052837
    16  H    0.143650
    17  O   -0.419514
    18  H    0.267255
    19  C   -0.001199
    20  H    0.156045
    21  H    0.123108
    22  O   -0.414358
    23  H    0.257574
    24  C    0.247257
    25  H    0.135175
    26  C   -0.079011
    27  H    0.163881
    28  O   -0.427920
    29  C   -0.012693
    30  H    0.182492
    31  O   -0.404556
    32  H    0.248034
    33  C   -0.013384
    34  H    0.131724
    35  O   -0.433735
    36  H    0.272149
    37  C    0.047661
    38  H    0.166968
    39  O   -0.426581
    40  H    0.275545
    41  C   -0.017494
    42  H    0.163962
    43  H    0.136538
    44  O   -0.404898
    45  H    0.252406
 Sum of Mulliken charges =  -0.00000
 Mulliken charges with hydrogens summed into heavy atoms:
               1
     1  C    0.340401
     3  O   -0.116622
     5  C    0.089191
     7  O   -0.396157
     8  C    0.122890
    10  O   -0.137335
    12  C    0.147512
    14  O   -0.418798
    15  C    0.196487
    17  O   -0.152260
    19  C    0.277955
    22  O   -0.156784
    24  C    0.382432
    26  C    0.084870
    28  O   -0.427920
    29  C    0.169799
    31  O   -0.156522
    33  C    0.118340
    35  O   -0.161585
    37  C    0.214629
    39  O   -0.151037
    41  C    0.283006
    44  O   -0.152492
 Electronic spatial extent (au):  <R**2>=           8224.4491
 Charge=              0.0000 electrons
 Dipole moment (field-independent basis, Debye):
    X=             -3.5373    Y=             -2.2693    Z=              0.4842  Tot=              4.2305
 Quadrupole moment (field-independent basis, Debye-Ang):
   XX=           -156.4371   YY=           -139.8487   ZZ=           -136.5263
   XY=              8.8706   XZ=              6.2414   YZ=              5.8496
 Traceless Quadrupole moment (field-independent basis, Debye-Ang):
   XX=            -12.1664   YY=              4.4220   ZZ=              7.7444
   XY=              8.8706   XZ=              6.2414   YZ=              5.8496
 Octapole moment (field-independent basis, Debye-Ang**2):
  XXX=           -177.1176  YYY=            -10.5451  ZZZ=             19.3276  XYY=            -11.1878
  XXY=            -11.9655  XXZ=             22.3429  XZZ=             -4.5708  YZZ=            -31.8233
  YYZ=              7.6360  XYZ=            -32.0542
 Hexadecapole moment (field-independent basis, Debye-Ang**3):
 XXXX=          -8002.7417 YYYY=          -1869.0855 ZZZZ=          -1079.2530 XXXY=            202.1423
 XXXZ=            125.8757 YYYX=            125.0716 YYYZ=            130.2220 ZZZX=            -24.4406
 ZZZY=            -15.1608 XXYY=          -1424.4250 XXZZ=          -1416.4574 YYZZ=           -533.6880
 XXYZ=              8.7950 YYXZ=             14.5864 ZZXY=              4.5915
 N-N= 2.348554354336D+03 E-N=-7.744456371888D+03  KE= 1.294076232277D+03
 No NMR shielding tensors so no spin-rotation constants.
 Leave Link  601 at Fri Apr 14 17:06:37 2023, MaxMem=   524288000 cpu:               1.7 elap:               0.3
 (Enter /dragofs/sw/campus/0.2/software/gaussian/16.gaussian/gaussian/g16_legacy/l9999.exe)
 1\1\GINC-DRAGO31030088\FOpt\RM062X\6-311G(d,p)\C12H22O11\JRAMOS\14-Apr
 -2023\0\\#p opt=modredundant m062x/6-311g(d,p)\\Conformer number 00003
 . Energy MM = 185.557 kcal/mol\\0,1\C,0.5459593074,1.4736862697,-0.885
 8730402\H,-0.529039785,1.2599049644,-0.7839844307\O,0.6696577882,2.299
 0962567,-1.9826946106\H,1.6068593336,2.4153930179,-2.1715361831\C,0.75
 06944505,1.4365390706,1.4755993507\H,-0.3296265119,1.2556666965,1.5748
 03517\O,1.0047323392,2.1477576488,0.2678168958\C,1.3533819431,0.175189
 8554,-1.032502467\H,2.4001313786,0.4719631627,-1.0620749255\O,1.087383
 6476,-0.5047435858,-2.237327164\H,0.1449408942,-0.4476812749,-2.423321
 6664\C,1.0623660143,-0.680012341,0.2031386483\H,-0.0209321546,-0.84749
 71053,0.2508660065\O,1.5897469157,-2.0029373616,0.2823003518\C,1.46874
 64852,0.0926897855,1.4554286814\H,2.557200181,0.2642692008,1.420585015
 8\O,1.1060403127,-0.6072666225,2.620103999\H,1.3061794803,-1.535272728
 ,2.457146639\C,1.2033565876,2.3421459689,2.6026249049\H,1.0041372662,1
 .8547892127,3.5567584931\H,2.286640075,2.5013133004,2.5075659805\O,0.4
 974678021,3.5590233266,2.5788738893\H,0.5833587445,3.9039643673,1.6843
 08802\C,2.7781632234,-2.4693359433,-0.2924099769\H,3.4236805714,-2.841
 9013996,0.5239210898\C,4.6633812315,-1.854721741,-1.6285734774\H,5.359
 0227806,-2.2507096887,-0.8747022043\O,3.4447253621,-1.4601501506,-0.99
 5700726\C,2.4275506002,-3.6065853152,-1.2563335863\H,1.7165309722,-3.1
 97778988,-1.9783624934\O,1.7819206009,-4.6952674367,-0.6265824107\H,2.
 3170535628,-4.9761224752,0.1226863317\C,3.6768518239,-4.0849206294,-1.
 9785844698\H,4.3811168525,-4.5078301669,-1.2406583515\O,3.3688022293,-
 5.050059684,-2.9589977198\H,2.7445817873,-5.6676625141,-2.5627506543\C
 ,4.3686361648,-2.9259994475,-2.6663090311\H,3.6840807878,-2.5124136313
 ,-3.4209646444\O,5.5907291352,-3.323419879,-3.2415747061\H,5.405301001
 1,-4.0991690031,-3.781103856\C,5.2329165007,-0.5841857873,-2.223749635
 \H,6.1773759537,-0.8095420159,-2.7176512547\H,4.5207672793,-0.20899618
 2,-2.9716949635\O,5.4828005797,0.3767052161,-1.2219534014\H,4.69692850
 44,0.4099857767,-0.6687565463\\Version=EM64L-G16RevA.03\State=1-A\HF=-
 1297.8024315\RMSD=3.817e-09\RMSF=9.889e-04\Dipole=-0.007225,-1.6312093
 ,-0.3306065\Quadrupole=-1.4356835,3.0848152,-1.6491317,0.3395457,6.943
 9606,-9.5576542\PG=C01 [X(C12H22O11)]\\@


 IF I AM NOT FOR MYSELF, WHO WILL BE?
 BUT IF I AM ONLY FOR MYSELF, WHAT AM I?
 THOUGH A SEEKER SINCE MY BIRTH,
 HERE IS ALL I'VE LEARNED ON EARTH,
 THIS IS THE GIST OF WHAT I KNOW:
 GIVE ADVICE AND BUY A FOE.

 PRESSED FOR RULES AND VERITIES,
 ALL I RECOLLECT ARE THESE:
 FEED A COLD TO STARVE A FEVER,
 ARGUE WITH NO TRUE-BELIEVER.
 THINK-TOO-LONG IS NEVER-ACT,
 SCRATCH A MYTH AND FIND A FACT.

 STITCH IN TIME SAVES TWENTY STITCHES,
 GIVE THE RICH TO PLEASE THEM, RICHES.
 GIVE TO LOVE YOU HEARTH AND HALL,
 BUT DO NOT GIVE ADVICE AT ALL.

                                  -- HILLEL
 Job cpu time:       0 days  9 hours 49 minutes 14.2 seconds.
 Elapsed time:       0 days  1 hours 14 minutes  1.2 seconds.
 File lengths (MBytes):  RWF=    189 Int=      0 D2E=      0 Chk=     24 Scr=      1
 Normal termination of Gaussian 16 at Fri Apr 14 17:06:38 2023.
