 Entering Gaussian System, Link 0=/opt/gaussian/g16_legacy/g16
 Input=IsoP_rdkit_048_gaussian.com
 Output=IsoP_rdkit_048_gaussian.log
 Initial command:
 /opt/gaussian/g16_legacy/l1.exe "/scratch-local/jramos/2641262/Gau-21394.inp" -scrdir="/scratch-local/jramos/2641262/"
 Entering Link 1 = /opt/gaussian/g16_legacy/l1.exe PID=     21395.
  
 Copyright (c) 1988,1990,1992,1993,1995,1998,2003,2009,2016,
            Gaussian, Inc.  All Rights Reserved.
  
 This is part of the Gaussian(R) 16 program.  It is based on
 the Gaussian(R) 09 system (copyright 2009, Gaussian, Inc.),
 the Gaussian(R) 03 system (copyright 2003, Gaussian, Inc.),
 the Gaussian(R) 98 system (copyright 1998, Gaussian, Inc.),
 the Gaussian(R) 94 system (copyright 1995, Gaussian, Inc.),
 the Gaussian 92(TM) system (copyright 1992, Gaussian, Inc.),
 the Gaussian 90(TM) system (copyright 1990, Gaussian, Inc.),
 the Gaussian 88(TM) system (copyright 1988, Gaussian, Inc.),
 the Gaussian 86(TM) system (copyright 1986, Carnegie Mellon
 University), and the Gaussian 82(TM) system (copyright 1983,
 Carnegie Mellon University). Gaussian is a federally registered
 trademark of Gaussian, Inc.
  
 This software contains proprietary and confidential information,
 including trade secrets, belonging to Gaussian, Inc.
  
 This software is provided under written license and may be
 used, copied, transmitted, or stored only in accord with that
 written license.
  
 The following legend is applicable only to US Government
 contracts under FAR:
  
                    RESTRICTED RIGHTS LEGEND
  
 Use, reproduction and disclosure by the US Government is
 subject to restrictions as set forth in subparagraphs (a)
 and (c) of the Commercial Computer Software - Restricted
 Rights clause in FAR 52.227-19.
  
 Gaussian, Inc.
 340 Quinnipiac St., Bldg. 40, Wallingford CT 06492
  
  
 ---------------------------------------------------------------
 Warning -- This program may not be used in any manner that
 competes with the business of Gaussian, Inc. or will provide
 assistance to any competitor of Gaussian, Inc.  The licensee
 of this program is prohibited from giving any competitor of
 Gaussian, Inc. access to this program.  By using this program,
 the user acknowledges that Gaussian, Inc. is engaged in the
 business of creating and licensing software in the field of
 computational chemistry and represents and warrants to the
 licensee that it is not a competitor of Gaussian, Inc. and that
 it will not use this program in any manner prohibited above.
 ---------------------------------------------------------------
  

 Cite this work as:
 Gaussian 16, Revision A.03,
 M. J. Frisch, G. W. Trucks, H. B. Schlegel, G. E. Scuseria, 
 M. A. Robb, J. R. Cheeseman, G. Scalmani, V. Barone, 
 G. A. Petersson, H. Nakatsuji, X. Li, M. Caricato, A. V. Marenich, 
 J. Bloino, B. G. Janesko, R. Gomperts, B. Mennucci, H. P. Hratchian, 
 J. V. Ortiz, A. F. Izmaylov, J. L. Sonnenberg, D. Williams-Young, 
 F. Ding, F. Lipparini, F. Egidi, J. Goings, B. Peng, A. Petrone, 
 T. Henderson, D. Ranasinghe, V. G. Zakrzewski, J. Gao, N. Rega, 
 G. Zheng, W. Liang, M. Hada, M. Ehara, K. Toyota, R. Fukuda, 
 J. Hasegawa, M. Ishida, T. Nakajima, Y. Honda, O. Kitao, H. Nakai, 
 T. Vreven, K. Throssell, J. A. Montgomery, Jr., J. E. Peralta, 
 F. Ogliaro, M. J. Bearpark, J. J. Heyd, E. N. Brothers, K. N. Kudin, 
 V. N. Staroverov, T. A. Keith, R. Kobayashi, J. Normand, 
 K. Raghavachari, A. P. Rendell, J. C. Burant, S. S. Iyengar, 
 J. Tomasi, M. Cossi, J. M. Millam, M. Klene, C. Adamo, R. Cammi, 
 J. W. Ochterski, R. L. Martin, K. Morokuma, O. Farkas, 
 J. B. Foresman, and D. J. Fox, Gaussian, Inc., Wallingford CT, 2016.
 
 ******************************************
 Gaussian 16:  EM64L-G16RevA.03 25-Dec-2016
                 5-Jul-2021 
 ******************************************
 %chk=IsoP_rdkit_048_gaussian.chk
 %nproc=6
 Will use up to    6 processors via shared memory.
 %mem=4000Mb
 -----------------------------
 #p opt=loose m062x/6-31g(d,p)
 -----------------------------
 1/7=-1,18=20,19=15,26=3,38=1/1,3;
 2/9=110,12=2,17=6,18=5,40=1/2;
 3/5=1,6=6,7=101,11=2,25=1,30=1,71=1,74=-55/1,2,3;
 4//1;
 5/5=2,38=5/2;
 6/7=2,8=2,9=2,10=2,28=1/1;
 7//1,2,3,16;
 1/7=-1,18=20,19=15,26=3/3(2);
 2/9=110/2;
 99//99;
 2/9=110/2;
 3/5=1,6=6,7=101,11=2,25=1,30=1,71=1,74=-55/1,2,3;
 4/5=5,16=3,69=1/1;
 5/5=2,38=5/2;
 7//1,2,3,16;
 1/7=-1,18=20,19=15,26=3/3(-5);
 2/9=110/2;
 6/7=2,8=2,9=2,10=2,19=2,28=1/1;
 99/9=1/99;
 Leave Link    1 at Mon Jul  5 23:17:01 2021, MaxMem=   524288000 cpu:               0.4 elap:               0.1
 (Enter /opt/gaussian/g16_legacy/l101.exe)
 -------------------------------------------------
 Conformer number 048. Energy MM = 23.692 kcal/mol
 -------------------------------------------------
 Symbolic Z-matrix:
 Charge =  0 Multiplicity = 1
 C                    -1.3623    0.3754    1.4718 
 H                    -1.7419   -0.626     1.704 
 H                    -1.9354    1.0467    2.1254 
 C                    -1.6554    0.7566    0.0332 
 C                    -1.6868    2.2397   -0.2392 
 H                    -2.4414    2.7247    0.3887 
 H                    -0.7137    2.6921   -0.026 
 H                    -1.9323    2.465    -1.2825 
 C                    -1.9056   -0.1197   -0.9601 
 H                    -2.1209    0.2708   -1.9543 
 C                    -1.9044   -1.6137   -0.8909 
 H                    -1.208    -2.0128   -1.6354 
 H                    -2.904    -1.9946   -1.1218 
 H                    -1.6066   -2.0095    0.0818 
 C                     2.6532   -1.7216   -0.1911 
 H                     3.7283   -1.5868   -0.0334 
 H                     2.4747   -1.8812   -1.2596 
 H                     2.3521   -2.6333    0.3354 
 C                     1.9002   -0.5079    0.288 
 C                     2.2814    0.7679   -0.4099 
 H                     1.6849    1.6292   -0.1039 
 H                     3.3319    1.0049   -0.2115 
 H                     2.152     0.6565   -1.4918 
 C                     0.9626   -0.6194    1.2492 
 H                     0.7658   -1.6079    1.6642 
 C                     0.1213    0.4711    1.859 
 H                     0.5125    1.4684    1.6393 
 H                     0.1978    0.3651    2.949 
 
 ITRead=  0  0  0  0  0  0  0  0  0  0  0  0  0  0  0  0  0  0  0  0
 ITRead=  0  0  0  0  0  0  0  0
 MicOpt= -1 -1 -1 -1 -1 -1 -1 -1 -1 -1 -1 -1 -1 -1 -1 -1 -1 -1 -1 -1
 MicOpt= -1 -1 -1 -1 -1 -1 -1 -1
 NAtoms=     28 NQM=       28 NQMF=       0 NMMI=      0 NMMIF=      0
                NMic=       0 NMicF=      0.
                    Isotopes and Nuclear Properties:
 (Nuclear quadrupole moments (NQMom) in fm**2, nuclear magnetic moments (NMagM)
  in nuclear magnetons)

  Atom         1           2           3           4           5           6           7           8           9          10
 IAtWgt=          12           1           1          12          12           1           1           1          12           1
 AtmWgt=  12.0000000   1.0078250   1.0078250  12.0000000  12.0000000   1.0078250   1.0078250   1.0078250  12.0000000   1.0078250
 NucSpn=           0           1           1           0           0           1           1           1           0           1
 AtZEff=  -0.0000000  -0.0000000  -0.0000000  -0.0000000  -0.0000000  -0.0000000  -0.0000000  -0.0000000  -0.0000000  -0.0000000
 NQMom=    0.0000000   0.0000000   0.0000000   0.0000000   0.0000000   0.0000000   0.0000000   0.0000000   0.0000000   0.0000000
 NMagM=    0.0000000   2.7928460   2.7928460   0.0000000   0.0000000   2.7928460   2.7928460   2.7928460   0.0000000   2.7928460
 AtZNuc=   6.0000000   1.0000000   1.0000000   6.0000000   6.0000000   1.0000000   1.0000000   1.0000000   6.0000000   1.0000000

  Atom        11          12          13          14          15          16          17          18          19          20
 IAtWgt=          12           1           1           1          12           1           1           1          12          12
 AtmWgt=  12.0000000   1.0078250   1.0078250   1.0078250  12.0000000   1.0078250   1.0078250   1.0078250  12.0000000  12.0000000
 NucSpn=           0           1           1           1           0           1           1           1           0           0
 AtZEff=  -0.0000000  -0.0000000  -0.0000000  -0.0000000  -0.0000000  -0.0000000  -0.0000000  -0.0000000  -0.0000000  -0.0000000
 NQMom=    0.0000000   0.0000000   0.0000000   0.0000000   0.0000000   0.0000000   0.0000000   0.0000000   0.0000000   0.0000000
 NMagM=    0.0000000   2.7928460   2.7928460   2.7928460   0.0000000   2.7928460   2.7928460   2.7928460   0.0000000   0.0000000
 AtZNuc=   6.0000000   1.0000000   1.0000000   1.0000000   6.0000000   1.0000000   1.0000000   1.0000000   6.0000000   6.0000000

  Atom        21          22          23          24          25          26          27          28
 IAtWgt=           1           1           1          12           1          12           1           1
 AtmWgt=   1.0078250   1.0078250   1.0078250  12.0000000   1.0078250  12.0000000   1.0078250   1.0078250
 NucSpn=           1           1           1           0           1           0           1           1
 AtZEff=  -0.0000000  -0.0000000  -0.0000000  -0.0000000  -0.0000000  -0.0000000  -0.0000000  -0.0000000
 NQMom=    0.0000000   0.0000000   0.0000000   0.0000000   0.0000000   0.0000000   0.0000000   0.0000000
 NMagM=    2.7928460   2.7928460   2.7928460   0.0000000   2.7928460   0.0000000   2.7928460   2.7928460
 AtZNuc=   1.0000000   1.0000000   1.0000000   6.0000000   1.0000000   6.0000000   1.0000000   1.0000000
 Leave Link  101 at Mon Jul  5 23:17:01 2021, MaxMem=   524288000 cpu:               1.5 elap:               0.3
 (Enter /opt/gaussian/g16_legacy/l103.exe)

 GradGradGradGradGradGradGradGradGradGradGradGradGradGradGradGradGradGrad
 Berny optimization.
 Initialization pass.
                           ----------------------------
                           !    Initial Parameters    !
                           ! (Angstroms and Degrees)  !
 --------------------------                            --------------------------
 ! Name  Definition              Value          Derivative Info.                !
 --------------------------------------------------------------------------------
 ! R1    R(1,2)                  1.0958         estimate D2E/DX2                !
 ! R2    R(1,3)                  1.0983         estimate D2E/DX2                !
 ! R3    R(1,4)                  1.5168         estimate D2E/DX2                !
 ! R4    R(1,26)                 1.5363         estimate D2E/DX2                !
 ! R5    R(4,5)                  1.5082         estimate D2E/DX2                !
 ! R6    R(4,9)                  1.348          estimate D2E/DX2                !
 ! R7    R(5,6)                  1.0949         estimate D2E/DX2                !
 ! R8    R(5,7)                  1.0941         estimate D2E/DX2                !
 ! R9    R(5,8)                  1.0952         estimate D2E/DX2                !
 ! R10   R(9,10)                 1.0896         estimate D2E/DX2                !
 ! R11   R(9,11)                 1.4956         estimate D2E/DX2                !
 ! R12   R(11,12)                1.0948         estimate D2E/DX2                !
 ! R13   R(11,13)                1.0943         estimate D2E/DX2                !
 ! R14   R(11,14)                1.0916         estimate D2E/DX2                !
 ! R15   R(15,16)                1.0949         estimate D2E/DX2                !
 ! R16   R(15,17)                1.095          estimate D2E/DX2                !
 ! R17   R(15,18)                1.095          estimate D2E/DX2                !
 ! R18   R(15,19)                1.5065         estimate D2E/DX2                !
 ! R19   R(19,20)                1.5033         estimate D2E/DX2                !
 ! R20   R(19,24)                1.3474         estimate D2E/DX2                !
 ! R21   R(20,21)                1.0915         estimate D2E/DX2                !
 ! R22   R(20,22)                1.095          estimate D2E/DX2                !
 ! R23   R(20,23)                1.0953         estimate D2E/DX2                !
 ! R24   R(24,25)                1.09           estimate D2E/DX2                !
 ! R25   R(24,26)                1.5063         estimate D2E/DX2                !
 ! R26   R(26,27)                1.0936         estimate D2E/DX2                !
 ! R27   R(26,28)                1.0978         estimate D2E/DX2                !
 ! A1    A(2,1,3)              104.5778         estimate D2E/DX2                !
 ! A2    A(2,1,4)              111.327          estimate D2E/DX2                !
 ! A3    A(2,1,26)             109.7581         estimate D2E/DX2                !
 ! A4    A(3,1,4)              108.0574         estimate D2E/DX2                !
 ! A5    A(3,1,26)             108.4121         estimate D2E/DX2                !
 ! A6    A(4,1,26)             114.2041         estimate D2E/DX2                !
 ! A7    A(1,4,5)              114.9887         estimate D2E/DX2                !
 ! A8    A(1,4,9)              124.8444         estimate D2E/DX2                !
 ! A9    A(5,4,9)              120.1513         estimate D2E/DX2                !
 ! A10   A(4,5,6)              110.2636         estimate D2E/DX2                !
 ! A11   A(4,5,7)              110.6642         estimate D2E/DX2                !
 ! A12   A(4,5,8)              112.2716         estimate D2E/DX2                !
 ! A13   A(6,5,7)              108.5452         estimate D2E/DX2                !
 ! A14   A(6,5,8)              107.4978         estimate D2E/DX2                !
 ! A15   A(7,5,8)              107.4536         estimate D2E/DX2                !
 ! A16   A(4,9,10)             118.4267         estimate D2E/DX2                !
 ! A17   A(4,9,11)             127.9612         estimate D2E/DX2                !
 ! A18   A(10,9,11)            113.6015         estimate D2E/DX2                !
 ! A19   A(9,11,12)            109.4634         estimate D2E/DX2                !
 ! A20   A(9,11,13)            109.7059         estimate D2E/DX2                !
 ! A21   A(9,11,14)            113.8074         estimate D2E/DX2                !
 ! A22   A(12,11,13)           108.0994         estimate D2E/DX2                !
 ! A23   A(12,11,14)           107.4738         estimate D2E/DX2                !
 ! A24   A(13,11,14)           108.1203         estimate D2E/DX2                !
 ! A25   A(16,15,17)           108.575          estimate D2E/DX2                !
 ! A26   A(16,15,18)           107.6526         estimate D2E/DX2                !
 ! A27   A(16,15,19)           110.2298         estimate D2E/DX2                !
 ! A28   A(17,15,18)           107.6379         estimate D2E/DX2                !
 ! A29   A(17,15,19)           110.259          estimate D2E/DX2                !
 ! A30   A(18,15,19)           112.3593         estimate D2E/DX2                !
 ! A31   A(15,19,20)           114.1619         estimate D2E/DX2                !
 ! A32   A(15,19,24)           120.5316         estimate D2E/DX2                !
 ! A33   A(20,19,24)           125.2997         estimate D2E/DX2                !
 ! A34   A(19,20,21)           113.6379         estimate D2E/DX2                !
 ! A35   A(19,20,22)           110.0488         estimate D2E/DX2                !
 ! A36   A(19,20,23)           110.0162         estimate D2E/DX2                !
 ! A37   A(21,20,22)           107.6201         estimate D2E/DX2                !
 ! A38   A(21,20,23)           107.0152         estimate D2E/DX2                !
 ! A39   A(22,20,23)           108.3197         estimate D2E/DX2                !
 ! A40   A(19,24,25)           118.1836         estimate D2E/DX2                !
 ! A41   A(19,24,26)           128.1385         estimate D2E/DX2                !
 ! A42   A(25,24,26)           113.6771         estimate D2E/DX2                !
 ! A43   A(1,26,24)            113.0944         estimate D2E/DX2                !
 ! A44   A(1,26,27)            110.5872         estimate D2E/DX2                !
 ! A45   A(1,26,28)            108.1511         estimate D2E/DX2                !
 ! A46   A(24,26,27)           112.2782         estimate D2E/DX2                !
 ! A47   A(24,26,28)           107.0459         estimate D2E/DX2                !
 ! A48   A(27,26,28)           105.2243         estimate D2E/DX2                !
 ! D1    D(2,1,4,5)            156.7974         estimate D2E/DX2                !
 ! D2    D(2,1,4,9)            -21.7646         estimate D2E/DX2                !
 ! D3    D(3,1,4,5)             42.4993         estimate D2E/DX2                !
 ! D4    D(3,1,4,9)           -136.0627         estimate D2E/DX2                !
 ! D5    D(26,1,4,5)           -78.2165         estimate D2E/DX2                !
 ! D6    D(26,1,4,9)           103.2214         estimate D2E/DX2                !
 ! D7    D(2,1,26,24)           53.5008         estimate D2E/DX2                !
 ! D8    D(2,1,26,27)         -179.5992         estimate D2E/DX2                !
 ! D9    D(2,1,26,28)          -64.869          estimate D2E/DX2                !
 ! D10   D(3,1,26,24)          167.1691         estimate D2E/DX2                !
 ! D11   D(3,1,26,27)          -65.9309         estimate D2E/DX2                !
 ! D12   D(3,1,26,28)           48.7992         estimate D2E/DX2                !
 ! D13   D(4,1,26,24)          -72.3125         estimate D2E/DX2                !
 ! D14   D(4,1,26,27)           54.5875         estimate D2E/DX2                !
 ! D15   D(4,1,26,28)          169.3176         estimate D2E/DX2                !
 ! D16   D(1,4,5,6)            -58.3877         estimate D2E/DX2                !
 ! D17   D(1,4,5,7)             61.7176         estimate D2E/DX2                !
 ! D18   D(1,4,5,8)           -178.2254         estimate D2E/DX2                !
 ! D19   D(9,4,5,6)            120.2475         estimate D2E/DX2                !
 ! D20   D(9,4,5,7)           -119.6472         estimate D2E/DX2                !
 ! D21   D(9,4,5,8)              0.4098         estimate D2E/DX2                !
 ! D22   D(1,4,9,10)           178.9442         estimate D2E/DX2                !
 ! D23   D(1,4,9,11)            -2.3281         estimate D2E/DX2                !
 ! D24   D(5,4,9,10)             0.4515         estimate D2E/DX2                !
 ! D25   D(5,4,9,11)           179.1792         estimate D2E/DX2                !
 ! D26   D(4,9,11,12)         -123.9409         estimate D2E/DX2                !
 ! D27   D(4,9,11,13)          117.5975         estimate D2E/DX2                !
 ! D28   D(4,9,11,14)           -3.6752         estimate D2E/DX2                !
 ! D29   D(10,9,11,12)          54.838          estimate D2E/DX2                !
 ! D30   D(10,9,11,13)         -63.6235         estimate D2E/DX2                !
 ! D31   D(10,9,11,14)         175.1037         estimate D2E/DX2                !
 ! D32   D(16,15,19,20)         59.9944         estimate D2E/DX2                !
 ! D33   D(16,15,19,24)       -120.8991         estimate D2E/DX2                !
 ! D34   D(17,15,19,20)        -59.8664         estimate D2E/DX2                !
 ! D35   D(17,15,19,24)        119.2401         estimate D2E/DX2                !
 ! D36   D(18,15,19,20)       -179.9368         estimate D2E/DX2                !
 ! D37   D(18,15,19,24)         -0.8303         estimate D2E/DX2                !
 ! D38   D(15,19,20,21)        176.1428         estimate D2E/DX2                !
 ! D39   D(15,19,20,22)        -63.0957         estimate D2E/DX2                !
 ! D40   D(15,19,20,23)         56.1823         estimate D2E/DX2                !
 ! D41   D(24,19,20,21)         -2.9142         estimate D2E/DX2                !
 ! D42   D(24,19,20,22)        117.8473         estimate D2E/DX2                !
 ! D43   D(24,19,20,23)       -122.8746         estimate D2E/DX2                !
 ! D44   D(15,19,24,25)         -0.1509         estimate D2E/DX2                !
 ! D45   D(15,19,24,26)        179.498          estimate D2E/DX2                !
 ! D46   D(20,19,24,25)        178.8502         estimate D2E/DX2                !
 ! D47   D(20,19,24,26)         -1.5009         estimate D2E/DX2                !
 ! D48   D(19,24,26,1)         110.6484         estimate D2E/DX2                !
 ! D49   D(19,24,26,27)        -15.3529         estimate D2E/DX2                !
 ! D50   D(19,24,26,28)       -130.3411         estimate D2E/DX2                !
 ! D51   D(25,24,26,1)         -69.6895         estimate D2E/DX2                !
 ! D52   D(25,24,26,27)        164.3092         estimate D2E/DX2                !
 ! D53   D(25,24,26,28)         49.3209         estimate D2E/DX2                !
 --------------------------------------------------------------------------------
 Trust Radius=3.00D-01 FncErr=1.00D-07 GrdErr=1.00D-06 EigMax=2.50D+02 EigMin=1.00D-04
 Number of steps in this run=    138 maximum allowed number of steps=    168.
 GradGradGradGradGradGradGradGradGradGradGradGradGradGradGradGradGradGrad

 Leave Link  103 at Mon Jul  5 23:17:01 2021, MaxMem=   524288000 cpu:               0.2 elap:               0.1
 (Enter /opt/gaussian/g16_legacy/l202.exe)
                          Input orientation:                          
 ---------------------------------------------------------------------
 Center     Atomic      Atomic             Coordinates (Angstroms)
 Number     Number       Type             X           Y           Z
 ---------------------------------------------------------------------
      1          6           0       -1.362300    0.375400    1.471800
      2          1           0       -1.741900   -0.626000    1.704000
      3          1           0       -1.935400    1.046700    2.125400
      4          6           0       -1.655400    0.756600    0.033200
      5          6           0       -1.686800    2.239700   -0.239200
      6          1           0       -2.441400    2.724700    0.388700
      7          1           0       -0.713700    2.692100   -0.026000
      8          1           0       -1.932300    2.465000   -1.282500
      9          6           0       -1.905600   -0.119700   -0.960100
     10          1           0       -2.120900    0.270800   -1.954300
     11          6           0       -1.904400   -1.613700   -0.890900
     12          1           0       -1.208000   -2.012800   -1.635400
     13          1           0       -2.904000   -1.994600   -1.121800
     14          1           0       -1.606600   -2.009500    0.081800
     15          6           0        2.653200   -1.721600   -0.191100
     16          1           0        3.728300   -1.586800   -0.033400
     17          1           0        2.474700   -1.881200   -1.259600
     18          1           0        2.352100   -2.633300    0.335400
     19          6           0        1.900200   -0.507900    0.288000
     20          6           0        2.281400    0.767900   -0.409900
     21          1           0        1.684900    1.629200   -0.103900
     22          1           0        3.331900    1.004900   -0.211500
     23          1           0        2.152000    0.656500   -1.491800
     24          6           0        0.962600   -0.619400    1.249200
     25          1           0        0.765800   -1.607900    1.664200
     26          6           0        0.121300    0.471100    1.859000
     27          1           0        0.512500    1.468400    1.639300
     28          1           0        0.197800    0.365100    2.949000
 ---------------------------------------------------------------------
                    Distance matrix (angstroms):
                    1          2          3          4          5
     1  C    0.000000
     2  H    1.095817   0.000000
     3  H    1.098308   1.735784   0.000000
     4  C    1.516836   2.170400   2.130694   0.000000
     5  C    2.551164   3.462845   2.660147   1.508235   0.000000
     6  H    2.802994   3.666948   2.467356   2.148859   1.094945
     7  H    2.833935   3.880706   2.971265   2.153245   1.094095
     8  H    3.503926   4.302292   3.691255   2.174022   1.095219
     9  C    2.540558   2.716720   3.298740   1.348016   2.476760
    10  H    3.510638   3.785637   4.156968   2.098296   2.646994
    11  C    3.135720   2.781270   4.022034   2.556225   3.914174
    12  H    3.921989   3.655114   4.902374   3.264042   4.501375
    13  H    3.836730   3.347938   4.553241   3.234521   4.493312
    14  H    2.771197   2.136331   3.691174   2.766957   4.262062
    15  C    4.825649   4.910056   5.838228   4.975522   5.876207
    16  H    5.659511   5.819346   6.608573   5.871983   6.633835
    17  H    5.222582   5.304542   6.283296   5.068239   5.944839
    18  H    4.913293   4.760583   5.926985   5.257642   6.355235
    19  C    3.581272   3.909462   4.528206   3.782350   4.549045
    20  C    4.119636   4.753785   4.928172   3.961674   4.235793
    21  H    3.652434   4.483011   4.291347   3.455117   3.429195
    22  H    5.026458   5.663252   5.762577   4.999469   5.168447
    23  H    4.605675   5.198115   5.472041   4.102675   4.337270
    24  C    2.538570   2.742482   3.455723   3.197805   4.172422
    25  H    2.915357   2.693375   3.815244   3.756758   4.943906
    26  C    1.536278   2.167756   2.152278   2.563536   3.286277
    27  H    2.176598   3.077827   2.531075   2.790342   2.993424
    28  H    2.148520   2.508932   2.386093   3.476998   4.150959
                    6          7          8          9         10
     6  H    0.000000
     7  H    1.777072   0.000000
     8  H    1.766221   1.765036   0.000000
     9  C    3.193267   3.193648   2.604866   0.000000
    10  H    3.407931   3.400183   2.302477   1.089623   0.000000
    11  C    4.554938   4.550355   4.097551   1.495602   2.174634
    12  H    5.297373   4.997058   4.549708   2.127558   2.479902
    13  H    4.976686   5.288038   4.567062   2.130305   2.537388
    14  H    4.817025   4.786850   4.689195   2.178601   3.099996
    15  C    6.786803   5.553739   6.304410   4.892862   5.465397
    16  H    7.538727   6.167690   7.072463   5.895081   6.430682
    17  H    6.935362   5.709881   6.189639   4.730709   5.121841
    18  H    7.189482   6.155455   6.853200   5.111215   5.803814
    19  C    5.413810   4.143799   5.098300   4.023999   4.669425
    20  C    5.174135   3.580579   4.625673   4.315266   4.691751
    21  H    4.297572   2.624711   3.895099   4.084534   4.444473
    22  H    6.053837   4.387247   5.566932   5.408931   5.771419
    23  H    5.377086   3.808474   4.471687   4.165250   4.315130
    24  C    4.848781   3.924557   4.929855   3.654761   4.534627
    25  H    5.539355   4.851360   5.705375   4.029649   4.995607
    26  C    3.715902   3.030395   4.249933   3.522030   4.428187
    27  H    3.444970   2.402963   3.937915   3.889235   4.613350
    28  H    4.369007   3.885407   5.181940   4.465466   5.424722
                   11         12         13         14         15
    11  C    0.000000
    12  H    1.094776   0.000000
    13  H    1.094349   1.772155   0.000000
    14  H    1.091553   1.762858   1.769780   0.000000
    15  C    4.612275   4.132755   5.641206   4.278231   0.000000
    16  H    5.697661   5.207201   6.733373   5.352859   1.094934
    17  H    4.402728   3.704163   5.381660   4.298002   1.095001
    18  H    4.545458   4.116234   5.491626   4.015563   1.095016
    19  C    4.133713   3.952860   5.222849   3.820336   1.506524
    20  C    4.839866   4.627100   5.918326   4.803360   2.526602
    21  H    4.900902   4.896787   5.935154   4.910050   3.488993
    22  H    5.893852   5.634243   6.979405   5.793221   2.809778
    23  H    4.687139   4.293645   5.720871   4.869378   2.756516
    24  C    3.713267   3.869623   4.739558   3.145789   2.479403
    25  H    3.695746   3.866160   4.623718   2.879853   2.649027
    26  C    4.001475   4.488611   4.910935   3.506773   3.927004
    27  H    4.662902   5.079619   5.593614   4.360296   4.255474
    28  H    4.804136   5.352327   5.635669   4.137079   4.499282
                   16         17         18         19         20
    16  H    0.000000
    17  H    1.778131   0.000000
    18  H    1.767796   1.767685   0.000000
    19  C    2.146922   2.147340   2.173427   0.000000
    20  C    2.789244   2.788743   3.482619   1.503344   0.000000
    21  H    3.810920   3.779198   4.336709   2.183377   1.091460
    22  H    2.627882   3.187927   3.807310   2.141922   1.095026
    23  H    3.105487   2.568652   3.768486   2.141709   1.095291
    24  C    3.198441   3.189461   2.611807   1.347379   2.533071
    25  H    3.414483   3.397593   2.309438   2.095421   3.499051
    26  C    4.563615   4.560425   4.115231   2.567288   3.146749
    27  H    4.740627   4.844963   4.680622   2.767216   2.796235
    28  H    5.016877   5.286062   4.523529   3.277379   3.973141
                   21         22         23         24         25
    21  H    0.000000
    22  H    1.764635   0.000000
    23  H    1.758009   1.775589   0.000000
    24  C    2.721911   3.222666   3.248950   0.000000
    25  H    3.801281   4.114589   4.124245   1.089994   0.000000
    26  C    2.763877   3.857443   3.922496   1.506264   2.185307
    27  H    2.106923   3.404307   3.626421   2.171100   3.086811
    28  H    3.623481   4.496742   4.860506   2.107956   2.421996
                   26         27         28
    26  C    0.000000
    27  H    1.093578   0.000000
    28  H    1.097811   1.741155   0.000000
 Stoichiometry    C10H18
 Framework group  C1[X(C10H18)]
 Deg. of freedom    78
 Full point group                 C1      NOp   1
 Largest Abelian subgroup         C1      NOp   1
 Largest concise Abelian subgroup C1      NOp   1
                         Standard orientation:                         
 ---------------------------------------------------------------------
 Center     Atomic      Atomic             Coordinates (Angstroms)
 Number     Number       Type             X           Y           Z
 ---------------------------------------------------------------------
      1          6           0        1.311015   -0.534296    1.234824
      2          1           0        1.339573    0.321043    1.919217
      3          1           0        2.036273   -1.246086    1.651520
      4          6           0        1.779210   -0.145067   -0.154451
      5          6           0        2.295314   -1.285561   -0.995690
      6          1           0        3.134143   -1.778183   -0.493101
      7          1           0        1.508410   -2.026276   -1.166472
      8          1           0        2.649710   -0.950730   -1.976403
      9          6           0        1.784102    1.111853   -0.641561
     10          1           0        2.160274    1.275472   -1.651017
     11          6           0        1.302867    2.359767    0.027730
     12          1           0        0.552140    2.846018   -0.603542
     13          1           0        2.138522    3.054172    0.158428
     14          1           0        0.847951    2.188258    1.005034
     15          6           0       -3.078931    0.929115   -0.134003
     16          1           0       -4.061066    0.457725   -0.243928
     17          1           0       -2.909572    1.586767   -0.992978
     18          1           0       -3.110188    1.556353    0.763022
     19          6           0       -2.001920   -0.121774   -0.061245
     20          6           0       -1.922048   -1.006048   -1.274391
     21          1           0       -1.097305   -1.720209   -1.241844
     22          1           0       -2.850240   -1.576414   -1.384955
     23          1           0       -1.783135   -0.396784   -2.173926
     24          6           0       -1.196258   -0.202785    1.015684
     25          1           0       -1.345385    0.511853    1.825092
     26          6           0       -0.081268   -1.182635    1.271660
     27          1           0       -0.122715   -2.043091    0.598006
     28          1           0       -0.239879   -1.595310    2.276513
 ---------------------------------------------------------------------
 Rotational constants (GHZ):           1.5853484           0.8275235           0.7367983
 Leave Link  202 at Mon Jul  5 23:17:02 2021, MaxMem=   524288000 cpu:               0.2 elap:               0.1
 (Enter /opt/gaussian/g16_legacy/l301.exe)
 Standard basis: 6-31G(d,p) (6D, 7F)
 Ernie: Thresh=  0.10000D-02 Tol=  0.10000D-05 Strict=F.
 There are   240 symmetry adapted cartesian basis functions of A   symmetry.
 There are   240 symmetry adapted basis functions of A   symmetry.
   240 basis functions,   406 primitive gaussians,   240 cartesian basis functions
    39 alpha electrons       39 beta electrons
       nuclear repulsion energy       536.9650838848 Hartrees.
 IExCor= 4336 DFT=T Ex+Corr=M062X ExCW=0 ScaHFX=  0.540000
 ScaDFX=  1.000000  1.000000  1.000000  1.000000 ScalE2=  1.000000  1.000000
 IRadAn=      5 IRanWt=     -1 IRanGd=            0 ICorTp=0 IEmpDi=  4
 NAtoms=   28 NActive=   28 NUniq=   28 SFac= 1.00D+00 NAtFMM=   60 NAOKFM=F Big=F
 Integral buffers will be    131072 words long.
 Raffenetti 2 integral format.
 Two-electron integral symmetry is turned on.
 Leave Link  301 at Mon Jul  5 23:17:02 2021, MaxMem=   524288000 cpu:               0.8 elap:               0.2
 (Enter /opt/gaussian/g16_legacy/l302.exe)
 NPDir=0 NMtPBC=     1 NCelOv=     1 NCel=       1 NClECP=     1 NCelD=      1
         NCelK=      1 NCelE2=     1 NClLst=     1 CellRange=     0.0.
 One-electron integrals computed using PRISM.
 One-electron integral symmetry used in STVInt
 NBasis=   240 RedAO= T EigKep=  2.15D-03  NBF=   240
 NBsUse=   240 1.00D-06 EigRej= -1.00D+00 NBFU=   240
 Precomputing XC quadrature grid using
 IXCGrd= 4 IRadAn=           5 IRanWt=          -1 IRanGd=           0 AccXCQ= 0.00D+00.
 Generated NRdTot=       0 NPtTot=           0 NUsed=           0 NTot=          32
 NSgBfM=   240   240   240   240   240 MxSgAt=    28 MxSgA2=    28.
 Leave Link  302 at Mon Jul  5 23:17:03 2021, MaxMem=   524288000 cpu:               4.6 elap:               1.0
 (Enter /opt/gaussian/g16_legacy/l303.exe)
 DipDrv:  MaxL=1.
 Leave Link  303 at Mon Jul  5 23:17:03 2021, MaxMem=   524288000 cpu:               0.3 elap:               0.1
 (Enter /opt/gaussian/g16_legacy/l401.exe)
 ExpMin= 1.61D-01 ExpMax= 3.05D+03 ExpMxC= 4.57D+02 IAcc=3 IRadAn=         5 AccDes= 0.00D+00
 Harris functional with IExCor= 1009 and IRadAn=       5 diagonalized for initial guess.
 HarFok:  IExCor= 1009 AccDes= 0.00D+00 IRadAn=         5 IDoV= 1 UseB2=F ITyADJ=14
 ICtDFT=  3500011 ScaDFX=  1.000000  1.000000  1.000000  1.000000
 FoFCou: FMM=F IPFlag=           0 FMFlag=      100000 FMFlg1=           0
         NFxFlg=           0 DoJE=T BraDBF=F KetDBF=T FulRan=T
         wScrn=  0.000000 ICntrl=       500 IOpCl=  0 I1Cent=   200000004 NGrid=           0
         NMat0=    1 NMatS0=      1 NMatT0=    0 NMatD0=    1 NMtDS0=    0 NMtDT0=    0
 Petite list used in FoFCou.
 Harris En= -391.654874687245    
 JPrj=0 DoOrth=F DoCkMO=F.
 Leave Link  401 at Mon Jul  5 23:17:07 2021, MaxMem=   524288000 cpu:              21.6 elap:               3.8
 (Enter /opt/gaussian/g16_legacy/l502.exe)
 Integral symmetry usage will be decided dynamically.
 Closed shell SCF:
 Using DIIS extrapolation, IDIIS=  1040.
 NGot=   524288000 LenX=   524168546 LenY=   524110505
 Requested convergence on RMS density matrix=1.00D-08 within 128 cycles.
 Requested convergence on MAX density matrix=1.00D-06.
 Requested convergence on             energy=1.00D-06.
 No special actions if energy rises.
 Fock matrices will be formed incrementally for  20 cycles.
 Integral accuracy reduced to 1.0D-05 until final iterations.

 Cycle   1  Pass 0  IDiag  1:
 FoFJK:  IHMeth= 1 ICntrl=       0 DoSepK=F KAlg= 0 I1Cent=           0 FoldK=F
 IRaf= 900000000 NMat=       1 IRICut=       1 DoRegI=T DoRafI=F ISym2E= 0 IDoP0=0 IntGTp=1.
 FoFCou: FMM=F IPFlag=           0 FMFlag=      100000 FMFlg1=           0
         NFxFlg=           0 DoJE=F BraDBF=F KetDBF=F FulRan=T
         wScrn=  0.000000 ICntrl=         0 IOpCl=  0 I1Cent=           0 NGrid=           0
         NMat0=    1 NMatS0=      1 NMatT0=    0 NMatD0=    1 NMtDS0=    0 NMtDT0=    0
 Symmetry not used in FoFCou.
 E= -391.296753608623    
 DIIS: error= 2.93D-02 at cycle   1 NSaved=   1.
 NSaved= 1 IEnMin= 1 EnMin= -391.296753608623     IErMin= 1 ErrMin= 2.93D-02
 ErrMax= 2.93D-02  0.00D+00 EMaxC= 1.00D-01 BMatC= 3.73D-01 BMatP= 3.73D-01
 IDIUse=3 WtCom= 7.07D-01 WtEn= 2.93D-01
 Coeff-Com:  0.100D+01
 Coeff-En:   0.100D+01
 Coeff:      0.100D+01
 Gap=     0.348 Goal=   None    Shift=    0.000
 GapD=    0.348 DampG=1.000 DampE=0.500 DampFc=0.5000 IDamp=-1.
 Damping current iteration by 5.00D-01
 RMSDP=4.53D-03 MaxDP=1.14D-01              OVMax= 1.49D-01

 Cycle   2  Pass 0  IDiag  1:
 RMSU=  2.22D-03    CP:  9.75D-01
 E= -391.505848899283     Delta-E=       -0.209095290660 Rises=F Damp=T
 DIIS: error= 8.99D-03 at cycle   2 NSaved=   2.
 NSaved= 2 IEnMin= 2 EnMin= -391.505848899283     IErMin= 2 ErrMin= 8.99D-03
 ErrMax= 8.99D-03  0.00D+00 EMaxC= 1.00D-01 BMatC= 2.11D-02 BMatP= 3.73D-01
 IDIUse=3 WtCom= 9.10D-01 WtEn= 8.99D-02
 Coeff-Com: -0.139D+00 0.114D+01
 Coeff-En:   0.000D+00 0.100D+01
 Coeff:     -0.127D+00 0.113D+01
 Gap=     0.375 Goal=   None    Shift=    0.000
 RMSDP=9.27D-04 MaxDP=2.87D-02 DE=-2.09D-01 OVMax= 6.56D-02

 Cycle   3  Pass 0  IDiag  1:
 RMSU=  9.12D-04    CP:  9.69D-01  1.05D+00
 E= -391.688484560094     Delta-E=       -0.182635660811 Rises=F Damp=F
 DIIS: error= 1.76D-03 at cycle   3 NSaved=   3.
 NSaved= 3 IEnMin= 3 EnMin= -391.688484560094     IErMin= 3 ErrMin= 1.76D-03
 ErrMax= 1.76D-03  0.00D+00 EMaxC= 1.00D-01 BMatC= 1.13D-03 BMatP= 2.11D-02
 IDIUse=3 WtCom= 9.82D-01 WtEn= 1.76D-02
 Coeff-Com: -0.358D-01 0.172D+00 0.864D+00
 Coeff-En:   0.000D+00 0.000D+00 0.100D+01
 Coeff:     -0.351D-01 0.169D+00 0.867D+00
 Gap=     0.343 Goal=   None    Shift=    0.000
 RMSDP=2.53D-04 MaxDP=5.12D-03 DE=-1.83D-01 OVMax= 9.87D-03

 Cycle   4  Pass 0  IDiag  1:
 RMSU=  1.94D-04    CP:  9.69D-01  1.11D+00  8.73D-01
 E= -391.689236142570     Delta-E=       -0.000751582476 Rises=F Damp=F
 DIIS: error= 9.84D-04 at cycle   4 NSaved=   4.
 NSaved= 4 IEnMin= 4 EnMin= -391.689236142570     IErMin= 4 ErrMin= 9.84D-04
 ErrMax= 9.84D-04  0.00D+00 EMaxC= 1.00D-01 BMatC= 3.72D-04 BMatP= 1.13D-03
 IDIUse=3 WtCom= 9.90D-01 WtEn= 9.84D-03
 Coeff-Com: -0.850D-02 0.320D-01 0.376D+00 0.601D+00
 Coeff-En:   0.000D+00 0.000D+00 0.175D+00 0.825D+00
 Coeff:     -0.842D-02 0.317D-01 0.374D+00 0.603D+00
 Gap=     0.344 Goal=   None    Shift=    0.000
 RMSDP=1.05D-04 MaxDP=3.65D-03 DE=-7.52D-04 OVMax= 7.26D-03

 Cycle   5  Pass 0  IDiag  1:
 RMSU=  5.28D-05    CP:  9.69D-01  1.09D+00  9.32D-01  6.49D-01
 E= -391.689568900298     Delta-E=       -0.000332757728 Rises=F Damp=F
 DIIS: error= 2.73D-04 at cycle   5 NSaved=   5.
 NSaved= 5 IEnMin= 5 EnMin= -391.689568900298     IErMin= 5 ErrMin= 2.73D-04
 ErrMax= 2.73D-04  0.00D+00 EMaxC= 1.00D-01 BMatC= 3.94D-05 BMatP= 3.72D-04
 IDIUse=3 WtCom= 9.97D-01 WtEn= 2.73D-03
 Coeff-Com: -0.728D-03 0.174D-02 0.116D+00 0.299D+00 0.584D+00
 Coeff-En:   0.000D+00 0.000D+00 0.000D+00 0.000D+00 0.100D+01
 Coeff:     -0.726D-03 0.174D-02 0.116D+00 0.298D+00 0.585D+00
 Gap=     0.344 Goal=   None    Shift=    0.000
 RMSDP=2.83D-05 MaxDP=1.22D-03 DE=-3.33D-04 OVMax= 2.49D-03

 Cycle   6  Pass 0  IDiag  1:
 RMSU=  1.66D-05    CP:  9.69D-01  1.09D+00  9.40D-01  6.98D-01  6.29D-01
 E= -391.689606904784     Delta-E=       -0.000038004487 Rises=F Damp=F
 DIIS: error= 5.32D-05 at cycle   6 NSaved=   6.
 NSaved= 6 IEnMin= 6 EnMin= -391.689606904784     IErMin= 6 ErrMin= 5.32D-05
 ErrMax= 5.32D-05  0.00D+00 EMaxC= 1.00D-01 BMatC= 2.16D-06 BMatP= 3.94D-05
 IDIUse=1 WtCom= 1.00D+00 WtEn= 0.00D+00
 Coeff-Com:  0.786D-03-0.290D-02 0.111D-01 0.657D-01 0.235D+00 0.690D+00
 Coeff:      0.786D-03-0.290D-02 0.111D-01 0.657D-01 0.235D+00 0.690D+00
 Gap=     0.344 Goal=   None    Shift=    0.000
 RMSDP=6.63D-06 MaxDP=2.71D-04 DE=-3.80D-05 OVMax= 5.42D-04

 Initial convergence to 1.0D-05 achieved.  Increase integral accuracy.
 Cycle   7  Pass 1  IDiag  1:
 E= -391.689616443225     Delta-E=       -0.000009538441 Rises=F Damp=F
 DIIS: error= 2.28D-05 at cycle   1 NSaved=   1.
 NSaved= 1 IEnMin= 1 EnMin= -391.689616443225     IErMin= 1 ErrMin= 2.28D-05
 ErrMax= 2.28D-05  0.00D+00 EMaxC= 1.00D-01 BMatC= 2.42D-07 BMatP= 2.42D-07
 IDIUse=1 WtCom= 1.00D+00 WtEn= 0.00D+00
 Coeff-Com:  0.100D+01
 Coeff:      0.100D+01
 Gap=     0.344 Goal=   None    Shift=    0.000
 RMSDP=6.63D-06 MaxDP=2.71D-04 DE=-9.54D-06 OVMax= 1.88D-04

 Cycle   8  Pass 1  IDiag  1:
 RMSU=  5.64D-06    CP:  1.00D+00
 E= -391.689616573183     Delta-E=       -0.000000129958 Rises=F Damp=F
 DIIS: error= 1.21D-05 at cycle   2 NSaved=   2.
 NSaved= 2 IEnMin= 2 EnMin= -391.689616573183     IErMin= 2 ErrMin= 1.21D-05
 ErrMax= 1.21D-05  0.00D+00 EMaxC= 1.00D-01 BMatC= 1.23D-07 BMatP= 2.42D-07
 IDIUse=1 WtCom= 1.00D+00 WtEn= 0.00D+00
 Coeff-Com:  0.397D+00 0.603D+00
 Coeff:      0.397D+00 0.603D+00
 Gap=     0.344 Goal=   None    Shift=    0.000
 RMSDP=1.58D-06 MaxDP=7.13D-05 DE=-1.30D-07 OVMax= 1.26D-04

 Cycle   9  Pass 1  IDiag  1:
 RMSU=  1.51D-06    CP:  1.00D+00  9.14D-01
 E= -391.689616679550     Delta-E=       -0.000000106367 Rises=F Damp=F
 DIIS: error= 5.24D-06 at cycle   3 NSaved=   3.
 NSaved= 3 IEnMin= 3 EnMin= -391.689616679550     IErMin= 3 ErrMin= 5.24D-06
 ErrMax= 5.24D-06  0.00D+00 EMaxC= 1.00D-01 BMatC= 1.50D-08 BMatP= 1.23D-07
 IDIUse=1 WtCom= 1.00D+00 WtEn= 0.00D+00
 Coeff-Com:  0.209D-01 0.251D+00 0.728D+00
 Coeff:      0.209D-01 0.251D+00 0.728D+00
 Gap=     0.344 Goal=   None    Shift=    0.000
 RMSDP=6.24D-07 MaxDP=2.08D-05 DE=-1.06D-07 OVMax= 5.85D-05

 Cycle  10  Pass 1  IDiag  1:
 RMSU=  4.15D-07    CP:  1.00D+00  9.70D-01  7.73D-01
 E= -391.689616692425     Delta-E=       -0.000000012875 Rises=F Damp=F
 DIIS: error= 2.04D-06 at cycle   4 NSaved=   4.
 NSaved= 4 IEnMin= 4 EnMin= -391.689616692425     IErMin= 4 ErrMin= 2.04D-06
 ErrMax= 2.04D-06  0.00D+00 EMaxC= 1.00D-01 BMatC= 2.39D-09 BMatP= 1.50D-08
 IDIUse=1 WtCom= 1.00D+00 WtEn= 0.00D+00
 Coeff-Com: -0.212D-01 0.839D-01 0.384D+00 0.553D+00
 Coeff:     -0.212D-01 0.839D-01 0.384D+00 0.553D+00
 Gap=     0.344 Goal=   None    Shift=    0.000
 RMSDP=2.14D-07 MaxDP=7.60D-06 DE=-1.29D-08 OVMax= 1.64D-05

 Cycle  11  Pass 1  IDiag  1:
 RMSU=  1.40D-07    CP:  1.00D+00  9.77D-01  8.24D-01  6.69D-01
 E= -391.689616694890     Delta-E=       -0.000000002465 Rises=F Damp=F
 DIIS: error= 2.64D-07 at cycle   5 NSaved=   5.
 NSaved= 5 IEnMin= 5 EnMin= -391.689616694890     IErMin= 5 ErrMin= 2.64D-07
 ErrMax= 2.64D-07  0.00D+00 EMaxC= 1.00D-01 BMatC= 2.60D-11 BMatP= 2.39D-09
 IDIUse=1 WtCom= 1.00D+00 WtEn= 0.00D+00
 Coeff-Com: -0.476D-02 0.227D-02 0.287D-01 0.105D+00 0.869D+00
 Coeff:     -0.476D-02 0.227D-02 0.287D-01 0.105D+00 0.869D+00
 Gap=     0.344 Goal=   None    Shift=    0.000
 RMSDP=3.38D-08 MaxDP=7.71D-07 DE=-2.46D-09 OVMax= 1.62D-06

 Cycle  12  Pass 1  IDiag  1:
 RMSU=  2.96D-08    CP:  1.00D+00  9.79D-01  8.25D-01  7.04D-01  9.94D-01
 E= -391.689616694919     Delta-E=       -0.000000000029 Rises=F Damp=F
 DIIS: error= 5.86D-08 at cycle   6 NSaved=   6.
 NSaved= 6 IEnMin= 6 EnMin= -391.689616694919     IErMin= 6 ErrMin= 5.86D-08
 ErrMax= 5.86D-08  0.00D+00 EMaxC= 1.00D-01 BMatC= 2.32D-12 BMatP= 2.60D-11
 IDIUse=1 WtCom= 1.00D+00 WtEn= 0.00D+00
 Coeff-Com:  0.799D-03-0.709D-02-0.289D-01-0.210D-01 0.220D+00 0.836D+00
 Coeff:      0.799D-03-0.709D-02-0.289D-01-0.210D-01 0.220D+00 0.836D+00
 Gap=     0.344 Goal=   None    Shift=    0.000
 RMSDP=1.40D-08 MaxDP=2.80D-07 DE=-2.91D-11 OVMax= 6.00D-07

 Cycle  13  Pass 1  IDiag  1:
 RMSU=  5.57D-09    CP:  1.00D+00  9.79D-01  8.25D-01  7.17D-01  1.07D+00
                    CP:  9.12D-01
 E= -391.689616694937     Delta-E=       -0.000000000018 Rises=F Damp=F
 DIIS: error= 1.83D-08 at cycle   7 NSaved=   7.
 NSaved= 7 IEnMin= 7 EnMin= -391.689616694937     IErMin= 7 ErrMin= 1.83D-08
 ErrMax= 1.83D-08  0.00D+00 EMaxC= 1.00D-01 BMatC= 1.63D-13 BMatP= 2.32D-12
 IDIUse=1 WtCom= 1.00D+00 WtEn= 0.00D+00
 Coeff-Com:  0.441D-03-0.254D-02-0.111D-01-0.109D-01 0.428D-01 0.290D+00
 Coeff-Com:  0.692D+00
 Coeff:      0.441D-03-0.254D-02-0.111D-01-0.109D-01 0.428D-01 0.290D+00
 Coeff:      0.692D+00
 Gap=     0.344 Goal=   None    Shift=    0.000
 RMSDP=2.22D-09 MaxDP=6.34D-08 DE=-1.78D-11 OVMax= 8.29D-08

 SCF Done:  E(RM062X) =  -391.689616695     A.U. after   13 cycles
            NFock= 13  Conv=0.22D-08     -V/T= 2.0094
 KE= 3.880589648151D+02 PE=-1.979031614148D+03 EE= 6.623179487528D+02
 Leave Link  502 at Mon Jul  5 23:18:32 2021, MaxMem=   524288000 cpu:             506.7 elap:              84.5
 (Enter /opt/gaussian/g16_legacy/l601.exe)
 Copying SCF densities to generalized density rwf, IOpCl= 0 IROHF=0.

 **********************************************************************

            Population analysis using the SCF density.

 **********************************************************************

 Orbital symmetries:
       Occupied  (A) (A) (A) (A) (A) (A) (A) (A) (A) (A) (A) (A)
                 (A) (A) (A) (A) (A) (A) (A) (A) (A) (A) (A) (A)
                 (A) (A) (A) (A) (A) (A) (A) (A) (A) (A) (A) (A)
                 (A) (A) (A)
       Virtual   (A) (A) (A) (A) (A) (A) (A) (A) (A) (A) (A) (A)
                 (A) (A) (A) (A) (A) (A) (A) (A) (A) (A) (A) (A)
                 (A) (A) (A) (A) (A) (A) (A) (A) (A) (A) (A) (A)
                 (A) (A) (A) (A) (A) (A) (A) (A) (A) (A) (A) (A)
                 (A) (A) (A) (A) (A) (A) (A) (A) (A) (A) (A) (A)
                 (A) (A) (A) (A) (A) (A) (A) (A) (A) (A) (A) (A)
                 (A) (A) (A) (A) (A) (A) (A) (A) (A) (A) (A) (A)
                 (A) (A) (A) (A) (A) (A) (A) (A) (A) (A) (A) (A)
                 (A) (A) (A) (A) (A) (A) (A) (A) (A) (A) (A) (A)
                 (A) (A) (A) (A) (A) (A) (A) (A) (A) (A) (A) (A)
                 (A) (A) (A) (A) (A) (A) (A) (A) (A) (A) (A) (A)
                 (A) (A) (A) (A) (A) (A) (A) (A) (A) (A) (A) (A)
                 (A) (A) (A) (A) (A) (A) (A) (A) (A) (A) (A) (A)
                 (A) (A) (A) (A) (A) (A) (A) (A) (A) (A) (A) (A)
                 (A) (A) (A) (A) (A) (A) (A) (A) (A) (A) (A) (A)
                 (A) (A) (A) (A) (A) (A) (A) (A) (A) (A) (A) (A)
                 (A) (A) (A) (A) (A) (A) (A) (A) (A)
 The electronic state is 1-A.
 Alpha  occ. eigenvalues --  -10.54549 -10.54070 -10.53992 -10.53926 -10.53358
 Alpha  occ. eigenvalues --  -10.53236 -10.53194 -10.53165 -10.53123 -10.52947
 Alpha  occ. eigenvalues --   -0.91873  -0.89602  -0.84652  -0.81394  -0.77663
 Alpha  occ. eigenvalues --   -0.76078  -0.71744  -0.68328  -0.58672  -0.58066
 Alpha  occ. eigenvalues --   -0.53287  -0.51699  -0.50321  -0.49506  -0.48864
 Alpha  occ. eigenvalues --   -0.48512  -0.46379  -0.45268  -0.44476  -0.43885
 Alpha  occ. eigenvalues --   -0.42866  -0.42050  -0.41324  -0.40590  -0.39580
 Alpha  occ. eigenvalues --   -0.37100  -0.36641  -0.28081  -0.27371
 Alpha virt. eigenvalues --    0.07029   0.07749   0.12414   0.14446   0.15850
 Alpha virt. eigenvalues --    0.16377   0.18832   0.19079   0.19594   0.20080
 Alpha virt. eigenvalues --    0.21243   0.21456   0.22211   0.22989   0.24089
 Alpha virt. eigenvalues --    0.24635   0.25528   0.26436   0.27337   0.27909
 Alpha virt. eigenvalues --    0.28530   0.29337   0.29679   0.31054   0.33033
 Alpha virt. eigenvalues --    0.38095   0.39549   0.47693   0.48917   0.52192
 Alpha virt. eigenvalues --    0.53668   0.54462   0.57629   0.58630   0.59550
 Alpha virt. eigenvalues --    0.61507   0.61695   0.62911   0.65301   0.66224
 Alpha virt. eigenvalues --    0.66892   0.69079   0.70703   0.72283   0.73346
 Alpha virt. eigenvalues --    0.74378   0.75627   0.77857   0.78632   0.80267
 Alpha virt. eigenvalues --    0.81673   0.82289   0.83620   0.84265   0.87268
 Alpha virt. eigenvalues --    0.87858   0.89039   0.90633   0.92015   0.92681
 Alpha virt. eigenvalues --    0.93758   0.94710   0.94941   0.96106   0.96736
 Alpha virt. eigenvalues --    0.96883   0.97378   0.99476   0.99943   1.00609
 Alpha virt. eigenvalues --    1.01957   1.03085   1.04294   1.04854   1.05840
 Alpha virt. eigenvalues --    1.11230   1.12159   1.20282   1.21604   1.24796
 Alpha virt. eigenvalues --    1.25818   1.27206   1.36126   1.37753   1.39314
 Alpha virt. eigenvalues --    1.39949   1.42156   1.45928   1.51583   1.53029
 Alpha virt. eigenvalues --    1.54531   1.55438   1.65711   1.70033   1.73081
 Alpha virt. eigenvalues --    1.75914   1.77468   1.79313   1.80722   1.82781
 Alpha virt. eigenvalues --    1.83909   1.84929   1.87110   1.88977   1.91324
 Alpha virt. eigenvalues --    1.91561   1.92208   1.93358   1.99883   2.01956
 Alpha virt. eigenvalues --    2.03198   2.04492   2.05668   2.07605   2.09560
 Alpha virt. eigenvalues --    2.10266   2.10368   2.10786   2.13702   2.14717
 Alpha virt. eigenvalues --    2.15245   2.16099   2.16670   2.17480   2.18992
 Alpha virt. eigenvalues --    2.20168   2.21866   2.22017   2.24246   2.25341
 Alpha virt. eigenvalues --    2.29831   2.30087   2.30629   2.34114   2.35545
 Alpha virt. eigenvalues --    2.38333   2.41775   2.43162   2.44068   2.45404
 Alpha virt. eigenvalues --    2.48032   2.48797   2.50671   2.52199   2.54492
 Alpha virt. eigenvalues --    2.55699   2.57909   2.61379   2.62189   2.64199
 Alpha virt. eigenvalues --    2.66418   2.67963   2.68455   2.69710   2.71183
 Alpha virt. eigenvalues --    2.74033   2.74781   2.76420   2.80614   2.84079
 Alpha virt. eigenvalues --    2.85268   2.85532   2.87088   2.87687   2.88337
 Alpha virt. eigenvalues --    2.90163   2.91401   2.93675   2.94969   3.01507
 Alpha virt. eigenvalues --    3.03533   3.07610   3.09603   3.17969   3.19519
 Alpha virt. eigenvalues --    3.21478   3.23505   3.30990   3.32574   3.40204
 Alpha virt. eigenvalues --    3.42184   3.42476   3.43238   3.44183   3.44859
 Alpha virt. eigenvalues --    3.45393   3.47605   3.49048   3.51204   3.52017
 Alpha virt. eigenvalues --    3.55303   4.16493   4.22673   4.33975   4.42484
 Alpha virt. eigenvalues --    4.51290   4.52748   4.54451   4.68404   4.71605
 Alpha virt. eigenvalues --    4.73533
          Condensed to atoms (all electrons):
               1          2          3          4          5          6
     1  C    5.038729   0.386295   0.382686   0.374558  -0.073611  -0.002995
     2  H    0.386295   0.604844  -0.034345  -0.031934   0.004877   0.000039
     3  H    0.382686  -0.034345   0.619278  -0.040434  -0.006631   0.005050
     4  C    0.374558  -0.031934  -0.040434   4.748111   0.370015  -0.035238
     5  C   -0.073611   0.004877  -0.006631   0.370015   5.003225   0.379803
     6  H   -0.002995   0.000039   0.005050  -0.035238   0.379803   0.591639
     7  H   -0.001095  -0.000040  -0.000551  -0.038485   0.380012  -0.035015
     8  H    0.004514  -0.000165   0.000092  -0.033116   0.386243  -0.027626
     9  C   -0.045411  -0.007638   0.002832   0.714852  -0.041374  -0.000750
    10  H    0.005809   0.000027  -0.000175  -0.030965  -0.013721   0.000302
    11  C   -0.014142   0.000390   0.000280  -0.042207   0.006156  -0.000169
    12  H    0.000412  -0.000156  -0.000016   0.000226  -0.000155  -0.000005
    13  H    0.000255   0.000117   0.000037  -0.000349  -0.000153   0.000023
    14  H    0.002066   0.003396  -0.000095  -0.007438   0.000076  -0.000001
    15  C   -0.000112  -0.000005   0.000003  -0.000064  -0.000000   0.000000
    16  H   -0.000005   0.000000   0.000000   0.000000  -0.000000  -0.000000
    17  H    0.000023   0.000000  -0.000000   0.000002   0.000000   0.000000
    18  H   -0.000003   0.000001   0.000000  -0.000001   0.000000  -0.000000
    19  C   -0.001612   0.000272  -0.000100   0.001275   0.000124  -0.000005
    20  C    0.000186  -0.000006  -0.000007   0.000782  -0.000401   0.000012
    21  H   -0.000448   0.000002   0.000021   0.000336   0.000045  -0.000004
    22  H   -0.000033   0.000000   0.000001   0.000032   0.000004  -0.000000
    23  H    0.000080   0.000002  -0.000001   0.000038   0.000030   0.000001
    24  C   -0.055816  -0.006964   0.005264  -0.000805  -0.000381   0.000020
    25  H   -0.001180   0.002819  -0.000093  -0.000263  -0.000007   0.000000
    26  C    0.338509  -0.039238  -0.038357  -0.050365  -0.001946  -0.000569
    27  H   -0.037769   0.005150  -0.002599  -0.007565   0.001606   0.000160
    28  H   -0.038960  -0.002889  -0.004896   0.005438  -0.000040   0.000000
               7          8          9         10         11         12
     1  C   -0.001095   0.004514  -0.045411   0.005809  -0.014142   0.000412
     2  H   -0.000040  -0.000165  -0.007638   0.000027   0.000390  -0.000156
     3  H   -0.000551   0.000092   0.002832  -0.000175   0.000280  -0.000016
     4  C   -0.038485  -0.033116   0.714852  -0.030965  -0.042207   0.000226
     5  C    0.380012   0.386243  -0.041374  -0.013721   0.006156  -0.000155
     6  H   -0.035015  -0.027626  -0.000750   0.000302  -0.000169  -0.000005
     7  H    0.599664  -0.027819  -0.001096   0.000235  -0.000174   0.000021
     8  H   -0.027819   0.573421  -0.005331   0.006168   0.000117  -0.000010
     9  C   -0.001096  -0.005331   4.887181   0.376459   0.362959  -0.033141
    10  H    0.000235   0.006168   0.376459   0.616523  -0.056658  -0.002432
    11  C   -0.000174   0.000117   0.362959  -0.056658   4.971385   0.385677
    12  H    0.000021  -0.000010  -0.033141  -0.002432   0.385677   0.580320
    13  H   -0.000006  -0.000005  -0.036931  -0.000984   0.382532  -0.032638
    14  H    0.000000   0.000009  -0.033666   0.004619   0.388230  -0.028350
    15  C    0.000001  -0.000000  -0.000015  -0.000000   0.000018   0.000071
    16  H    0.000000   0.000000  -0.000000   0.000000   0.000001   0.000000
    17  H   -0.000000  -0.000000  -0.000006  -0.000001  -0.000006   0.000118
    18  H   -0.000000   0.000000   0.000001   0.000000  -0.000004   0.000003
    19  C    0.000050  -0.000001   0.000047   0.000023   0.000176  -0.000009
    20  C   -0.000212   0.000007   0.000357  -0.000002  -0.000034  -0.000019
    21  H    0.001486  -0.000004   0.000061  -0.000005   0.000002  -0.000001
    22  H   -0.000017  -0.000000   0.000009   0.000000   0.000000  -0.000000
    23  H   -0.000038   0.000000   0.000081  -0.000002  -0.000019   0.000005
    24  C    0.000051  -0.000002   0.002017  -0.000020   0.000271   0.000034
    25  H   -0.000001   0.000000   0.000137   0.000000  -0.000336   0.000003
    26  C    0.001714   0.000004  -0.002307  -0.000127   0.000165   0.000079
    27  H    0.001730  -0.000123   0.000060  -0.000005  -0.000027   0.000003
    28  H   -0.000103   0.000003  -0.000062   0.000004  -0.000015  -0.000002
              13         14         15         16         17         18
     1  C    0.000255   0.002066  -0.000112  -0.000005   0.000023  -0.000003
     2  H    0.000117   0.003396  -0.000005   0.000000   0.000000   0.000001
     3  H    0.000037  -0.000095   0.000003   0.000000  -0.000000   0.000000
     4  C   -0.000349  -0.007438  -0.000064   0.000000   0.000002  -0.000001
     5  C   -0.000153   0.000076  -0.000000  -0.000000   0.000000   0.000000
     6  H    0.000023  -0.000001   0.000000  -0.000000   0.000000  -0.000000
     7  H   -0.000006   0.000000   0.000001   0.000000  -0.000000  -0.000000
     8  H   -0.000005   0.000009  -0.000000   0.000000  -0.000000   0.000000
     9  C   -0.036931  -0.033666  -0.000015  -0.000000  -0.000006   0.000001
    10  H   -0.000984   0.004619  -0.000000   0.000000  -0.000001   0.000000
    11  C    0.382532   0.388230   0.000018   0.000001  -0.000006  -0.000004
    12  H   -0.032638  -0.028350   0.000071   0.000000   0.000118   0.000003
    13  H    0.587449  -0.028359  -0.000000   0.000000  -0.000002   0.000000
    14  H   -0.028359   0.579231  -0.000010   0.000001  -0.000023   0.000022
    15  C   -0.000000  -0.000010   5.005920   0.381495   0.381501   0.384618
    16  H    0.000000   0.000001   0.381495   0.591022  -0.034415  -0.027374
    17  H   -0.000002  -0.000023   0.381501  -0.034415   0.589887  -0.027166
    18  H    0.000000   0.000022   0.384618  -0.027374  -0.027166   0.573559
    19  C    0.000022   0.000269   0.364999  -0.037391  -0.036463  -0.032870
    20  C    0.000000   0.000011  -0.079476  -0.000825  -0.001852   0.004669
    21  H    0.000000  -0.000000   0.004865  -0.000020  -0.000038  -0.000170
    22  H    0.000000   0.000000  -0.002460   0.004005  -0.000760  -0.000047
    23  H   -0.000000  -0.000005  -0.003021  -0.000834   0.004340   0.000014
    24  C    0.000086   0.001779  -0.035142  -0.001309  -0.001257  -0.004882
    25  H    0.000005   0.000866  -0.013872   0.000238   0.000268   0.006245
    26  C   -0.000038  -0.000752   0.005863  -0.000206  -0.000131   0.000108
    27  H    0.000000   0.000010   0.000077   0.000002  -0.000002   0.000010
    28  H    0.000001   0.000042  -0.000183   0.000017  -0.000003  -0.000011
              19         20         21         22         23         24
     1  C   -0.001612   0.000186  -0.000448  -0.000033   0.000080  -0.055816
     2  H    0.000272  -0.000006   0.000002   0.000000   0.000002  -0.006964
     3  H   -0.000100  -0.000007   0.000021   0.000001  -0.000001   0.005264
     4  C    0.001275   0.000782   0.000336   0.000032   0.000038  -0.000805
     5  C    0.000124  -0.000401   0.000045   0.000004   0.000030  -0.000381
     6  H   -0.000005   0.000012  -0.000004  -0.000000   0.000001   0.000020
     7  H    0.000050  -0.000212   0.001486  -0.000017  -0.000038   0.000051
     8  H   -0.000001   0.000007  -0.000004  -0.000000   0.000000  -0.000002
     9  C    0.000047   0.000357   0.000061   0.000009   0.000081   0.002017
    10  H    0.000023  -0.000002  -0.000005   0.000000  -0.000002  -0.000020
    11  C    0.000176  -0.000034   0.000002   0.000000  -0.000019   0.000271
    12  H   -0.000009  -0.000019  -0.000001  -0.000000   0.000005   0.000034
    13  H    0.000022   0.000000   0.000000   0.000000  -0.000000   0.000086
    14  H    0.000269   0.000011  -0.000000   0.000000  -0.000005   0.001779
    15  C    0.364999  -0.079476   0.004865  -0.002460  -0.003021  -0.035142
    16  H   -0.037391  -0.000825  -0.000020   0.004005  -0.000834  -0.001309
    17  H   -0.036463  -0.001852  -0.000038  -0.000760   0.004340  -0.001257
    18  H   -0.032870   0.004669  -0.000170  -0.000047   0.000014  -0.004882
    19  C    4.727959   0.379665  -0.026642  -0.036984  -0.035456   0.714782
    20  C    0.379665   4.998393   0.381467   0.381351   0.385073  -0.050353
    21  H   -0.026642   0.381467   0.579542  -0.028034  -0.028358  -0.007537
    22  H   -0.036984   0.381351  -0.028034   0.587030  -0.033126   0.000392
    23  H   -0.035456   0.385073  -0.028358  -0.033126   0.579988   0.000264
    24  C    0.714782  -0.050353  -0.007537   0.000392   0.000264   4.898160
    25  H   -0.031672   0.006206   0.000004  -0.000162  -0.000158   0.374512
    26  C   -0.037381  -0.014495   0.001525   0.000249   0.000482   0.369330
    27  H   -0.005677   0.000715   0.002899  -0.000014  -0.000159  -0.039679
    28  H    0.001399   0.000355  -0.000080   0.000041  -0.000018  -0.037006
              25         26         27         28
     1  C   -0.001180   0.338509  -0.037769  -0.038960
     2  H    0.002819  -0.039238   0.005150  -0.002889
     3  H   -0.000093  -0.038357  -0.002599  -0.004896
     4  C   -0.000263  -0.050365  -0.007565   0.005438
     5  C   -0.000007  -0.001946   0.001606  -0.000040
     6  H    0.000000  -0.000569   0.000160   0.000000
     7  H   -0.000001   0.001714   0.001730  -0.000103
     8  H    0.000000   0.000004  -0.000123   0.000003
     9  C    0.000137  -0.002307   0.000060  -0.000062
    10  H    0.000000  -0.000127  -0.000005   0.000004
    11  C   -0.000336   0.000165  -0.000027  -0.000015
    12  H    0.000003   0.000079   0.000003  -0.000002
    13  H    0.000005  -0.000038   0.000000   0.000001
    14  H    0.000866  -0.000752   0.000010   0.000042
    15  C   -0.013872   0.005863   0.000077  -0.000183
    16  H    0.000238  -0.000206   0.000002   0.000017
    17  H    0.000268  -0.000131  -0.000002  -0.000003
    18  H    0.006245   0.000108   0.000010  -0.000011
    19  C   -0.031672  -0.037381  -0.005677   0.001399
    20  C    0.006206  -0.014495   0.000715   0.000355
    21  H    0.000004   0.001525   0.002899  -0.000080
    22  H   -0.000162   0.000249  -0.000014   0.000041
    23  H   -0.000158   0.000482  -0.000159  -0.000018
    24  C    0.374512   0.369330  -0.039679  -0.037006
    25  H    0.621459  -0.055984   0.004881  -0.004340
    26  C   -0.055984   4.994800   0.390865   0.384608
    27  H    0.004881   0.390865   0.609912  -0.033620
    28  H   -0.004340   0.384608  -0.033620   0.608904
 Mulliken charges:
               1
     1  C   -0.260933
     2  H    0.115146
     3  H    0.112759
     4  C    0.103564
     5  C   -0.393797
     6  H    0.125327
     7  H    0.119687
     8  H    0.123625
     9  C   -0.139325
    10  H    0.094928
    11  C   -0.384569
    12  H    0.129963
    13  H    0.128936
    14  H    0.118072
    15  C   -0.395070
    16  H    0.125597
    17  H    0.125988
    18  H    0.123278
    19  C    0.091200
    20  C   -0.391569
    21  H    0.119087
    22  H    0.128521
    23  H    0.130799
    24  C   -0.125807
    25  H    0.090424
    26  C   -0.246406
    27  H    0.109159
    28  H    0.121416
 Sum of Mulliken charges =  -0.00000
 Mulliken charges with hydrogens summed into heavy atoms:
               1
     1  C   -0.033027
     4  C    0.103564
     5  C   -0.025158
     9  C   -0.044397
    11  C   -0.007598
    15  C   -0.020207
    19  C    0.091200
    20  C   -0.013162
    24  C   -0.035383
    26  C   -0.015831
 Electronic spatial extent (au):  <R**2>=           1886.8709
 Charge=             -0.0000 electrons
 Dipole moment (field-independent basis, Debye):
    X=             -0.2000    Y=             -0.0636    Z=             -0.1293  Tot=              0.2465
 Quadrupole moment (field-independent basis, Debye-Ang):
   XX=            -65.1973   YY=            -63.4984   ZZ=            -63.1314
   XY=             -0.9534   XZ=              0.7162   YZ=              0.1040
 Traceless Quadrupole moment (field-independent basis, Debye-Ang):
   XX=             -1.2550   YY=              0.4440   ZZ=              0.8110
   XY=             -0.9534   XZ=              0.7162   YZ=              0.1040
 Octapole moment (field-independent basis, Debye-Ang**2):
  XXX=             -7.0085  YYY=              1.4906  ZZZ=              0.5832  XYY=              1.7890
  XXY=             -0.8106  XXZ=             -4.3510  XZZ=              1.5899  YZZ=              2.3178
  YYZ=             -0.8669  XYZ=             -2.6997
 Hexadecapole moment (field-independent basis, Debye-Ang**3):
 XXXX=          -1493.3296 YYYY=           -680.0811 ZZZZ=           -441.0710 XXXY=             -2.9238
 XXXZ=              5.7328 YYYX=              5.0101 YYYZ=             -2.5035 ZZZX=             -4.9575
 ZZZY=             -3.6101 XXYY=           -356.3583 XXZZ=           -321.4322 YYZZ=           -185.9740
 XXYZ=              2.0829 YYXZ=              2.3794 ZZXY=             -2.3903
 N-N= 5.369650838848D+02 E-N=-1.979031605794D+03  KE= 3.880589648151D+02
 No NMR shielding tensors so no spin-rotation constants.
 Leave Link  601 at Mon Jul  5 23:18:32 2021, MaxMem=   524288000 cpu:               2.6 elap:               0.6
 (Enter /opt/gaussian/g16_legacy/l701.exe)
 ... and contract with generalized density number  0.
 Compute integral first derivatives.
 Leave Link  701 at Mon Jul  5 23:18:33 2021, MaxMem=   524288000 cpu:               1.3 elap:               0.2
 (Enter /opt/gaussian/g16_legacy/l702.exe)
 L702 exits ... SP integral derivatives will be done elsewhere.
 Leave Link  702 at Mon Jul  5 23:18:33 2021, MaxMem=   524288000 cpu:               0.2 elap:               0.0
 (Enter /opt/gaussian/g16_legacy/l703.exe)
 Integral derivatives from FoFJK, PRISM(SPDF).
 Compute integral first derivatives, UseDBF=F ICtDFT=           0.
 Calling FoFJK, ICntrl=      2127 FMM=F ISym2X=0 I1Cent= 0 IOpClX= 0 NMat=1 NMatS=1 NMatT=0.
 FoFJK:  IHMeth= 1 ICntrl=    2127 DoSepK=F KAlg= 0 I1Cent=           0 FoldK=F
 IRaf=         0 NMat=       1 IRICut=       1 DoRegI=T DoRafI=F ISym2E= 0 IDoP0=0 IntGTp=1.
 FoFCou: FMM=F IPFlag=           0 FMFlag=      100000 FMFlg1=         800
         NFxFlg=           0 DoJE=F BraDBF=F KetDBF=F FulRan=T
         wScrn=  0.000000 ICntrl=      2127 IOpCl=  0 I1Cent=           0 NGrid=           0
         NMat0=    1 NMatS0=      1 NMatT0=    0 NMatD0=    1 NMtDS0=    0 NMtDT0=    0
 Symmetry not used in FoFCou.
 Leave Link  703 at Mon Jul  5 23:18:47 2021, MaxMem=   524288000 cpu:              85.3 elap:              14.2
 (Enter /opt/gaussian/g16_legacy/l716.exe)
 Dipole        =-7.86749174D-02-2.50071790D-02-5.08899032D-02
 ***** Axes restored to original set *****
 -------------------------------------------------------------------
 Center     Atomic                   Forces (Hartrees/Bohr)
 Number     Number              X              Y              Z
 -------------------------------------------------------------------
      1        6          -0.006724311    0.000767835   -0.001960016
      2        1           0.002533688   -0.000892149   -0.002211313
      3        1           0.000844252    0.001536384   -0.000696722
      4        6          -0.003857599   -0.007988628   -0.009705649
      5        6          -0.000900918   -0.001853994   -0.002739729
      6        1           0.001644347    0.001873571    0.001578601
      7        1           0.000101648    0.002622940    0.002177824
      8        1           0.000872718   -0.002070493    0.001223855
      9        6           0.005761528    0.007428432    0.011379695
     10        1          -0.000107353    0.003067026    0.000840669
     11        6           0.000194160   -0.000795509    0.001742993
     12        1          -0.001010027   -0.001729122   -0.000253144
     13        1           0.000205882   -0.002576346   -0.001410768
     14        1           0.000354877    0.001427020    0.000385939
     15        6          -0.002073712   -0.001740614    0.002769731
     16        1           0.001190814   -0.000268390   -0.002777595
     17        1           0.002619365    0.000312459   -0.001116432
     18        1          -0.000543454    0.002203638    0.000143104
     19        6          -0.011867345   -0.004892553    0.008872776
     20        6          -0.002681587    0.002237479    0.002348767
     21        1          -0.000834654   -0.000960911    0.001198623
     22        1           0.001178899   -0.000084624   -0.002357065
     23        1           0.002066711   -0.000468208   -0.000238503
     24        6           0.006465463    0.006814545   -0.008564955
     25        1           0.001027060   -0.001565457   -0.001314832
     26        6           0.005116987   -0.003153922    0.003264152
     27        1          -0.000162710    0.000050635   -0.002819984
     28        1          -0.001414729    0.000698958    0.000239981
 -------------------------------------------------------------------
 Cartesian Forces:  Max     0.011867345 RMS     0.003554195
 Leave Link  716 at Mon Jul  5 23:18:47 2021, MaxMem=   524288000 cpu:               0.2 elap:               0.1
 (Enter /opt/gaussian/g16_legacy/l103.exe)

 GradGradGradGradGradGradGradGradGradGradGradGradGradGradGradGradGradGrad
 Berny optimization.
 FormGI is forming the generalized inverse of G from B-inverse, IUseBI=4.
 Internal  Forces:  Max     0.014785798 RMS     0.002612243
 Search for a local minimum.
 Step number   1 out of a maximum of  138
 All quantities printed in internal units (Hartrees-Bohrs-Radians)
 RMS Force = .26122D-02 SwitMx=.10000D-02 MixMth= 1
 Mixed Optimization -- RFO/linear search
 Second derivative matrix not updated -- first step.
 ITU=  0
     Eigenvalues ---    0.00286   0.00543   0.00657   0.00680   0.00683
     Eigenvalues ---    0.00722   0.00824   0.01204   0.01291   0.01563
     Eigenvalues ---    0.01645   0.02776   0.02785   0.03767   0.03891
     Eigenvalues ---    0.05331   0.05422   0.06962   0.07010   0.07074
     Eigenvalues ---    0.07090   0.07245   0.07300   0.07355   0.07512
     Eigenvalues ---    0.09493   0.09629   0.12965   0.13052   0.15998
     Eigenvalues ---    0.16000   0.16000   0.16000   0.16000   0.16000
     Eigenvalues ---    0.16000   0.16000   0.16000   0.16000   0.16000
     Eigenvalues ---    0.16000   0.16000   0.16000   0.21897   0.21900
     Eigenvalues ---    0.22000   0.22001   0.24991   0.24995   0.24996
     Eigenvalues ---    0.24998   0.28851   0.30673   0.31528   0.31702
     Eigenvalues ---    0.31729   0.32029   0.32843   0.33870   0.33925
     Eigenvalues ---    0.34149   0.34208   0.34216   0.34238   0.34239
     Eigenvalues ---    0.34241   0.34247   0.34249   0.34267   0.34315
     Eigenvalues ---    0.34344   0.34402   0.34634   0.34644   0.34813
     Eigenvalues ---    0.34856   0.55446   0.55583
 RFO step:  Lambda=-4.67741546D-03 EMin= 2.86053983D-03
 Linear search not attempted -- first point.
 Iteration  1 RMS(Cart)=  0.19050644 RMS(Int)=  0.00453869
 Iteration  2 RMS(Cart)=  0.01081013 RMS(Int)=  0.00030314
 Iteration  3 RMS(Cart)=  0.00004691 RMS(Int)=  0.00030265
 Iteration  4 RMS(Cart)=  0.00000002 RMS(Int)=  0.00030265
 ITry= 1 IFail=0 DXMaxC= 7.60D-01 DCOld= 1.00D+10 DXMaxT= 3.00D-01 DXLimC= 3.00D+00 Rises=F
 Variable       Old X    -DE/DX   Delta X   Delta X   Delta X     New X
                                 (Linear)    (Quad)   (Total)
    R1        2.07079  -0.00053   0.00000  -0.00154  -0.00154   2.06926
    R2        2.07550   0.00008   0.00000   0.00025   0.00025   2.07575
    R3        2.86640  -0.00573   0.00000  -0.01841  -0.01841   2.84799
    R4        2.90315  -0.00006   0.00000  -0.00019  -0.00019   2.90296
    R5        2.85015   0.00012   0.00000   0.00038   0.00038   2.85053
    R6        2.54738  -0.01479   0.00000  -0.02644  -0.02644   2.52094
    R7        2.06915   0.00060   0.00000   0.00173   0.00173   2.07088
    R8        2.06754   0.00160   0.00000   0.00459   0.00459   2.07213
    R9        2.06966  -0.00179   0.00000  -0.00515  -0.00515   2.06451
   R10        2.05909   0.00035   0.00000   0.00100   0.00100   2.06009
   R11        2.82628   0.00369   0.00000   0.01109   0.01109   2.83737
   R12        2.06883   0.00016   0.00000   0.00046   0.00046   2.06928
   R13        2.06802   0.00101   0.00000   0.00289   0.00289   2.07091
   R14        2.06274  -0.00008   0.00000  -0.00021  -0.00021   2.06252
   R15        2.06913   0.00074   0.00000   0.00212   0.00212   2.07125
   R16        2.06925   0.00062   0.00000   0.00178   0.00178   2.07103
   R17        2.06928  -0.00162   0.00000  -0.00466  -0.00466   2.06462
   R18        2.84692   0.00050   0.00000   0.00155   0.00155   2.84847
   R19        2.84091   0.00010   0.00000   0.00032   0.00032   2.84123
   R20        2.54618  -0.01423   0.00000  -0.02538  -0.02538   2.52080
   R21        2.06256   0.00003   0.00000   0.00010   0.00010   2.06266
   R22        2.06930   0.00069   0.00000   0.00197   0.00197   2.07127
   R23        2.06980   0.00004   0.00000   0.00012   0.00012   2.06991
   R24        2.05979   0.00073   0.00000   0.00208   0.00208   2.06187
   R25        2.84643  -0.00266   0.00000  -0.00825  -0.00825   2.83817
   R26        2.06656   0.00056   0.00000   0.00159   0.00159   2.06816
   R27        2.07456   0.00007   0.00000   0.00021   0.00021   2.07477
    A1        1.82523   0.00076   0.00000   0.03194   0.03203   1.85725
    A2        1.94302   0.00178   0.00000  -0.00923  -0.01046   1.93256
    A3        1.91564   0.00037   0.00000  -0.01613  -0.01710   1.89854
    A4        1.88596   0.00204   0.00000   0.01787   0.01820   1.90415
    A5        1.89215   0.00244   0.00000   0.02163   0.02195   1.91409
    A6        1.99324  -0.00665   0.00000  -0.03799  -0.03855   1.95469
    A7        2.00693   0.00051   0.00000   0.00236   0.00177   2.00871
    A8        2.17895  -0.00479   0.00000  -0.01835  -0.01891   2.16004
    A9        2.09704   0.00431   0.00000   0.01737   0.01676   2.11380
   A10        1.92446   0.00183   0.00000   0.01004   0.01006   1.93453
   A11        1.93146   0.00220   0.00000   0.01109   0.01111   1.94257
   A12        1.95951  -0.00264   0.00000  -0.01270  -0.01266   1.94684
   A13        1.89447  -0.00329   0.00000  -0.02653  -0.02652   1.86795
   A14        1.87619   0.00119   0.00000   0.01155   0.01158   1.88777
   A15        1.87542   0.00059   0.00000   0.00565   0.00569   1.88111
   A16        2.06694  -0.00215   0.00000  -0.01484  -0.01484   2.05209
   A17        2.23334  -0.00217   0.00000  -0.00966  -0.00966   2.22368
   A18        1.98272   0.00432   0.00000   0.02445   0.02445   2.00717
   A19        1.91050   0.00226   0.00000   0.01258   0.01254   1.92303
   A20        1.91473   0.00341   0.00000   0.02170   0.02168   1.93641
   A21        1.98631  -0.00306   0.00000  -0.01844  -0.01837   1.96795
   A22        1.88669  -0.00284   0.00000  -0.01759  -0.01772   1.86897
   A23        1.87577   0.00002   0.00000  -0.00166  -0.00162   1.87416
   A24        1.88705   0.00006   0.00000   0.00240   0.00248   1.88954
   A25        1.89499  -0.00314   0.00000  -0.02609  -0.02608   1.86891
   A26        1.87889   0.00081   0.00000   0.00852   0.00854   1.88743
   A27        1.92387   0.00201   0.00000   0.01052   0.01054   1.93441
   A28        1.87864   0.00099   0.00000   0.00925   0.00927   1.88791
   A29        1.92438   0.00157   0.00000   0.00771   0.00772   1.93211
   A30        1.96104  -0.00236   0.00000  -0.01078  -0.01076   1.95028
   A31        1.99250   0.00137   0.00000   0.00536   0.00536   1.99786
   A32        2.10367   0.00258   0.00000   0.01013   0.01013   2.11380
   A33        2.18689  -0.00394   0.00000  -0.01549  -0.01549   2.17140
   A34        1.98336  -0.00230   0.00000  -0.01069  -0.01068   1.97268
   A35        1.92071   0.00182   0.00000   0.01009   0.01011   1.93082
   A36        1.92014   0.00019   0.00000  -0.00105  -0.00104   1.91910
   A37        1.87832   0.00098   0.00000   0.01012   0.01014   1.88846
   A38        1.86777   0.00148   0.00000   0.01097   0.01098   1.87874
   A39        1.89054  -0.00223   0.00000  -0.02012  -0.02010   1.87043
   A40        2.06269  -0.00117   0.00000  -0.00863  -0.00898   2.05372
   A41        2.23644  -0.00203   0.00000  -0.00898  -0.00933   2.22710
   A42        1.98404   0.00320   0.00000   0.01786   0.01750   2.00154
   A43        1.97387  -0.00565   0.00000  -0.03097  -0.03168   1.94219
   A44        1.93011   0.00050   0.00000  -0.01914  -0.02027   1.90984
   A45        1.88759   0.00136   0.00000   0.01903   0.01940   1.90699
   A46        1.95962   0.00085   0.00000  -0.01791  -0.01921   1.94041
   A47        1.86830   0.00343   0.00000   0.03808   0.03838   1.90669
   A48        1.83651   0.00010   0.00000   0.01872   0.01898   1.85549
    D1        2.73663   0.00209   0.00000   0.00843   0.00791   2.74454
    D2       -0.37986   0.00096   0.00000  -0.05559  -0.05545  -0.43531
    D3        0.74175  -0.00094   0.00000  -0.03523  -0.03561   0.70614
    D4       -2.37474  -0.00207   0.00000  -0.09925  -0.09897  -2.47371
    D5       -1.36514  -0.00121   0.00000  -0.05102  -0.05111  -1.41624
    D6        1.80155  -0.00234   0.00000  -0.11504  -0.11446   1.68709
    D7        0.93377   0.00003   0.00000   0.01436   0.01434   0.94811
    D8       -3.13460  -0.00288   0.00000  -0.04977  -0.04919   3.09940
    D9       -1.13218  -0.00173   0.00000  -0.02690  -0.02663  -1.15881
   D10        2.91765   0.00243   0.00000   0.05540   0.05515   2.97280
   D11       -1.15071  -0.00048   0.00000  -0.00873  -0.00838  -1.15910
   D12        0.85171   0.00067   0.00000   0.01414   0.01417   0.86588
   D13       -1.26209   0.00246   0.00000   0.06898   0.06836  -1.19373
   D14        0.95273  -0.00046   0.00000   0.00485   0.00483   0.95756
   D15        2.95515   0.00070   0.00000   0.02772   0.02739   2.98254
   D16       -1.01906   0.00020   0.00000  -0.03454  -0.03493  -1.05398
   D17        1.07717  -0.00130   0.00000  -0.05398  -0.05435   1.02283
   D18       -3.11062  -0.00081   0.00000  -0.04766  -0.04803   3.12453
   D19        2.09872   0.00113   0.00000   0.02567   0.02604   2.12476
   D20       -2.08824  -0.00037   0.00000   0.00624   0.00662  -2.08162
   D21        0.00715   0.00012   0.00000   0.01256   0.01293   0.02009
   D22        3.12317   0.00036   0.00000   0.02829   0.02822  -3.13180
   D23       -0.04063   0.00033   0.00000   0.02535   0.02532  -0.01532
   D24        0.00788  -0.00076   0.00000  -0.03859  -0.03855  -0.03067
   D25        3.12727  -0.00079   0.00000  -0.04153  -0.04146   3.08581
   D26       -2.16318   0.00027   0.00000   0.01212   0.01220  -2.15097
   D27        2.05246   0.00035   0.00000   0.01308   0.01301   2.06547
   D28       -0.06414  -0.00013   0.00000   0.00673   0.00676  -0.05738
   D29        0.95710   0.00018   0.00000   0.00890   0.00896   0.96606
   D30       -1.11044   0.00025   0.00000   0.00986   0.00976  -1.10068
   D31        3.05614  -0.00022   0.00000   0.00351   0.00351   3.05965
   D32        1.04710  -0.00083   0.00000  -0.01313  -0.01312   1.03398
   D33       -2.11009  -0.00088   0.00000  -0.01383  -0.01383  -2.12392
   D34       -1.04487   0.00079   0.00000   0.00766   0.00766  -1.03721
   D35        2.08113   0.00074   0.00000   0.00695   0.00695   2.08808
   D36       -3.14049   0.00002   0.00000  -0.00223  -0.00223   3.14047
   D37       -0.01449  -0.00003   0.00000  -0.00293  -0.00294  -0.01743
   D38        3.07427  -0.00007   0.00000   0.00486   0.00487   3.07914
   D39       -1.10123   0.00093   0.00000   0.01791   0.01791  -1.08331
   D40        0.98057  -0.00057   0.00000  -0.00127  -0.00127   0.97930
   D41       -0.05086  -0.00009   0.00000   0.00533   0.00533  -0.04553
   D42        2.05682   0.00091   0.00000   0.01838   0.01838   2.07520
   D43       -2.14457  -0.00059   0.00000  -0.00080  -0.00081  -2.14537
   D44       -0.00263  -0.00056   0.00000  -0.02661  -0.02642  -0.02905
   D45        3.13283   0.00052   0.00000   0.02621   0.02601  -3.12434
   D46        3.12152  -0.00055   0.00000  -0.02717  -0.02697   3.09455
   D47       -0.02620   0.00053   0.00000   0.02565   0.02546  -0.00074
   D48        1.93118  -0.00242   0.00000  -0.11177  -0.11156   1.81962
   D49       -0.26796   0.00081   0.00000  -0.04570  -0.04613  -0.31409
   D50       -2.27488  -0.00180   0.00000  -0.08140  -0.08158  -2.35646
   D51       -1.21631  -0.00139   0.00000  -0.06101  -0.06053  -1.27684
   D52        2.86774   0.00184   0.00000   0.00507   0.00490   2.87263
   D53        0.86081  -0.00078   0.00000  -0.03063  -0.03055   0.83026
         Item               Value     Threshold  Converged?
 Maximum Force            0.014786     0.002500     NO 
 RMS     Force            0.002612     0.001667     NO 
 Maximum Displacement     0.759655     0.010000     NO 
 RMS     Displacement     0.195960     0.006667     NO 
 Predicted change in Energy=-2.545122D-03
 Lowest energy point so far.  Saving SCF results.
 GradGradGradGradGradGradGradGradGradGradGradGradGradGradGradGradGradGrad

 Leave Link  103 at Mon Jul  5 23:18:47 2021, MaxMem=   524288000 cpu:               0.3 elap:               0.1
 (Enter /opt/gaussian/g16_legacy/l202.exe)
                          Input orientation:                          
 ---------------------------------------------------------------------
 Center     Atomic      Atomic             Coordinates (Angstroms)
 Number     Number       Type             X           Y           Z
[...]
                 (A) (A) (A) (A) (A) (A) (A) (A) (A) (A) (A) (A)
                 (A) (A) (A) (A) (A) (A) (A) (A) (A) (A) (A) (A)
                 (A) (A) (A) (A) (A) (A) (A) (A) (A) (A) (A) (A)
                 (A) (A) (A) (A) (A) (A) (A) (A) (A) (A) (A) (A)
                 (A) (A) (A) (A) (A) (A) (A) (A) (A) (A) (A) (A)
                 (A) (A) (A) (A) (A) (A) (A) (A) (A) (A) (A) (A)
                 (A) (A) (A) (A) (A) (A) (A) (A) (A) (A) (A) (A)
                 (A) (A) (A) (A) (A) (A) (A) (A) (A) (A) (A) (A)
                 (A) (A) (A) (A) (A) (A) (A) (A) (A) (A) (A) (A)
                 (A) (A) (A) (A) (A) (A) (A) (A) (A) (A) (A) (A)
                 (A) (A) (A) (A) (A) (A) (A) (A) (A) (A) (A) (A)
                 (A) (A) (A) (A) (A) (A) (A) (A) (A) (A) (A) (A)
                 (A) (A) (A) (A) (A) (A) (A) (A) (A) (A) (A) (A)
                 (A) (A) (A) (A) (A) (A) (A) (A) (A)
 The electronic state is 1-A.
 Alpha  occ. eigenvalues --  -10.54370 -10.54030 -10.53960 -10.53904 -10.53335
 Alpha  occ. eigenvalues --  -10.53301 -10.53163 -10.53147 -10.53021 -10.52896
 Alpha  occ. eigenvalues --   -0.92306  -0.89578  -0.84578  -0.81391  -0.77571
 Alpha  occ. eigenvalues --   -0.76074  -0.71972  -0.68594  -0.58414  -0.58062
 Alpha  occ. eigenvalues --   -0.53370  -0.52273  -0.50204  -0.49724  -0.49183
 Alpha  occ. eigenvalues --   -0.47962  -0.45974  -0.45297  -0.44132  -0.44007
 Alpha  occ. eigenvalues --   -0.42781  -0.42044  -0.41501  -0.40979  -0.39780
 Alpha  occ. eigenvalues --   -0.37228  -0.36490  -0.28324  -0.27414
 Alpha virt. eigenvalues --    0.06751   0.08007   0.12241   0.13511   0.15852
 Alpha virt. eigenvalues --    0.16403   0.18251   0.19021   0.19843   0.20037
 Alpha virt. eigenvalues --    0.21107   0.21637   0.22758   0.23540   0.24764
 Alpha virt. eigenvalues --    0.25227   0.25282   0.26524   0.27737   0.28161
 Alpha virt. eigenvalues --    0.28898   0.29198   0.30137   0.31142   0.33348
 Alpha virt. eigenvalues --    0.38285   0.39660   0.47966   0.48374   0.51326
 Alpha virt. eigenvalues --    0.53256   0.54577   0.57078   0.57477   0.58902
 Alpha virt. eigenvalues --    0.60928   0.61347   0.63467   0.66357   0.66732
 Alpha virt. eigenvalues --    0.67229   0.70506   0.71216   0.72474   0.74492
 Alpha virt. eigenvalues --    0.75645   0.76273   0.77751   0.78667   0.81153
 Alpha virt. eigenvalues --    0.81548   0.81749   0.84590   0.86616   0.87403
 Alpha virt. eigenvalues --    0.89367   0.89984   0.92034   0.92144   0.93023
 Alpha virt. eigenvalues --    0.94255   0.95157   0.95320   0.96454   0.97416
 Alpha virt. eigenvalues --    0.97997   0.98872   1.00291   1.01153   1.01270
 Alpha virt. eigenvalues --    1.03257   1.04064   1.06842   1.07699   1.08413
 Alpha virt. eigenvalues --    1.09729   1.11855   1.20497   1.22202   1.25188
 Alpha virt. eigenvalues --    1.27508   1.32803   1.36801   1.38190   1.39432
 Alpha virt. eigenvalues --    1.41459   1.43111   1.45951   1.50667   1.52238
 Alpha virt. eigenvalues --    1.55571   1.55996   1.67336   1.69756   1.73288
 Alpha virt. eigenvalues --    1.75135   1.77939   1.79338   1.81358   1.82602
 Alpha virt. eigenvalues --    1.84699   1.85808   1.88026   1.89501   1.91493
 Alpha virt. eigenvalues --    1.92079   1.92658   1.93964   2.01408   2.03000
 Alpha virt. eigenvalues --    2.04094   2.05803   2.07215   2.08395   2.10021
 Alpha virt. eigenvalues --    2.10477   2.11361   2.11651   2.13871   2.15701
 Alpha virt. eigenvalues --    2.15993   2.16465   2.18315   2.18738   2.19568
 Alpha virt. eigenvalues --    2.21517   2.22237   2.23217   2.24436   2.25254
 Alpha virt. eigenvalues --    2.30043   2.31201   2.32069   2.35526   2.35769
 Alpha virt. eigenvalues --    2.39067   2.41418   2.42972   2.43855   2.46124
 Alpha virt. eigenvalues --    2.47782   2.47968   2.50874   2.52388   2.53945
 Alpha virt. eigenvalues --    2.56472   2.58297   2.61669   2.62401   2.64486
 Alpha virt. eigenvalues --    2.66559   2.66871   2.68442   2.69736   2.71305
 Alpha virt. eigenvalues --    2.74184   2.75331   2.76834   2.80199   2.84206
 Alpha virt. eigenvalues --    2.85236   2.86437   2.86875   2.87487   2.88296
 Alpha virt. eigenvalues --    2.90488   2.92184   2.92999   2.94817   3.02888
 Alpha virt. eigenvalues --    3.04691   3.08708   3.10958   3.17775   3.19330
 Alpha virt. eigenvalues --    3.22039   3.24566   3.30557   3.32734   3.40427
 Alpha virt. eigenvalues --    3.42210   3.42818   3.43782   3.44539   3.44937
 Alpha virt. eigenvalues --    3.45945   3.47043   3.49587   3.50895   3.52825
 Alpha virt. eigenvalues --    3.55356   4.17541   4.27533   4.35262   4.42953
 Alpha virt. eigenvalues --    4.51556   4.54322   4.56749   4.70546   4.72626
 Alpha virt. eigenvalues --    4.74953
          Condensed to atoms (all electrons):
               1          2          3          4          5          6
     1  C    5.036979   0.386130   0.383482   0.376215  -0.072671  -0.003051
     2  H    0.386130   0.601063  -0.032009  -0.032634   0.004824   0.000010
     3  H    0.383482  -0.032009   0.615172  -0.040612  -0.006008   0.004097
     4  C    0.376215  -0.032634  -0.040612   4.749527   0.371787  -0.032466
     5  C   -0.072671   0.004824  -0.006008   0.371787   5.003420   0.379655
     6  H   -0.003051   0.000010   0.004097  -0.032466   0.379655   0.587657
     7  H   -0.001073   0.000004  -0.000628  -0.039249   0.379435  -0.036885
     8  H    0.004770  -0.000174   0.000128  -0.034234   0.385954  -0.026415
     9  C   -0.048433  -0.007214   0.003592   0.717622  -0.042177  -0.001144
    10  H    0.006267  -0.000006  -0.000185  -0.032675  -0.014433   0.000329
    11  C   -0.014655  -0.000248   0.000291  -0.042540   0.006122  -0.000159
    12  H    0.000546  -0.000235  -0.000019  -0.001189  -0.000145  -0.000006
    13  H    0.000206   0.000141   0.000020   0.000799  -0.000146   0.000018
    14  H    0.002420   0.003923  -0.000076  -0.007989   0.000078   0.000004
    15  C   -0.000081  -0.000015   0.000003  -0.000129  -0.000001   0.000000
    16  H   -0.000007   0.000000   0.000000  -0.000001  -0.000000  -0.000000
    17  H    0.000031   0.000000  -0.000000   0.000010   0.000000   0.000000
    18  H   -0.000003   0.000003  -0.000000  -0.000001  -0.000000  -0.000000
    19  C   -0.004552   0.000165  -0.000048   0.000713   0.000160  -0.000009
    20  C   -0.000296   0.000011  -0.000006   0.001206  -0.000898   0.000046
    21  H   -0.001129   0.000003   0.000031  -0.000439   0.000735  -0.000009
    22  H   -0.000043   0.000000   0.000002   0.000228  -0.000004   0.000000
    23  H    0.000245   0.000005  -0.000005   0.000234   0.000157   0.000005
    24  C   -0.057079  -0.006950   0.005411  -0.003639  -0.000240   0.000003
    25  H   -0.000168   0.002252  -0.000111  -0.000088  -0.000011   0.000000
    26  C    0.342008  -0.039291  -0.037709  -0.049532  -0.003124  -0.000276
    27  H   -0.040780   0.005336  -0.002523  -0.007591   0.001079   0.000064
    28  H   -0.037674  -0.002618  -0.004498   0.005346  -0.000003   0.000003
               7          8          9         10         11         12
     1  C   -0.001073   0.004770  -0.048433   0.006267  -0.014655   0.000546
     2  H    0.000004  -0.000174  -0.007214  -0.000006  -0.000248  -0.000235
     3  H   -0.000628   0.000128   0.003592  -0.000185   0.000291  -0.000019
     4  C   -0.039249  -0.034234   0.717622  -0.032675  -0.042540  -0.001189
     5  C    0.379435   0.385954  -0.042177  -0.014433   0.006122  -0.000145
     6  H   -0.036885  -0.026415  -0.001144   0.000329  -0.000159  -0.000006
     7  H    0.604851  -0.027629  -0.000475   0.000205  -0.000168   0.000022
     8  H   -0.027629   0.572619  -0.005513   0.006671   0.000088  -0.000005
     9  C   -0.000475  -0.005513   4.881784   0.375466   0.366006  -0.033056
    10  H    0.000205   0.006671   0.375466   0.619288  -0.054658  -0.000992
    11  C   -0.000168   0.000088   0.366006  -0.054658   4.963525   0.383173
    12  H    0.000022  -0.000005  -0.033056  -0.000992   0.383173   0.587867
    13  H   -0.000004  -0.000007  -0.033831  -0.002076   0.381358  -0.034367
    14  H   -0.000004   0.000009  -0.034878   0.004560   0.389716  -0.028998
    15  C    0.000001   0.000000  -0.000091  -0.000001  -0.000477   0.000457
    16  H    0.000000   0.000000  -0.000004   0.000000   0.000028  -0.000001
    17  H   -0.000000  -0.000000  -0.000038  -0.000004  -0.000264   0.001804
    18  H    0.000000  -0.000000   0.000005   0.000000  -0.000007   0.000007
    19  C    0.000105   0.000009  -0.000738   0.000029  -0.000047  -0.000605
    20  C   -0.000724   0.000015   0.000796  -0.000120  -0.000432  -0.000208
    21  H    0.001826   0.000024  -0.000307  -0.000039   0.000037  -0.000000
    22  H   -0.000038   0.000000   0.000190   0.000000   0.000007  -0.000028
    23  H   -0.000113   0.000023   0.001151   0.000288  -0.000238   0.000307
    24  C    0.000061   0.000002   0.000785  -0.000049   0.000742  -0.000210
    25  H   -0.000000   0.000000   0.000151  -0.000001  -0.000403   0.000001
    26  C    0.001484  -0.000015  -0.004086  -0.000125   0.000110   0.000181
    27  H    0.002770  -0.000191   0.000054  -0.000015  -0.000018   0.000006
    28  H   -0.000153   0.000004  -0.000040   0.000004  -0.000019  -0.000006
              13         14         15         16         17         18
     1  C    0.000206   0.002420  -0.000081  -0.000007   0.000031  -0.000003
     2  H    0.000141   0.003923  -0.000015   0.000000   0.000000   0.000003
     3  H    0.000020  -0.000076   0.000003   0.000000  -0.000000  -0.000000
     4  C    0.000799  -0.007989  -0.000129  -0.000001   0.000010  -0.000001
     5  C   -0.000146   0.000078  -0.000001  -0.000000   0.000000  -0.000000
     6  H    0.000018   0.000004   0.000000  -0.000000   0.000000  -0.000000
     7  H   -0.000004  -0.000004   0.000001   0.000000  -0.000000   0.000000
     8  H   -0.000007   0.000009   0.000000   0.000000  -0.000000  -0.000000
     9  C   -0.033831  -0.034878  -0.000091  -0.000004  -0.000038   0.000005
    10  H   -0.002076   0.004560  -0.000001   0.000000  -0.000004   0.000000
    11  C    0.381358   0.389716  -0.000477   0.000028  -0.000264  -0.000007
    12  H   -0.034367  -0.028998   0.000457  -0.000001   0.001804   0.000007
    13  H    0.589851  -0.027977  -0.000002   0.000000  -0.000041   0.000000
    14  H   -0.027977   0.580336   0.000044   0.000004  -0.000066   0.000039
    15  C   -0.000002   0.000044   5.007995   0.380294   0.380038   0.384710
    16  H    0.000000   0.000004   0.380294   0.589650  -0.036659  -0.026189
    17  H   -0.000041  -0.000066   0.380038  -0.036659   0.597140  -0.027036
    18  H    0.000000   0.000039   0.384710  -0.026189  -0.027036   0.571878
    19  C    0.000212   0.000120   0.367659  -0.034539  -0.037531  -0.033585
    20  C    0.000008   0.000052  -0.078695  -0.001329  -0.001467   0.004774
    21  H   -0.000000  -0.000001   0.004998  -0.000028  -0.000033  -0.000178
    22  H    0.000000   0.000001  -0.003057   0.004137  -0.000924  -0.000012
    23  H   -0.000025  -0.000020  -0.002555  -0.000717   0.004107  -0.000032
    24  C    0.000237   0.001684  -0.037548  -0.001209  -0.001106  -0.005038
    25  H    0.000006   0.000694  -0.014612   0.000278   0.000224   0.006728
    26  C   -0.000040  -0.001197   0.005980  -0.000201  -0.000126   0.000098
    27  H    0.000000   0.000015   0.000035   0.000011  -0.000008   0.000012
    28  H    0.000002   0.000049  -0.000173   0.000010  -0.000002  -0.000010
              19         20         21         22         23         24
     1  C   -0.004552  -0.000296  -0.001129  -0.000043   0.000245  -0.057079
     2  H    0.000165   0.000011   0.000003   0.000000   0.000005  -0.006950
     3  H   -0.000048  -0.000006   0.000031   0.000002  -0.000005   0.005411
     4  C    0.000713   0.001206  -0.000439   0.000228   0.000234  -0.003639
     5  C    0.000160  -0.000898   0.000735  -0.000004   0.000157  -0.000240
     6  H   -0.000009   0.000046  -0.000009   0.000000   0.000005   0.000003
     7  H    0.000105  -0.000724   0.001826  -0.000038  -0.000113   0.000061
     8  H    0.000009   0.000015   0.000024   0.000000   0.000023   0.000002
     9  C   -0.000738   0.000796  -0.000307   0.000190   0.001151   0.000785
    10  H    0.000029  -0.000120  -0.000039   0.000000   0.000288  -0.000049
    11  C   -0.000047  -0.000432   0.000037   0.000007  -0.000238   0.000742
    12  H   -0.000605  -0.000208  -0.000000  -0.000028   0.000307  -0.000210
    13  H    0.000212   0.000008  -0.000000   0.000000  -0.000025   0.000237
    14  H    0.000120   0.000052  -0.000001   0.000001  -0.000020   0.001684
    15  C    0.367659  -0.078695   0.004998  -0.003057  -0.002555  -0.037548
    16  H   -0.034539  -0.001329  -0.000028   0.004137  -0.000717  -0.001209
    17  H   -0.037531  -0.001467  -0.000033  -0.000924   0.004107  -0.001106
    18  H   -0.033585   0.004774  -0.000178  -0.000012  -0.000032  -0.005038
    19  C    4.713119   0.382801  -0.026926  -0.037332  -0.033866   0.717224
    20  C    0.382801   4.990111   0.382441   0.379938   0.381910  -0.052985
    21  H   -0.026926   0.382441   0.584862  -0.027881  -0.028138  -0.009021
    22  H   -0.037332   0.379938  -0.027881   0.595461  -0.034604   0.001455
    23  H   -0.033866   0.381910  -0.028138  -0.034604   0.585248  -0.000632
    24  C    0.717224  -0.052985  -0.009021   0.001455  -0.000632   4.912836
    25  H   -0.033480   0.006508  -0.000006  -0.000156  -0.000177   0.376252
    26  C   -0.038848  -0.014358   0.002311   0.000128   0.000608   0.368817
    27  H   -0.006288   0.000214   0.002587   0.000137  -0.000263  -0.040338
    28  H    0.002778   0.000376  -0.000043   0.000019  -0.000015  -0.032377
              25         26         27         28
     1  C   -0.000168   0.342008  -0.040780  -0.037674
     2  H    0.002252  -0.039291   0.005336  -0.002618
     3  H   -0.000111  -0.037709  -0.002523  -0.004498
     4  C   -0.000088  -0.049532  -0.007591   0.005346
     5  C   -0.000011  -0.003124   0.001079  -0.000003
     6  H    0.000000  -0.000276   0.000064   0.000003
     7  H   -0.000000   0.001484   0.002770  -0.000153
     8  H    0.000000  -0.000015  -0.000191   0.000004
     9  C    0.000151  -0.004086   0.000054  -0.000040
    10  H   -0.000001  -0.000125  -0.000015   0.000004
    11  C   -0.000403   0.000110  -0.000018  -0.000019
    12  H    0.000001   0.000181   0.000006  -0.000006
    13  H    0.000006  -0.000040   0.000000   0.000002
    14  H    0.000694  -0.001197   0.000015   0.000049
    15  C   -0.014612   0.005980   0.000035  -0.000173
    16  H    0.000278  -0.000201   0.000011   0.000010
    17  H    0.000224  -0.000126  -0.000008  -0.000002
    18  H    0.006728   0.000098   0.000012  -0.000010
    19  C   -0.033480  -0.038848  -0.006288   0.002778
    20  C    0.006508  -0.014358   0.000214   0.000376
    21  H   -0.000006   0.002311   0.002587  -0.000043
    22  H   -0.000156   0.000128   0.000137   0.000019
    23  H   -0.000177   0.000608  -0.000263  -0.000015
    24  C    0.376252   0.368817  -0.040338  -0.032377
    25  H    0.619159  -0.053753   0.004717  -0.005097
    26  C   -0.053753   4.992726   0.391847   0.384000
    27  H    0.004717   0.391847   0.610063  -0.032561
    28  H   -0.005097   0.384000  -0.032561   0.602934
 Mulliken charges:
               1
     1  C   -0.257605
     2  H    0.117523
     3  H    0.112207
     4  C    0.101321
     5  C   -0.393544
     6  H    0.128529
     7  H    0.116379
     8  H    0.123866
     9  C   -0.135577
    10  H    0.092272
    11  C   -0.376872
    12  H    0.125700
    13  H    0.125655
    14  H    0.117460
    15  C   -0.394776
    16  H    0.126473
    17  H    0.121949
    18  H    0.123839
    19  C    0.103301
    20  C   -0.379689
    21  H    0.114323
    22  H    0.122376
    23  H    0.127113
    24  C   -0.137088
    25  H    0.091093
    26  C   -0.247618
    27  H    0.111627
    28  H    0.119764
 Sum of Mulliken charges =  -0.00000
 Mulliken charges with hydrogens summed into heavy atoms:
               1
     1  C   -0.027876
     4  C    0.101321
     5  C   -0.024771
     9  C   -0.043304
    11  C   -0.008058
    15  C   -0.022515
    19  C    0.103301
    20  C   -0.015878
    24  C   -0.045995
    26  C   -0.016227
 Electronic spatial extent (au):  <R**2>=           1707.1836
 Charge=              0.0000 electrons
 Dipole moment (field-independent basis, Debye):
    X=             -0.0829    Y=             -0.0136    Z=             -0.1308  Tot=              0.1555
 Quadrupole moment (field-independent basis, Debye-Ang):
   XX=            -64.9295   YY=            -64.5802   ZZ=            -63.0956
   XY=             -2.0773   XZ=              0.1834   YZ=             -0.3878
 Traceless Quadrupole moment (field-independent basis, Debye-Ang):
   XX=             -0.7277   YY=             -0.3785   ZZ=              1.1062
   XY=             -2.0773   XZ=              0.1834   YZ=             -0.3878
 Octapole moment (field-independent basis, Debye-Ang**2):
  XXX=             -3.8692  YYY=              3.4011  ZZZ=              2.6226  XYY=              2.5406
  XXY=             -1.7337  XXZ=             -2.9629  XZZ=             -1.0461  YZZ=              0.4129
  YYZ=             -1.6033  XYZ=             -2.1960
 Hexadecapole moment (field-independent basis, Debye-Ang**3):
 XXXX=          -1267.4899 YYYY=           -620.2453 ZZZZ=           -466.0896 XXXY=            -12.2149
 XXXZ=              5.4530 YYYX=             -1.4958 YYYZ=             -1.7629 ZZZX=             -5.3614
 ZZZY=             -5.0379 XXYY=           -323.6374 XXZZ=           -285.8172 YYZZ=           -179.8029
 XXYZ=              0.9673 YYXZ=              3.1560 ZZXY=              2.3791
 N-N= 5.517866918901D+02 E-N=-2.008719940456D+03  KE= 3.881267875044D+02
 No NMR shielding tensors so no spin-rotation constants.
 Leave Link  601 at Mon Jul  5 23:35:53 2021, MaxMem=   524288000 cpu:               1.2 elap:               0.2
 (Enter /opt/gaussian/g16_legacy/l9999.exe)
 1\1\GINC-TRUENO91\FOpt\RM062X\6-31G(d,p)\C10H18\JRAMOS\05-Jul-2021\0\\
 #p opt=loose m062x/6-31g(d,p)\\Conformer number 048. Energy MM = 23.69
 2 kcal/mol\\0,1\C,-1.3786324877,0.4115077936,1.510445334\H,-1.77222508
 04,-0.5933086202,1.6915754542\H,-1.972973927,1.0986059883,2.1253648389
 \C,-1.5211631069,0.8037934497,0.0589107077\C,-1.5915508845,2.2889973,-
 0.1876792946\H,-2.4988954249,2.7154906915,0.2558806739\H,-0.7439522623
 ,2.8079641916,0.2773631498\H,-1.5871712073,2.5234113948,-1.2545822325\
 C,-1.5429256334,-0.0624732299,-0.9594434583\H,-1.6219768611,0.35257396
 75,-1.9650144017\C,-1.4582579828,-1.5585739688,-0.8947254387\H,-0.5457
 899507,-1.9110149773,-1.3900016607\H,-2.3046491635,-2.0198147999,-1.41
 51001847\H,-1.4350576712,-1.9351847651,0.1288360863\C,2.4027334227,-1.
 7790605276,-0.2409738061\H,3.4842702044,-1.6029664636,-0.2762400752\H,
 2.0898499371,-2.0102301652,-1.2666493176\H,2.2169117294,-2.6578334993,
 0.3805795572\C,1.6760339136,-0.5653595737,0.2753484843\C,1.8657529405,
 0.6740037389,-0.5572474278\H,1.3591396801,1.5478390745,-0.1458844856\H
 ,2.9317282922,0.9064014848,-0.66473931\H,1.4691714047,0.5087618079,-1.
 5659613706\C,0.9196984043,-0.6320655334,1.3757199612\H,0.8413962988,-1
 .6006322815,1.8718219307\C,0.0931533635,0.4660517422,1.9838800431\H,0.
 5110628576,1.4509192834,1.7509215155\H,0.1143191951,0.3718964969,3.075
 1947273\\Version=EM64L-G16RevA.03\State=1-A\HF=-391.6932361\RMSD=5.422
 e-09\RMSF=9.591e-06\Dipole=0.0468486,0.0174722,-0.0352218\Quadrupole=-
 1.3881268,0.721679,0.6664478,-0.2924837,-1.2094299,0.1300228\PG=C01 [X
 (C10H18)]\\@


 LOVE IS BLIND, THAT'S WHY ALL THE WORLD LOVES A LOUVER.
 Job cpu time:       0 days  1 hours 52 minutes 39.8 seconds.
 Elapsed time:       0 days  0 hours 18 minutes 51.0 seconds.
 File lengths (MBytes):  RWF=     42 Int=      0 D2E=      0 Chk=      6 Scr=      1
 Normal termination of Gaussian 16 at Mon Jul  5 23:35:54 2021.
