 Entering Gaussian System, Link 0=/opt/gaussian/g16_legacy/g16
 Input=IsoP_rdkit_042_gaussian.com
 Output=IsoP_rdkit_042_gaussian.log
 Initial command:
 /opt/gaussian/g16_legacy/l1.exe "/scratch-local/jramos/2641260/Gau-4003.inp" -scrdir="/scratch-local/jramos/2641260/"
 Entering Link 1 = /opt/gaussian/g16_legacy/l1.exe PID=      4004.
  
 Copyright (c) 1988,1990,1992,1993,1995,1998,2003,2009,2016,
            Gaussian, Inc.  All Rights Reserved.
  
 This is part of the Gaussian(R) 16 program.  It is based on
 the Gaussian(R) 09 system (copyright 2009, Gaussian, Inc.),
 the Gaussian(R) 03 system (copyright 2003, Gaussian, Inc.),
 the Gaussian(R) 98 system (copyright 1998, Gaussian, Inc.),
 the Gaussian(R) 94 system (copyright 1995, Gaussian, Inc.),
 the Gaussian 92(TM) system (copyright 1992, Gaussian, Inc.),
 the Gaussian 90(TM) system (copyright 1990, Gaussian, Inc.),
 the Gaussian 88(TM) system (copyright 1988, Gaussian, Inc.),
 the Gaussian 86(TM) system (copyright 1986, Carnegie Mellon
 University), and the Gaussian 82(TM) system (copyright 1983,
 Carnegie Mellon University). Gaussian is a federally registered
 trademark of Gaussian, Inc.
  
 This software contains proprietary and confidential information,
 including trade secrets, belonging to Gaussian, Inc.
  
 This software is provided under written license and may be
 used, copied, transmitted, or stored only in accord with that
 written license.
  
 The following legend is applicable only to US Government
 contracts under FAR:
  
                    RESTRICTED RIGHTS LEGEND
  
 Use, reproduction and disclosure by the US Government is
 subject to restrictions as set forth in subparagraphs (a)
 and (c) of the Commercial Computer Software - Restricted
 Rights clause in FAR 52.227-19.
  
 Gaussian, Inc.
 340 Quinnipiac St., Bldg. 40, Wallingford CT 06492
  
  
 ---------------------------------------------------------------
 Warning -- This program may not be used in any manner that
 competes with the business of Gaussian, Inc. or will provide
 assistance to any competitor of Gaussian, Inc.  The licensee
 of this program is prohibited from giving any competitor of
 Gaussian, Inc. access to this program.  By using this program,
 the user acknowledges that Gaussian, Inc. is engaged in the
 business of creating and licensing software in the field of
 computational chemistry and represents and warrants to the
 licensee that it is not a competitor of Gaussian, Inc. and that
 it will not use this program in any manner prohibited above.
 ---------------------------------------------------------------
  

 Cite this work as:
 Gaussian 16, Revision A.03,
 M. J. Frisch, G. W. Trucks, H. B. Schlegel, G. E. Scuseria, 
 M. A. Robb, J. R. Cheeseman, G. Scalmani, V. Barone, 
 G. A. Petersson, H. Nakatsuji, X. Li, M. Caricato, A. V. Marenich, 
 J. Bloino, B. G. Janesko, R. Gomperts, B. Mennucci, H. P. Hratchian, 
 J. V. Ortiz, A. F. Izmaylov, J. L. Sonnenberg, D. Williams-Young, 
 F. Ding, F. Lipparini, F. Egidi, J. Goings, B. Peng, A. Petrone, 
 T. Henderson, D. Ranasinghe, V. G. Zakrzewski, J. Gao, N. Rega, 
 G. Zheng, W. Liang, M. Hada, M. Ehara, K. Toyota, R. Fukuda, 
 J. Hasegawa, M. Ishida, T. Nakajima, Y. Honda, O. Kitao, H. Nakai, 
 T. Vreven, K. Throssell, J. A. Montgomery, Jr., J. E. Peralta, 
 F. Ogliaro, M. J. Bearpark, J. J. Heyd, E. N. Brothers, K. N. Kudin, 
 V. N. Staroverov, T. A. Keith, R. Kobayashi, J. Normand, 
 K. Raghavachari, A. P. Rendell, J. C. Burant, S. S. Iyengar, 
 J. Tomasi, M. Cossi, J. M. Millam, M. Klene, C. Adamo, R. Cammi, 
 J. W. Ochterski, R. L. Martin, K. Morokuma, O. Farkas, 
 J. B. Foresman, and D. J. Fox, Gaussian, Inc., Wallingford CT, 2016.
 
 ******************************************
 Gaussian 16:  EM64L-G16RevA.03 25-Dec-2016
                 5-Jul-2021 
 ******************************************
 %chk=IsoP_rdkit_042_gaussian.chk
 %nproc=6
 Will use up to    6 processors via shared memory.
 %mem=4000Mb
 -----------------------------
 #p opt=loose m062x/6-31g(d,p)
 -----------------------------
 1/7=-1,18=20,19=15,26=3,38=1/1,3;
 2/9=110,12=2,17=6,18=5,40=1/2;
 3/5=1,6=6,7=101,11=2,25=1,30=1,71=1,74=-55/1,2,3;
 4//1;
 5/5=2,38=5/2;
 6/7=2,8=2,9=2,10=2,28=1/1;
 7//1,2,3,16;
 1/7=-1,18=20,19=15,26=3/3(2);
 2/9=110/2;
 99//99;
 2/9=110/2;
 3/5=1,6=6,7=101,11=2,25=1,30=1,71=1,74=-55/1,2,3;
 4/5=5,16=3,69=1/1;
 5/5=2,38=5/2;
 7//1,2,3,16;
 1/7=-1,18=20,19=15,26=3/3(-5);
 2/9=110/2;
 6/7=2,8=2,9=2,10=2,19=2,28=1/1;
 99/9=1/99;
 Leave Link    1 at Mon Jul  5 23:09:51 2021, MaxMem=   524288000 cpu:               0.3 elap:               0.1
 (Enter /opt/gaussian/g16_legacy/l101.exe)
 -------------------------------------------------
 Conformer number 042. Energy MM = 23.759 kcal/mol
 -------------------------------------------------
 Symbolic Z-matrix:
 Charge =  0 Multiplicity = 1
 C                    -0.5285    0.4656   -0.5953 
 H                    -0.2025    1.3391   -0.0146 
 H                    -0.4418    0.7614   -1.6491 
 C                    -1.9831    0.1481   -0.2912 
 C                    -2.6402   -0.815    -1.2436 
 H                    -3.7289   -0.832    -1.1567 
 H                    -2.2722   -1.8313   -1.0728 
 H                    -2.4154   -0.5357   -2.2787 
 C                    -2.602     0.7398    0.7501 
 H                    -2.0323    1.4409    1.3602 
 C                    -4.0097    0.5472    1.2173 
 H                    -4.5287   -0.2739    0.7194 
 H                    -4.5824    1.466     1.059 
 H                    -4.0099    0.3276    2.29 
 C                     4.2171    0.2249   -0.1698 
 H                     4.9226   -0.4881    0.2692 
 H                     4.5104    1.236     0.1313 
 H                     4.3147    0.1609   -1.2586 
 C                     2.8165   -0.0738    0.2981 
 C                     2.6356   -0.0073    1.7896 
 H                     1.5931   -0.0908    2.1047 
 H                     3.2003   -0.8109    2.2732 
 H                     3.0053    0.9509    2.1704 
 C                     1.8425   -0.3589   -0.5883 
 H                     2.0913   -0.3596   -1.6497 
 C                     0.4078   -0.7113   -0.2974 
 H                     0.2757   -1.0483    0.7359 
 H                     0.1446   -1.5719   -0.925 
 
 ITRead=  0  0  0  0  0  0  0  0  0  0  0  0  0  0  0  0  0  0  0  0
 ITRead=  0  0  0  0  0  0  0  0
 MicOpt= -1 -1 -1 -1 -1 -1 -1 -1 -1 -1 -1 -1 -1 -1 -1 -1 -1 -1 -1 -1
 MicOpt= -1 -1 -1 -1 -1 -1 -1 -1
 NAtoms=     28 NQM=       28 NQMF=       0 NMMI=      0 NMMIF=      0
                NMic=       0 NMicF=      0.
                    Isotopes and Nuclear Properties:
 (Nuclear quadrupole moments (NQMom) in fm**2, nuclear magnetic moments (NMagM)
  in nuclear magnetons)

  Atom         1           2           3           4           5           6           7           8           9          10
 IAtWgt=          12           1           1          12          12           1           1           1          12           1
 AtmWgt=  12.0000000   1.0078250   1.0078250  12.0000000  12.0000000   1.0078250   1.0078250   1.0078250  12.0000000   1.0078250
 NucSpn=           0           1           1           0           0           1           1           1           0           1
 AtZEff=  -0.0000000  -0.0000000  -0.0000000  -0.0000000  -0.0000000  -0.0000000  -0.0000000  -0.0000000  -0.0000000  -0.0000000
 NQMom=    0.0000000   0.0000000   0.0000000   0.0000000   0.0000000   0.0000000   0.0000000   0.0000000   0.0000000   0.0000000
 NMagM=    0.0000000   2.7928460   2.7928460   0.0000000   0.0000000   2.7928460   2.7928460   2.7928460   0.0000000   2.7928460
 AtZNuc=   6.0000000   1.0000000   1.0000000   6.0000000   6.0000000   1.0000000   1.0000000   1.0000000   6.0000000   1.0000000

  Atom        11          12          13          14          15          16          17          18          19          20
 IAtWgt=          12           1           1           1          12           1           1           1          12          12
 AtmWgt=  12.0000000   1.0078250   1.0078250   1.0078250  12.0000000   1.0078250   1.0078250   1.0078250  12.0000000  12.0000000
 NucSpn=           0           1           1           1           0           1           1           1           0           0
 AtZEff=  -0.0000000  -0.0000000  -0.0000000  -0.0000000  -0.0000000  -0.0000000  -0.0000000  -0.0000000  -0.0000000  -0.0000000
 NQMom=    0.0000000   0.0000000   0.0000000   0.0000000   0.0000000   0.0000000   0.0000000   0.0000000   0.0000000   0.0000000
 NMagM=    0.0000000   2.7928460   2.7928460   2.7928460   0.0000000   2.7928460   2.7928460   2.7928460   0.0000000   0.0000000
 AtZNuc=   6.0000000   1.0000000   1.0000000   1.0000000   6.0000000   1.0000000   1.0000000   1.0000000   6.0000000   6.0000000

  Atom        21          22          23          24          25          26          27          28
 IAtWgt=           1           1           1          12           1          12           1           1
 AtmWgt=   1.0078250   1.0078250   1.0078250  12.0000000   1.0078250  12.0000000   1.0078250   1.0078250
 NucSpn=           1           1           1           0           1           0           1           1
 AtZEff=  -0.0000000  -0.0000000  -0.0000000  -0.0000000  -0.0000000  -0.0000000  -0.0000000  -0.0000000
 NQMom=    0.0000000   0.0000000   0.0000000   0.0000000   0.0000000   0.0000000   0.0000000   0.0000000
 NMagM=    2.7928460   2.7928460   2.7928460   0.0000000   2.7928460   0.0000000   2.7928460   2.7928460
 AtZNuc=   1.0000000   1.0000000   1.0000000   6.0000000   1.0000000   6.0000000   1.0000000   1.0000000
 Leave Link  101 at Mon Jul  5 23:09:51 2021, MaxMem=   524288000 cpu:               0.7 elap:               0.1
 (Enter /opt/gaussian/g16_legacy/l103.exe)

 GradGradGradGradGradGradGradGradGradGradGradGradGradGradGradGradGradGrad
 Berny optimization.
 Initialization pass.
                           ----------------------------
                           !    Initial Parameters    !
                           ! (Angstroms and Degrees)  !
 --------------------------                            --------------------------
 ! Name  Definition              Value          Derivative Info.                !
 --------------------------------------------------------------------------------
 ! R1    R(1,2)                  1.0984         estimate D2E/DX2                !
 ! R2    R(1,3)                  1.098          estimate D2E/DX2                !
 ! R3    R(1,4)                  1.5196         estimate D2E/DX2                !
 ! R4    R(1,26)                 1.5331         estimate D2E/DX2                !
 ! R5    R(4,5)                  1.5055         estimate D2E/DX2                !
 ! R6    R(4,9)                  1.3481         estimate D2E/DX2                !
 ! R7    R(5,6)                  1.0923         estimate D2E/DX2                !
 ! R8    R(5,7)                  1.0943         estimate D2E/DX2                !
 ! R9    R(5,8)                  1.0954         estimate D2E/DX2                !
 ! R10   R(9,10)                 1.0901         estimate D2E/DX2                !
 ! R11   R(9,11)                 1.4957         estimate D2E/DX2                !
 ! R12   R(11,12)                1.0915         estimate D2E/DX2                !
 ! R13   R(11,13)                1.0942         estimate D2E/DX2                !
 ! R14   R(11,14)                1.0949         estimate D2E/DX2                !
 ! R15   R(15,16)                1.0949         estimate D2E/DX2                !
 ! R16   R(15,17)                1.095          estimate D2E/DX2                !
 ! R17   R(15,18)                1.095          estimate D2E/DX2                !
 ! R18   R(15,19)                1.5066         estimate D2E/DX2                !
 ! R19   R(19,20)                1.5039         estimate D2E/DX2                !
 ! R20   R(19,24)                1.3475         estimate D2E/DX2                !
 ! R21   R(20,21)                1.0923         estimate D2E/DX2                !
 ! R22   R(20,22)                1.0948         estimate D2E/DX2                !
 ! R23   R(20,23)                1.0954         estimate D2E/DX2                !
 ! R24   R(24,25)                1.0902         estimate D2E/DX2                !
 ! R25   R(24,26)                1.5057         estimate D2E/DX2                !
 ! R26   R(26,27)                1.0949         estimate D2E/DX2                !
 ! R27   R(26,28)                1.0972         estimate D2E/DX2                !
 ! A1    A(2,1,3)              105.6483         estimate D2E/DX2                !
 ! A2    A(2,1,4)              110.1488         estimate D2E/DX2                !
 ! A3    A(2,1,26)             109.0555         estimate D2E/DX2                !
 ! A4    A(3,1,4)              108.902          estimate D2E/DX2                !
 ! A5    A(3,1,26)             110.1866         estimate D2E/DX2                !
 ! A6    A(4,1,26)             112.6634         estimate D2E/DX2                !
 ! A7    A(1,4,5)              115.1428         estimate D2E/DX2                !
 ! A8    A(1,4,9)              120.1534         estimate D2E/DX2                !
 ! A9    A(5,4,9)              124.6841         estimate D2E/DX2                !
 ! A10   A(4,5,6)              113.2453         estimate D2E/DX2                !
 ! A11   A(4,5,7)              110.4029         estimate D2E/DX2                !
 ! A12   A(4,5,8)              110.1881         estimate D2E/DX2                !
 ! A13   A(6,5,7)              107.9576         estimate D2E/DX2                !
 ! A14   A(6,5,8)              106.4802         estimate D2E/DX2                !
 ! A15   A(7,5,8)              108.3772         estimate D2E/DX2                !
 ! A16   A(4,9,10)             118.3368         estimate D2E/DX2                !
 ! A17   A(4,9,11)             128.0858         estimate D2E/DX2                !
 ! A18   A(10,9,11)            113.5702         estimate D2E/DX2                !
 ! A19   A(9,11,12)            113.6966         estimate D2E/DX2                !
 ! A20   A(9,11,13)            109.8342         estimate D2E/DX2                !
 ! A21   A(9,11,14)            109.3916         estimate D2E/DX2                !
 ! A22   A(12,11,13)           108.4699         estimate D2E/DX2                !
 ! A23   A(12,11,14)           107.2128         estimate D2E/DX2                !
 ! A24   A(13,11,14)           108.0622         estimate D2E/DX2                !
 ! A25   A(16,15,17)           108.5699         estimate D2E/DX2                !
 ! A26   A(16,15,18)           107.6483         estimate D2E/DX2                !
 ! A27   A(16,15,19)           110.2053         estimate D2E/DX2                !
 ! A28   A(17,15,18)           107.6683         estimate D2E/DX2                !
 ! A29   A(17,15,19)           110.2846         estimate D2E/DX2                !
 ! A30   A(18,15,19)           112.338          estimate D2E/DX2                !
 ! A31   A(15,19,20)           114.2717         estimate D2E/DX2                !
 ! A32   A(15,19,24)           120.6393         estimate D2E/DX2                !
 ! A33   A(20,19,24)           125.0864         estimate D2E/DX2                !
 ! A34   A(19,20,21)           113.4236         estimate D2E/DX2                !
 ! A35   A(19,20,22)           110.0957         estimate D2E/DX2                !
 ! A36   A(19,20,23)           110.0513         estimate D2E/DX2                !
 ! A37   A(21,20,22)           107.9847         estimate D2E/DX2                !
 ! A38   A(21,20,23)           106.781          estimate D2E/DX2                !
 ! A39   A(22,20,23)           108.3277         estimate D2E/DX2                !
 ! A40   A(19,24,25)           118.4008         estimate D2E/DX2                !
 ! A41   A(19,24,26)           127.6746         estimate D2E/DX2                !
 ! A42   A(25,24,26)           113.9166         estimate D2E/DX2                !
 ! A43   A(1,26,24)            111.3896         estimate D2E/DX2                !
 ! A44   A(1,26,27)            110.2415         estimate D2E/DX2                !
 ! A45   A(1,26,28)            110.1497         estimate D2E/DX2                !
 ! A46   A(24,26,27)           111.6747         estimate D2E/DX2                !
 ! A47   A(24,26,28)           107.5562         estimate D2E/DX2                !
 ! A48   A(27,26,28)           105.633          estimate D2E/DX2                !
 ! D1    D(2,1,4,5)            166.5079         estimate D2E/DX2                !
 ! D2    D(2,1,4,9)            -11.9533         estimate D2E/DX2                !
 ! D3    D(3,1,4,5)             51.0829         estimate D2E/DX2                !
 ! D4    D(3,1,4,9)           -127.3783         estimate D2E/DX2                !
 ! D5    D(26,1,4,5)           -71.4816         estimate D2E/DX2                !
 ! D6    D(26,1,4,9)           110.0572         estimate D2E/DX2                !
 ! D7    D(2,1,26,24)          -56.493          estimate D2E/DX2                !
 ! D8    D(2,1,26,27)           68.0622         estimate D2E/DX2                !
 ! D9    D(2,1,26,28)         -175.7545         estimate D2E/DX2                !
 ! D10   D(3,1,26,24)           59.0406         estimate D2E/DX2                !
 ! D11   D(3,1,26,27)         -176.4041         estimate D2E/DX2                !
 ! D12   D(3,1,26,28)          -60.2209         estimate D2E/DX2                !
 ! D13   D(4,1,26,24)         -179.119          estimate D2E/DX2                !
 ! D14   D(4,1,26,27)          -54.5638         estimate D2E/DX2                !
 ! D15   D(4,1,26,28)           61.6195         estimate D2E/DX2                !
 ! D16   D(1,4,5,6)           -165.5823         estimate D2E/DX2                !
 ! D17   D(1,4,5,7)             73.2343         estimate D2E/DX2                !
 ! D18   D(1,4,5,8)            -46.4458         estimate D2E/DX2                !
 ! D19   D(9,4,5,6)             12.7996         estimate D2E/DX2                !
 ! D20   D(9,4,5,7)           -108.3838         estimate D2E/DX2                !
 ! D21   D(9,4,5,8)            131.9361         estimate D2E/DX2                !
 ! D22   D(1,4,9,10)            -0.1977         estimate D2E/DX2                !
 ! D23   D(1,4,9,11)          -179.1566         estimate D2E/DX2                !
 ! D24   D(5,4,9,10)          -178.5036         estimate D2E/DX2                !
 ! D25   D(5,4,9,11)             2.5375         estimate D2E/DX2                !
 ! D26   D(4,9,11,12)            8.8685         estimate D2E/DX2                !
 ! D27   D(4,9,11,13)         -112.8741         estimate D2E/DX2                !
 ! D28   D(4,9,11,14)          128.6762         estimate D2E/DX2                !
 ! D29   D(10,9,11,12)        -170.1318         estimate D2E/DX2                !
 ! D30   D(10,9,11,13)          68.1256         estimate D2E/DX2                !
 ! D31   D(10,9,11,14)         -50.324          estimate D2E/DX2                !
 ! D32   D(16,15,19,20)         59.5689         estimate D2E/DX2                !
 ! D33   D(16,15,19,24)       -120.9874         estimate D2E/DX2                !
 ! D34   D(17,15,19,20)        -60.2862         estimate D2E/DX2                !
 ! D35   D(17,15,19,24)        119.1575         estimate D2E/DX2                !
 ! D36   D(18,15,19,20)        179.6014         estimate D2E/DX2                !
 ! D37   D(18,15,19,24)         -0.9549         estimate D2E/DX2                !
 ! D38   D(15,19,20,21)        172.1388         estimate D2E/DX2                !
 ! D39   D(15,19,20,22)        -66.7428         estimate D2E/DX2                !
 ! D40   D(15,19,20,23)         52.5963         estimate D2E/DX2                !
 ! D41   D(24,19,20,21)         -7.2763         estimate D2E/DX2                !
 ! D42   D(24,19,20,22)        113.8421         estimate D2E/DX2                !
 ! D43   D(24,19,20,23)       -126.8188         estimate D2E/DX2                !
 ! D44   D(15,19,24,25)         -0.5056         estimate D2E/DX2                !
 ! D45   D(15,19,24,26)        178.3929         estimate D2E/DX2                !
 ! D46   D(20,19,24,25)        178.8747         estimate D2E/DX2                !
 ! D47   D(20,19,24,26)         -2.2268         estimate D2E/DX2                !
 ! D48   D(19,24,26,1)         104.4535         estimate D2E/DX2                !
 ! D49   D(19,24,26,27)        -19.2924         estimate D2E/DX2                !
 ! D50   D(19,24,26,28)       -134.7526         estimate D2E/DX2                !
 ! D51   D(25,24,26,1)         -76.6064         estimate D2E/DX2                !
 ! D52   D(25,24,26,27)        159.6476         estimate D2E/DX2                !
 ! D53   D(25,24,26,28)         44.1874         estimate D2E/DX2                !
 --------------------------------------------------------------------------------
 Trust Radius=3.00D-01 FncErr=1.00D-07 GrdErr=1.00D-06 EigMax=2.50D+02 EigMin=1.00D-04
 Number of steps in this run=    138 maximum allowed number of steps=    168.
 GradGradGradGradGradGradGradGradGradGradGradGradGradGradGradGradGradGrad

 Leave Link  103 at Mon Jul  5 23:09:51 2021, MaxMem=   524288000 cpu:               0.1 elap:               0.1
 (Enter /opt/gaussian/g16_legacy/l202.exe)
                          Input orientation:                          
 ---------------------------------------------------------------------
 Center     Atomic      Atomic             Coordinates (Angstroms)
 Number     Number       Type             X           Y           Z
 ---------------------------------------------------------------------
      1          6           0       -0.528500    0.465600   -0.595300
      2          1           0       -0.202500    1.339100   -0.014600
      3          1           0       -0.441800    0.761400   -1.649100
      4          6           0       -1.983100    0.148100   -0.291200
      5          6           0       -2.640200   -0.815000   -1.243600
      6          1           0       -3.728900   -0.832000   -1.156700
      7          1           0       -2.272200   -1.831300   -1.072800
      8          1           0       -2.415400   -0.535700   -2.278700
      9          6           0       -2.602000    0.739800    0.750100
     10          1           0       -2.032300    1.440900    1.360200
     11          6           0       -4.009700    0.547200    1.217300
     12          1           0       -4.528700   -0.273900    0.719400
     13          1           0       -4.582400    1.466000    1.059000
     14          1           0       -4.009900    0.327600    2.290000
     15          6           0        4.217100    0.224900   -0.169800
     16          1           0        4.922600   -0.488100    0.269200
     17          1           0        4.510400    1.236000    0.131300
     18          1           0        4.314700    0.160900   -1.258600
     19          6           0        2.816500   -0.073800    0.298100
     20          6           0        2.635600   -0.007300    1.789600
     21          1           0        1.593100   -0.090800    2.104700
     22          1           0        3.200300   -0.810900    2.273200
     23          1           0        3.005300    0.950900    2.170400
     24          6           0        1.842500   -0.358900   -0.588300
     25          1           0        2.091300   -0.359600   -1.649700
     26          6           0        0.407800   -0.711300   -0.297400
     27          1           0        0.275700   -1.048300    0.735900
     28          1           0        0.144600   -1.571900   -0.925000
 ---------------------------------------------------------------------
                    Distance matrix (angstroms):
                    1          2          3          4          5
     1  C    0.000000
     2  H    1.098404   0.000000
     3  H    1.097957   1.750026   0.000000
     4  C    1.519587   2.159983   2.143743   0.000000
     5  C    2.553332   3.477495   2.735403   1.505459   0.000000
     6  H    3.498785   4.295761   3.685974   2.181170   1.092295
     7  H    2.923054   3.931270   3.225613   2.147674   1.094286
     8  H    2.719711   3.679395   2.444169   2.145838   1.095434
     9  C    2.486904   2.588731   3.228481   1.348129   2.528577
    10  H    2.652660   2.290984   3.470922   2.097826   3.498343
    11  C    3.925676   4.079149   4.581707   2.557726   3.128442
    12  H    4.275149   4.675097   4.835741   2.771187   2.777155
    13  H    4.491282   4.511346   4.997483   3.211894   3.778501
    14  H    4.523731   4.564056   5.332544   3.286751   3.958275
    15  C    4.770713   4.560526   4.917470   6.201864   7.018333
    16  H    5.601017   5.448472   5.832488   6.957549   7.719545
    17  H    5.148978   4.716285   5.283877   6.597543   7.564921
    18  H    4.897897   4.831230   4.810133   6.371680   7.023051
    19  C    3.504018   3.347899   3.886601   4.840731   5.718548
    20  C    3.990352   3.622533   4.678242   5.068162   6.138953
    21  H    3.478616   3.124136   4.354087   4.311220   5.445770
    22  H    4.874597   4.629857   5.578661   5.862036   6.817576
    23  H    4.513575   3.900629   5.148494   5.620329   6.829749
    24  C    2.510277   2.719257   2.756519   3.870469   4.553246
    25  H    2.942119   3.289476   2.770061   4.324814   4.770681
    26  C    1.533133   2.157912   2.172040   2.540671   3.193173
    27  H    2.170420   2.547863   3.078643   2.754720   3.532042
    28  H    2.170984   3.069728   2.512464   2.808418   2.903363
                    6          7          8          9         10
     6  H    0.000000
     7  H    1.768506   0.000000
     8  H    1.752701   1.775748   0.000000
     9  C    2.715943   3.168957   3.291709   0.000000
    10  H    3.792006   4.084646   4.158763   1.090102   0.000000
    11  C    2.759876   3.731049   3.992052   1.495657   2.174679
    12  H    2.114452   3.275556   3.677388   2.177316   3.095671
    13  H    3.304329   4.555632   4.454541   2.131847   2.567949
    14  H    3.647379   4.357623   4.915357   2.126825   2.452523
    15  C    8.076505   6.866905   7.001145   6.900106   6.547867
    16  H    8.774959   7.441122   7.767902   7.639281   7.299449
    17  H    8.591952   7.540680   7.544119   7.156491   6.660263
    18  H    8.105291   6.884086   6.842522   7.225700   6.984334
    19  C    6.747857   5.555451   5.850301   5.497853   5.189724
    20  C    7.061705   5.967144   6.507140   5.391769   4.906216
    21  H    6.285681   5.297772   5.956526   4.485945   4.005485
    22  H    7.731654   6.495013   7.234059   6.196062   5.769253
    23  H    7.719960   6.790507   7.168574   5.788232   5.125811
    24  C    5.620267   4.396983   4.584585   4.769909   4.695744
    25  H    5.860114   4.640996   4.553789   5.384681   5.413444
    26  C    4.226731   3.006334   3.453526   3.501692   3.651533
    27  H    4.434585   3.221223   4.073400   3.388017   3.451482
    28  H    3.950334   2.435171   3.075681   3.961531   4.363255
                   11         12         13         14         15
    11  C    0.000000
    12  H    1.091545   0.000000
    13  H    1.094184   1.773546   0.000000
    14  H    1.094947   1.760040   1.771743   0.000000
    15  C    8.349141   8.805027   8.971147   8.587473   0.000000
    16  H    9.041942   9.464440   9.735878   9.194485   1.094907
    17  H    8.616609   9.183191   9.142896   8.836328   1.094993
    18  H    8.693385   9.072335   9.286170   9.050929   1.095038
    19  C    6.915748   7.359993   7.595635   7.122396   1.506596
    20  C    6.692907   7.248696   7.402967   6.672723   2.528697
    21  H    5.708405   6.279253   6.453984   5.621655   3.486889
    22  H    7.412386   7.901905   8.199328   7.299551   2.841657
    23  H    7.090952   7.769601   7.685944   7.043851   2.733509
    24  C    6.191079   6.504575   6.879186   6.557933   2.480865
    25  H    6.801777   7.031670   7.430218   7.295075   2.655329
    26  C    4.836574   5.059074   5.610931   5.223986   3.924732
    27  H    4.598045   4.866439   5.479711   4.761795   4.239807
    28  H    5.132080   5.121385   5.958995   5.586072   4.514872
                   16         17         18         19         20
    16  H    0.000000
    17  H    1.778046   0.000000
    18  H    1.767743   1.768039   0.000000
    19  C    2.146657   2.147719   2.173247   0.000000
    20  C    2.788038   2.794750   3.484134   1.503901   0.000000
    21  H    3.822627   3.763688   4.333849   2.181926   1.092276
    22  H    2.662054   3.239429   3.828824   2.142811   1.094773
    23  H    3.059628   2.550399   3.754553   2.142700   1.095369
    24  C    3.199846   3.190489   2.613669   1.347465   2.531213
    25  H    3.422711   3.401462   2.316762   2.097980   3.499880
    26  C    4.555686   4.561479   4.116856   2.561808   3.132775
    27  H    4.703755   4.849356   4.664088   2.756263   2.786233
    28  H    5.042819   5.297196   4.528092   3.298382   4.002762
                   21         22         23         24         25
    21  H    0.000000
    22  H    1.769189   0.000000
    23  H    1.756065   1.775537   0.000000
    24  C    2.717780   3.199392   3.267737   0.000000
    25  H    3.796838   4.101548   4.140769   1.090171   0.000000
    26  C    2.749553   3.796836   3.949677   1.505713   2.187826
    27  H    2.127431   3.312542   3.674957   2.164172   3.076004
    28  H    3.670271   4.488308   4.912192   2.113670   2.405099
                   26         27         28
    26  C    0.000000
    27  H    1.094865   0.000000
    28  H    1.097173   1.746406   0.000000
 Stoichiometry    C10H18
 Framework group  C1[X(C10H18)]
 Deg. of freedom    78
 Full point group                 C1      NOp   1
 Largest Abelian subgroup         C1      NOp   1
 Largest concise Abelian subgroup C1      NOp   1
                         Standard orientation:                         
 ---------------------------------------------------------------------
 Center     Atomic      Atomic             Coordinates (Angstroms)
 Number     Number       Type             X           Y           Z
 ---------------------------------------------------------------------
      1          6           0       -0.561881   -0.502111   -0.649914
      2          1           0       -0.249911    0.338800   -1.283976
      3          1           0       -0.500349   -1.393209   -1.288402
      4          6           0       -2.002308   -0.314867   -0.203537
      5          6           0       -2.648892   -1.533718    0.398740
      6          1           0       -3.735183   -1.450929    0.477645
      7          1           0       -2.251107   -1.720748    1.400862
      8          1           0       -2.448582   -2.413703   -0.222128
      9          6           0       -2.619714    0.869402   -0.387305
     10          1           0       -2.059074    1.677848   -0.856792
     11          6           0       -4.013940    1.252185   -0.004419
     12          1           0       -4.518864    0.508164    0.614415
     13          1           0       -4.613513    1.419125   -0.904353
     14          1           0       -3.990743    2.186408    0.566193
     15          6           0        4.194777   -0.213542   -0.424868
     16          1           0        4.926168   -0.047392    0.372804
     17          1           0        4.465815    0.411376   -1.282204
     18          1           0        4.276252   -1.259889   -0.737320
     19          6           0        2.810496    0.133801    0.057783
     20          6           0        2.652274    1.560249    0.507149
     21          1           0        1.617666    1.834766    0.724622
     22          1           0        3.246085    1.738441    1.409459
     23          1           0        3.002391    2.241667   -0.275744
     24          6           0        1.830116   -0.790596    0.054797
     25          1           0        2.061472   -1.790614   -0.312504
     26          6           0        0.410296   -0.627750    0.528892
     27          1           0        0.304154    0.230353    1.200547
     28          1           0        0.159984   -1.508780    1.132977
 ---------------------------------------------------------------------
 Rotational constants (GHZ):           2.8398913           0.4787647           0.4332930
 Leave Link  202 at Mon Jul  5 23:09:51 2021, MaxMem=   524288000 cpu:               0.1 elap:               0.1
 (Enter /opt/gaussian/g16_legacy/l301.exe)
 Standard basis: 6-31G(d,p) (6D, 7F)
 Ernie: Thresh=  0.10000D-02 Tol=  0.10000D-05 Strict=F.
 There are   240 symmetry adapted cartesian basis functions of A   symmetry.
 There are   240 symmetry adapted basis functions of A   symmetry.
   240 basis functions,   406 primitive gaussians,   240 cartesian basis functions
    39 alpha electrons       39 beta electrons
       nuclear repulsion energy       508.7423932737 Hartrees.
 IExCor= 4336 DFT=T Ex+Corr=M062X ExCW=0 ScaHFX=  0.540000
 ScaDFX=  1.000000  1.000000  1.000000  1.000000 ScalE2=  1.000000  1.000000
 IRadAn=      5 IRanWt=     -1 IRanGd=            0 ICorTp=0 IEmpDi=  4
 NAtoms=   28 NActive=   28 NUniq=   28 SFac= 1.00D+00 NAtFMM=   60 NAOKFM=F Big=F
 Integral buffers will be    131072 words long.
 Raffenetti 2 integral format.
 Two-electron integral symmetry is turned on.
 Leave Link  301 at Mon Jul  5 23:09:51 2021, MaxMem=   524288000 cpu:               0.4 elap:               0.1
 (Enter /opt/gaussian/g16_legacy/l302.exe)
 NPDir=0 NMtPBC=     1 NCelOv=     1 NCel=       1 NClECP=     1 NCelD=      1
         NCelK=      1 NCelE2=     1 NClLst=     1 CellRange=     0.0.
 One-electron integrals computed using PRISM.
 One-electron integral symmetry used in STVInt
 NBasis=   240 RedAO= T EigKep=  2.30D-03  NBF=   240
 NBsUse=   240 1.00D-06 EigRej= -1.00D+00 NBFU=   240
 Precomputing XC quadrature grid using
 IXCGrd= 4 IRadAn=           5 IRanWt=          -1 IRanGd=           0 AccXCQ= 0.00D+00.
 Generated NRdTot=       0 NPtTot=           0 NUsed=           0 NTot=          32
 NSgBfM=   240   240   240   240   240 MxSgAt=    28 MxSgA2=    28.
 Leave Link  302 at Mon Jul  5 23:09:52 2021, MaxMem=   524288000 cpu:               2.7 elap:               0.6
 (Enter /opt/gaussian/g16_legacy/l303.exe)
 DipDrv:  MaxL=1.
 Leave Link  303 at Mon Jul  5 23:09:52 2021, MaxMem=   524288000 cpu:               0.2 elap:               0.1
 (Enter /opt/gaussian/g16_legacy/l401.exe)
 ExpMin= 1.61D-01 ExpMax= 3.05D+03 ExpMxC= 4.57D+02 IAcc=3 IRadAn=         5 AccDes= 0.00D+00
 Harris functional with IExCor= 1009 and IRadAn=       5 diagonalized for initial guess.
 HarFok:  IExCor= 1009 AccDes= 0.00D+00 IRadAn=         5 IDoV= 1 UseB2=F ITyADJ=14
 ICtDFT=  3500011 ScaDFX=  1.000000  1.000000  1.000000  1.000000
 FoFCou: FMM=F IPFlag=           0 FMFlag=      100000 FMFlg1=           0
         NFxFlg=           0 DoJE=T BraDBF=F KetDBF=T FulRan=T
         wScrn=  0.000000 ICntrl=       500 IOpCl=  0 I1Cent=   200000004 NGrid=           0
         NMat0=    1 NMatS0=      1 NMatT0=    0 NMatD0=    1 NMtDS0=    0 NMtDT0=    0
 Petite list used in FoFCou.
 Harris En= -391.655998153859    
 JPrj=0 DoOrth=F DoCkMO=F.
 Leave Link  401 at Mon Jul  5 23:09:54 2021, MaxMem=   524288000 cpu:              12.0 elap:               2.1
 (Enter /opt/gaussian/g16_legacy/l502.exe)
 Integral symmetry usage will be decided dynamically.
 Closed shell SCF:
 Using DIIS extrapolation, IDIIS=  1040.
 NGot=   524288000 LenX=   524168546 LenY=   524110505
 Requested convergence on RMS density matrix=1.00D-08 within 128 cycles.
 Requested convergence on MAX density matrix=1.00D-06.
 Requested convergence on             energy=1.00D-06.
 No special actions if energy rises.
 Fock matrices will be formed incrementally for  20 cycles.
 Integral accuracy reduced to 1.0D-05 until final iterations.

 Cycle   1  Pass 0  IDiag  1:
 FoFJK:  IHMeth= 1 ICntrl=       0 DoSepK=F KAlg= 0 I1Cent=           0 FoldK=F
 IRaf= 830000000 NMat=       1 IRICut=       1 DoRegI=T DoRafI=F ISym2E= 0 IDoP0=0 IntGTp=1.
 FoFCou: FMM=F IPFlag=           0 FMFlag=      100000 FMFlg1=           0
         NFxFlg=           0 DoJE=F BraDBF=F KetDBF=F FulRan=T
         wScrn=  0.000000 ICntrl=         0 IOpCl=  0 I1Cent=           0 NGrid=           0
         NMat0=    1 NMatS0=      1 NMatT0=    0 NMatD0=    1 NMtDS0=    0 NMtDT0=    0
 Symmetry not used in FoFCou.
 E= -391.299126441941    
 DIIS: error= 3.13D-02 at cycle   1 NSaved=   1.
 NSaved= 1 IEnMin= 1 EnMin= -391.299126441941     IErMin= 1 ErrMin= 3.13D-02
 ErrMax= 3.13D-02  0.00D+00 EMaxC= 1.00D-01 BMatC= 3.69D-01 BMatP= 3.69D-01
 IDIUse=3 WtCom= 6.87D-01 WtEn= 3.13D-01
 Coeff-Com:  0.100D+01
 Coeff-En:   0.100D+01
 Coeff:      0.100D+01
 Gap=     0.340 Goal=   None    Shift=    0.000
 GapD=    0.340 DampG=1.000 DampE=0.500 DampFc=0.5000 IDamp=-1.
 Damping current iteration by 5.00D-01
 RMSDP=4.37D-03 MaxDP=1.13D-01              OVMax= 1.41D-01

 Cycle   2  Pass 0  IDiag  1:
 RMSU=  2.14D-03    CP:  9.75D-01
 E= -391.507856391923     Delta-E=       -0.208729949983 Rises=F Damp=T
 DIIS: error= 1.01D-02 at cycle   2 NSaved=   2.
 NSaved= 2 IEnMin= 2 EnMin= -391.507856391923     IErMin= 2 ErrMin= 1.01D-02
 ErrMax= 1.01D-02  0.00D+00 EMaxC= 1.00D-01 BMatC= 2.10D-02 BMatP= 3.69D-01
 IDIUse=3 WtCom= 8.99D-01 WtEn= 1.01D-01
 Coeff-Com: -0.154D+00 0.115D+01
 Coeff-En:   0.000D+00 0.100D+01
 Coeff:     -0.138D+00 0.114D+01
 Gap=     0.354 Goal=   None    Shift=    0.000
 RMSDP=8.22D-04 MaxDP=2.53D-02 DE=-2.09D-01 OVMax= 6.19D-02

 Cycle   3  Pass 0  IDiag  1:
 RMSU=  7.74D-04    CP:  9.69D-01  1.12D+00
 E= -391.687394915304     Delta-E=       -0.179538523380 Rises=F Damp=F
 DIIS: error= 9.14D-04 at cycle   3 NSaved=   3.
 NSaved= 3 IEnMin= 3 EnMin= -391.687394915304     IErMin= 3 ErrMin= 9.14D-04
 ErrMax= 9.14D-04  0.00D+00 EMaxC= 1.00D-01 BMatC= 5.05D-04 BMatP= 2.10D-02
 IDIUse=3 WtCom= 9.91D-01 WtEn= 9.14D-03
 Coeff-Com: -0.254D-01 0.113D+00 0.912D+00
 Coeff-En:   0.000D+00 0.000D+00 0.100D+01
 Coeff:     -0.251D-01 0.112D+00 0.913D+00
 Gap=     0.338 Goal=   None    Shift=    0.000
 RMSDP=1.50D-04 MaxDP=3.75D-03 DE=-1.80D-01 OVMax= 5.66D-03

 Cycle   4  Pass 0  IDiag  1:
 RMSU=  1.35D-04    CP:  9.68D-01  1.14D+00  9.59D-01
 E= -391.687768021007     Delta-E=       -0.000373105703 Rises=F Damp=F
 DIIS: error= 5.70D-04 at cycle   4 NSaved=   4.
 NSaved= 4 IEnMin= 4 EnMin= -391.687768021007     IErMin= 4 ErrMin= 5.70D-04
 ErrMax= 5.70D-04  0.00D+00 EMaxC= 1.00D-01 BMatC= 1.25D-04 BMatP= 5.05D-04
 IDIUse=3 WtCom= 9.94D-01 WtEn= 5.70D-03
 Coeff-Com: -0.441D-02 0.176D-01 0.332D+00 0.655D+00
 Coeff-En:   0.000D+00 0.000D+00 0.113D-01 0.989D+00
 Coeff:     -0.439D-02 0.175D-01 0.330D+00 0.657D+00
 Gap=     0.338 Goal=   None    Shift=    0.000
 RMSDP=6.50D-05 MaxDP=2.26D-03 DE=-3.73D-04 OVMax= 4.76D-03

 Cycle   5  Pass 0  IDiag  1:
 RMSU=  4.04D-05    CP:  9.68D-01  1.14D+00  9.91D-01  6.75D-01
 E= -391.687871414871     Delta-E=       -0.000103393863 Rises=F Damp=F
 DIIS: error= 3.12D-04 at cycle   5 NSaved=   5.
 NSaved= 5 IEnMin= 5 EnMin= -391.687871414871     IErMin= 5 ErrMin= 3.12D-04
 ErrMax= 3.12D-04  0.00D+00 EMaxC= 1.00D-01 BMatC= 2.45D-05 BMatP= 1.25D-04
 IDIUse=3 WtCom= 9.97D-01 WtEn= 3.12D-03
 Coeff-Com:  0.585D-03-0.203D-02 0.857D-01 0.338D+00 0.578D+00
 Coeff-En:   0.000D+00 0.000D+00 0.000D+00 0.954D-01 0.905D+00
 Coeff:      0.583D-03-0.202D-02 0.855D-01 0.337D+00 0.579D+00
 Gap=     0.339 Goal=   None    Shift=    0.000
 RMSDP=2.22D-05 MaxDP=9.28D-04 DE=-1.03D-04 OVMax= 1.85D-03

 Cycle   6  Pass 0  IDiag  1:
 RMSU=  1.26D-05    CP:  9.68D-01  1.14D+00  9.96D-01  7.54D-01  6.48D-01
 E= -391.687895226470     Delta-E=       -0.000023811599 Rises=F Damp=F
 DIIS: error= 5.46D-05 at cycle   6 NSaved=   6.
 NSaved= 6 IEnMin= 6 EnMin= -391.687895226470     IErMin= 6 ErrMin= 5.46D-05
 ErrMax= 5.46D-05  0.00D+00 EMaxC= 1.00D-01 BMatC= 1.15D-06 BMatP= 2.45D-05
 IDIUse=1 WtCom= 1.00D+00 WtEn= 0.00D+00
 Coeff-Com:  0.807D-03-0.274D-02 0.331D-02 0.760D-01 0.223D+00 0.700D+00
 Coeff:      0.807D-03-0.274D-02 0.331D-02 0.760D-01 0.223D+00 0.700D+00
 Gap=     0.339 Goal=   None    Shift=    0.000
 RMSDP=5.56D-06 MaxDP=1.77D-04 DE=-2.38D-05 OVMax= 4.34D-04

 Initial convergence to 1.0D-05 achieved.  Increase integral accuracy.
 Cycle   7  Pass 1  IDiag  1:
 E= -391.687904303973     Delta-E=       -0.000009077503 Rises=F Damp=F
 DIIS: error= 1.34D-05 at cycle   1 NSaved=   1.
 NSaved= 1 IEnMin= 1 EnMin= -391.687904303973     IErMin= 1 ErrMin= 1.34D-05
 ErrMax= 1.34D-05  0.00D+00 EMaxC= 1.00D-01 BMatC= 2.23D-07 BMatP= 2.23D-07
 IDIUse=1 WtCom= 1.00D+00 WtEn= 0.00D+00
 Coeff-Com:  0.100D+01
 Coeff:      0.100D+01
 Gap=     0.339 Goal=   None    Shift=    0.000
 RMSDP=5.56D-06 MaxDP=1.77D-04 DE=-9.08D-06 OVMax= 2.15D-04

 Cycle   8  Pass 1  IDiag  1:
 RMSU=  6.68D-06    CP:  1.00D+00
 E= -391.687904394921     Delta-E=       -0.000000090948 Rises=F Damp=F
 DIIS: error= 1.60D-05 at cycle   2 NSaved=   2.
 NSaved= 2 IEnMin= 2 EnMin= -391.687904394921     IErMin= 1 ErrMin= 1.34D-05
 ErrMax= 1.60D-05  0.00D+00 EMaxC= 1.00D-01 BMatC= 1.42D-07 BMatP= 2.23D-07
 IDIUse=1 WtCom= 1.00D+00 WtEn= 0.00D+00
 Coeff-Com:  0.432D+00 0.568D+00
 Coeff:      0.432D+00 0.568D+00
 Gap=     0.339 Goal=   None    Shift=    0.000
 RMSDP=1.65D-06 MaxDP=6.81D-05 DE=-9.09D-08 OVMax= 1.43D-04

 Cycle   9  Pass 1  IDiag  1:
 RMSU=  1.60D-06    CP:  1.00D+00  9.42D-01
 E= -391.687904519696     Delta-E=       -0.000000124775 Rises=F Damp=F
 DIIS: error= 6.43D-06 at cycle   3 NSaved=   3.
 NSaved= 3 IEnMin= 3 EnMin= -391.687904519696     IErMin= 3 ErrMin= 6.43D-06
 ErrMax= 6.43D-06  0.00D+00 EMaxC= 1.00D-01 BMatC= 1.30D-08 BMatP= 1.42D-07
 IDIUse=1 WtCom= 1.00D+00 WtEn= 0.00D+00
 Coeff-Com:  0.230D-01 0.225D+00 0.752D+00
 Coeff:      0.230D-01 0.225D+00 0.752D+00
 Gap=     0.339 Goal=   None    Shift=    0.000
 RMSDP=5.94D-07 MaxDP=2.22D-05 DE=-1.25D-07 OVMax= 5.33D-05

 Cycle  10  Pass 1  IDiag  1:
 RMSU=  4.09D-07    CP:  1.00D+00  9.83D-01  7.94D-01
 E= -391.687904530841     Delta-E=       -0.000000011145 Rises=F Damp=F
 DIIS: error= 2.09D-06 at cycle   4 NSaved=   4.
 NSaved= 4 IEnMin= 4 EnMin= -391.687904530841     IErMin= 4 ErrMin= 2.09D-06
 ErrMax= 2.09D-06  0.00D+00 EMaxC= 1.00D-01 BMatC= 2.21D-09 BMatP= 1.30D-08
 IDIUse=1 WtCom= 1.00D+00 WtEn= 0.00D+00
 Coeff-Com: -0.218D-01 0.717D-01 0.395D+00 0.555D+00
 Coeff:     -0.218D-01 0.717D-01 0.395D+00 0.555D+00
 Gap=     0.339 Goal=   None    Shift=    0.000
 RMSDP=1.99D-07 MaxDP=6.69D-06 DE=-1.11D-08 OVMax= 1.46D-05

 Cycle  11  Pass 1  IDiag  1:
 RMSU=  1.13D-07    CP:  1.00D+00  9.85D-01  8.37D-01  6.39D-01
 E= -391.687904533116     Delta-E=       -0.000000002275 Rises=F Damp=F
 DIIS: error= 1.64D-07 at cycle   5 NSaved=   5.
 NSaved= 5 IEnMin= 5 EnMin= -391.687904533116     IErMin= 5 ErrMin= 1.64D-07
 ErrMax= 1.64D-07  0.00D+00 EMaxC= 1.00D-01 BMatC= 1.43D-11 BMatP= 2.21D-09
 IDIUse=1 WtCom= 1.00D+00 WtEn= 0.00D+00
 Coeff-Com: -0.286D-02-0.403D-02 0.109D-02 0.553D-01 0.950D+00
 Coeff:     -0.286D-02-0.403D-02 0.109D-02 0.553D-01 0.950D+00
 Gap=     0.339 Goal=   None    Shift=    0.000
 RMSDP=3.08D-08 MaxDP=7.56D-07 DE=-2.28D-09 OVMax= 1.39D-06

 Cycle  12  Pass 1  IDiag  1:
 RMSU=  2.08D-08    CP:  1.00D+00  9.86D-01  8.39D-01  6.85D-01  1.10D+00
 E= -391.687904533131     Delta-E=       -0.000000000015 Rises=F Damp=F
 DIIS: error= 8.43D-08 at cycle   6 NSaved=   6.
 NSaved= 6 IEnMin= 6 EnMin= -391.687904533131     IErMin= 6 ErrMin= 8.43D-08
 ErrMax= 8.43D-08  0.00D+00 EMaxC= 1.00D-01 BMatC= 2.58D-12 BMatP= 1.43D-11
 IDIUse=1 WtCom= 1.00D+00 WtEn= 0.00D+00
 Coeff-Com:  0.712D-03-0.709D-02-0.305D-01-0.222D-01 0.334D+00 0.725D+00
 Coeff:      0.712D-03-0.709D-02-0.305D-01-0.222D-01 0.334D+00 0.725D+00
 Gap=     0.339 Goal=   None    Shift=    0.000
 RMSDP=9.03D-09 MaxDP=2.81D-07 DE=-1.52D-11 OVMax= 3.79D-07

 SCF Done:  E(RM062X) =  -391.687904533     A.U. after   12 cycles
            NFock= 12  Conv=0.90D-08     -V/T= 2.0093
 KE= 3.880785982462D+02 PE=-1.922550050086D+03 EE= 6.340411540326D+02
 Leave Link  502 at Mon Jul  5 23:10:36 2021, MaxMem=   524288000 cpu:             245.8 elap:              41.2
 (Enter /opt/gaussian/g16_legacy/l601.exe)
 Copying SCF densities to generalized density rwf, IOpCl= 0 IROHF=0.

 **********************************************************************

            Population analysis using the SCF density.

 **********************************************************************

 Orbital symmetries:
       Occupied  (A) (A) (A) (A) (A) (A) (A) (A) (A) (A) (A) (A)
                 (A) (A) (A) (A) (A) (A) (A) (A) (A) (A) (A) (A)
                 (A) (A) (A) (A) (A) (A) (A) (A) (A) (A) (A) (A)
                 (A) (A) (A)
       Virtual   (A) (A) (A) (A) (A) (A) (A) (A) (A) (A) (A) (A)
                 (A) (A) (A) (A) (A) (A) (A) (A) (A) (A) (A) (A)
                 (A) (A) (A) (A) (A) (A) (A) (A) (A) (A) (A) (A)
                 (A) (A) (A) (A) (A) (A) (A) (A) (A) (A) (A) (A)
                 (A) (A) (A) (A) (A) (A) (A) (A) (A) (A) (A) (A)
                 (A) (A) (A) (A) (A) (A) (A) (A) (A) (A) (A) (A)
                 (A) (A) (A) (A) (A) (A) (A) (A) (A) (A) (A) (A)
                 (A) (A) (A) (A) (A) (A) (A) (A) (A) (A) (A) (A)
                 (A) (A) (A) (A) (A) (A) (A) (A) (A) (A) (A) (A)
                 (A) (A) (A) (A) (A) (A) (A) (A) (A) (A) (A) (A)
                 (A) (A) (A) (A) (A) (A) (A) (A) (A) (A) (A) (A)
                 (A) (A) (A) (A) (A) (A) (A) (A) (A) (A) (A) (A)
                 (A) (A) (A) (A) (A) (A) (A) (A) (A) (A) (A) (A)
                 (A) (A) (A) (A) (A) (A) (A) (A) (A) (A) (A) (A)
                 (A) (A) (A) (A) (A) (A) (A) (A) (A) (A) (A) (A)
                 (A) (A) (A) (A) (A) (A) (A) (A) (A) (A) (A) (A)
                 (A) (A) (A) (A) (A) (A) (A) (A) (A)
 The electronic state is 1-A.
 Alpha  occ. eigenvalues --  -10.54560 -10.54218 -10.53733 -10.53673 -10.53456
 Alpha  occ. eigenvalues --  -10.53402 -10.53319 -10.53261 -10.53241 -10.53108
 Alpha  occ. eigenvalues --   -0.91850  -0.89884  -0.84898  -0.81002  -0.77737
 Alpha  occ. eigenvalues --   -0.76458  -0.72316  -0.67531  -0.58758  -0.57966
 Alpha  occ. eigenvalues --   -0.53826  -0.52729  -0.49942  -0.49648  -0.48682
 Alpha  occ. eigenvalues --   -0.47960  -0.46422  -0.45650  -0.44602  -0.43607
 Alpha  occ. eigenvalues --   -0.42820  -0.42504  -0.41799  -0.40273  -0.39370
 Alpha  occ. eigenvalues --   -0.37927  -0.36213  -0.28729  -0.26976
 Alpha virt. eigenvalues --    0.06883   0.08053   0.13054   0.14720   0.16309
 Alpha virt. eigenvalues --    0.16873   0.17649   0.18523   0.19953   0.20055
 Alpha virt. eigenvalues --    0.20789   0.21768   0.22314   0.22807   0.23366
 Alpha virt. eigenvalues --    0.23996   0.25325   0.25746   0.27211   0.27857
 Alpha virt. eigenvalues --    0.28374   0.29160   0.30118   0.31301   0.32132
 Alpha virt. eigenvalues --    0.38518   0.40013   0.47083   0.48650   0.53522
 Alpha virt. eigenvalues --    0.54142   0.56087   0.58466   0.58913   0.59528
 Alpha virt. eigenvalues --    0.60081   0.61732   0.62948   0.63584   0.65444
 Alpha virt. eigenvalues --    0.66714   0.68732   0.69179   0.71241   0.72792
 Alpha virt. eigenvalues --    0.75052   0.76702   0.77559   0.78744   0.80027
 Alpha virt. eigenvalues --    0.80767   0.82098   0.83330   0.84573   0.85602
 Alpha virt. eigenvalues --    0.88322   0.88755   0.89859   0.92002   0.92523
 Alpha virt. eigenvalues --    0.92946   0.94138   0.95196   0.95878   0.96126
 Alpha virt. eigenvalues --    0.96620   0.97507   0.98357   0.99593   1.00715
 Alpha virt. eigenvalues --    1.01379   1.01913   1.03014   1.05117   1.05497
 Alpha virt. eigenvalues --    1.06489   1.20161   1.20763   1.23600   1.24409
 Alpha virt. eigenvalues --    1.27187   1.29947   1.34169   1.36471   1.37734
 Alpha virt. eigenvalues --    1.41564   1.42325   1.46258   1.47942   1.50382
 Alpha virt. eigenvalues --    1.53537   1.57856   1.67622   1.69740   1.72760
 Alpha virt. eigenvalues --    1.76225   1.77274   1.78599   1.81806   1.83384
 Alpha virt. eigenvalues --    1.83917   1.84838   1.85339   1.87600   1.88716
 Alpha virt. eigenvalues --    1.89583   1.90831   1.94559   1.98102   2.00085
 Alpha virt. eigenvalues --    2.02577   2.03436   2.04409   2.09400   2.10087
 Alpha virt. eigenvalues --    2.10107   2.10641   2.12031   2.13590   2.13777
 Alpha virt. eigenvalues --    2.15212   2.16067   2.16600   2.17710   2.18376
 Alpha virt. eigenvalues --    2.20938   2.21481   2.22603   2.23583   2.27494
 Alpha virt. eigenvalues --    2.28475   2.30674   2.33545   2.34332   2.36311
 Alpha virt. eigenvalues --    2.37198   2.39607   2.41547   2.42174   2.45769
 Alpha virt. eigenvalues --    2.47148   2.48307   2.51322   2.52607   2.54131
 Alpha virt. eigenvalues --    2.55819   2.58820   2.59961   2.62090   2.64914
 Alpha virt. eigenvalues --    2.65593   2.69748   2.70643   2.71768   2.73239
 Alpha virt. eigenvalues --    2.74189   2.75850   2.78588   2.80297   2.80981
 Alpha virt. eigenvalues --    2.85139   2.86122   2.86377   2.87760   2.89182
 Alpha virt. eigenvalues --    2.90115   2.91286   2.94280   2.94808   3.02676
 Alpha virt. eigenvalues --    3.03987   3.07279   3.08644   3.17828   3.18492
 Alpha virt. eigenvalues --    3.22509   3.24364   3.27122   3.34256   3.39771
 Alpha virt. eigenvalues --    3.40210   3.41015   3.42571   3.44067   3.44548
 Alpha virt. eigenvalues --    3.44869   3.47137   3.49037   3.51152   3.52624
 Alpha virt. eigenvalues --    3.56204   4.18482   4.21870   4.34048   4.43376
 Alpha virt. eigenvalues --    4.49334   4.51443   4.52695   4.65467   4.69368
 Alpha virt. eigenvalues --    4.74930
          Condensed to atoms (all electrons):
               1          2          3          4          5          6
     1  C    5.024594   0.386193   0.380230   0.363586  -0.071709   0.004309
     2  H    0.386193   0.600962  -0.033156  -0.038308   0.004997  -0.000148
     3  H    0.380230  -0.033156   0.619647  -0.035099  -0.005328  -0.000019
     4  C    0.363586  -0.038308  -0.035099   4.761542   0.369608  -0.027524
     5  C   -0.071709   0.004997  -0.005328   0.369608   5.010456   0.384697
     6  H    0.004309  -0.000148  -0.000019  -0.027524   0.384697   0.572699
     7  H   -0.001875  -0.000081  -0.000326  -0.035423   0.383425  -0.027502
     8  H   -0.004651   0.000074   0.005740  -0.035300   0.383405  -0.028722
     9  C   -0.032287  -0.006236   0.001201   0.715182  -0.053380  -0.007308
    10  H   -0.013312   0.006179   0.000308  -0.034097   0.006112   0.000024
    11  C    0.005465   0.000190  -0.000208  -0.039955  -0.014158   0.001151
    12  H    0.000088   0.000007  -0.000000  -0.006497   0.001493   0.003222
    13  H   -0.000169  -0.000001   0.000020  -0.001614   0.000441   0.000068
    14  H   -0.000123  -0.000015  -0.000003   0.000997   0.000306  -0.000156
    15  C   -0.000085  -0.000084   0.000003   0.000003  -0.000000  -0.000000
    16  H   -0.000005   0.000002   0.000000   0.000000  -0.000000   0.000000
    17  H    0.000020  -0.000005  -0.000001  -0.000000   0.000000  -0.000000
    18  H   -0.000003  -0.000001   0.000002   0.000000  -0.000000  -0.000000
    19  C   -0.003439   0.001877   0.000181   0.000063  -0.000002   0.000000
    20  C    0.000275   0.000456  -0.000005  -0.000042   0.000000  -0.000000
    21  H   -0.000017   0.000257  -0.000004   0.000011   0.000001  -0.000000
    22  H   -0.000035   0.000011  -0.000000   0.000002  -0.000000   0.000000
    23  H    0.000068  -0.000083   0.000000  -0.000003   0.000000  -0.000000
    24  C   -0.051764  -0.000676  -0.001956   0.005237  -0.000062   0.000001
    25  H   -0.000751  -0.000083   0.002491  -0.000081   0.000002  -0.000000
    26  C    0.343676  -0.039517  -0.045760  -0.053279  -0.000170   0.000075
    27  H   -0.041040  -0.004511   0.005804   0.001624  -0.000467  -0.000024
    28  H   -0.040680   0.005552  -0.005190  -0.005228   0.002643  -0.000038
               7          8          9         10         11         12
     1  C   -0.001875  -0.004651  -0.032287  -0.013312   0.005465   0.000088
     2  H   -0.000081   0.000074  -0.006236   0.006179   0.000190   0.000007
     3  H   -0.000326   0.005740   0.001201   0.000308  -0.000208  -0.000000
     4  C   -0.035423  -0.035300   0.715182  -0.034097  -0.039955  -0.006497
     5  C    0.383425   0.383405  -0.053380   0.006112  -0.014158   0.001493
     6  H   -0.027502  -0.028722  -0.007308   0.000024   0.001151   0.003222
     7  H    0.577765  -0.032487  -0.001238  -0.000163   0.000488  -0.000032
     8  H   -0.032487   0.583975   0.001832  -0.000152   0.000310  -0.000148
     9  C   -0.001238   0.001832   4.898906   0.379716   0.357059  -0.034786
    10  H   -0.000163  -0.000152   0.379716   0.613225  -0.056329   0.004525
    11  C    0.000488   0.000310   0.357059  -0.056329   4.979054   0.390122
    12  H   -0.000032  -0.000148  -0.034786   0.004525   0.390122   0.577131
    13  H   -0.000048   0.000047  -0.036126  -0.000247   0.385673  -0.027967
    14  H    0.000060  -0.000016  -0.033213  -0.003282   0.385529  -0.028728
    15  C   -0.000000  -0.000000   0.000000  -0.000000   0.000000   0.000000
    16  H    0.000000   0.000000  -0.000000  -0.000000   0.000000  -0.000000
    17  H   -0.000000  -0.000000   0.000000   0.000000  -0.000000  -0.000000
    18  H   -0.000000  -0.000000  -0.000000  -0.000000   0.000000   0.000000
    19  C   -0.000002   0.000000   0.000002  -0.000004   0.000000  -0.000000
    20  C    0.000000  -0.000000  -0.000008  -0.000003   0.000000  -0.000000
    21  H   -0.000001  -0.000000   0.000023   0.000052  -0.000000   0.000000
    22  H    0.000000   0.000000   0.000000  -0.000000   0.000000   0.000000
    23  H    0.000000   0.000000  -0.000000   0.000001  -0.000000   0.000000
    24  C   -0.000076  -0.000016   0.000025  -0.000034   0.000002   0.000000
    25  H    0.000011  -0.000001  -0.000002   0.000000  -0.000000  -0.000000
    26  C    0.002315  -0.001175  -0.005632   0.000271  -0.000088  -0.000001
    27  H    0.000143   0.000108   0.002491   0.000188  -0.000098   0.000001
    28  H    0.000527   0.000404   0.000080  -0.000005   0.000009  -0.000001
              13         14         15         16         17         18
     1  C   -0.000169  -0.000123  -0.000085  -0.000005   0.000020  -0.000003
     2  H   -0.000001  -0.000015  -0.000084   0.000002  -0.000005  -0.000001
     3  H    0.000020  -0.000003   0.000003   0.000000  -0.000001   0.000002
     4  C   -0.001614   0.000997   0.000003   0.000000  -0.000000   0.000000
     5  C    0.000441   0.000306  -0.000000  -0.000000   0.000000  -0.000000
     6  H    0.000068  -0.000156  -0.000000   0.000000  -0.000000  -0.000000
     7  H   -0.000048   0.000060  -0.000000   0.000000  -0.000000  -0.000000
     8  H    0.000047  -0.000016  -0.000000   0.000000  -0.000000  -0.000000
     9  C   -0.036126  -0.033213   0.000000  -0.000000   0.000000  -0.000000
    10  H   -0.000247  -0.003282  -0.000000  -0.000000   0.000000  -0.000000
    11  C    0.385673   0.385529   0.000000   0.000000  -0.000000   0.000000
    12  H   -0.027967  -0.028728   0.000000  -0.000000  -0.000000   0.000000
    13  H    0.577438  -0.031992   0.000000   0.000000  -0.000000  -0.000000
    14  H   -0.031992   0.580186  -0.000000  -0.000000   0.000000  -0.000000
    15  C    0.000000  -0.000000   5.005169   0.382846   0.380407   0.385088
    16  H    0.000000  -0.000000   0.382846   0.589924  -0.034351  -0.027342
    17  H   -0.000000   0.000000   0.380407  -0.034351   0.590383  -0.027149
    18  H   -0.000000  -0.000000   0.385088  -0.027342  -0.027149   0.572584
    19  C    0.000000  -0.000000   0.366461  -0.038084  -0.035957  -0.033037
    20  C   -0.000000   0.000000  -0.079138  -0.000469  -0.002167   0.004672
    21  H    0.000000  -0.000000   0.004759  -0.000007  -0.000051  -0.000167
    22  H    0.000000  -0.000000  -0.001928   0.003704  -0.000678  -0.000069
    23  H   -0.000000   0.000000  -0.003608  -0.000860   0.004506   0.000034
    24  C    0.000000  -0.000000  -0.037187  -0.001482  -0.000779  -0.004833
    25  H   -0.000000   0.000000  -0.013701   0.000217   0.000298   0.006099
    26  C   -0.000006   0.000019   0.005795  -0.000207  -0.000124   0.000119
    27  H    0.000002  -0.000005   0.000098   0.000005  -0.000004   0.000009
    28  H    0.000000  -0.000000  -0.000182   0.000015  -0.000003  -0.000012
              19         20         21         22         23         24
     1  C   -0.003439   0.000275  -0.000017  -0.000035   0.000068  -0.051764
     2  H    0.001877   0.000456   0.000257   0.000011  -0.000083  -0.000676
     3  H    0.000181  -0.000005  -0.000004  -0.000000   0.000000  -0.001956
     4  C    0.000063  -0.000042   0.000011   0.000002  -0.000003   0.005237
     5  C   -0.000002   0.000000   0.000001  -0.000000   0.000000  -0.000062
     6  H    0.000000  -0.000000  -0.000000   0.000000  -0.000000   0.000001
     7  H   -0.000002   0.000000  -0.000001   0.000000   0.000000  -0.000076
     8  H    0.000000  -0.000000  -0.000000   0.000000   0.000000  -0.000016
     9  C    0.000002  -0.000008   0.000023   0.000000  -0.000000   0.000025
    10  H   -0.000004  -0.000003   0.000052  -0.000000   0.000001  -0.000034
    11  C    0.000000   0.000000  -0.000000   0.000000  -0.000000   0.000002
    12  H   -0.000000  -0.000000   0.000000   0.000000   0.000000   0.000000
    13  H    0.000000  -0.000000   0.000000   0.000000  -0.000000   0.000000
    14  H   -0.000000   0.000000  -0.000000  -0.000000   0.000000  -0.000000
    15  C    0.366461  -0.079138   0.004759  -0.001928  -0.003608  -0.037187
    16  H   -0.038084  -0.000469  -0.000007   0.003704  -0.000860  -0.001482
    17  H   -0.035957  -0.002167  -0.000051  -0.000678   0.004506  -0.000779
    18  H   -0.033037   0.004672  -0.000167  -0.000069   0.000034  -0.004833
    19  C    4.732846   0.377715  -0.026647  -0.036065  -0.036245   0.719163
    20  C    0.377715   5.004523   0.383534   0.382867   0.384988  -0.051999
    21  H   -0.026647   0.383534   0.572103  -0.027140  -0.029022  -0.008028
    22  H   -0.036065   0.382867  -0.027140   0.579701  -0.032706  -0.000080
    23  H   -0.036245   0.384988  -0.029022  -0.032706   0.584019   0.000947
    24  C    0.719163  -0.051999  -0.008028  -0.000080   0.000947   4.906914
    25  H   -0.032033   0.006103   0.000025  -0.000160  -0.000154   0.374915
    26  C   -0.039610  -0.013610   0.001453   0.000195   0.000456   0.358916
    27  H   -0.006256   0.000821   0.002921   0.000030  -0.000140  -0.037658
    28  H    0.001797   0.000341  -0.000063   0.000034  -0.000015  -0.031214
              25         26         27         28
     1  C   -0.000751   0.343676  -0.041040  -0.040680
     2  H   -0.000083  -0.039517  -0.004511   0.005552
     3  H    0.002491  -0.045760   0.005804  -0.005190
     4  C   -0.000081  -0.053279   0.001624  -0.005228
     5  C    0.000002  -0.000170  -0.000467   0.002643
     6  H   -0.000000   0.000075  -0.000024  -0.000038
     7  H    0.000011   0.002315   0.000143   0.000527
     8  H   -0.000001  -0.001175   0.000108   0.000404
     9  C   -0.000002  -0.005632   0.002491   0.000080
    10  H    0.000000   0.000271   0.000188  -0.000005
    11  C   -0.000000  -0.000088  -0.000098   0.000009
    12  H   -0.000000  -0.000001   0.000001  -0.000001
    13  H   -0.000000  -0.000006   0.000002   0.000000
    14  H    0.000000   0.000019  -0.000005  -0.000000
    15  C   -0.013701   0.005795   0.000098  -0.000182
    16  H    0.000217  -0.000207   0.000005   0.000015
    17  H    0.000298  -0.000124  -0.000004  -0.000003
    18  H    0.006099   0.000119   0.000009  -0.000012
    19  C   -0.032033  -0.039610  -0.006256   0.001797
    20  C    0.006103  -0.013610   0.000821   0.000341
    21  H    0.000025   0.001453   0.002921  -0.000063
    22  H   -0.000160   0.000195   0.000030   0.000034
    23  H   -0.000154   0.000456  -0.000140  -0.000015
    24  C    0.374915   0.358916  -0.037658  -0.031214
    25  H    0.615125  -0.053000   0.004699  -0.004949
    26  C   -0.053000   5.015399   0.388477   0.384562
    27  H    0.004699   0.388477   0.600705  -0.035237
    28  H   -0.004949   0.384562  -0.035237   0.609663
 Mulliken charges:
               1
     1  C   -0.246561
     2  H    0.116148
     3  H    0.111426
     4  C    0.094594
     5  C   -0.402311
     6  H    0.125193
     7  H    0.134520
     8  H    0.126774
     9  C   -0.146299
    10  H    0.097030
    11  C   -0.394217
    12  H    0.121571
    13  H    0.134481
    14  H    0.130436
    15  C   -0.394716
    16  H    0.126095
    17  H    0.125655
    18  H    0.124007
    19  C    0.087277
    20  C   -0.398853
    21  H    0.126006
    22  H    0.132316
    23  H    0.127817
    24  C   -0.138277
    25  H    0.094931
    26  C   -0.249548
    27  H    0.117312
    28  H    0.117192
 Sum of Mulliken charges =  -0.00000
 Mulliken charges with hydrogens summed into heavy atoms:
               1
     1  C   -0.018987
     4  C    0.094594
     5  C   -0.015824
     9  C   -0.049269
    11  C   -0.007728
    15  C   -0.018960
    19  C    0.087277
    20  C   -0.012714
    24  C   -0.043345
    26  C   -0.015044
 Electronic spatial extent (au):  <R**2>=           2697.6216
 Charge=              0.0000 electrons
 Dipole moment (field-independent basis, Debye):
    X=              0.0408    Y=              0.0980    Z=              0.1390  Tot=              0.1749
 Quadrupole moment (field-independent basis, Debye-Ang):
   XX=            -62.2833   YY=            -62.4059   ZZ=            -65.9699
   XY=              0.9064   XZ=             -0.9235   YZ=             -0.0272
 Traceless Quadrupole moment (field-independent basis, Debye-Ang):
   XX=              1.2697   YY=              1.1471   ZZ=             -2.4168
   XY=              0.9064   XZ=             -0.9235   YZ=             -0.0272
 Octapole moment (field-independent basis, Debye-Ang**2):
  XXX=              0.1455  YYY=             -0.6195  ZZZ=              1.5344  XYY=             -0.8272
  XXY=              4.1370  XXZ=              1.5146  XZZ=              0.9632  YZZ=              1.2380
  YYZ=             -2.1052  XYZ=              2.4307
 Hexadecapole moment (field-independent basis, Debye-Ang**3):
 XXXX=          -2980.5988 YYYY=           -515.3493 ZZZZ=           -186.8583 XXXY=              7.9000
 XXXZ=             -1.8294 YYYX=             -7.8992 YYYZ=              2.7322 ZZZX=             -1.3725
 ZZZY=             -1.2373 XXYY=           -581.9593 XXZZ=           -537.7190 YYZZ=           -114.3752
 XXYZ=             -0.8268 YYXZ=             -2.9535 ZZXY=              4.0757
 N-N= 5.087423932737D+02 E-N=-1.922550069295D+03  KE= 3.880785982462D+02
 No NMR shielding tensors so no spin-rotation constants.
 Leave Link  601 at Mon Jul  5 23:10:36 2021, MaxMem=   524288000 cpu:               1.6 elap:               0.4
 (Enter /opt/gaussian/g16_legacy/l701.exe)
 ... and contract with generalized density number  0.
 Compute integral first derivatives.
 Leave Link  701 at Mon Jul  5 23:10:37 2021, MaxMem=   524288000 cpu:               0.8 elap:               0.3
 (Enter /opt/gaussian/g16_legacy/l702.exe)
 L702 exits ... SP integral derivatives will be done elsewhere.
 Leave Link  702 at Mon Jul  5 23:10:37 2021, MaxMem=   524288000 cpu:               0.1 elap:               0.0
 (Enter /opt/gaussian/g16_legacy/l703.exe)
 Integral derivatives from FoFJK, PRISM(SPDF).
 Compute integral first derivatives, UseDBF=F ICtDFT=           0.
 Calling FoFJK, ICntrl=      2127 FMM=F ISym2X=0 I1Cent= 0 IOpClX= 0 NMat=1 NMatS=1 NMatT=0.
 FoFJK:  IHMeth= 1 ICntrl=    2127 DoSepK=F KAlg= 0 I1Cent=           0 FoldK=F
 IRaf=         0 NMat=       1 IRICut=       1 DoRegI=T DoRafI=F ISym2E= 0 IDoP0=0 IntGTp=1.
 FoFCou: FMM=F IPFlag=           0 FMFlag=      100000 FMFlg1=         800
         NFxFlg=           0 DoJE=F BraDBF=F KetDBF=F FulRan=T
         wScrn=  0.000000 ICntrl=      2127 IOpCl=  0 I1Cent=           0 NGrid=           0
         NMat0=    1 NMatS0=      1 NMatT0=    0 NMatD0=    1 NMtDS0=    0 NMtDT0=    0
 Symmetry not used in FoFCou.
 Leave Link  703 at Mon Jul  5 23:10:45 2021, MaxMem=   524288000 cpu:              47.0 elap:               7.9
 (Enter /opt/gaussian/g16_legacy/l716.exe)
 Dipole        = 1.60346606D-02 3.85550834D-02 5.46841916D-02
 ***** Axes restored to original set *****
 -------------------------------------------------------------------
 Center     Atomic                   Forces (Hartrees/Bohr)
 Number     Number              X              Y              Z
 -------------------------------------------------------------------
      1        6          -0.008791584    0.002824342    0.004181713
      2        1          -0.000669218   -0.002692557    0.001005586
      3        1           0.001874498   -0.002114780   -0.000974320
      4        6          -0.002446399    0.013388102    0.007759954
      5        6          -0.002992061    0.000342739    0.001725358
      6        1           0.000893297   -0.000323993    0.002164595
      7        1           0.000172949   -0.001367732   -0.002531808
      8        1           0.002318616   -0.001503060    0.000247700
      9        6           0.007335625   -0.008019858   -0.009708388
     10        1           0.002567077   -0.000032389   -0.002197334
     11        6          -0.000635869   -0.002115573    0.000102355
     12        1           0.000452135    0.000683180   -0.001158144
     13        1          -0.002256677   -0.000032439    0.001845419
     14        1          -0.001939124    0.001401688    0.000157442
     15        6          -0.001798545   -0.000078517   -0.003473837
     16        1           0.001823033    0.001642329    0.001552267
     17        1           0.002443765   -0.000563639    0.001697279
     18        1          -0.001635822   -0.000396779    0.001561957
     19        6          -0.008946660   -0.000438835   -0.012843154
     20        6          -0.004759227   -0.000535591   -0.000411434
     21        1           0.000068893   -0.001123136   -0.001470149
     22        1           0.001528010    0.001186258    0.001839377
     23        1           0.002337251   -0.001080691    0.000492156
     24        6           0.006719331   -0.002246603    0.009763225
     25        1           0.002447114    0.001439075    0.000344687
     26        6           0.006602678   -0.001726616   -0.001574557
     27        1          -0.000688278    0.002822284    0.000429196
     28        1          -0.002024807    0.000662790   -0.000527143
 -------------------------------------------------------------------
 Cartesian Forces:  Max     0.013388102 RMS     0.003755196
 Leave Link  716 at Mon Jul  5 23:10:45 2021, MaxMem=   524288000 cpu:               0.2 elap:               0.1
 (Enter /opt/gaussian/g16_legacy/l103.exe)

 GradGradGradGradGradGradGradGradGradGradGradGradGradGradGradGradGradGrad
 Berny optimization.
 FormGI is forming the generalized inverse of G from B-inverse, IUseBI=4.
 Internal  Forces:  Max     0.014561908 RMS     0.002353547
 Search for a local minimum.
 Step number   1 out of a maximum of  138
 All quantities printed in internal units (Hartrees-Bohrs-Radians)
 RMS Force = .23535D-02 SwitMx=.10000D-02 MixMth= 1
 Mixed Optimization -- RFO/linear search
 Second derivative matrix not updated -- first step.
 ITU=  0
     Eigenvalues ---    0.00328   0.00507   0.00679   0.00690   0.00694
     Eigenvalues ---    0.00714   0.00823   0.01208   0.01286   0.01567
     Eigenvalues ---    0.01643   0.02775   0.02784   0.03988   0.04135
     Eigenvalues ---    0.05346   0.05394   0.06976   0.06979   0.07015
     Eigenvalues ---    0.07091   0.07295   0.07300   0.07348   0.07513
     Eigenvalues ---    0.09269   0.09376   0.12760   0.12858   0.15999
     Eigenvalues ---    0.15999   0.16000   0.16000   0.16000   0.16000
     Eigenvalues ---    0.16000   0.16000   0.16000   0.16000   0.16000
     Eigenvalues ---    0.16000   0.16000   0.16000   0.21868   0.21900
     Eigenvalues ---    0.22000   0.22000   0.24989   0.24994   0.24998
     Eigenvalues ---    0.24999   0.29136   0.30406   0.31695   0.31785
     Eigenvalues ---    0.31811   0.31971   0.32837   0.33859   0.33909
     Eigenvalues ---    0.33997   0.34192   0.34199   0.34237   0.34242
     Eigenvalues ---    0.34247   0.34252   0.34256   0.34267   0.34322
     Eigenvalues ---    0.34334   0.34549   0.34551   0.34635   0.34793
     Eigenvalues ---    0.34801   0.55421   0.55564
 RFO step:  Lambda=-3.21340792D-03 EMin= 3.27666140D-03
 Linear search not attempted -- first point.
 Iteration  1 RMS(Cart)=  0.04922148 RMS(Int)=  0.00073331
 Iteration  2 RMS(Cart)=  0.00137473 RMS(Int)=  0.00014160
 Iteration  3 RMS(Cart)=  0.00000089 RMS(Int)=  0.00014160
 ITry= 1 IFail=0 DXMaxC= 1.93D-01 DCOld= 1.00D+10 DXMaxT= 3.00D-01 DXLimC= 3.00D+00 Rises=F
 Variable       Old X    -DE/DX   Delta X   Delta X   Delta X     New X
                                 (Linear)    (Quad)   (Total)
    R1        2.07568  -0.00181   0.00000  -0.00529  -0.00529   2.07039
    R2        2.07484   0.00051   0.00000   0.00150   0.00150   2.07634
    R3        2.87160  -0.00415   0.00000  -0.01349  -0.01349   2.85811
    R4        2.89720   0.00234   0.00000   0.00795   0.00795   2.90515
    R5        2.84491   0.00064   0.00000   0.00198   0.00198   2.84689
    R6        2.54759  -0.01456   0.00000  -0.02612  -0.02612   2.52147
    R7        2.06414  -0.00071   0.00000  -0.00205  -0.00205   2.06209
    R8        2.06790   0.00093   0.00000   0.00269   0.00269   2.07059
    R9        2.07007  -0.00014   0.00000  -0.00041  -0.00041   2.06966
   R10        2.05999   0.00009   0.00000   0.00026   0.00026   2.06025
   R11        2.82638   0.00443   0.00000   0.01335   0.01335   2.83973
   R12        2.06272  -0.00020   0.00000  -0.00057  -0.00057   2.06215
   R13        2.06771   0.00089   0.00000   0.00256   0.00256   2.07027
   R14        2.06915  -0.00013   0.00000  -0.00037  -0.00037   2.06878
   R15        2.06907   0.00073   0.00000   0.00210   0.00210   2.07118
   R16        2.06924   0.00060   0.00000   0.00174   0.00174   2.07097
   R17        2.06932  -0.00168   0.00000  -0.00485  -0.00485   2.06447
   R18        2.84705   0.00048   0.00000   0.00149   0.00149   2.84855
   R19        2.84196   0.00048   0.00000   0.00148   0.00148   2.84344
   R20        2.54634  -0.01403   0.00000  -0.02510  -0.02510   2.52124
   R21        2.06410  -0.00040   0.00000  -0.00116  -0.00116   2.06294
   R22        2.06882   0.00073   0.00000   0.00211   0.00211   2.07093
   R23        2.06995   0.00001   0.00000   0.00004   0.00004   2.06999
   R24        2.06012   0.00022   0.00000   0.00063   0.00063   2.06076
   R25        2.84539  -0.00011   0.00000  -0.00036  -0.00036   2.84503
   R26        2.06899  -0.00038   0.00000  -0.00110  -0.00110   2.06789
   R27        2.07336   0.00027   0.00000   0.00078   0.00078   2.07414
    A1        1.84391   0.00160   0.00000   0.01775   0.01765   1.86156
    A2        1.92246  -0.00089   0.00000  -0.00157  -0.00158   1.92088
    A3        1.90338  -0.00060   0.00000  -0.00403  -0.00404   1.89933
    A4        1.90070   0.00098   0.00000   0.00910   0.00909   1.90979
    A5        1.92312  -0.00321   0.00000  -0.02708  -0.02709   1.89603
    A6        1.96635   0.00207   0.00000   0.00641   0.00643   1.97278
    A7        2.00962   0.00083   0.00000   0.00372   0.00309   2.01271
    A8        2.09707   0.00082   0.00000   0.00377   0.00314   2.10021
    A9        2.17615  -0.00163   0.00000  -0.00589  -0.00651   2.16964
   A10        1.97650  -0.00195   0.00000  -0.00857  -0.00855   1.96796
   A11        1.92689   0.00299   0.00000   0.01519   0.01522   1.94211
   A12        1.92314  -0.00040   0.00000  -0.00261  -0.00259   1.92056
   A13        1.88422  -0.00053   0.00000  -0.00269  -0.00266   1.88155
   A14        1.85843   0.00229   0.00000   0.01999   0.02000   1.87843
   A15        1.89154  -0.00253   0.00000  -0.02221  -0.02218   1.86936
   A16        2.06537  -0.00296   0.00000  -0.01885  -0.01887   2.04649
   A17        2.23552  -0.00096   0.00000  -0.00426  -0.00428   2.23124
   A18        1.98217   0.00392   0.00000   0.02330   0.02328   2.00545
   A19        1.98438  -0.00216   0.00000  -0.01262  -0.01257   1.97181
   A20        1.91697   0.00324   0.00000   0.01821   0.01818   1.93515
   A21        1.90924   0.00246   0.00000   0.01608   0.01604   1.92529
   A22        1.89316  -0.00097   0.00000  -0.00764  -0.00759   1.88557
   A23        1.87122   0.00029   0.00000   0.00476   0.00479   1.87601
   A24        1.88604  -0.00305   0.00000  -0.02005  -0.02016   1.86588
   A25        1.89490  -0.00318   0.00000  -0.02671  -0.02670   1.86820
   A26        1.87882   0.00084   0.00000   0.00804   0.00806   1.88688
   A27        1.92345   0.00166   0.00000   0.00803   0.00805   1.93150
   A28        1.87917   0.00089   0.00000   0.00958   0.00960   1.88877
   A29        1.92483   0.00200   0.00000   0.01076   0.01078   1.93561
   A30        1.96067  -0.00233   0.00000  -0.01062  -0.01060   1.95007
   A31        1.99442   0.00119   0.00000   0.00470   0.00469   1.99911
   A32        2.10555   0.00257   0.00000   0.01017   0.01016   2.11571
   A33        2.18317  -0.00375   0.00000  -0.01480  -0.01481   2.16836
   A34        1.97962  -0.00193   0.00000  -0.00805  -0.00804   1.97158
   A35        1.92153   0.00207   0.00000   0.01008   0.01010   1.93163
   A36        1.92076   0.00011   0.00000  -0.00039  -0.00038   1.92038
   A37        1.88469   0.00027   0.00000   0.00384   0.00386   1.88855
   A38        1.86368   0.00186   0.00000   0.01646   0.01647   1.88015
   A39        1.89068  -0.00248   0.00000  -0.02283  -0.02282   1.86786
   A40        2.06648  -0.00177   0.00000  -0.01229  -0.01268   2.05381
   A41        2.22834  -0.00210   0.00000  -0.00924  -0.00963   2.21871
   A42        1.98822   0.00389   0.00000   0.02235   0.02194   2.01016
   A43        1.94411   0.00310   0.00000   0.01266   0.01266   1.95678
   A44        1.92408  -0.00265   0.00000  -0.02539  -0.02545   1.89863
   A45        1.92247  -0.00209   0.00000  -0.01201  -0.01219   1.91028
   A46        1.94909  -0.00046   0.00000  -0.00294  -0.00291   1.94618
   A47        1.87721   0.00054   0.00000   0.01661   0.01663   1.89384
   A48        1.84364   0.00149   0.00000   0.01176   0.01154   1.85518
    D1        2.90611   0.00155   0.00000   0.09177   0.09192   2.99803
    D2       -0.20863   0.00061   0.00000   0.02894   0.02883  -0.17979
    D3        0.89157  -0.00044   0.00000   0.06616   0.06626   0.95782
    D4       -2.22317  -0.00137   0.00000   0.00332   0.00317  -2.22000
    D5       -1.24759   0.00157   0.00000   0.08990   0.09003  -1.15756
    D6        1.92086   0.00063   0.00000   0.02706   0.02694   1.94781
    D7       -0.98599   0.00036   0.00000  -0.01822  -0.01826  -1.00425
    D8        1.18791   0.00006   0.00000  -0.03147  -0.03155   1.15636
    D9       -3.06749  -0.00092   0.00000  -0.03923  -0.03916  -3.10665
   D10        1.03045   0.00015   0.00000  -0.01431  -0.01432   1.01613
   D11       -3.07883  -0.00015   0.00000  -0.02755  -0.02760  -3.10644
   D12       -1.05105  -0.00114   0.00000  -0.03531  -0.03521  -1.08627
   D13       -3.12622   0.00053   0.00000  -0.01767  -0.01769   3.13928
   D14       -0.95232   0.00023   0.00000  -0.03091  -0.03097  -0.98329
   D15        1.07546  -0.00076   0.00000  -0.03867  -0.03858   1.03688
   D16       -2.88996  -0.00110   0.00000  -0.05644  -0.05637  -2.94632
   D17        1.27818  -0.00124   0.00000  -0.05806  -0.05798   1.22019
   D18       -0.81063   0.00025   0.00000  -0.03847  -0.03838  -0.84902
   D19        0.22340  -0.00007   0.00000   0.00982   0.00973   0.23313
   D20       -1.89165  -0.00021   0.00000   0.00819   0.00811  -1.88354
   D21        2.30272   0.00128   0.00000   0.02778   0.02771   2.33043
   D22       -0.00345   0.00055   0.00000   0.03706   0.03691   0.03346
   D23       -3.12687   0.00023   0.00000   0.02273   0.02274  -3.10413
   D24       -3.11548  -0.00053   0.00000  -0.03229  -0.03230   3.13541
   D25        0.04429  -0.00084   0.00000  -0.04663  -0.04647  -0.00219
   D26        0.15478  -0.00043   0.00000  -0.01571  -0.01566   0.13912
   D27       -1.97003  -0.00006   0.00000  -0.01049  -0.01037  -1.98040
   D28        2.24582   0.00025   0.00000  -0.00657  -0.00657   2.23925
   D29       -2.96936  -0.00068   0.00000  -0.02913  -0.02919  -2.99855
   D30        1.18902  -0.00030   0.00000  -0.02391  -0.02390   1.16512
   D31       -0.87832   0.00001   0.00000  -0.01998  -0.02010  -0.89842
   D32        1.03967  -0.00083   0.00000  -0.01504  -0.01508   1.02460
   D33       -2.11163  -0.00071   0.00000  -0.00672  -0.00667  -2.11830
   D34       -1.05219   0.00079   0.00000   0.00616   0.00612  -1.04607
   D35        2.07969   0.00090   0.00000   0.01448   0.01452   2.09421
   D36        3.13464  -0.00016   0.00000  -0.00636  -0.00640   3.12824
   D37       -0.01667  -0.00005   0.00000   0.00197   0.00201  -0.01466
   D38        3.00439   0.00044   0.00000   0.02152   0.02149   3.02588
   D39       -1.16488   0.00097   0.00000   0.02826   0.02822  -1.13666
   D40        0.91798  -0.00073   0.00000   0.00613   0.00610   0.92408
   D41       -0.12700   0.00028   0.00000   0.01260   0.01263  -0.11437
   D42        1.98692   0.00081   0.00000   0.01934   0.01937   2.00629
   D43       -2.21341  -0.00089   0.00000  -0.00279  -0.00276  -2.21616
   D44       -0.00882   0.00005   0.00000  -0.01117  -0.01088  -0.01970
   D45        3.11354   0.00113   0.00000   0.04473   0.04447  -3.12517
   D46        3.12195   0.00021   0.00000  -0.00176  -0.00150   3.12045
   D47       -0.03887   0.00129   0.00000   0.05414   0.05385   0.01498
   D48        1.82306  -0.00079   0.00000  -0.02886  -0.02912   1.79394
   D49       -0.33672   0.00070   0.00000  -0.00295  -0.00312  -0.33983
   D50       -2.35188  -0.00116   0.00000  -0.02532  -0.02545  -2.37733
   D51       -1.33703   0.00020   0.00000   0.02462   0.02473  -1.31230
   D52        2.78638   0.00169   0.00000   0.05054   0.05073   2.83711
   D53        0.77122  -0.00017   0.00000   0.02816   0.02840   0.79961
         Item               Value     Threshold  Converged?
 Maximum Force            0.014562     0.002500     NO 
 RMS     Force            0.002354     0.001667     NO 
 Maximum Displacement     0.193324     0.010000     NO 
 RMS     Displacement     0.049177     0.006667     NO 
 Predicted change in Energy=-1.720509D-03
 Lowest energy point so far.  Saving SCF results.
 GradGradGradGradGradGradGradGradGradGradGradGradGradGradGradGradGradGrad

 Leave Link  103 at Mon Jul  5 23:10:45 2021, MaxMem=   524288000 cpu:               0.5 elap:               0.1
 (Enter /opt/gaussian/g16_legacy/l202.exe)
                          Input orientation:                          
 ---------------------------------------------------------------------
 Center     Atomic      Atomic             Coordinates (Angstroms)
 Number     Number       Type             X           Y           Z
 ---------------------------------------------------------------------
      1          6           0       -0.525141    0.493469   -0.580748
      2          1           0       -0.194362    1.347673    0.020310
      3          1           0       -0.417696    0.788699   -1.633623
      4          6           0       -1.977250    0.186055   -0.290280
      5          6           0       -2.610734   -0.842268   -1.190735
      6          1           0       -3.694880   -0.892147   -1.077224
      7          1           0       -2.207251   -1.842489   -0.997489
      8          1           0       -2.397536   -0.605814   -2.238655
      9          6           0       -2.599982    0.777274    0.731011
     10          1           0       -2.029052    1.501992    1.311909
[...]
                 (A) (A) (A) (A) (A) (A) (A) (A) (A) (A) (A) (A)
                 (A) (A) (A) (A) (A) (A) (A) (A) (A) (A) (A) (A)
                 (A) (A) (A) (A) (A) (A) (A) (A) (A) (A) (A) (A)
                 (A) (A) (A) (A) (A) (A) (A) (A) (A) (A) (A) (A)
                 (A) (A) (A) (A) (A) (A) (A) (A) (A) (A) (A) (A)
                 (A) (A) (A) (A) (A) (A) (A) (A) (A) (A) (A) (A)
                 (A) (A) (A) (A) (A) (A) (A) (A) (A) (A) (A) (A)
                 (A) (A) (A) (A) (A) (A) (A) (A) (A) (A) (A) (A)
                 (A) (A) (A) (A) (A) (A) (A) (A) (A) (A) (A) (A)
                 (A) (A) (A) (A) (A) (A) (A) (A) (A) (A) (A) (A)
                 (A) (A) (A) (A) (A) (A) (A) (A) (A) (A) (A) (A)
                 (A) (A) (A) (A) (A) (A) (A) (A) (A)
 The electronic state is 1-A.
 Alpha  occ. eigenvalues --  -10.54453 -10.54105 -10.53765 -10.53663 -10.53448
 Alpha  occ. eigenvalues --  -10.53400 -10.53337 -10.53329 -10.53253 -10.52996
 Alpha  occ. eigenvalues --   -0.92096  -0.90090  -0.84786  -0.80847  -0.77792
 Alpha  occ. eigenvalues --   -0.76652  -0.72675  -0.67617  -0.58508  -0.58016
 Alpha  occ. eigenvalues --   -0.54217  -0.52865  -0.49984  -0.49472  -0.48993
 Alpha  occ. eigenvalues --   -0.47840  -0.46071  -0.45562  -0.44285  -0.43795
 Alpha  occ. eigenvalues --   -0.42912  -0.42394  -0.42139  -0.40603  -0.39364
 Alpha  occ. eigenvalues --   -0.38004  -0.36347  -0.28933  -0.27180
 Alpha virt. eigenvalues --    0.06865   0.08174   0.12801   0.14729   0.16132
 Alpha virt. eigenvalues --    0.16901   0.17714   0.18745   0.19625   0.20235
 Alpha virt. eigenvalues --    0.21182   0.21726   0.22521   0.22990   0.23282
 Alpha virt. eigenvalues --    0.24051   0.25437   0.25679   0.26876   0.27832
 Alpha virt. eigenvalues --    0.28468   0.29640   0.30199   0.31492   0.32315
 Alpha virt. eigenvalues --    0.38658   0.40157   0.46798   0.49299   0.53716
 Alpha virt. eigenvalues --    0.54488   0.56243   0.58225   0.59134   0.59403
 Alpha virt. eigenvalues --    0.60148   0.61572   0.62688   0.64015   0.66473
 Alpha virt. eigenvalues --    0.66607   0.68644   0.69454   0.71143   0.73039
 Alpha virt. eigenvalues --    0.74520   0.76464   0.77085   0.78936   0.80207
 Alpha virt. eigenvalues --    0.80545   0.82060   0.83392   0.84792   0.85921
 Alpha virt. eigenvalues --    0.87723   0.88912   0.90524   0.92305   0.92634
 Alpha virt. eigenvalues --    0.93215   0.93919   0.94943   0.95393   0.96374
 Alpha virt. eigenvalues --    0.96889   0.97282   0.97851   0.99488   1.01159
 Alpha virt. eigenvalues --    1.01404   1.03077   1.03586   1.06072   1.06277
 Alpha virt. eigenvalues --    1.07916   1.19808   1.21678   1.24598   1.25294
 Alpha virt. eigenvalues --    1.27705   1.31317   1.34809   1.36032   1.37938
 Alpha virt. eigenvalues --    1.40951   1.44554   1.44765   1.49020   1.50766
 Alpha virt. eigenvalues --    1.52177   1.57913   1.66739   1.69089   1.73444
 Alpha virt. eigenvalues --    1.76966   1.78042   1.78372   1.81928   1.83114
 Alpha virt. eigenvalues --    1.83594   1.84045   1.85225   1.87311   1.88564
 Alpha virt. eigenvalues --    1.90202   1.90818   1.94779   1.97910   2.01683
 Alpha virt. eigenvalues --    2.03337   2.03485   2.04701   2.09638   2.09989
 Alpha virt. eigenvalues --    2.10100   2.10478   2.11283   2.13226   2.14223
 Alpha virt. eigenvalues --    2.15889   2.16657   2.17302   2.17478   2.18716
 Alpha virt. eigenvalues --    2.20775   2.22299   2.22823   2.23734   2.27751
 Alpha virt. eigenvalues --    2.29081   2.31229   2.33550   2.34732   2.37106
 Alpha virt. eigenvalues --    2.37939   2.40327   2.41790   2.42393   2.45780
 Alpha virt. eigenvalues --    2.46582   2.48298   2.49813   2.53617   2.53718
 Alpha virt. eigenvalues --    2.55208   2.59404   2.60188   2.62183   2.65177
 Alpha virt. eigenvalues --    2.65402   2.69551   2.70452   2.71591   2.73286
 Alpha virt. eigenvalues --    2.74525   2.76043   2.79153   2.80555   2.81754
 Alpha virt. eigenvalues --    2.84522   2.86005   2.86879   2.87819   2.88741
 Alpha virt. eigenvalues --    2.90023   2.91701   2.93610   2.94609   3.03983
 Alpha virt. eigenvalues --    3.04842   3.08273   3.09873   3.17291   3.18181
 Alpha virt. eigenvalues --    3.22864   3.24987   3.27197   3.34357   3.39624
 Alpha virt. eigenvalues --    3.40720   3.41418   3.43002   3.44167   3.44783
 Alpha virt. eigenvalues --    3.45103   3.47006   3.48422   3.51177   3.52024
 Alpha virt. eigenvalues --    3.57387   4.18963   4.22064   4.34054   4.43681
 Alpha virt. eigenvalues --    4.49657   4.50965   4.52471   4.64140   4.69763
 Alpha virt. eigenvalues --    4.75695
          Condensed to atoms (all electrons):
               1          2          3          4          5          6
     1  C    5.019578   0.386981   0.378486   0.365761  -0.072371   0.004374
     2  H    0.386981   0.605571  -0.031381  -0.039774   0.005365  -0.000146
     3  H    0.378486  -0.031381   0.618134  -0.033848  -0.004716  -0.000056
     4  C    0.365761  -0.039774  -0.033848   4.741276   0.368269  -0.027642
     5  C   -0.072371   0.005365  -0.004716   0.368269   5.017709   0.384163
     6  H    0.004374  -0.000146  -0.000056  -0.027642   0.384163   0.571402
     7  H   -0.002900  -0.000108  -0.000248  -0.032516   0.383661  -0.027800
     8  H   -0.003206   0.000063   0.005411  -0.036172   0.382043  -0.026648
     9  C   -0.031001  -0.007213   0.000380   0.721108  -0.055009  -0.006908
    10  H   -0.015057   0.007105   0.000367  -0.034427   0.006526   0.000001
    11  C    0.005620   0.000197  -0.000207  -0.038721  -0.015211   0.000515
    12  H    0.000079   0.000009   0.000003  -0.006639   0.001551   0.003722
    13  H   -0.000160  -0.000007   0.000019  -0.000291   0.000380   0.000067
    14  H   -0.000114  -0.000010  -0.000004  -0.000485   0.000370  -0.000221
    15  C   -0.000065  -0.000119   0.000001   0.000003  -0.000000  -0.000000
    16  H   -0.000006   0.000003   0.000000   0.000000  -0.000000   0.000000
    17  H    0.000021  -0.000004  -0.000003  -0.000000   0.000000  -0.000000
    18  H   -0.000002  -0.000001   0.000001   0.000000  -0.000000  -0.000000
    19  C   -0.005923   0.002792   0.000145   0.000209  -0.000003   0.000000
    20  C   -0.000290   0.001075  -0.000001  -0.000098   0.000000   0.000000
    21  H   -0.000417   0.000616   0.000014   0.000094   0.000002   0.000000
    22  H   -0.000021   0.000028  -0.000000   0.000003   0.000000   0.000000
    23  H    0.000145  -0.000107  -0.000003  -0.000010   0.000000  -0.000000
    24  C   -0.049275  -0.002393  -0.001886   0.005365   0.000002   0.000000
    25  H    0.000411  -0.000096   0.001713  -0.000096  -0.000002  -0.000000
    26  C    0.347140  -0.040576  -0.047520  -0.053731  -0.000948   0.000153
    27  H   -0.044745  -0.005198   0.006252   0.002384  -0.000992  -0.000033
    28  H   -0.038700   0.005541  -0.005213  -0.006743   0.003808  -0.000019
               7          8          9         10         11         12
     1  C   -0.002900  -0.003206  -0.031001  -0.015057   0.005620   0.000079
     2  H   -0.000108   0.000063  -0.007213   0.007105   0.000197   0.000009
     3  H   -0.000248   0.005411   0.000380   0.000367  -0.000207   0.000003
     4  C   -0.032516  -0.036172   0.721108  -0.034427  -0.038721  -0.006639
     5  C    0.383661   0.382043  -0.055009   0.006526  -0.015211   0.001551
     6  H   -0.027800  -0.026648  -0.006908   0.000001   0.000515   0.003722
     7  H    0.577840  -0.034618  -0.001988  -0.000159   0.000601  -0.000205
     8  H   -0.034618   0.587077   0.002250  -0.000164   0.000312  -0.000102
     9  C   -0.001988   0.002250   4.893849   0.378147   0.357696  -0.035611
    10  H   -0.000159  -0.000164   0.378147   0.614913  -0.054558   0.004454
    11  C    0.000601   0.000312   0.357696  -0.054558   4.979138   0.389634
    12  H   -0.000205  -0.000102  -0.035611   0.004454   0.389634   0.578857
    13  H   -0.000038   0.000025  -0.033149  -0.001498   0.385054  -0.028046
    14  H    0.000100  -0.000020  -0.032970  -0.001459   0.385225  -0.028109
    15  C   -0.000000  -0.000000   0.000000  -0.000000   0.000000   0.000000
    16  H    0.000000   0.000000  -0.000000  -0.000000   0.000000   0.000000
    17  H   -0.000000  -0.000000   0.000000   0.000000  -0.000000  -0.000000
    18  H    0.000000  -0.000000  -0.000000  -0.000000   0.000000   0.000000
    19  C   -0.000004   0.000000  -0.000002  -0.000008   0.000000  -0.000000
    20  C    0.000001  -0.000000  -0.000023  -0.000011   0.000000  -0.000000
    21  H   -0.000003   0.000000   0.000104   0.000110  -0.000001   0.000000
    22  H    0.000000   0.000000   0.000000  -0.000000   0.000000   0.000000
    23  H    0.000000   0.000000  -0.000001   0.000005  -0.000000   0.000000
    24  C   -0.000024  -0.000043  -0.000024  -0.000023   0.000002   0.000000
    25  H    0.000009   0.000001  -0.000001   0.000000  -0.000000  -0.000000
    26  C    0.002557  -0.002102  -0.004535   0.000257  -0.000100  -0.000003
    27  H    0.000338   0.000192   0.002196   0.000101  -0.000079   0.000002
    28  H   -0.000071   0.000725   0.000055  -0.000008   0.000010  -0.000002
              13         14         15         16         17         18
     1  C   -0.000160  -0.000114  -0.000065  -0.000006   0.000021  -0.000002
     2  H   -0.000007  -0.000010  -0.000119   0.000003  -0.000004  -0.000001
     3  H    0.000019  -0.000004   0.000001   0.000000  -0.000003   0.000001
     4  C   -0.000291  -0.000485   0.000003   0.000000  -0.000000   0.000000
     5  C    0.000380   0.000370  -0.000000  -0.000000   0.000000  -0.000000
     6  H    0.000067  -0.000221  -0.000000   0.000000  -0.000000  -0.000000
     7  H   -0.000038   0.000100  -0.000000   0.000000  -0.000000   0.000000
     8  H    0.000025  -0.000020  -0.000000   0.000000  -0.000000  -0.000000
     9  C   -0.033149  -0.032970   0.000000  -0.000000   0.000000  -0.000000
    10  H   -0.001498  -0.001459  -0.000000  -0.000000   0.000000  -0.000000
    11  C    0.385054   0.385225   0.000000   0.000000  -0.000000   0.000000
    12  H   -0.028046  -0.028109   0.000000   0.000000  -0.000000   0.000000
    13  H    0.579310  -0.033963   0.000000   0.000000  -0.000000  -0.000000
    14  H   -0.033963   0.578988  -0.000000  -0.000000   0.000000  -0.000000
    15  C    0.000000  -0.000000   5.005742   0.381449   0.380977   0.385026
    16  H    0.000000  -0.000000   0.381449   0.590882  -0.036824  -0.026337
    17  H   -0.000000   0.000000   0.380977  -0.036824   0.591252  -0.026446
    18  H   -0.000000  -0.000000   0.385026  -0.026337  -0.026446   0.570346
    19  C    0.000000  -0.000000   0.368942  -0.035970  -0.035802  -0.033417
    20  C   -0.000000   0.000000  -0.078328  -0.001068  -0.001695   0.004736
    21  H    0.000000  -0.000001   0.004846  -0.000017  -0.000047  -0.000170
    22  H    0.000000  -0.000000  -0.002678   0.004072  -0.000769  -0.000037
    23  H   -0.000000   0.000000  -0.002725  -0.000769   0.004069  -0.000015
    24  C    0.000000  -0.000000  -0.038804  -0.001442  -0.000588  -0.004984
    25  H   -0.000000   0.000000  -0.014200   0.000239   0.000250   0.006469
    26  C   -0.000005   0.000020   0.005898  -0.000207  -0.000109   0.000105
    27  H    0.000001  -0.000006   0.000042   0.000015  -0.000009   0.000010
    28  H    0.000000  -0.000000  -0.000169   0.000008  -0.000001  -0.000010
              19         20         21         22         23         24
     1  C   -0.005923  -0.000290  -0.000417  -0.000021   0.000145  -0.049275
     2  H    0.002792   0.001075   0.000616   0.000028  -0.000107  -0.002393
     3  H    0.000145  -0.000001   0.000014  -0.000000  -0.000003  -0.001886
     4  C    0.000209  -0.000098   0.000094   0.000003  -0.000010   0.005365
     5  C   -0.000003   0.000000   0.000002   0.000000   0.000000   0.000002
     6  H    0.000000   0.000000   0.000000   0.000000  -0.000000   0.000000
     7  H   -0.000004   0.000001  -0.000003   0.000000   0.000000  -0.000024
     8  H    0.000000  -0.000000   0.000000   0.000000   0.000000  -0.000043
     9  C   -0.000002  -0.000023   0.000104   0.000000  -0.000001  -0.000024
    10  H   -0.000008  -0.000011   0.000110  -0.000000   0.000005  -0.000023
    11  C    0.000000   0.000000  -0.000001   0.000000  -0.000000   0.000002
    12  H   -0.000000  -0.000000   0.000000   0.000000   0.000000   0.000000
    13  H    0.000000  -0.000000   0.000000   0.000000  -0.000000   0.000000
    14  H   -0.000000   0.000000  -0.000001  -0.000000   0.000000  -0.000000
    15  C    0.368942  -0.078328   0.004846  -0.002678  -0.002725  -0.038804
    16  H   -0.035970  -0.001068  -0.000017   0.004072  -0.000769  -0.001442
    17  H   -0.035802  -0.001695  -0.000047  -0.000769   0.004069  -0.000588
    18  H   -0.033417   0.004736  -0.000170  -0.000037  -0.000015  -0.004984
    19  C    4.719003   0.378717  -0.026812  -0.035689  -0.035127   0.722337
    20  C    0.378717   5.006866   0.383688   0.383261   0.383501  -0.054721
    21  H   -0.026812   0.383688   0.572951  -0.026827  -0.027851  -0.009860
    22  H   -0.035689   0.383261  -0.026827   0.582916  -0.034560   0.000769
    23  H   -0.035127   0.383501  -0.027851  -0.034560   0.583926   0.000328
    24  C    0.722337  -0.054721  -0.009860   0.000769   0.000328   4.906173
    25  H   -0.034586   0.006460   0.000031  -0.000155  -0.000168   0.377054
    26  C   -0.042484  -0.013484   0.002305   0.000030   0.000556   0.358480
    27  H   -0.007264  -0.000002   0.002537   0.000211  -0.000205  -0.036593
    28  H    0.003221   0.000389  -0.000031   0.000012  -0.000014  -0.027225
              25         26         27         28
     1  C    0.000411   0.347140  -0.044745  -0.038700
     2  H   -0.000096  -0.040576  -0.005198   0.005541
     3  H    0.001713  -0.047520   0.006252  -0.005213
     4  C   -0.000096  -0.053731   0.002384  -0.006743
     5  C   -0.000002  -0.000948  -0.000992   0.003808
     6  H   -0.000000   0.000153  -0.000033  -0.000019
     7  H    0.000009   0.002557   0.000338  -0.000071
     8  H    0.000001  -0.002102   0.000192   0.000725
     9  C   -0.000001  -0.004535   0.002196   0.000055
    10  H    0.000000   0.000257   0.000101  -0.000008
    11  C   -0.000000  -0.000100  -0.000079   0.000010
    12  H   -0.000000  -0.000003   0.000002  -0.000002
    13  H   -0.000000  -0.000005   0.000001   0.000000
    14  H    0.000000   0.000020  -0.000006  -0.000000
    15  C   -0.014200   0.005898   0.000042  -0.000169
    16  H    0.000239  -0.000207   0.000015   0.000008
    17  H    0.000250  -0.000109  -0.000009  -0.000001
    18  H    0.006469   0.000105   0.000010  -0.000010
    19  C   -0.034586  -0.042484  -0.007264   0.003221
    20  C    0.006460  -0.013484  -0.000002   0.000389
    21  H    0.000031   0.002305   0.002537  -0.000031
    22  H   -0.000155   0.000030   0.000211   0.000012
    23  H   -0.000168   0.000556  -0.000205  -0.000014
    24  C    0.377054   0.358480  -0.036593  -0.027225
    25  H    0.613008  -0.050024   0.004382  -0.005744
    26  C   -0.050024   5.025035   0.388002   0.382550
    27  H    0.004382   0.388002   0.603119  -0.034528
    28  H   -0.005744   0.382550  -0.034528   0.607348
 Mulliken charges:
               1
     1  C   -0.244343
     2  H    0.111788
     3  H    0.114159
     4  C    0.106722
     5  C   -0.404597
     6  H    0.125075
     7  H    0.135575
     8  H    0.124976
     9  C   -0.147353
    10  H    0.095386
    11  C   -0.395127
    12  H    0.120406
    13  H    0.132302
    14  H    0.132659
    15  C   -0.395839
    16  H    0.125970
    17  H    0.125727
    18  H    0.124726
    19  C    0.097726
    20  C   -0.398972
    21  H    0.124737
    22  H    0.129432
    23  H    0.129023
    24  C   -0.142625
    25  H    0.095046
    26  C   -0.257259
    27  H    0.119870
    28  H    0.114812
 Sum of Mulliken charges =  -0.00000
 Mulliken charges with hydrogens summed into heavy atoms:
               1
     1  C   -0.018396
     4  C    0.106722
     5  C   -0.018971
     9  C   -0.051968
    11  C   -0.009760
    15  C   -0.019416
    19  C    0.097726
    20  C   -0.015780
    24  C   -0.047579
    26  C   -0.022578
 Electronic spatial extent (au):  <R**2>=           2619.5766
 Charge=             -0.0000 electrons
 Dipole moment (field-independent basis, Debye):
    X=              0.0531    Y=              0.1213    Z=              0.1067  Tot=              0.1701
 Quadrupole moment (field-independent basis, Debye-Ang):
   XX=            -62.1774   YY=            -62.3244   ZZ=            -66.3034
   XY=              0.9950   XZ=             -1.2329   YZ=              0.1155
 Traceless Quadrupole moment (field-independent basis, Debye-Ang):
   XX=              1.4243   YY=              1.2773   ZZ=             -2.7017
   XY=              0.9950   XZ=             -1.2329   YZ=              0.1155
 Octapole moment (field-independent basis, Debye-Ang**2):
  XXX=             -0.1237  YYY=             -0.9305  ZZZ=              1.3940  XYY=             -0.4412
  XXY=              4.8260  XXZ=              1.0699  XZZ=              0.8363  YZZ=              1.4111
  YYZ=             -1.9513  XYZ=              2.4477
 Hexadecapole moment (field-independent basis, Debye-Ang**3):
 XXXX=          -2866.8068 YYYY=           -522.7878 ZZZZ=           -179.2757 XXXY=              6.9612
 XXXZ=             -4.6863 YYYX=             -8.3360 YYYZ=              1.2515 ZZZX=             -3.2242
 ZZZY=              0.2321 XXYY=           -561.5185 XXZZ=           -522.9486 YYZZ=           -113.4236
 XXYZ=              1.4258 YYXZ=             -3.0288 ZZXY=              3.9781
 N-N= 5.125168391574D+02 E-N=-1.930120534425D+03  KE= 3.881378986058D+02
 No NMR shielding tensors so no spin-rotation constants.
 Leave Link  601 at Mon Jul  5 23:25:23 2021, MaxMem=   524288000 cpu:               0.8 elap:               0.1
 (Enter /opt/gaussian/g16_legacy/l9999.exe)
 1\1\GINC-TRUENO95\FOpt\RM062X\6-31G(d,p)\C10H18\JRAMOS\05-Jul-2021\0\\
 #p opt=loose m062x/6-31g(d,p)\\Conformer number 042. Energy MM = 23.75
 9 kcal/mol\\0,1\C,-0.4710859454,0.4476630522,-0.521901951\H,-0.0940530
 529,1.2047623052,0.1745175212\H,-0.3602118668,0.8646957227,-1.53280547
 98\C,-1.9282103331,0.1676922994,-0.2419192029\C,-2.5908994854,-0.79484
 15326,-1.1943968992\H,-3.6792581622,-0.7696049553,-1.1338940633\H,-2.2
 703399594,-1.8247428646,-1.0005829509\H,-2.3052282309,-0.563230669,-2.
 2265261992\C,-2.5375327964,0.7398370333,0.8016662535\H,-1.9408384848,1
 .4161531406,1.4143369431\C,-3.9582864625,0.5665302654,1.2515709656\H,-
 4.5265193906,-0.1120344533,0.6139515877\H,-4.480375544,1.5291228191,1.
 2713424751\H,-3.9924510303,0.1686232592,2.2715736637\C,4.186588541,0.2
 267754134,-0.145152391\H,4.8894546147,-0.4072128849,0.408048611\H,4.43
 71866742,1.2647344931,0.1031817703\H,4.3582214717,0.0779797171,-1.2134
 142482\C,2.7658469771,-0.0882680295,0.2405417792\C,2.4577142267,0.0932
 216014,1.703247547\H,1.4163626086,-0.1188599016,1.9500917364\H,3.09581
 74167,-0.55478048,2.3152893334\H,2.6732648197,1.1236899284,2.008693358
 5\C,1.8702606993,-0.4893387702,-0.6670701121\H,2.1989861612,-0.5592424
 297,-1.7039110318\C,0.4207302618,-0.8052950616,-0.4122298613\H,0.27989
 68694,-1.2485338575,0.5794721658\H,0.0848594025,-1.5558951607,-1.13612
 13209\\Version=EM64L-G16RevA.03\State=1-A\HF=-391.6897267\RMSD=2.991e-
 09\RMSF=2.279e-06\Dipole=0.020609,-0.0200736,0.0604024\Quadrupole=1.12
 75835,-1.6664766,0.5388931,1.0592737,0.3404511,1.0080632\PG=C01 [X(C10
 H18)]\\@


 THE MOST BEAUTIFUL EXPERIENCE WE CAN HAVE IS THE MYSTERIOUS.
 IT IS THE FUNDAMENTAL EMOTION WHICH STANDS AT AT THE CRADLE 
 OF TRUE ART AND TRUE SCIENCE.

                                    -- ALBERT EINSTEIN
 Job cpu time:       0 days  1 hours 32 minutes 31.1 seconds.
 Elapsed time:       0 days  0 hours 15 minutes 29.7 seconds.
 File lengths (MBytes):  RWF=     42 Int=      0 D2E=      0 Chk=      6 Scr=      1
 Normal termination of Gaussian 16 at Mon Jul  5 23:25:23 2021.
