 Entering Gaussian System, Link 0=/opt/gaussian/g16_legacy/g16
 Input=IsoP_rdkit_009_gaussian.com
 Output=IsoP_rdkit_009_gaussian.log
 Initial command:
 /opt/gaussian/g16_legacy/l1.exe "/scratch-local/jramos/2641256/Gau-19013.inp" -scrdir="/scratch-local/jramos/2641256/"
 Entering Link 1 = /opt/gaussian/g16_legacy/l1.exe PID=     19016.
  
 Copyright (c) 1988,1990,1992,1993,1995,1998,2003,2009,2016,
            Gaussian, Inc.  All Rights Reserved.
  
 This is part of the Gaussian(R) 16 program.  It is based on
 the Gaussian(R) 09 system (copyright 2009, Gaussian, Inc.),
 the Gaussian(R) 03 system (copyright 2003, Gaussian, Inc.),
 the Gaussian(R) 98 system (copyright 1998, Gaussian, Inc.),
 the Gaussian(R) 94 system (copyright 1995, Gaussian, Inc.),
 the Gaussian 92(TM) system (copyright 1992, Gaussian, Inc.),
 the Gaussian 90(TM) system (copyright 1990, Gaussian, Inc.),
 the Gaussian 88(TM) system (copyright 1988, Gaussian, Inc.),
 the Gaussian 86(TM) system (copyright 1986, Carnegie Mellon
 University), and the Gaussian 82(TM) system (copyright 1983,
 Carnegie Mellon University). Gaussian is a federally registered
 trademark of Gaussian, Inc.
  
 This software contains proprietary and confidential information,
 including trade secrets, belonging to Gaussian, Inc.
  
 This software is provided under written license and may be
 used, copied, transmitted, or stored only in accord with that
 written license.
  
 The following legend is applicable only to US Government
 contracts under FAR:
  
                    RESTRICTED RIGHTS LEGEND
  
 Use, reproduction and disclosure by the US Government is
 subject to restrictions as set forth in subparagraphs (a)
 and (c) of the Commercial Computer Software - Restricted
 Rights clause in FAR 52.227-19.
  
 Gaussian, Inc.
 340 Quinnipiac St., Bldg. 40, Wallingford CT 06492
  
  
 ---------------------------------------------------------------
 Warning -- This program may not be used in any manner that
 competes with the business of Gaussian, Inc. or will provide
 assistance to any competitor of Gaussian, Inc.  The licensee
 of this program is prohibited from giving any competitor of
 Gaussian, Inc. access to this program.  By using this program,
 the user acknowledges that Gaussian, Inc. is engaged in the
 business of creating and licensing software in the field of
 computational chemistry and represents and warrants to the
 licensee that it is not a competitor of Gaussian, Inc. and that
 it will not use this program in any manner prohibited above.
 ---------------------------------------------------------------
  

 Cite this work as:
 Gaussian 16, Revision A.03,
 M. J. Frisch, G. W. Trucks, H. B. Schlegel, G. E. Scuseria, 
 M. A. Robb, J. R. Cheeseman, G. Scalmani, V. Barone, 
 G. A. Petersson, H. Nakatsuji, X. Li, M. Caricato, A. V. Marenich, 
 J. Bloino, B. G. Janesko, R. Gomperts, B. Mennucci, H. P. Hratchian, 
 J. V. Ortiz, A. F. Izmaylov, J. L. Sonnenberg, D. Williams-Young, 
 F. Ding, F. Lipparini, F. Egidi, J. Goings, B. Peng, A. Petrone, 
 T. Henderson, D. Ranasinghe, V. G. Zakrzewski, J. Gao, N. Rega, 
 G. Zheng, W. Liang, M. Hada, M. Ehara, K. Toyota, R. Fukuda, 
 J. Hasegawa, M. Ishida, T. Nakajima, Y. Honda, O. Kitao, H. Nakai, 
 T. Vreven, K. Throssell, J. A. Montgomery, Jr., J. E. Peralta, 
 F. Ogliaro, M. J. Bearpark, J. J. Heyd, E. N. Brothers, K. N. Kudin, 
 V. N. Staroverov, T. A. Keith, R. Kobayashi, J. Normand, 
 K. Raghavachari, A. P. Rendell, J. C. Burant, S. S. Iyengar, 
 J. Tomasi, M. Cossi, J. M. Millam, M. Klene, C. Adamo, R. Cammi, 
 J. W. Ochterski, R. L. Martin, K. Morokuma, O. Farkas, 
 J. B. Foresman, and D. J. Fox, Gaussian, Inc., Wallingford CT, 2016.
 
 ******************************************
 Gaussian 16:  EM64L-G16RevA.03 25-Dec-2016
                 5-Jul-2021 
 ******************************************
 %chk=IsoP_rdkit_009_gaussian.chk
 %nproc=6
 Will use up to    6 processors via shared memory.
 %mem=4000Mb
 -----------------------------
 #p opt=loose m062x/6-31g(d,p)
 -----------------------------
 1/7=-1,18=20,19=15,26=3,38=1/1,3;
 2/9=110,12=2,17=6,18=5,40=1/2;
 3/5=1,6=6,7=101,11=2,25=1,30=1,71=1,74=-55/1,2,3;
 4//1;
 5/5=2,38=5/2;
 6/7=2,8=2,9=2,10=2,28=1/1;
 7//1,2,3,16;
 1/7=-1,18=20,19=15,26=3/3(2);
 2/9=110/2;
 99//99;
 2/9=110/2;
 3/5=1,6=6,7=101,11=2,25=1,30=1,71=1,74=-55/1,2,3;
 4/5=5,16=3,69=1/1;
 5/5=2,38=5/2;
 7//1,2,3,16;
 1/7=-1,18=20,19=15,26=3/3(-5);
 2/9=110/2;
 6/7=2,8=2,9=2,10=2,19=2,28=1/1;
 99/9=1/99;
 Leave Link    1 at Mon Jul  5 22:58:48 2021, MaxMem=   524288000 cpu:               0.4 elap:               0.1
 (Enter /opt/gaussian/g16_legacy/l101.exe)
 -------------------------------------------------
 Conformer number 009. Energy MM = 23.486 kcal/mol
 -------------------------------------------------
 Symbolic Z-matrix:
 Charge =  0 Multiplicity = 1
 C                    -1.1273   -1.1569    0.4159 
 H                    -0.717    -1.4665   -0.5516 
 H                    -1.6775   -2.0358    0.7778 
 C                    -2.1165   -0.0169    0.2576 
 C                    -3.0923    0.1442    1.3962 
 H                    -2.5647    0.385     2.3241 
 H                    -3.8161    0.9454    1.2121 
 H                    -3.6577   -0.7814    1.5459 
 C                    -2.1836    0.7991   -0.8135 
 H                    -2.9511    1.5726   -0.8298 
 C                    -1.302     0.8041   -2.0224 
 H                    -1.8913    0.5561   -2.9105 
 H                    -0.4661    0.1049   -1.9613 
 H                    -0.8813    1.8051   -2.1621 
 C                     2.8544   -1.2405    0.0863 
 H                     2.2111   -2.1063    0.2584 
 H                     3.1705   -1.2844   -0.9616 
 H                     3.7418   -1.3482    0.7184 
 C                     2.177     0.0722    0.3659 
 C                     2.9799    1.282    -0.0356 
 H                     3.9347    1.2972    0.5001 
 H                     2.4595    2.2196    0.1865 
 H                     3.1838    1.2622   -1.1112 
 C                     0.9531    0.2131    0.9113 
 H                     0.558     1.2207    1.0446 
 C                     0.0239   -0.8705    1.3912 
 H                     0.5688   -1.8022    1.5746 
 H                    -0.3718   -0.5734    2.3702 
 
 ITRead=  0  0  0  0  0  0  0  0  0  0  0  0  0  0  0  0  0  0  0  0
 ITRead=  0  0  0  0  0  0  0  0
 MicOpt= -1 -1 -1 -1 -1 -1 -1 -1 -1 -1 -1 -1 -1 -1 -1 -1 -1 -1 -1 -1
 MicOpt= -1 -1 -1 -1 -1 -1 -1 -1
 NAtoms=     28 NQM=       28 NQMF=       0 NMMI=      0 NMMIF=      0
                NMic=       0 NMicF=      0.
                    Isotopes and Nuclear Properties:
 (Nuclear quadrupole moments (NQMom) in fm**2, nuclear magnetic moments (NMagM)
  in nuclear magnetons)

  Atom         1           2           3           4           5           6           7           8           9          10
 IAtWgt=          12           1           1          12          12           1           1           1          12           1
 AtmWgt=  12.0000000   1.0078250   1.0078250  12.0000000  12.0000000   1.0078250   1.0078250   1.0078250  12.0000000   1.0078250
 NucSpn=           0           1           1           0           0           1           1           1           0           1
 AtZEff=  -0.0000000  -0.0000000  -0.0000000  -0.0000000  -0.0000000  -0.0000000  -0.0000000  -0.0000000  -0.0000000  -0.0000000
 NQMom=    0.0000000   0.0000000   0.0000000   0.0000000   0.0000000   0.0000000   0.0000000   0.0000000   0.0000000   0.0000000
 NMagM=    0.0000000   2.7928460   2.7928460   0.0000000   0.0000000   2.7928460   2.7928460   2.7928460   0.0000000   2.7928460
 AtZNuc=   6.0000000   1.0000000   1.0000000   6.0000000   6.0000000   1.0000000   1.0000000   1.0000000   6.0000000   1.0000000

  Atom        11          12          13          14          15          16          17          18          19          20
 IAtWgt=          12           1           1           1          12           1           1           1          12          12
 AtmWgt=  12.0000000   1.0078250   1.0078250   1.0078250  12.0000000   1.0078250   1.0078250   1.0078250  12.0000000  12.0000000
 NucSpn=           0           1           1           1           0           1           1           1           0           0
 AtZEff=  -0.0000000  -0.0000000  -0.0000000  -0.0000000  -0.0000000  -0.0000000  -0.0000000  -0.0000000  -0.0000000  -0.0000000
 NQMom=    0.0000000   0.0000000   0.0000000   0.0000000   0.0000000   0.0000000   0.0000000   0.0000000   0.0000000   0.0000000
 NMagM=    0.0000000   2.7928460   2.7928460   2.7928460   0.0000000   2.7928460   2.7928460   2.7928460   0.0000000   0.0000000
 AtZNuc=   6.0000000   1.0000000   1.0000000   1.0000000   6.0000000   1.0000000   1.0000000   1.0000000   6.0000000   6.0000000

  Atom        21          22          23          24          25          26          27          28
 IAtWgt=           1           1           1          12           1          12           1           1
 AtmWgt=   1.0078250   1.0078250   1.0078250  12.0000000   1.0078250  12.0000000   1.0078250   1.0078250
 NucSpn=           1           1           1           0           1           0           1           1
 AtZEff=  -0.0000000  -0.0000000  -0.0000000  -0.0000000  -0.0000000  -0.0000000  -0.0000000  -0.0000000
 NQMom=    0.0000000   0.0000000   0.0000000   0.0000000   0.0000000   0.0000000   0.0000000   0.0000000
 NMagM=    2.7928460   2.7928460   2.7928460   0.0000000   2.7928460   0.0000000   2.7928460   2.7928460
 AtZNuc=   1.0000000   1.0000000   1.0000000   6.0000000   1.0000000   6.0000000   1.0000000   1.0000000
 Leave Link  101 at Mon Jul  5 22:58:48 2021, MaxMem=   524288000 cpu:               2.1 elap:               0.5
 (Enter /opt/gaussian/g16_legacy/l103.exe)

 GradGradGradGradGradGradGradGradGradGradGradGradGradGradGradGradGradGrad
 Berny optimization.
 Initialization pass.
                           ----------------------------
                           !    Initial Parameters    !
                           ! (Angstroms and Degrees)  !
 --------------------------                            --------------------------
 ! Name  Definition              Value          Derivative Info.                !
 --------------------------------------------------------------------------------
 ! R1    R(1,2)                  1.0956         estimate D2E/DX2                !
 ! R2    R(1,3)                  1.0983         estimate D2E/DX2                !
 ! R3    R(1,4)                  1.5176         estimate D2E/DX2                !
 ! R4    R(1,26)                 1.5357         estimate D2E/DX2                !
 ! R5    R(4,5)                  1.5082         estimate D2E/DX2                !
 ! R6    R(4,9)                  1.3482         estimate D2E/DX2                !
 ! R7    R(5,6)                  1.0942         estimate D2E/DX2                !
 ! R8    R(5,7)                  1.0953         estimate D2E/DX2                !
 ! R9    R(5,8)                  1.0949         estimate D2E/DX2                !
 ! R10   R(9,10)                 1.0898         estimate D2E/DX2                !
 ! R11   R(9,11)                 1.4962         estimate D2E/DX2                !
 ! R12   R(11,12)                1.0943         estimate D2E/DX2                !
 ! R13   R(11,13)                1.0915         estimate D2E/DX2                !
 ! R14   R(11,14)                1.0948         estimate D2E/DX2                !
 ! R15   R(15,16)                1.0923         estimate D2E/DX2                !
 ! R16   R(15,17)                1.0954         estimate D2E/DX2                !
 ! R17   R(15,18)                1.0948         estimate D2E/DX2                !
 ! R18   R(15,19)                1.5034         estimate D2E/DX2                !
 ! R19   R(19,20)                1.5065         estimate D2E/DX2                !
 ! R20   R(19,24)                1.3473         estimate D2E/DX2                !
 ! R21   R(20,21)                1.0949         estimate D2E/DX2                !
 ! R22   R(20,22)                1.0951         estimate D2E/DX2                !
 ! R23   R(20,23)                1.0949         estimate D2E/DX2                !
 ! R24   R(24,25)                1.0905         estimate D2E/DX2                !
 ! R25   R(24,26)                1.506          estimate D2E/DX2                !
 ! R26   R(26,27)                1.0948         estimate D2E/DX2                !
 ! R27   R(26,28)                1.0969         estimate D2E/DX2                !
 ! A1    A(2,1,3)              104.624          estimate D2E/DX2                !
 ! A2    A(2,1,4)              111.3628         estimate D2E/DX2                !
 ! A3    A(2,1,26)             109.4388         estimate D2E/DX2                !
 ! A4    A(3,1,4)              107.9974         estimate D2E/DX2                !
 ! A5    A(3,1,26)             108.3915         estimate D2E/DX2                !
 ! A6    A(4,1,26)             114.504          estimate D2E/DX2                !
 ! A7    A(1,4,5)              115.0381         estimate D2E/DX2                !
 ! A8    A(1,4,9)              124.7477         estimate D2E/DX2                !
 ! A9    A(5,4,9)              120.1947         estimate D2E/DX2                !
 ! A10   A(4,5,6)              110.5937         estimate D2E/DX2                !
 ! A11   A(4,5,7)              112.2594         estimate D2E/DX2                !
 ! A12   A(4,5,8)              110.3058         estimate D2E/DX2                !
 ! A13   A(6,5,7)              107.4685         estimate D2E/DX2                !
 ! A14   A(6,5,8)              108.6072         estimate D2E/DX2                !
 ! A15   A(7,5,8)              107.4644         estimate D2E/DX2                !
 ! A16   A(4,9,10)             118.4591         estimate D2E/DX2                !
 ! A17   A(4,9,11)             127.9233         estimate D2E/DX2                !
 ! A18   A(10,9,11)            113.6101         estimate D2E/DX2                !
 ! A19   A(9,11,12)            109.7343         estimate D2E/DX2                !
 ! A20   A(9,11,13)            113.8206         estimate D2E/DX2                !
 ! A21   A(9,11,14)            109.4258         estimate D2E/DX2                !
 ! A22   A(12,11,13)           108.2201         estimate D2E/DX2                !
 ! A23   A(12,11,14)           108.0954         estimate D2E/DX2                !
 ! A24   A(13,11,14)           107.372          estimate D2E/DX2                !
 ! A25   A(16,15,17)           106.7928         estimate D2E/DX2                !
 ! A26   A(16,15,18)           107.9646         estimate D2E/DX2                !
 ! A27   A(16,15,19)           113.4181         estimate D2E/DX2                !
 ! A28   A(17,15,18)           108.329          estimate D2E/DX2                !
 ! A29   A(17,15,19)           110.0551         estimate D2E/DX2                !
 ! A30   A(18,15,19)           110.1044         estimate D2E/DX2                !
 ! A31   A(15,19,20)           114.2985         estimate D2E/DX2                !
 ! A32   A(15,19,24)           125.1629         estimate D2E/DX2                !
 ! A33   A(20,19,24)           120.5341         estimate D2E/DX2                !
 ! A34   A(19,20,21)           110.2132         estimate D2E/DX2                !
 ! A35   A(19,20,22)           112.3489         estimate D2E/DX2                !
 ! A36   A(19,20,23)           110.2757         estimate D2E/DX2                !
 ! A37   A(21,20,22)           107.6548         estimate D2E/DX2                !
 ! A38   A(21,20,23)           108.5711         estimate D2E/DX2                !
 ! A39   A(22,20,23)           107.6504         estimate D2E/DX2                !
 ! A40   A(19,24,25)           118.3754         estimate D2E/DX2                !
 ! A41   A(19,24,26)           127.8974         estimate D2E/DX2                !
 ! A42   A(25,24,26)           113.725          estimate D2E/DX2                !
 ! A43   A(1,26,24)            113.2242         estimate D2E/DX2                !
 ! A44   A(1,26,27)            108.7093         estimate D2E/DX2                !
 ! A45   A(1,26,28)            110.2972         estimate D2E/DX2                !
 ! A46   A(24,26,27)           111.0159         estimate D2E/DX2                !
 ! A47   A(24,26,28)           108.1856         estimate D2E/DX2                !
 ! A48   A(27,26,28)           105.1012         estimate D2E/DX2                !
 ! D1    D(2,1,4,5)            158.4963         estimate D2E/DX2                !
 ! D2    D(2,1,4,9)            -19.8945         estimate D2E/DX2                !
 ! D3    D(3,1,4,5)             44.1582         estimate D2E/DX2                !
 ! D4    D(3,1,4,9)           -134.2326         estimate D2E/DX2                !
 ! D5    D(26,1,4,5)           -76.6827         estimate D2E/DX2                !
 ! D6    D(26,1,4,9)           104.9265         estimate D2E/DX2                !
 ! D7    D(2,1,26,24)           59.4565         estimate D2E/DX2                !
 ! D8    D(2,1,26,27)          -64.4157         estimate D2E/DX2                !
 ! D9    D(2,1,26,28)         -179.1572         estimate D2E/DX2                !
 ! D10   D(3,1,26,24)          173.0027         estimate D2E/DX2                !
 ! D11   D(3,1,26,27)           49.1306         estimate D2E/DX2                !
 ! D12   D(3,1,26,28)          -65.6109         estimate D2E/DX2                !
 ! D13   D(4,1,26,24)          -66.3742         estimate D2E/DX2                !
 ! D14   D(4,1,26,27)          169.7537         estimate D2E/DX2                !
 ! D15   D(4,1,26,28)           55.0122         estimate D2E/DX2                !
 ! D16   D(1,4,5,6)             62.9055         estimate D2E/DX2                !
 ! D17   D(1,4,5,7)           -177.0753         estimate D2E/DX2                !
 ! D18   D(1,4,5,8)            -57.2591         estimate D2E/DX2                !
 ! D19   D(9,4,5,6)           -118.6243         estimate D2E/DX2                !
 ! D20   D(9,4,5,7)              1.3949         estimate D2E/DX2                !
 ! D21   D(9,4,5,8)            121.2111         estimate D2E/DX2                !
 ! D22   D(1,4,9,10)           178.6269         estimate D2E/DX2                !
 ! D23   D(1,4,9,11)            -2.4411         estimate D2E/DX2                !
 ! D24   D(5,4,9,10)             0.3138         estimate D2E/DX2                !
 ! D25   D(5,4,9,11)           179.2458         estimate D2E/DX2                !
 ! D26   D(4,9,11,12)          116.1187         estimate D2E/DX2                !
 ! D27   D(4,9,11,13)           -5.313          estimate D2E/DX2                !
 ! D28   D(4,9,11,14)         -125.4303         estimate D2E/DX2                !
 ! D29   D(10,9,11,12)         -64.906          estimate D2E/DX2                !
 ! D30   D(10,9,11,13)         173.6623         estimate D2E/DX2                !
 ! D31   D(10,9,11,14)          53.545          estimate D2E/DX2                !
 ! D32   D(16,15,19,20)       -172.3523         estimate D2E/DX2                !
 ! D33   D(16,15,19,24)          6.8775         estimate D2E/DX2                !
 ! D34   D(17,15,19,20)        -52.7958         estimate D2E/DX2                !
 ! D35   D(17,15,19,24)        126.434          estimate D2E/DX2                !
 ! D36   D(18,15,19,20)         66.5526         estimate D2E/DX2                !
 ! D37   D(18,15,19,24)       -114.2176         estimate D2E/DX2                !
 ! D38   D(15,19,20,21)        -59.664          estimate D2E/DX2                !
 ! D39   D(15,19,20,22)       -179.7173         estimate D2E/DX2                !
 ! D40   D(15,19,20,23)         60.192          estimate D2E/DX2                !
 ! D41   D(24,19,20,21)        121.0671         estimate D2E/DX2                !
 ! D42   D(24,19,20,22)          1.0137         estimate D2E/DX2                !
 ! D43   D(24,19,20,23)       -119.077          estimate D2E/DX2                !
 ! D44   D(15,19,24,25)       -178.6148         estimate D2E/DX2                !
 ! D45   D(15,19,24,26)          1.952          estimate D2E/DX2                !
 ! D46   D(20,19,24,25)          0.5702         estimate D2E/DX2                !
 ! D47   D(20,19,24,26)       -178.863          estimate D2E/DX2                !
 ! D48   D(19,24,26,1)        -102.9202         estimate D2E/DX2                !
 ! D49   D(19,24,26,27)         19.6801         estimate D2E/DX2                !
 ! D50   D(19,24,26,28)        134.5127         estimate D2E/DX2                !
 ! D51   D(25,24,26,1)          77.6244         estimate D2E/DX2                !
 ! D52   D(25,24,26,27)       -159.7752         estimate D2E/DX2                !
 ! D53   D(25,24,26,28)        -44.9426         estimate D2E/DX2                !
 --------------------------------------------------------------------------------
 Trust Radius=3.00D-01 FncErr=1.00D-07 GrdErr=1.00D-06 EigMax=2.50D+02 EigMin=1.00D-04
 Number of steps in this run=    138 maximum allowed number of steps=    168.
 GradGradGradGradGradGradGradGradGradGradGradGradGradGradGradGradGradGrad

 Leave Link  103 at Mon Jul  5 22:58:49 2021, MaxMem=   524288000 cpu:               0.4 elap:               0.1
 (Enter /opt/gaussian/g16_legacy/l202.exe)
                          Input orientation:                          
 ---------------------------------------------------------------------
 Center     Atomic      Atomic             Coordinates (Angstroms)
 Number     Number       Type             X           Y           Z
 ---------------------------------------------------------------------
      1          6           0       -1.127300   -1.156900    0.415900
      2          1           0       -0.717000   -1.466500   -0.551600
      3          1           0       -1.677500   -2.035800    0.777800
      4          6           0       -2.116500   -0.016900    0.257600
      5          6           0       -3.092300    0.144200    1.396200
      6          1           0       -2.564700    0.385000    2.324100
      7          1           0       -3.816100    0.945400    1.212100
      8          1           0       -3.657700   -0.781400    1.545900
      9          6           0       -2.183600    0.799100   -0.813500
     10          1           0       -2.951100    1.572600   -0.829800
     11          6           0       -1.302000    0.804100   -2.022400
     12          1           0       -1.891300    0.556100   -2.910500
     13          1           0       -0.466100    0.104900   -1.961300
     14          1           0       -0.881300    1.805100   -2.162100
     15          6           0        2.854400   -1.240500    0.086300
     16          1           0        2.211100   -2.106300    0.258400
     17          1           0        3.170500   -1.284400   -0.961600
     18          1           0        3.741800   -1.348200    0.718400
     19          6           0        2.177000    0.072200    0.365900
     20          6           0        2.979900    1.282000   -0.035600
     21          1           0        3.934700    1.297200    0.500100
     22          1           0        2.459500    2.219600    0.186500
     23          1           0        3.183800    1.262200   -1.111200
     24          6           0        0.953100    0.213100    0.911300
     25          1           0        0.558000    1.220700    1.044600
     26          6           0        0.023900   -0.870500    1.391200
     27          1           0        0.568800   -1.802200    1.574600
     28          1           0       -0.371800   -0.573400    2.370200
 ---------------------------------------------------------------------
                    Distance matrix (angstroms):
                    1          2          3          4          5
     1  C    0.000000
     2  H    1.095561   0.000000
     3  H    1.098252   1.736078   0.000000
     4  C    1.517622   2.171346   2.130560   0.000000
     5  C    2.552464   3.468477   2.671419   1.508161   0.000000
     6  H    2.843379   3.887377   3.006400   2.152401   1.094233
     7  H    3.504746   4.304918   3.694561   2.173875   1.095308
     8  H    2.796574   3.676491   2.466716   2.149296   1.094908
     9  C    2.540301   2.711540   3.290141   1.348189   2.477378
    10  H    3.511152   3.782159   4.150540   2.098930   2.648649
    11  C    3.133903   2.767870   4.005890   2.556531   3.915031
    12  H    3.818770   3.321792   4.513005   3.227368   4.489959
    13  H    2.771354   2.125912   3.681407   2.768063   4.262778
    14  H    3.934469   3.650215   4.901985   3.271139   4.506507
    15  C    3.996193   3.634954   4.652826   5.122147   6.244716
    16  H    3.474346   3.104708   3.923768   4.805592   5.872426
    17  H    4.514958   3.913300   5.205115   5.571838   6.842717
    18  H    4.882237   4.637649   5.463070   6.025311   7.027915
    19  C    3.525845   3.403622   4.412538   4.295790   5.369565
    20  C    4.798039   4.635470   5.775880   5.267485   6.341629
    21  H    5.626148   5.512025   6.533207   6.196990   7.177126
    22  H    4.931380   4.921613   5.964297   5.093797   6.049227
    23  H    5.173941   4.793245   6.170686   5.621645   6.850285
    24  C    2.539761   2.783948   3.463442   3.146850   4.074940
    25  H    2.981356   3.375577   3.958969   3.050241   3.821932
    26  C    1.535740   2.163012   2.151498   2.568072   3.277246
    27  H    2.153080   2.507330   2.394853   3.483191   4.150175
    28  H    2.174981   3.074688   2.525709   2.795845   2.977372
                    6          7          8          9         10
     6  H    0.000000
     7  H    1.765388   0.000000
     8  H    1.777845   1.765885   0.000000
     9  C    3.187672   2.605670   3.199644   0.000000
    10  H    3.392165   2.304552   3.418267   1.089782   0.000000
    11  C    4.545560   4.099104   4.560252   1.496223   2.175412
    12  H    5.280509   4.566425   4.976804   2.131173   2.546716
    13  H    4.779878   4.690353   4.824136   2.179258   3.099945
    14  H    4.997650   4.553829   5.305435   2.127614   2.472479
    15  C    6.084130   7.109230   6.689443   5.509179   6.515873
    16  H    5.769052   6.822724   6.152709   5.376217   6.431702
    17  H    6.817275   7.649154   7.291425   5.747112   6.756760
    18  H    6.734552   7.913671   7.467169   6.485983   7.464778
    19  C    5.139660   6.115209   6.013714   4.575391   5.475245
    20  C    6.092240   6.917779   7.128569   5.244049   5.990990
    21  H    6.811849   7.791380   7.940958   6.277519   7.018456
    22  H    5.760007   6.485260   6.947957   4.957439   5.543110
    23  H    6.753963   7.382187   7.618570   5.395560   6.149190
    24  C    3.794795   4.834461   4.759330   3.627288   4.485805
    25  H    3.476603   4.385955   4.693808   3.338660   3.993869
    26  C    3.024472   4.251490   3.685926   3.538548   4.444345
    27  H    3.894152   5.187298   4.348121   4.477219   5.436921
    28  H    2.393630   3.938420   3.394094   3.911818   4.636605
                   11         12         13         14         15
    11  C    0.000000
    12  H    1.094303   0.000000
    13  H    1.091486   1.770807   0.000000
    14  H    1.094763   1.772062   1.761645   0.000000
    15  C    5.089466   5.893238   4.126559   5.318499   0.000000
    16  H    5.100426   5.827520   4.121150   5.542635   1.092274
    17  H    5.048800   5.727781   4.019255   5.234816   1.095418
    18  H    6.130603   6.966139   5.196029   6.293936   1.094819
    19  C    4.282884   5.245953   3.521776   4.329772   1.503406
    20  C    4.744516   5.702681   4.119320   4.438975   2.528560
    21  H    5.833454   6.791443   5.181420   5.526222   2.788942
    22  H    4.586040   5.593577   4.200492   4.104714   3.484003
    23  H    4.600276   5.430718   3.922217   4.233695   2.793925
    24  C    3.747179   4.776444   3.205880   3.917305   2.531505
    25  H    3.611045   4.699317   3.365891   3.563149   3.499900
    26  C    4.026780   4.920142   3.525728   4.539181   3.138693
    27  H    4.819865   5.632920   4.148571   5.392433   2.784692
    28  H    4.696564   5.609852   4.385302   5.143792   4.008689
                   16         17         18         19         20
    16  H    0.000000
    17  H    1.756237   0.000000
    18  H    1.768999   1.775628   0.000000
    19  C    2.181417   2.142350   2.142520   0.000000
    20  C    3.486842   2.734998   2.840239   1.506475   0.000000
    21  H    3.822699   3.063532   2.661392   2.146659   1.094919
    22  H    4.333622   3.755219   3.828369   2.173319   1.095097
    23  H    3.764139   2.551025   3.236200   2.147457   1.094935
    24  C    2.718172   3.266056   3.201830   1.347310   2.479332
    25  H    3.797338   4.138299   4.103929   2.097820   2.652582
    26  C    2.755772   3.950705   3.808364   2.564325   3.925169
    27  H    2.126501   3.670050   3.317699   2.749661   4.233017
    28  H    3.671628   4.914703   4.500051   3.306115   4.523746
                   21         22         23         24         25
    21  H    0.000000
    22  H    1.767875   0.000000
    23  H    1.778022   1.767838   0.000000
    24  C    3.199109   2.611631   3.188595   0.000000
    25  H    3.421175   2.312972   3.397649   1.090473   0.000000
    26  C    4.559313   4.114871   4.560196   1.505957   2.185981
    27  H    4.700012   4.655797   4.841724   2.156174   3.069029
    28  H    5.053945   4.537142   5.303948   2.121870   2.416721
                   26         27         28
    26  C    0.000000
    27  H    1.094813   0.000000
    28  H    1.096945   1.740016   0.000000
 Stoichiometry    C10H18
 Framework group  C1[X(C10H18)]
 Deg. of freedom    78
 Full point group                 C1      NOp   1
 Largest Abelian subgroup         C1      NOp   1
 Largest concise Abelian subgroup C1      NOp   1
                         Standard orientation:                         
 ---------------------------------------------------------------------
 Center     Atomic      Atomic             Coordinates (Angstroms)
 Number     Number       Type             X           Y           Z
 ---------------------------------------------------------------------
      1          6           0        1.027952   -0.895981    0.833119
      2          1           0        0.608855   -0.279844    1.636231
      3          1           0        1.542997   -1.715359    1.352257
      4          6           0        2.060598   -0.128040    0.028704
      5          6           0        3.038590   -0.983637   -0.736825
      6          1           0        2.517956   -1.584502   -1.488653
      7          1           0        3.793112   -0.385429   -1.258882
      8          1           0        3.567642   -1.658130   -0.055659
      9          6           0        2.162016    1.215831   -0.007879
     10          1           0        2.958662    1.660468   -0.603931
     11          6           0        1.284726    2.222938    0.666496
     12          1           0        1.866625    2.785744    1.402800
     13          1           0        0.422452    1.786839    1.174082
     14          1           0        0.903131    2.929631   -0.077463
     15          6           0       -2.953064   -0.578535    0.975616
     16          1           0       -2.343940   -1.238339    1.597460
     17          1           0       -3.267609    0.255307    1.612570
     18          1           0       -3.845750   -1.133028    0.668571
     19          6           0       -2.226619   -0.058223   -0.233426
     20          6           0       -2.981372    0.992223   -1.005680
     21          1           0       -3.936419    0.589287   -1.358352
     22          1           0       -2.426033    1.344755   -1.881213
     23          1           0       -3.182797    1.859837   -0.368848
     24          6           0       -0.999784   -0.449626   -0.629563
     25          1           0       -0.566713    0.018918   -1.513897
     26          6           0       -0.114208   -1.493429   -0.001760
     27          1           0       -0.694966   -2.171460    0.631968
     28          1           0        0.289787   -2.125828   -0.801851
 ---------------------------------------------------------------------
 Rotational constants (GHZ):           1.8849422           0.6991739           0.6021040
 Leave Link  202 at Mon Jul  5 22:58:49 2021, MaxMem=   524288000 cpu:               0.3 elap:               0.1
 (Enter /opt/gaussian/g16_legacy/l301.exe)
 Standard basis: 6-31G(d,p) (6D, 7F)
 Ernie: Thresh=  0.10000D-02 Tol=  0.10000D-05 Strict=F.
 There are   240 symmetry adapted cartesian basis functions of A   symmetry.
 There are   240 symmetry adapted basis functions of A   symmetry.
   240 basis functions,   406 primitive gaussians,   240 cartesian basis functions
    39 alpha electrons       39 beta electrons
       nuclear repulsion energy       527.7284496951 Hartrees.
 IExCor= 4336 DFT=T Ex+Corr=M062X ExCW=0 ScaHFX=  0.540000
 ScaDFX=  1.000000  1.000000  1.000000  1.000000 ScalE2=  1.000000  1.000000
 IRadAn=      5 IRanWt=     -1 IRanGd=            0 ICorTp=0 IEmpDi=  4
 NAtoms=   28 NActive=   28 NUniq=   28 SFac= 1.00D+00 NAtFMM=   60 NAOKFM=F Big=F
 Integral buffers will be    131072 words long.
 Raffenetti 2 integral format.
 Two-electron integral symmetry is turned on.
 Leave Link  301 at Mon Jul  5 22:58:49 2021, MaxMem=   524288000 cpu:               0.7 elap:               0.2
 (Enter /opt/gaussian/g16_legacy/l302.exe)
 NPDir=0 NMtPBC=     1 NCelOv=     1 NCel=       1 NClECP=     1 NCelD=      1
         NCelK=      1 NCelE2=     1 NClLst=     1 CellRange=     0.0.
 One-electron integrals computed using PRISM.
 One-electron integral symmetry used in STVInt
 NBasis=   240 RedAO= T EigKep=  2.14D-03  NBF=   240
 NBsUse=   240 1.00D-06 EigRej= -1.00D+00 NBFU=   240
 Precomputing XC quadrature grid using
 IXCGrd= 4 IRadAn=           5 IRanWt=          -1 IRanGd=           0 AccXCQ= 0.00D+00.
 Generated NRdTot=       0 NPtTot=           0 NUsed=           0 NTot=          32
 NSgBfM=   240   240   240   240   240 MxSgAt=    28 MxSgA2=    28.
 Leave Link  302 at Mon Jul  5 22:58:50 2021, MaxMem=   524288000 cpu:               4.5 elap:               0.9
 (Enter /opt/gaussian/g16_legacy/l303.exe)
 DipDrv:  MaxL=1.
 Leave Link  303 at Mon Jul  5 22:58:50 2021, MaxMem=   524288000 cpu:               0.3 elap:               0.2
 (Enter /opt/gaussian/g16_legacy/l401.exe)
 ExpMin= 1.61D-01 ExpMax= 3.05D+03 ExpMxC= 4.57D+02 IAcc=3 IRadAn=         5 AccDes= 0.00D+00
 Harris functional with IExCor= 1009 and IRadAn=       5 diagonalized for initial guess.
 HarFok:  IExCor= 1009 AccDes= 0.00D+00 IRadAn=         5 IDoV= 1 UseB2=F ITyADJ=14
 ICtDFT=  3500011 ScaDFX=  1.000000  1.000000  1.000000  1.000000
 FoFCou: FMM=F IPFlag=           0 FMFlag=      100000 FMFlg1=           0
         NFxFlg=           0 DoJE=T BraDBF=F KetDBF=T FulRan=T
         wScrn=  0.000000 ICntrl=       500 IOpCl=  0 I1Cent=   200000004 NGrid=           0
         NMat0=    1 NMatS0=      1 NMatT0=    0 NMatD0=    1 NMtDS0=    0 NMtDT0=    0
 Petite list used in FoFCou.
 Harris En= -391.655234244790    
 JPrj=0 DoOrth=F DoCkMO=F.
 Leave Link  401 at Mon Jul  5 22:58:54 2021, MaxMem=   524288000 cpu:              21.2 elap:               3.8
 (Enter /opt/gaussian/g16_legacy/l502.exe)
 Integral symmetry usage will be decided dynamically.
 Closed shell SCF:
 Using DIIS extrapolation, IDIIS=  1040.
 NGot=   524288000 LenX=   524168546 LenY=   524110505
 Requested convergence on RMS density matrix=1.00D-08 within 128 cycles.
 Requested convergence on MAX density matrix=1.00D-06.
 Requested convergence on             energy=1.00D-06.
 No special actions if energy rises.
 Fock matrices will be formed incrementally for  20 cycles.
 Integral accuracy reduced to 1.0D-05 until final iterations.

 Cycle   1  Pass 0  IDiag  1:
 FoFJK:  IHMeth= 1 ICntrl=       0 DoSepK=F KAlg= 0 I1Cent=           0 FoldK=F
 IRaf= 880000000 NMat=       1 IRICut=       1 DoRegI=T DoRafI=F ISym2E= 0 IDoP0=0 IntGTp=1.
 FoFCou: FMM=F IPFlag=           0 FMFlag=      100000 FMFlg1=           0
         NFxFlg=           0 DoJE=F BraDBF=F KetDBF=F FulRan=T
         wScrn=  0.000000 ICntrl=         0 IOpCl=  0 I1Cent=           0 NGrid=           0
         NMat0=    1 NMatS0=      1 NMatT0=    0 NMatD0=    1 NMtDS0=    0 NMtDT0=    0
 Symmetry not used in FoFCou.
 E= -391.298314368571    
 DIIS: error= 3.06D-02 at cycle   1 NSaved=   1.
 NSaved= 1 IEnMin= 1 EnMin= -391.298314368571     IErMin= 1 ErrMin= 3.06D-02
 ErrMax= 3.06D-02  0.00D+00 EMaxC= 1.00D-01 BMatC= 3.71D-01 BMatP= 3.71D-01
 IDIUse=3 WtCom= 6.94D-01 WtEn= 3.06D-01
 Coeff-Com:  0.100D+01
 Coeff-En:   0.100D+01
 Coeff:      0.100D+01
 Gap=     0.344 Goal=   None    Shift=    0.000
 GapD=    0.344 DampG=1.000 DampE=0.500 DampFc=0.5000 IDamp=-1.
 Damping current iteration by 5.00D-01
 RMSDP=4.45D-03 MaxDP=1.09D-01              OVMax= 1.47D-01

 Cycle   2  Pass 0  IDiag  1:
 RMSU=  2.18D-03    CP:  9.75D-01
 E= -391.506866638525     Delta-E=       -0.208552269954 Rises=F Damp=T
 DIIS: error= 1.13D-02 at cycle   2 NSaved=   2.
 NSaved= 2 IEnMin= 2 EnMin= -391.506866638525     IErMin= 2 ErrMin= 1.13D-02
 ErrMax= 1.13D-02  0.00D+00 EMaxC= 1.00D-01 BMatC= 2.12D-02 BMatP= 3.71D-01
 IDIUse=3 WtCom= 8.87D-01 WtEn= 1.13D-01
 Coeff-Com: -0.145D+00 0.114D+01
 Coeff-En:   0.000D+00 0.100D+01
 Coeff:     -0.129D+00 0.113D+01
 Gap=     0.369 Goal=   None    Shift=    0.000
 RMSDP=8.91D-04 MaxDP=2.81D-02 DE=-2.09D-01 OVMax= 6.50D-02

 Cycle   3  Pass 0  IDiag  1:
 RMSU=  8.65D-04    CP:  9.69D-01  1.08D+00
 E= -391.687822351174     Delta-E=       -0.180955712648 Rises=F Damp=F
 DIIS: error= 1.47D-03 at cycle   3 NSaved=   3.
 NSaved= 3 IEnMin= 3 EnMin= -391.687822351174     IErMin= 3 ErrMin= 1.47D-03
 ErrMax= 1.47D-03  0.00D+00 EMaxC= 1.00D-01 BMatC= 1.05D-03 BMatP= 2.12D-02
 IDIUse=3 WtCom= 9.85D-01 WtEn= 1.47D-02
 Coeff-Com: -0.325D-01 0.163D+00 0.870D+00
 Coeff-En:   0.000D+00 0.000D+00 0.100D+01
 Coeff:     -0.320D-01 0.160D+00 0.872D+00
 Gap=     0.340 Goal=   None    Shift=    0.000
 RMSDP=2.52D-04 MaxDP=5.22D-03 DE=-1.81D-01 OVMax= 1.54D-02

 Cycle   4  Pass 0  IDiag  1:
 RMSU=  2.10D-04    CP:  9.69D-01  1.12D+00  8.80D-01
 E= -391.688312456860     Delta-E=       -0.000490105686 Rises=F Damp=F
 DIIS: error= 1.23D-03 at cycle   4 NSaved=   4.
 NSaved= 4 IEnMin= 4 EnMin= -391.688312456860     IErMin= 4 ErrMin= 1.23D-03
 ErrMax= 1.23D-03  0.00D+00 EMaxC= 1.00D-01 BMatC= 5.59D-04 BMatP= 1.05D-03
 IDIUse=3 WtCom= 9.88D-01 WtEn= 1.23D-02
 Coeff-Com: -0.863D-02 0.357D-01 0.431D+00 0.542D+00
 Coeff-En:   0.000D+00 0.000D+00 0.329D+00 0.671D+00
 Coeff:     -0.853D-02 0.352D-01 0.430D+00 0.544D+00
 Gap=     0.341 Goal=   None    Shift=    0.000
 RMSDP=1.17D-04 MaxDP=3.16D-03 DE=-4.90D-04 OVMax= 9.21D-03

 Cycle   5  Pass 0  IDiag  1:
 RMSU=  5.63D-05    CP:  9.69D-01  1.12D+00  9.38D-01  5.83D-01
 E= -391.688839741184     Delta-E=       -0.000527284324 Rises=F Damp=F
 DIIS: error= 3.53D-04 at cycle   5 NSaved=   5.
 NSaved= 5 IEnMin= 5 EnMin= -391.688839741184     IErMin= 5 ErrMin= 3.53D-04
 ErrMax= 3.53D-04  0.00D+00 EMaxC= 1.00D-01 BMatC= 3.94D-05 BMatP= 5.59D-04
 IDIUse=3 WtCom= 9.96D-01 WtEn= 3.53D-03
 Coeff-Com: -0.135D-03 0.400D-03 0.115D+00 0.255D+00 0.629D+00
 Coeff-En:   0.000D+00 0.000D+00 0.000D+00 0.000D+00 0.100D+01
 Coeff:     -0.135D-03 0.399D-03 0.115D+00 0.254D+00 0.631D+00
 Gap=     0.341 Goal=   None    Shift=    0.000
 RMSDP=2.86D-05 MaxDP=9.96D-04 DE=-5.27D-04 OVMax= 2.52D-03

 Cycle   6  Pass 0  IDiag  1:
 RMSU=  1.61D-05    CP:  9.69D-01  1.11D+00  9.48D-01  6.37D-01  6.77D-01
 E= -391.688878398675     Delta-E=       -0.000038657491 Rises=F Damp=F
 DIIS: error= 6.54D-05 at cycle   6 NSaved=   6.
 NSaved= 6 IEnMin= 6 EnMin= -391.688878398675     IErMin= 6 ErrMin= 6.54D-05
 ErrMax= 6.54D-05  0.00D+00 EMaxC= 1.00D-01 BMatC= 1.62D-06 BMatP= 3.94D-05
 IDIUse=1 WtCom= 1.00D+00 WtEn= 0.00D+00
 Coeff-Com:  0.847D-03-0.299D-02 0.949D-02 0.509D-01 0.221D+00 0.720D+00
 Coeff:      0.847D-03-0.299D-02 0.949D-02 0.509D-01 0.221D+00 0.720D+00
 Gap=     0.341 Goal=   None    Shift=    0.000
 RMSDP=6.01D-06 MaxDP=2.00D-04 DE=-3.87D-05 OVMax= 3.91D-04

 Initial convergence to 1.0D-05 achieved.  Increase integral accuracy.
 Cycle   7  Pass 1  IDiag  1:
 E= -391.688899742612     Delta-E=       -0.000021343937 Rises=F Damp=F
 DIIS: error= 2.04D-05 at cycle   1 NSaved=   1.
 NSaved= 1 IEnMin= 1 EnMin= -391.688899742612     IErMin= 1 ErrMin= 2.04D-05
 ErrMax= 2.04D-05  0.00D+00 EMaxC= 1.00D-01 BMatC= 2.39D-07 BMatP= 2.39D-07
 IDIUse=1 WtCom= 1.00D+00 WtEn= 0.00D+00
 Coeff-Com:  0.100D+01
 Coeff:      0.100D+01
 Gap=     0.341 Goal=   None    Shift=    0.000
 RMSDP=6.01D-06 MaxDP=2.00D-04 DE=-2.13D-05 OVMax= 1.47D-04

 Cycle   8  Pass 1  IDiag  1:
 RMSU=  6.09D-06    CP:  1.00D+00
 E= -391.688899882628     Delta-E=       -0.000000140017 Rises=F Damp=F
 DIIS: error= 1.98D-05 at cycle   2 NSaved=   2.
 NSaved= 2 IEnMin= 2 EnMin= -391.688899882628     IErMin= 2 ErrMin= 1.98D-05
 ErrMax= 1.98D-05  0.00D+00 EMaxC= 1.00D-01 BMatC= 1.17D-07 BMatP= 2.39D-07
 IDIUse=1 WtCom= 1.00D+00 WtEn= 0.00D+00
 Coeff-Com:  0.390D+00 0.610D+00
 Coeff:      0.390D+00 0.610D+00
 Gap=     0.341 Goal=   None    Shift=    0.000
 RMSDP=1.60D-06 MaxDP=6.74D-05 DE=-1.40D-07 OVMax= 1.26D-04

 Cycle   9  Pass 1  IDiag  1:
 RMSU=  1.53D-06    CP:  1.00D+00  9.23D-01
 E= -391.688899986790     Delta-E=       -0.000000104162 Rises=F Damp=F
 DIIS: error= 7.02D-06 at cycle   3 NSaved=   3.
 NSaved= 3 IEnMin= 3 EnMin= -391.688899986790     IErMin= 3 ErrMin= 7.02D-06
 ErrMax= 7.02D-06  0.00D+00 EMaxC= 1.00D-01 BMatC= 1.41D-08 BMatP= 1.17D-07
 IDIUse=1 WtCom= 1.00D+00 WtEn= 0.00D+00
 Coeff-Com:  0.651D-02 0.245D+00 0.749D+00
 Coeff:      0.651D-02 0.245D+00 0.749D+00
 Gap=     0.341 Goal=   None    Shift=    0.000
 RMSDP=5.95D-07 MaxDP=2.48D-05 DE=-1.04D-07 OVMax= 4.54D-05

 Cycle  10  Pass 1  IDiag  1:
 RMSU=  3.80D-07    CP:  1.00D+00  9.80D-01  8.08D-01
 E= -391.688899999071     Delta-E=       -0.000000012281 Rises=F Damp=F
 DIIS: error= 1.95D-06 at cycle   4 NSaved=   4.
 NSaved= 4 IEnMin= 4 EnMin= -391.688899999071     IErMin= 4 ErrMin= 1.95D-06
 ErrMax= 1.95D-06  0.00D+00 EMaxC= 1.00D-01 BMatC= 2.09D-09 BMatP= 1.41D-08
 IDIUse=1 WtCom= 1.00D+00 WtEn= 0.00D+00
 Coeff-Com: -0.247D-01 0.841D-01 0.384D+00 0.556D+00
 Coeff:     -0.247D-01 0.841D-01 0.384D+00 0.556D+00
 Gap=     0.341 Goal=   None    Shift=    0.000
 RMSDP=1.97D-07 MaxDP=8.26D-06 DE=-1.23D-08 OVMax= 1.74D-05

 Cycle  11  Pass 1  IDiag  1:
 RMSU=  1.47D-07    CP:  1.00D+00  9.86D-01  8.49D-01  7.10D-01
 E= -391.688900001183     Delta-E=       -0.000000002112 Rises=F Damp=F
 DIIS: error= 2.50D-07 at cycle   5 NSaved=   5.
 NSaved= 5 IEnMin= 5 EnMin= -391.688900001183     IErMin= 5 ErrMin= 2.50D-07
 ErrMax= 2.50D-07  0.00D+00 EMaxC= 1.00D-01 BMatC= 3.79D-11 BMatP= 2.09D-09
 IDIUse=1 WtCom= 1.00D+00 WtEn= 0.00D+00
 Coeff-Com: -0.500D-02 0.875D-04 0.160D-01 0.114D+00 0.875D+00
 Coeff:     -0.500D-02 0.875D-04 0.160D-01 0.114D+00 0.875D+00
 Gap=     0.341 Goal=   None    Shift=    0.000
 RMSDP=4.36D-08 MaxDP=1.15D-06 DE=-2.11D-09 OVMax= 2.79D-06

 Cycle  12  Pass 1  IDiag  1:
 RMSU=  3.31D-08    CP:  1.00D+00  9.88D-01  8.53D-01  7.77D-01  1.01D+00
 E= -391.688900001233     Delta-E=       -0.000000000050 Rises=F Damp=F
 DIIS: error= 1.30D-07 at cycle   6 NSaved=   6.
 NSaved= 6 IEnMin= 6 EnMin= -391.688900001233     IErMin= 6 ErrMin= 1.30D-07
 ErrMax= 1.30D-07  0.00D+00 EMaxC= 1.00D-01 BMatC= 8.67D-12 BMatP= 3.79D-11
 IDIUse=1 WtCom= 1.00D+00 WtEn= 0.00D+00
 Coeff-Com:  0.233D-03-0.812D-02-0.317D-01 0.119D-02 0.393D+00 0.646D+00
 Coeff:      0.233D-03-0.812D-02-0.317D-01 0.119D-02 0.393D+00 0.646D+00
 Gap=     0.341 Goal=   None    Shift=    0.000
 RMSDP=1.70D-08 MaxDP=5.82D-07 DE=-5.00D-11 OVMax= 1.38D-06

 Cycle  13  Pass 1  IDiag  1:
 RMSU=  1.02D-08    CP:  1.00D+00  9.88D-01  8.53D-01  7.87D-01  1.08D+00
                    CP:  7.66D-01
 E= -391.688900001243     Delta-E=       -0.000000000011 Rises=F Damp=F
 DIIS: error= 6.15D-08 at cycle   7 NSaved=   7.
 NSaved= 7 IEnMin= 7 EnMin= -391.688900001243     IErMin= 7 ErrMin= 6.15D-08
 ErrMax= 6.15D-08  0.00D+00 EMaxC= 1.00D-01 BMatC= 1.16D-12 BMatP= 8.67D-12
 IDIUse=1 WtCom= 1.00D+00 WtEn= 0.00D+00
 Coeff-Com:  0.623D-03-0.377D-02-0.170D-01-0.983D-02 0.972D-01 0.323D+00
 Coeff-Com:  0.610D+00
 Coeff:      0.623D-03-0.377D-02-0.170D-01-0.983D-02 0.972D-01 0.323D+00
 Coeff:      0.610D+00
 Gap=     0.341 Goal=   None    Shift=    0.000
 RMSDP=4.79D-09 MaxDP=1.84D-07 DE=-1.07D-11 OVMax= 4.66D-07

 SCF Done:  E(RM062X) =  -391.688900001     A.U. after   13 cycles
            NFock= 13  Conv=0.48D-08     -V/T= 2.0093
 KE= 3.880654830233D+02 PE=-1.960543302228D+03 EE= 6.530604695084D+02
 Leave Link  502 at Mon Jul  5 23:00:16 2021, MaxMem=   524288000 cpu:             489.1 elap:              81.7
 (Enter /opt/gaussian/g16_legacy/l601.exe)
 Copying SCF densities to generalized density rwf, IOpCl= 0 IROHF=0.

 **********************************************************************

            Population analysis using the SCF density.

 **********************************************************************

 Orbital symmetries:
       Occupied  (A) (A) (A) (A) (A) (A) (A) (A) (A) (A) (A) (A)
                 (A) (A) (A) (A) (A) (A) (A) (A) (A) (A) (A) (A)
                 (A) (A) (A) (A) (A) (A) (A) (A) (A) (A) (A) (A)
                 (A) (A) (A)
       Virtual   (A) (A) (A) (A) (A) (A) (A) (A) (A) (A) (A) (A)
                 (A) (A) (A) (A) (A) (A) (A) (A) (A) (A) (A) (A)
                 (A) (A) (A) (A) (A) (A) (A) (A) (A) (A) (A) (A)
                 (A) (A) (A) (A) (A) (A) (A) (A) (A) (A) (A) (A)
                 (A) (A) (A) (A) (A) (A) (A) (A) (A) (A) (A) (A)
                 (A) (A) (A) (A) (A) (A) (A) (A) (A) (A) (A) (A)
                 (A) (A) (A) (A) (A) (A) (A) (A) (A) (A) (A) (A)
                 (A) (A) (A) (A) (A) (A) (A) (A) (A) (A) (A) (A)
                 (A) (A) (A) (A) (A) (A) (A) (A) (A) (A) (A) (A)
                 (A) (A) (A) (A) (A) (A) (A) (A) (A) (A) (A) (A)
                 (A) (A) (A) (A) (A) (A) (A) (A) (A) (A) (A) (A)
                 (A) (A) (A) (A) (A) (A) (A) (A) (A) (A) (A) (A)
                 (A) (A) (A) (A) (A) (A) (A) (A) (A) (A) (A) (A)
                 (A) (A) (A) (A) (A) (A) (A) (A) (A) (A) (A) (A)
                 (A) (A) (A) (A) (A) (A) (A) (A) (A) (A) (A) (A)
                 (A) (A) (A) (A) (A) (A) (A) (A) (A) (A) (A) (A)
                 (A) (A) (A) (A) (A) (A) (A) (A) (A)
 The electronic state is 1-A.
 Alpha  occ. eigenvalues --  -10.54613 -10.54156 -10.53952 -10.53892 -10.53557
 Alpha  occ. eigenvalues --  -10.53260 -10.53254 -10.53161 -10.53056 -10.52909
 Alpha  occ. eigenvalues --   -0.91899  -0.89731  -0.84606  -0.81348  -0.77800
 Alpha  occ. eigenvalues --   -0.76114  -0.71767  -0.68335  -0.59365  -0.56801
 Alpha  occ. eigenvalues --   -0.53829  -0.52176  -0.49886  -0.49433  -0.49054
 Alpha  occ. eigenvalues --   -0.48542  -0.46355  -0.44943  -0.44651  -0.43973
 Alpha  occ. eigenvalues --   -0.42862  -0.42065  -0.41911  -0.40129  -0.40007
 Alpha  occ. eigenvalues --   -0.36971  -0.36421  -0.28485  -0.27171
 Alpha virt. eigenvalues --    0.06945   0.07647   0.13103   0.14918   0.16222
 Alpha virt. eigenvalues --    0.16719   0.18121   0.18586   0.19472   0.19913
 Alpha virt. eigenvalues --    0.21248   0.21862   0.22128   0.22845   0.23614
 Alpha virt. eigenvalues --    0.24641   0.24996   0.25924   0.26868   0.28063
 Alpha virt. eigenvalues --    0.28346   0.29295   0.29952   0.30659   0.33074
 Alpha virt. eigenvalues --    0.37832   0.39216   0.47515   0.49151   0.53214
 Alpha virt. eigenvalues --    0.54074   0.55398   0.58442   0.58995   0.59587
 Alpha virt. eigenvalues --    0.60066   0.62009   0.62523   0.63579   0.65214
 Alpha virt. eigenvalues --    0.66766   0.68464   0.70998   0.71729   0.74006
 Alpha virt. eigenvalues --    0.74860   0.76219   0.76995   0.79189   0.80383
 Alpha virt. eigenvalues --    0.80794   0.81620   0.82968   0.84857   0.86678
 Alpha virt. eigenvalues --    0.88298   0.88835   0.90258   0.91468   0.92427
 Alpha virt. eigenvalues --    0.94165   0.94695   0.95552   0.96118   0.96418
 Alpha virt. eigenvalues --    0.97313   0.97633   0.99135   0.99368   1.00071
 Alpha virt. eigenvalues --    1.01263   1.03230   1.03944   1.04952   1.05642
 Alpha virt. eigenvalues --    1.06948   1.11618   1.19222   1.21841   1.24970
 Alpha virt. eigenvalues --    1.25789   1.29057   1.35692   1.36653   1.38725
 Alpha virt. eigenvalues --    1.39157   1.41446   1.46043   1.50613   1.51740
 Alpha virt. eigenvalues --    1.54807   1.57656   1.68856   1.70179   1.72347
 Alpha virt. eigenvalues --    1.76038   1.78610   1.79373   1.80499   1.82391
 Alpha virt. eigenvalues --    1.83968   1.85414   1.87561   1.88941   1.90835
 Alpha virt. eigenvalues --    1.91159   1.92933   1.94538   2.00155   2.01574
 Alpha virt. eigenvalues --    2.03282   2.04764   2.05745   2.07320   2.09485
 Alpha virt. eigenvalues --    2.10068   2.10330   2.10775   2.13488   2.14814
 Alpha virt. eigenvalues --    2.15179   2.15720   2.16017   2.17409   2.18766
 Alpha virt. eigenvalues --    2.20472   2.21285   2.23100   2.23498   2.25728
 Alpha virt. eigenvalues --    2.29053   2.29990   2.31920   2.33886   2.34386
 Alpha virt. eigenvalues --    2.37997   2.41428   2.42958   2.43826   2.45343
 Alpha virt. eigenvalues --    2.47000   2.49210   2.50584   2.53233   2.53906
 Alpha virt. eigenvalues --    2.55623   2.58340   2.61816   2.61838   2.63636
 Alpha virt. eigenvalues --    2.65608   2.67627   2.68125   2.70422   2.72567
 Alpha virt. eigenvalues --    2.74048   2.74780   2.75837   2.79097   2.83725
 Alpha virt. eigenvalues --    2.84388   2.85878   2.87194   2.87948   2.88475
 Alpha virt. eigenvalues --    2.89401   2.91736   2.94142   2.95463   3.01596
 Alpha virt. eigenvalues --    3.03808   3.08517   3.09078   3.17916   3.19260
 Alpha virt. eigenvalues --    3.21425   3.22846   3.32131   3.32688   3.39993
 Alpha virt. eigenvalues --    3.41551   3.42215   3.42353   3.43906   3.44349
 Alpha virt. eigenvalues --    3.45316   3.47089   3.49665   3.51214   3.51939
 Alpha virt. eigenvalues --    3.55461   4.17956   4.21642   4.33448   4.42790
 Alpha virt. eigenvalues --    4.51448   4.52446   4.54184   4.68475   4.71259
 Alpha virt. eigenvalues --    4.73491
          Condensed to atoms (all electrons):
               1          2          3          4          5          6
     1  C    5.020169   0.384768   0.382434   0.382328  -0.074127  -0.001385
     2  H    0.384768   0.602741  -0.034496  -0.031340   0.004913  -0.000030
     3  H    0.382434  -0.034496   0.620975  -0.039560  -0.007123  -0.000532
     4  C    0.382328  -0.031340  -0.039560   4.752878   0.368468  -0.037617
     5  C   -0.074127   0.004913  -0.007123   0.368468   5.006372   0.382382
     6  H   -0.001385  -0.000030  -0.000532  -0.037617   0.382382   0.590832
     7  H    0.004502  -0.000163   0.000084  -0.033112   0.385713  -0.027378
     8  H   -0.002757   0.000046   0.005169  -0.035318   0.379384  -0.034606
     9  C   -0.045906  -0.007730   0.003020   0.711932  -0.042254  -0.001254
    10  H    0.005747   0.000030  -0.000171  -0.031213  -0.013567   0.000227
    11  C   -0.013953   0.000530   0.000229  -0.042316   0.006141  -0.000167
    12  H    0.000284   0.000125   0.000042  -0.000736  -0.000153  -0.000006
    13  H    0.001620   0.003490  -0.000034  -0.007541   0.000071   0.000001
    14  H    0.000408  -0.000149  -0.000017   0.000520  -0.000153   0.000020
    15  C    0.000131   0.000407  -0.000035   0.000026  -0.000000   0.000000
    16  H   -0.000135   0.000335   0.000031   0.000010   0.000000  -0.000000
    17  H    0.000084  -0.000049  -0.000004   0.000001   0.000000  -0.000000
    18  H   -0.000037   0.000005   0.000002  -0.000000   0.000000   0.000000
    19  C   -0.003114   0.001262   0.000095   0.000057  -0.000013  -0.000010
    20  C   -0.000105  -0.000063   0.000003  -0.000004   0.000000  -0.000000
    21  H   -0.000005   0.000001   0.000000  -0.000000  -0.000000   0.000000
    22  H   -0.000005  -0.000002   0.000000  -0.000001  -0.000000   0.000000
    23  H    0.000022  -0.000001  -0.000000   0.000001   0.000000  -0.000000
    24  C   -0.054729  -0.005889   0.006153  -0.003744  -0.000610  -0.000052
    25  H   -0.001847   0.000046  -0.000106   0.005073   0.000198  -0.000016
    26  C    0.342017  -0.037294  -0.041002  -0.051940  -0.001315   0.002122
    27  H   -0.033307  -0.003368  -0.005041   0.005030  -0.000026  -0.000083
    28  H   -0.042613   0.005318  -0.002666  -0.006776   0.001788   0.002209
               7          8          9         10         11         12
     1  C    0.004502  -0.002757  -0.045906   0.005747  -0.013953   0.000284
     2  H   -0.000163   0.000046  -0.007730   0.000030   0.000530   0.000125
     3  H    0.000084   0.005169   0.003020  -0.000171   0.000229   0.000042
     4  C   -0.033112  -0.035318   0.711932  -0.031213  -0.042316  -0.000736
     5  C    0.385713   0.379384  -0.042254  -0.013567   0.006141  -0.000153
     6  H   -0.027378  -0.034606  -0.001254   0.000227  -0.000167  -0.000006
     7  H    0.573280  -0.027579  -0.005250   0.006169   0.000118  -0.000004
     8  H   -0.027579   0.591419  -0.000525   0.000294  -0.000171   0.000023
     9  C   -0.005250  -0.000525   4.895627   0.376765   0.361732  -0.036753
    10  H    0.006169   0.000294   0.376765   0.615098  -0.056340  -0.000787
    11  C    0.000118  -0.000171   0.361732  -0.056340   4.977689   0.382590
    12  H   -0.000004   0.000023  -0.036753  -0.000787   0.382590   0.585470
    13  H    0.000009  -0.000001  -0.033115   0.004566   0.387326  -0.027348
    14  H   -0.000011  -0.000004  -0.033484  -0.002637   0.385760  -0.032482
    15  C   -0.000000   0.000000  -0.000003  -0.000000  -0.000001   0.000000
    16  H   -0.000000   0.000000  -0.000000  -0.000000   0.000000   0.000000
    17  H   -0.000000  -0.000000  -0.000000   0.000000   0.000009  -0.000000
    18  H    0.000000   0.000000   0.000000   0.000000  -0.000000   0.000000
    19  C    0.000000   0.000001   0.000383   0.000000  -0.000576   0.000022
    20  C   -0.000000  -0.000000   0.000003  -0.000000   0.000006   0.000000
    21  H    0.000000  -0.000000   0.000000   0.000000  -0.000000   0.000000
    22  H    0.000000  -0.000000  -0.000007  -0.000000   0.000007  -0.000000
    23  H   -0.000000  -0.000000  -0.000004  -0.000000   0.000035  -0.000002
    24  C    0.000003   0.000056   0.002822  -0.000022  -0.000682   0.000073
    25  H   -0.000007   0.000004   0.000788   0.000016   0.000074   0.000013
    26  C   -0.000002  -0.000719  -0.003624  -0.000120   0.000354  -0.000048
    27  H    0.000003  -0.000008  -0.000083   0.000004  -0.000016   0.000001
    28  H   -0.000115   0.000139   0.000159  -0.000003  -0.000022   0.000000
              13         14         15         16         17         18
     1  C    0.001620   0.000408   0.000131  -0.000135   0.000084  -0.000037
     2  H    0.003490  -0.000149   0.000407   0.000335  -0.000049   0.000005
     3  H   -0.000034  -0.000017  -0.000035   0.000031  -0.000004   0.000002
     4  C   -0.007541   0.000520   0.000026   0.000010   0.000001  -0.000000
     5  C    0.000071  -0.000153  -0.000000   0.000000   0.000000   0.000000
     6  H    0.000001   0.000020   0.000000  -0.000000  -0.000000   0.000000
     7  H    0.000009  -0.000011  -0.000000  -0.000000  -0.000000   0.000000
     8  H   -0.000001  -0.000004   0.000000   0.000000  -0.000000   0.000000
     9  C   -0.033115  -0.033484  -0.000003  -0.000000  -0.000000   0.000000
    10  H    0.004566  -0.002637  -0.000000  -0.000000   0.000000   0.000000
    11  C    0.387326   0.385760  -0.000001   0.000000   0.000009  -0.000000
    12  H   -0.027348  -0.032482   0.000000   0.000000  -0.000000   0.000000
    13  H    0.571480  -0.028402   0.000002  -0.000007  -0.000024   0.000003
    14  H   -0.028402   0.581337   0.000000  -0.000000  -0.000000  -0.000000
    15  C    0.000002   0.000000   5.005325   0.383032   0.384872   0.383171
    16  H   -0.000007  -0.000000   0.383032   0.575439  -0.029180  -0.027214
    17  H   -0.000024  -0.000000   0.384872  -0.029180   0.583819  -0.032640
    18  H    0.000003  -0.000000   0.383171  -0.027214  -0.032640   0.579304
    19  C    0.001477  -0.000051   0.376092  -0.027026  -0.036132  -0.036285
    20  C   -0.000007   0.000015  -0.079141   0.004788  -0.003520  -0.001980
    21  H    0.000004  -0.000000  -0.000396  -0.000006  -0.000863   0.003748
    22  H   -0.000004   0.000029   0.004673  -0.000168   0.000030  -0.000067
    23  H   -0.000049   0.000017  -0.002312  -0.000054   0.004495  -0.000687
    24  C    0.003041   0.000022  -0.051436  -0.007864   0.000925  -0.000249
    25  H   -0.000022  -0.000027   0.006068   0.000026  -0.000154  -0.000152
    26  C   -0.000661   0.000083  -0.013392   0.001519   0.000394   0.000207
    27  H    0.000036  -0.000001   0.001086   0.003033  -0.000149   0.000043
    28  H    0.000019   0.000002   0.000298  -0.000068  -0.000015   0.000035
              19         20         21         22         23         24
     1  C   -0.003114  -0.000105  -0.000005  -0.000005   0.000022  -0.054729
     2  H    0.001262  -0.000063   0.000001  -0.000002  -0.000001  -0.005889
     3  H    0.000095   0.000003   0.000000   0.000000  -0.000000   0.006153
     4  C    0.000057  -0.000004  -0.000000  -0.000001   0.000001  -0.003744
     5  C   -0.000013   0.000000  -0.000000  -0.000000   0.000000  -0.000610
     6  H   -0.000010  -0.000000   0.000000   0.000000  -0.000000  -0.000052
     7  H    0.000000  -0.000000   0.000000   0.000000  -0.000000   0.000003
     8  H    0.000001  -0.000000  -0.000000  -0.000000  -0.000000   0.000056
     9  C    0.000383   0.000003   0.000000  -0.000007  -0.000004   0.002822
    10  H    0.000000  -0.000000   0.000000  -0.000000  -0.000000  -0.000022
    11  C   -0.000576   0.000006  -0.000000   0.000007   0.000035  -0.000682
    12  H    0.000022   0.000000   0.000000  -0.000000  -0.000002   0.000073
    13  H    0.001477  -0.000007   0.000004  -0.000004  -0.000049   0.003041
    14  H   -0.000051   0.000015  -0.000000   0.000029   0.000017   0.000022
    15  C    0.376092  -0.079141  -0.000396   0.004673  -0.002312  -0.051436
    16  H   -0.027026   0.004788  -0.000006  -0.000168  -0.000054  -0.007864
    17  H   -0.036132  -0.003520  -0.000863   0.000030   0.004495   0.000925
    18  H   -0.036285  -0.001980   0.003748  -0.000067  -0.000687  -0.000249
    19  C    4.738733   0.368283  -0.038247  -0.032753  -0.036259   0.716883
    20  C    0.368283   5.003173   0.382627   0.385182   0.380585  -0.038208
    21  H   -0.038247   0.382627   0.590404  -0.027195  -0.034359  -0.001527
    22  H   -0.032753   0.385182  -0.027195   0.570485  -0.027102  -0.004722
    23  H   -0.036259   0.380585  -0.034359  -0.027102   0.591061  -0.000542
    24  C    0.716883  -0.038208  -0.001527  -0.004722  -0.000542   4.905379
    25  H   -0.032261  -0.013685   0.000237   0.006059   0.000271   0.376309
    26  C   -0.039271   0.005723  -0.000206   0.000116  -0.000125   0.360508
    27  H   -0.006481   0.000078   0.000005   0.000010  -0.000004  -0.040302
    28  H    0.001928  -0.000173   0.000015  -0.000012  -0.000003  -0.035897
              25         26         27         28
     1  C   -0.001847   0.342017  -0.033307  -0.042613
     2  H    0.000046  -0.037294  -0.003368   0.005318
     3  H   -0.000106  -0.041002  -0.005041  -0.002666
     4  C    0.005073  -0.051940   0.005030  -0.006776
     5  C    0.000198  -0.001315  -0.000026   0.001788
     6  H   -0.000016   0.002122  -0.000083   0.002209
     7  H   -0.000007  -0.000002   0.000003  -0.000115
     8  H    0.000004  -0.000719  -0.000008   0.000139
     9  C    0.000788  -0.003624  -0.000083   0.000159
    10  H    0.000016  -0.000120   0.000004  -0.000003
    11  C    0.000074   0.000354  -0.000016  -0.000022
    12  H    0.000013  -0.000048   0.000001   0.000000
    13  H   -0.000022  -0.000661   0.000036   0.000019
    14  H   -0.000027   0.000083  -0.000001   0.000002
    15  C    0.006068  -0.013392   0.001086   0.000298
    16  H    0.000026   0.001519   0.003033  -0.000068
    17  H   -0.000154   0.000394  -0.000149  -0.000015
    18  H   -0.000152   0.000207   0.000043   0.000035
    19  C   -0.032261  -0.039271  -0.006481   0.001928
    20  C   -0.013685   0.005723   0.000078  -0.000173
    21  H    0.000237  -0.000206   0.000005   0.000015
    22  H    0.006059   0.000116   0.000010  -0.000012
    23  H    0.000271  -0.000125  -0.000004  -0.000003
    24  C    0.376309   0.360508  -0.040302  -0.035897
    25  H    0.606446  -0.053215   0.004912  -0.004588
    26  C   -0.053215   5.009711   0.387244   0.389085
    27  H    0.004912   0.387244   0.607832  -0.033745
    28  H   -0.004588   0.389085  -0.033745   0.607503
 Mulliken charges:
               1
     1  C   -0.250490
     2  H    0.116558
     3  H    0.112549
     4  C    0.094892
     5  C   -0.396088
     6  H    0.125344
     7  H    0.123737
     8  H    0.125155
     9  C   -0.143239
    10  H    0.095944
    11  C   -0.388357
    12  H    0.129674
    13  H    0.124070
    14  H    0.129207
    15  C   -0.398467
    16  H    0.123508
    17  H    0.128102
    18  H    0.132794
    19  C    0.083263
    20  C   -0.393579
    21  H    0.125763
    22  H    0.125447
    23  H    0.125017
    24  C   -0.125696
    25  H    0.099541
    26  C   -0.256147
    27  H    0.113298
    28  H    0.118199
 Sum of Mulliken charges =  -0.00000
 Mulliken charges with hydrogens summed into heavy atoms:
               1
     1  C   -0.021382
     4  C    0.094892
     5  C   -0.021852
     9  C   -0.047295
    11  C   -0.005405
    15  C   -0.014063
    19  C    0.083263
    20  C   -0.017352
    24  C   -0.026155
    26  C   -0.024650
 Electronic spatial extent (au):  <R**2>=           2108.9224
 Charge=             -0.0000 electrons
 Dipole moment (field-independent basis, Debye):
    X=             -0.3581    Y=             -0.0651    Z=              0.1767  Tot=              0.4046
 Quadrupole moment (field-independent basis, Debye-Ang):
   XX=            -63.3139   YY=            -63.4279   ZZ=            -64.6008
   XY=             -0.6306   XZ=             -1.5836   YZ=             -0.7898
 Traceless Quadrupole moment (field-independent basis, Debye-Ang):
   XX=              0.4669   YY=              0.3530   ZZ=             -0.8200
   XY=             -0.6306   XZ=             -1.5836   YZ=             -0.7898
 Octapole moment (field-independent basis, Debye-Ang**2):
  XXX=             -7.9901  YYY=              2.1931  ZZZ=              0.0169  XYY=              2.9511
  XXY=              0.7733  XXZ=             -2.1907  XZZ=             -0.4040  YZZ=              0.7708
  YYZ=              1.2738  XYZ=             -0.1416
 Hexadecapole moment (field-independent basis, Debye-Ang**3):
 XXXX=          -1922.9290 YYYY=           -657.0202 ZZZZ=           -316.1662 XXXY=              7.1165
 XXXZ=            -12.1171 YYYX=              3.8361 YYYZ=             -2.9997 ZZZX=             -1.5366
 ZZZY=             -0.6237 XXYY=           -428.1529 XXZZ=           -380.3666 YYZZ=           -159.0271
 XXYZ=             -4.2467 YYXZ=             -1.2208 ZZXY=             -2.2750
 N-N= 5.277284496951D+02 E-N=-1.960543302209D+03  KE= 3.880654830233D+02
 No NMR shielding tensors so no spin-rotation constants.
 Leave Link  601 at Mon Jul  5 23:00:16 2021, MaxMem=   524288000 cpu:               1.2 elap:               0.2
 (Enter /opt/gaussian/g16_legacy/l701.exe)
 ... and contract with generalized density number  0.
 Compute integral first derivatives.
 Leave Link  701 at Mon Jul  5 23:00:17 2021, MaxMem=   524288000 cpu:               1.3 elap:               0.4
 (Enter /opt/gaussian/g16_legacy/l702.exe)
 L702 exits ... SP integral derivatives will be done elsewhere.
 Leave Link  702 at Mon Jul  5 23:00:17 2021, MaxMem=   524288000 cpu:               0.2 elap:               0.1
 (Enter /opt/gaussian/g16_legacy/l703.exe)
 Integral derivatives from FoFJK, PRISM(SPDF).
 Compute integral first derivatives, UseDBF=F ICtDFT=           0.
 Calling FoFJK, ICntrl=      2127 FMM=F ISym2X=0 I1Cent= 0 IOpClX= 0 NMat=1 NMatS=1 NMatT=0.
 FoFJK:  IHMeth= 1 ICntrl=    2127 DoSepK=F KAlg= 0 I1Cent=           0 FoldK=F
 IRaf=         0 NMat=       1 IRICut=       1 DoRegI=T DoRafI=F ISym2E= 0 IDoP0=0 IntGTp=1.
 FoFCou: FMM=F IPFlag=           0 FMFlag=      100000 FMFlg1=         800
         NFxFlg=           0 DoJE=F BraDBF=F KetDBF=F FulRan=T
         wScrn=  0.000000 ICntrl=      2127 IOpCl=  0 I1Cent=           0 NGrid=           0
         NMat0=    1 NMatS0=      1 NMatT0=    0 NMatD0=    1 NMtDS0=    0 NMtDT0=    0
 Symmetry not used in FoFCou.
 Leave Link  703 at Mon Jul  5 23:00:31 2021, MaxMem=   524288000 cpu:              83.3 elap:              14.0
 (Enter /opt/gaussian/g16_legacy/l716.exe)
 Dipole        =-1.40890223D-01-2.56098013D-02 6.95359283D-02
 ***** Axes restored to original set *****
 -------------------------------------------------------------------
 Center     Atomic                   Forces (Hartrees/Bohr)
 Number     Number              X              Y              Z
 -------------------------------------------------------------------
      1        6          -0.006084086   -0.001539087   -0.003640148
      2        1           0.001621232    0.003407923    0.000474547
      3        1          -0.001034468    0.000927644    0.001963367
      4        6          -0.002307646    0.006868928   -0.011098637
      5        6          -0.000568526    0.002349521   -0.002134933
      6        1          -0.000869075   -0.002087863    0.002449285
      7        1           0.002376279   -0.000591261   -0.000979830
      8        1           0.000864443   -0.000744631    0.002669164
      9        6           0.004155979   -0.008064160    0.011081130
     10        1          -0.001483714   -0.001065964    0.002710914
     11        6           0.001506364   -0.001302033   -0.000042085
     12        1           0.000964937    0.001505808   -0.002350635
     13        1          -0.000310512   -0.000310274    0.001629190
     14        1          -0.000023816   -0.000150923   -0.002178308
     15        6          -0.003762260   -0.002617971    0.001174592
     16        1          -0.000468796    0.001108043    0.001292741
     17        1           0.002377862    0.000829300    0.000676549
     18        1           0.002020999   -0.000550580   -0.001706756
     19        6          -0.014332191    0.004864972    0.003441044
     20        6          -0.003169154    0.001884788    0.001156201
     21        1           0.002095932   -0.000089226   -0.002137899
     22        1          -0.000417629   -0.002396288    0.000346600
     23        1           0.002989226   -0.000040943   -0.000116540
     24        6           0.007056463   -0.002277621   -0.001660852
     25        1           0.002099250    0.000853470   -0.002051031
     26        6           0.006477078   -0.001057666    0.001149218
     27        1           0.000535643    0.000057857   -0.001390683
     28        1          -0.002309816    0.000228237   -0.000726205
 -------------------------------------------------------------------
 Cartesian Forces:  Max     0.014332191 RMS     0.003381658
 Leave Link  716 at Mon Jul  5 23:00:31 2021, MaxMem=   524288000 cpu:               0.3 elap:               0.1
 (Enter /opt/gaussian/g16_legacy/l103.exe)

 GradGradGradGradGradGradGradGradGradGradGradGradGradGradGradGradGradGrad
 Berny optimization.
 FormGI is forming the generalized inverse of G from B-inverse, IUseBI=4.
 Internal  Forces:  Max     0.014540393 RMS     0.002485134
 Search for a local minimum.
 Step number   1 out of a maximum of  138
 All quantities printed in internal units (Hartrees-Bohrs-Radians)
 RMS Force = .24851D-02 SwitMx=.10000D-02 MixMth= 1
 Mixed Optimization -- RFO/linear search
 Second derivative matrix not updated -- first step.
 ITU=  0
     Eigenvalues ---    0.00293   0.00533   0.00658   0.00680   0.00687
     Eigenvalues ---    0.00721   0.00816   0.01200   0.01290   0.01567
     Eigenvalues ---    0.01639   0.02774   0.02786   0.03745   0.03947
     Eigenvalues ---    0.05331   0.05349   0.06983   0.07002   0.07080
     Eigenvalues ---    0.07091   0.07245   0.07301   0.07350   0.07509
     Eigenvalues ---    0.09522   0.09665   0.12947   0.13078   0.15999
     Eigenvalues ---    0.16000   0.16000   0.16000   0.16000   0.16000
     Eigenvalues ---    0.16000   0.16000   0.16000   0.16000   0.16000
     Eigenvalues ---    0.16000   0.16000   0.16000   0.21889   0.21905
     Eigenvalues ---    0.22000   0.22000   0.24989   0.24994   0.24997
     Eigenvalues ---    0.24999   0.28900   0.30597   0.31536   0.31707
     Eigenvalues ---    0.31760   0.32023   0.32777   0.33876   0.34022
     Eigenvalues ---    0.34178   0.34194   0.34206   0.34230   0.34249
     Eigenvalues ---    0.34250   0.34252   0.34262   0.34262   0.34268
     Eigenvalues ---    0.34320   0.34328   0.34551   0.34641   0.34758
     Eigenvalues ---    0.34838   0.55408   0.55598
 RFO step:  Lambda=-3.92385317D-03 EMin= 2.93179537D-03
 Linear search not attempted -- first point.
 Iteration  1 RMS(Cart)=  0.14135088 RMS(Int)=  0.00284103
 Iteration  2 RMS(Cart)=  0.00574369 RMS(Int)=  0.00021975
 Iteration  3 RMS(Cart)=  0.00001318 RMS(Int)=  0.00021967
 Iteration  4 RMS(Cart)=  0.00000000 RMS(Int)=  0.00021967
 ITry= 1 IFail=0 DXMaxC= 5.87D-01 DCOld= 1.00D+10 DXMaxT= 3.00D-01 DXLimC= 3.00D+00 Rises=F
 Variable       Old X    -DE/DX   Delta X   Delta X   Delta X     New X
                                 (Linear)    (Quad)   (Total)
    R1        2.07031  -0.00077   0.00000  -0.00224  -0.00224   2.06807
    R2        2.07539   0.00042   0.00000   0.00123   0.00123   2.07663
    R3        2.86789  -0.00569   0.00000  -0.01835  -0.01835   2.84954
    R4        2.90213   0.00069   0.00000   0.00236   0.00236   2.90448
    R5        2.85001   0.00023   0.00000   0.00072   0.00072   2.85074
    R6        2.54771  -0.01454   0.00000  -0.02606  -0.02606   2.52165
    R7        2.06780   0.00120   0.00000   0.00345   0.00345   2.07125
    R8        2.06983  -0.00184   0.00000  -0.00531  -0.00531   2.06452
    R9        2.06908   0.00055   0.00000   0.00158   0.00158   2.07066
   R10        2.05939   0.00025   0.00000   0.00070   0.00070   2.06009
   R11        2.82745   0.00363   0.00000   0.01096   0.01096   2.83841
   R12        2.06793   0.00105   0.00000   0.00301   0.00301   2.07095
   R13        2.06261   0.00005   0.00000   0.00015   0.00015   2.06276
   R14        2.06880   0.00013   0.00000   0.00038   0.00038   2.06918
   R15        2.06410  -0.00040   0.00000  -0.00114  -0.00114   2.06296
   R16        2.07004   0.00001   0.00000   0.00002   0.00002   2.07006
   R17        2.06891   0.00071   0.00000   0.00204   0.00204   2.07095
   R18        2.84102   0.00088   0.00000   0.00273   0.00273   2.84375
   R19        2.84683   0.00048   0.00000   0.00151   0.00151   2.84833
   R20        2.54605  -0.01349   0.00000  -0.02409  -0.02409   2.52196
   R21        2.06910   0.00078   0.00000   0.00225   0.00225   2.07135
   R22        2.06943  -0.00178   0.00000  -0.00515  -0.00515   2.06428
   R23        2.06913   0.00067   0.00000   0.00194   0.00194   2.07107
   R24        2.06069  -0.00022   0.00000  -0.00063  -0.00063   2.06006
   R25        2.84585  -0.00117   0.00000  -0.00364  -0.00364   2.84220
   R26        2.06890  -0.00002   0.00000  -0.00004  -0.00004   2.06885
   R27        2.07293   0.00025   0.00000   0.00072   0.00072   2.07364
    A1        1.82603   0.00132   0.00000   0.03402   0.03421   1.86025
    A2        1.94365   0.00086   0.00000  -0.01390  -0.01497   1.92868
    A3        1.91007  -0.00056   0.00000  -0.02100  -0.02184   1.88823
    A4        1.88491   0.00118   0.00000   0.01479   0.01503   1.89994
    A5        1.89179   0.00174   0.00000   0.01947   0.01971   1.91150
    A6        1.99847  -0.00400   0.00000  -0.02598  -0.02653   1.97194
    A7        2.00779   0.00073   0.00000   0.00327   0.00280   2.01059
    A8        2.17726  -0.00497   0.00000  -0.01913  -0.01958   2.15768
    A9        2.09779   0.00426   0.00000   0.01724   0.01676   2.11455
   A10        1.93022   0.00247   0.00000   0.01293   0.01296   1.94318
   A11        1.95930  -0.00272   0.00000  -0.01318  -0.01314   1.94616
   A12        1.92520   0.00160   0.00000   0.00853   0.00855   1.93375
   A13        1.87568   0.00052   0.00000   0.00557   0.00561   1.88129
   A14        1.89555  -0.00331   0.00000  -0.02684  -0.02683   1.86872
   A15        1.87561   0.00131   0.00000   0.01210   0.01213   1.88774
   A16        2.06750  -0.00228   0.00000  -0.01565  -0.01565   2.05185
   A17        2.23268  -0.00210   0.00000  -0.00940  -0.00940   2.22328
   A18        1.98287   0.00438   0.00000   0.02499   0.02499   2.00786
   A19        1.91523   0.00334   0.00000   0.02115   0.02114   1.93636
   A20        1.98654  -0.00325   0.00000  -0.01938  -0.01930   1.96724
   A21        1.90984   0.00235   0.00000   0.01317   0.01314   1.92298
   A22        1.88880   0.00022   0.00000   0.00344   0.00353   1.89233
   A23        1.88662  -0.00295   0.00000  -0.01886  -0.01898   1.86764
   A24        1.87399   0.00013   0.00000  -0.00057  -0.00052   1.87348
   A25        1.86389   0.00177   0.00000   0.01578   0.01579   1.87968
   A26        1.88434   0.00022   0.00000   0.00356   0.00357   1.88790
   A27        1.97952  -0.00180   0.00000  -0.00717  -0.00716   1.97236
   A28        1.89070  -0.00253   0.00000  -0.02310  -0.02309   1.86761
   A29        1.92082   0.00017   0.00000  -0.00004  -0.00003   1.92080
   A30        1.92168   0.00207   0.00000   0.01002   0.01003   1.93172
   A31        1.99488   0.00099   0.00000   0.00393   0.00392   1.99880
   A32        2.18450  -0.00352   0.00000  -0.01382  -0.01384   2.17066
   A33        2.10372   0.00253   0.00000   0.01002   0.01000   2.11372
   A34        1.92358   0.00182   0.00000   0.00921   0.00923   1.93282
   A35        1.96086  -0.00251   0.00000  -0.01177  -0.01174   1.94912
   A36        1.92467   0.00189   0.00000   0.00991   0.00993   1.93461
   A37        1.87893   0.00091   0.00000   0.00867   0.00870   1.88763
   A38        1.89492  -0.00318   0.00000  -0.02646  -0.02645   1.86847
   A39        1.87885   0.00097   0.00000   0.00957   0.00959   1.88845
   A40        2.06604  -0.00137   0.00000  -0.01085  -0.01121   2.05483
   A41        2.23223  -0.00322   0.00000  -0.01429  -0.01467   2.21756
   A42        1.98488   0.00460   0.00000   0.02554   0.02515   2.01003
   A43        1.97614  -0.00442   0.00000  -0.02432  -0.02444   1.95170
   A44        1.89733   0.00164   0.00000   0.00862   0.00871   1.90604
   A45        1.92505  -0.00085   0.00000  -0.01566  -0.01573   1.90932
   A46        1.93759   0.00112   0.00000   0.00655   0.00654   1.94413
   A47        1.88820   0.00245   0.00000   0.00979   0.00939   1.89758
   A48        1.83436   0.00040   0.00000   0.01785   0.01782   1.85218
    D1        2.76628   0.00196   0.00000   0.00750   0.00701   2.77329
    D2       -0.34722   0.00098   0.00000  -0.04997  -0.04986  -0.39709
    D3        0.77071  -0.00077   0.00000  -0.03439  -0.03471   0.73600
    D4       -2.34280  -0.00175   0.00000  -0.09187  -0.09158  -2.43438
    D5       -1.33837  -0.00125   0.00000  -0.05308  -0.05318  -1.39155
    D6        1.83131  -0.00224   0.00000  -0.11055  -0.11005   1.72126
    D7        1.03771  -0.00124   0.00000   0.00769   0.00783   1.04554
    D8       -1.12427  -0.00083   0.00000   0.00973   0.00998  -1.11428
    D9       -3.12688  -0.00177   0.00000  -0.00798  -0.00759  -3.13447
   D10        3.01947   0.00096   0.00000   0.04728   0.04717   3.06664
   D11        0.85749   0.00137   0.00000   0.04933   0.04932   0.90681
   D12       -1.14513   0.00043   0.00000   0.03162   0.03175  -1.11337
   D13       -1.15845   0.00112   0.00000   0.06331   0.06293  -1.09551
   D14        2.96276   0.00153   0.00000   0.06536   0.06508   3.02784
   D15        0.96014   0.00059   0.00000   0.04765   0.04751   1.00766
   D16        1.09791  -0.00125   0.00000  -0.05299  -0.05332   1.04458
   D17       -3.09055  -0.00070   0.00000  -0.04582  -0.04617  -3.13672
   D18       -0.99936   0.00025   0.00000  -0.03337  -0.03372  -1.03308
   D19       -2.07038  -0.00047   0.00000   0.00102   0.00138  -2.06900
   D20        0.02435   0.00008   0.00000   0.00819   0.00854   0.03288
   D21        2.11553   0.00103   0.00000   0.02064   0.02098   2.13652
   D22        3.11763   0.00012   0.00000   0.01965   0.01956   3.13719
   D23       -0.04260   0.00007   0.00000   0.01574   0.01570  -0.02690
   D24        0.00548  -0.00085   0.00000  -0.04035  -0.04031  -0.03484
   D25        3.12843  -0.00090   0.00000  -0.04426  -0.04418   3.08425
   D26        2.02665   0.00032   0.00000   0.00787   0.00781   2.03446
   D27       -0.09273  -0.00018   0.00000   0.00122   0.00125  -0.09148
   D28       -2.18917   0.00012   0.00000   0.00539   0.00547  -2.18370
   D29       -1.13282   0.00021   0.00000   0.00377   0.00367  -1.12915
   D30        3.03098  -0.00028   0.00000  -0.00288  -0.00288   3.02809
   D31        0.93454   0.00002   0.00000   0.00129   0.00134   0.93588
   D32       -3.00812  -0.00047   0.00000  -0.02276  -0.02273  -3.03084
   D33        0.12003  -0.00027   0.00000  -0.01187  -0.01191   0.10812
   D34       -0.92146   0.00071   0.00000  -0.00740  -0.00737  -0.92883
   D35        2.20669   0.00091   0.00000   0.00348   0.00345   2.21014
   D36        1.16156  -0.00102   0.00000  -0.02969  -0.02965   1.13191
   D37       -1.99347  -0.00082   0.00000  -0.01880  -0.01884  -2.01231
   D38       -1.04133   0.00087   0.00000   0.01727   0.01731  -1.02402
   D39       -3.13666   0.00013   0.00000   0.00774   0.00779  -3.12887
   D40        1.05055  -0.00072   0.00000  -0.00341  -0.00336   1.04719
   D41        2.11302   0.00073   0.00000   0.00713   0.00708   2.12010
   D42        0.01769  -0.00001   0.00000  -0.00239  -0.00244   0.01525
   D43       -2.07829  -0.00086   0.00000  -0.01354  -0.01358  -2.09187
   D44       -3.11742  -0.00016   0.00000   0.00255   0.00228  -3.11514
   D45        0.03407  -0.00125   0.00000  -0.05230  -0.05200  -0.01794
   D46        0.00995   0.00004   0.00000   0.01401   0.01371   0.02367
   D47       -3.12175  -0.00105   0.00000  -0.04084  -0.04057   3.12087
   D48       -1.79630  -0.00030   0.00000   0.00469   0.00484  -1.79146
   D49        0.34348  -0.00053   0.00000   0.00317   0.00330   0.34678
   D50        2.34769   0.00196   0.00000   0.03375   0.03403   2.38172
   D51        1.35480  -0.00132   0.00000  -0.04786  -0.04808   1.30672
   D52       -2.78860  -0.00155   0.00000  -0.04938  -0.04962  -2.83822
   D53       -0.78440   0.00094   0.00000  -0.01879  -0.01889  -0.80328
         Item               Value     Threshold  Converged?
 Maximum Force            0.014540     0.002500     NO 
 RMS     Force            0.002485     0.001667     NO 
 Maximum Displacement     0.587374     0.010000     NO 
 RMS     Displacement     0.143745     0.006667     NO 
 Predicted change in Energy=-2.110742D-03
 Lowest energy point so far.  Saving SCF results.
 GradGradGradGradGradGradGradGradGradGradGradGradGradGradGradGradGradGrad

 Leave Link  103 at Mon Jul  5 23:00:31 2021, MaxMem=   524288000 cpu:               0.7 elap:               0.2
 (Enter /opt/gaussian/g16_legacy/l202.exe)
                          Input orientation:                          
 ---------------------------------------------------------------------
 Center     Atomic      Atomic             Coordinates (Angstroms)
[...]
                 (A) (A) (A) (A) (A) (A) (A) (A) (A) (A) (A) (A)
                 (A) (A) (A) (A) (A) (A) (A) (A) (A) (A) (A) (A)
                 (A) (A) (A) (A) (A) (A) (A) (A) (A) (A) (A) (A)
                 (A) (A) (A) (A) (A) (A) (A) (A) (A) (A) (A) (A)
                 (A) (A) (A) (A) (A) (A) (A) (A) (A) (A) (A) (A)
                 (A) (A) (A) (A) (A) (A) (A) (A) (A) (A) (A) (A)
                 (A) (A) (A) (A) (A) (A) (A) (A) (A) (A) (A) (A)
                 (A) (A) (A) (A) (A) (A) (A) (A) (A) (A) (A) (A)
                 (A) (A) (A) (A) (A) (A) (A) (A) (A) (A) (A) (A)
                 (A) (A) (A) (A) (A) (A) (A) (A) (A) (A) (A) (A)
                 (A) (A) (A) (A) (A) (A) (A) (A) (A)
 The electronic state is 1-A.
 Alpha  occ. eigenvalues --  -10.54427 -10.54007 -10.53901 -10.53830 -10.53627
 Alpha  occ. eigenvalues --  -10.53370 -10.53195 -10.53066 -10.52970 -10.52920
 Alpha  occ. eigenvalues --   -0.92283  -0.89780  -0.84433  -0.81248  -0.77894
 Alpha  occ. eigenvalues --   -0.76152  -0.71942  -0.68578  -0.59197  -0.56624
 Alpha  occ. eigenvalues --   -0.54335  -0.52005  -0.49885  -0.49863  -0.49103
 Alpha  occ. eigenvalues --   -0.48274  -0.46089  -0.45073  -0.44370  -0.44055
 Alpha  occ. eigenvalues --   -0.42786  -0.42323  -0.42065  -0.40587  -0.39775
 Alpha  occ. eigenvalues --   -0.37201  -0.36392  -0.28328  -0.27455
 Alpha virt. eigenvalues --    0.06874   0.07880   0.12095   0.14105   0.15753
 Alpha virt. eigenvalues --    0.16601   0.17936   0.19024   0.19375   0.20459
 Alpha virt. eigenvalues --    0.21071   0.21674   0.22182   0.23473   0.23573
 Alpha virt. eigenvalues --    0.24922   0.25842   0.26212   0.27020   0.28595
 Alpha virt. eigenvalues --    0.28917   0.29291   0.29989   0.31903   0.33134
 Alpha virt. eigenvalues --    0.37925   0.39619   0.47304   0.48685   0.52562
 Alpha virt. eigenvalues --    0.54800   0.55247   0.57903   0.58286   0.59323
 Alpha virt. eigenvalues --    0.59965   0.61097   0.62888   0.64211   0.66215
 Alpha virt. eigenvalues --    0.67214   0.69707   0.71325   0.71641   0.73399
 Alpha virt. eigenvalues --    0.74925   0.76073   0.78064   0.79148   0.80775
 Alpha virt. eigenvalues --    0.81800   0.82503   0.82866   0.85010   0.87126
 Alpha virt. eigenvalues --    0.88338   0.88672   0.91734   0.92819   0.93040
 Alpha virt. eigenvalues --    0.94058   0.94683   0.95524   0.96046   0.96257
 Alpha virt. eigenvalues --    0.97666   0.99137   0.99599   1.00165   1.01711
 Alpha virt. eigenvalues --    1.02973   1.03926   1.05483   1.06529   1.08532
 Alpha virt. eigenvalues --    1.10780   1.12029   1.20511   1.22792   1.26589
 Alpha virt. eigenvalues --    1.26885   1.29668   1.35952   1.37240   1.38197
 Alpha virt. eigenvalues --    1.39253   1.43626   1.47389   1.50635   1.52736
 Alpha virt. eigenvalues --    1.53097   1.56445   1.69753   1.70429   1.74250
 Alpha virt. eigenvalues --    1.76523   1.77019   1.80369   1.81297   1.82523
 Alpha virt. eigenvalues --    1.84328   1.85230   1.87412   1.88618   1.90932
 Alpha virt. eigenvalues --    1.92108   1.92903   1.94621   2.01387   2.03840
 Alpha virt. eigenvalues --    2.04468   2.05622   2.06225   2.08764   2.09823
 Alpha virt. eigenvalues --    2.10184   2.10363   2.10610   2.13542   2.15189
 Alpha virt. eigenvalues --    2.15790   2.16237   2.17701   2.18326   2.19361
 Alpha virt. eigenvalues --    2.21069   2.22811   2.23132   2.23723   2.25589
 Alpha virt. eigenvalues --    2.29523   2.31286   2.32043   2.33851   2.34680
 Alpha virt. eigenvalues --    2.39045   2.41796   2.43312   2.43855   2.44580
 Alpha virt. eigenvalues --    2.47859   2.48070   2.50332   2.53189   2.53975
 Alpha virt. eigenvalues --    2.55323   2.59429   2.61000   2.61667   2.64692
 Alpha virt. eigenvalues --    2.66439   2.66961   2.67603   2.69960   2.71527
 Alpha virt. eigenvalues --    2.74124   2.74766   2.76825   2.79788   2.83709
 Alpha virt. eigenvalues --    2.85460   2.85727   2.87297   2.87760   2.88917
 Alpha virt. eigenvalues --    2.90224   2.92377   2.92685   2.95139   3.03001
 Alpha virt. eigenvalues --    3.04465   3.09973   3.10588   3.17387   3.19122
 Alpha virt. eigenvalues --    3.21984   3.23925   3.31393   3.32771   3.40280
 Alpha virt. eigenvalues --    3.42138   3.42543   3.43325   3.44291   3.45079
 Alpha virt. eigenvalues --    3.46259   3.47560   3.48163   3.50065   3.52337
 Alpha virt. eigenvalues --    3.57036   4.18660   4.24053   4.35581   4.43073
 Alpha virt. eigenvalues --    4.51901   4.53570   4.54246   4.69593   4.71894
 Alpha virt. eigenvalues --    4.75086
          Condensed to atoms (all electrons):
               1          2          3          4          5          6
     1  C    5.019817   0.385542   0.382294   0.380339  -0.073545  -0.001115
     2  H    0.385542   0.607709  -0.032069  -0.033096   0.004966   0.000013
     3  H    0.382294  -0.032069   0.617735  -0.039531  -0.006499  -0.000641
     4  C    0.380339  -0.033096  -0.039531   4.747327   0.369990  -0.037930
     5  C   -0.073545   0.004966  -0.006499   0.369990   5.006365   0.382452
     6  H   -0.001115   0.000013  -0.000641  -0.037930   0.382452   0.595522
     7  H    0.004757  -0.000178   0.000108  -0.033913   0.385470  -0.027041
     8  H   -0.002984   0.000025   0.004451  -0.033047   0.378635  -0.037021
     9  C   -0.047883  -0.007339   0.003650   0.719712  -0.041892  -0.000872
    10  H    0.006279  -0.000010  -0.000181  -0.032425  -0.014569   0.000203
    11  C   -0.015411  -0.000221   0.000294  -0.042316   0.006177  -0.000162
    12  H    0.000255   0.000099   0.000019   0.000938  -0.000148  -0.000003
    13  H    0.002231   0.003614  -0.000042  -0.007997   0.000059  -0.000007
    14  H    0.000599  -0.000287  -0.000020  -0.001572  -0.000146   0.000023
    15  C   -0.000834   0.001305  -0.000059   0.000113  -0.000001   0.000000
    16  H   -0.001277   0.001066   0.000105   0.000072   0.000000  -0.000000
    17  H    0.000182  -0.000094  -0.000016   0.000005  -0.000000  -0.000000
    18  H   -0.000006   0.000015   0.000002  -0.000002   0.000000   0.000000
    19  C   -0.005642   0.001878   0.000178  -0.001000  -0.000005   0.000000
    20  C   -0.000124  -0.000076   0.000003   0.000006   0.000000   0.000000
    21  H   -0.000006   0.000001   0.000000  -0.000001  -0.000000   0.000000
    22  H   -0.000003  -0.000002  -0.000000  -0.000001  -0.000000   0.000000
    23  H    0.000030   0.000002  -0.000001   0.000004   0.000000   0.000000
    24  C   -0.054000  -0.008124   0.006295  -0.005731  -0.000640   0.000017
    25  H    0.000166  -0.000056  -0.000144   0.002884   0.000149   0.000014
    26  C    0.347956  -0.038740  -0.039971  -0.052908  -0.001805   0.001781
    27  H   -0.034859  -0.004928  -0.003373   0.005320  -0.000041  -0.000113
    28  H   -0.040885   0.005503  -0.003186  -0.006433   0.001529   0.002518
               7          8          9         10         11         12
     1  C    0.004757  -0.002984  -0.047883   0.006279  -0.015411   0.000255
     2  H   -0.000178   0.000025  -0.007339  -0.000010  -0.000221   0.000099
     3  H    0.000108   0.004451   0.003650  -0.000181   0.000294   0.000019
     4  C   -0.033913  -0.033047   0.719712  -0.032425  -0.042316   0.000938
     5  C    0.385470   0.378635  -0.041892  -0.014569   0.006177  -0.000148
     6  H   -0.027041  -0.037021  -0.000872   0.000203  -0.000162  -0.000003
     7  H    0.572457  -0.026556  -0.005397   0.006768   0.000081  -0.000007
     8  H   -0.026556   0.590775  -0.000909   0.000313  -0.000161   0.000017
     9  C   -0.005397  -0.000909   4.880270   0.375940   0.365339  -0.033254
    10  H    0.006768   0.000313   0.375940   0.617958  -0.054899  -0.002520
    11  C    0.000081  -0.000161   0.365339  -0.054899   4.965445   0.381068
    12  H   -0.000007   0.000017  -0.033254  -0.002520   0.381068   0.590344
    13  H    0.000010   0.000007  -0.034180   0.004592   0.387975  -0.027898
    14  H   -0.000005  -0.000006  -0.032825  -0.000549   0.384687  -0.033951
    15  C   -0.000000   0.000000   0.000032  -0.000000  -0.000624   0.000005
    16  H   -0.000000   0.000000  -0.000003  -0.000000   0.000012   0.000001
    17  H   -0.000000   0.000000   0.000012   0.000000   0.000067  -0.000044
    18  H   -0.000000  -0.000000  -0.000000   0.000000   0.000012   0.000000
    19  C    0.000000  -0.000000   0.000354   0.000002  -0.000981   0.000208
    20  C    0.000000  -0.000000   0.000023  -0.000001  -0.000319   0.000006
    21  H    0.000000  -0.000000  -0.000001   0.000000   0.000017   0.000000
    22  H   -0.000000  -0.000000  -0.000012  -0.000000  -0.000068   0.000000
    23  H   -0.000000  -0.000000  -0.000021   0.000001   0.000337  -0.000064
    24  C    0.000004   0.000037   0.003605  -0.000075   0.000517   0.000247
    25  H   -0.000005  -0.000000   0.000303   0.000024  -0.000065   0.000006
    26  C   -0.000029  -0.000428  -0.006288  -0.000111   0.000483  -0.000053
    27  H    0.000004  -0.000001  -0.000024   0.000005  -0.000018   0.000001
    28  H   -0.000137   0.000075   0.000103  -0.000005  -0.000016   0.000001
              13         14         15         16         17         18
     1  C    0.002231   0.000599  -0.000834  -0.001277   0.000182  -0.000006
     2  H    0.003614  -0.000287   0.001305   0.001066  -0.000094   0.000015
     3  H   -0.000042  -0.000020  -0.000059   0.000105  -0.000016   0.000002
     4  C   -0.007997  -0.001572   0.000113   0.000072   0.000005  -0.000002
     5  C    0.000059  -0.000146  -0.000001   0.000000  -0.000000   0.000000
     6  H   -0.000007   0.000023   0.000000  -0.000000  -0.000000   0.000000
     7  H    0.000010  -0.000005  -0.000000  -0.000000  -0.000000  -0.000000
     8  H    0.000007  -0.000006   0.000000   0.000000   0.000000  -0.000000
     9  C   -0.034180  -0.032825   0.000032  -0.000003   0.000012  -0.000000
    10  H    0.004592  -0.000549  -0.000000  -0.000000   0.000000   0.000000
    11  C    0.387975   0.384687  -0.000624   0.000012   0.000067   0.000012
    12  H   -0.027898  -0.033951   0.000005   0.000001  -0.000044   0.000000
    13  H    0.586098  -0.030132   0.000311  -0.000123   0.001209   0.000004
    14  H   -0.030132   0.583175  -0.000021  -0.000002  -0.000036   0.000000
    15  C    0.000311  -0.000021   5.009644   0.383330   0.381476   0.384156
    16  H   -0.000123  -0.000002   0.383330   0.575510  -0.028343  -0.026826
    17  H    0.001209  -0.000036   0.381476  -0.028343   0.587206  -0.034407
    18  H    0.000004   0.000000   0.384156  -0.026826  -0.034407   0.581427
    19  C    0.000917  -0.000052   0.379079  -0.027458  -0.035966  -0.035537
    20  C   -0.000353   0.000303  -0.078305   0.004866  -0.002236  -0.003261
    21  H    0.000010   0.000008  -0.001528  -0.000021  -0.000756   0.004293
    22  H   -0.000001   0.000294   0.004780  -0.000171  -0.000041  -0.000016
    23  H    0.000063   0.000785  -0.001620  -0.000045   0.004164  -0.000879
    24  C   -0.000049   0.000053  -0.055293  -0.009792  -0.000631   0.001542
    25  H    0.000074   0.000072   0.006445   0.000041  -0.000174  -0.000148
    26  C   -0.000921   0.000209  -0.013063   0.003344   0.000499   0.000006
    27  H    0.000076  -0.000006   0.000112   0.002648  -0.000241   0.000207
    28  H   -0.000001   0.000002   0.000341  -0.000035  -0.000017   0.000008
              19         20         21         22         23         24
     1  C   -0.005642  -0.000124  -0.000006  -0.000003   0.000030  -0.054000
     2  H    0.001878  -0.000076   0.000001  -0.000002   0.000002  -0.008124
     3  H    0.000178   0.000003   0.000000  -0.000000  -0.000001   0.006295
     4  C   -0.001000   0.000006  -0.000001  -0.000001   0.000004  -0.005731
     5  C   -0.000005   0.000000  -0.000000  -0.000000   0.000000  -0.000640
     6  H    0.000000   0.000000   0.000000   0.000000   0.000000   0.000017
     7  H    0.000000   0.000000   0.000000  -0.000000  -0.000000   0.000004
     8  H   -0.000000  -0.000000  -0.000000  -0.000000  -0.000000   0.000037
     9  C    0.000354   0.000023  -0.000001  -0.000012  -0.000021   0.003605
    10  H    0.000002  -0.000001   0.000000  -0.000000   0.000001  -0.000075
    11  C   -0.000981  -0.000319   0.000017  -0.000068   0.000337   0.000517
    12  H    0.000208   0.000006   0.000000   0.000000  -0.000064   0.000247
    13  H    0.000917  -0.000353   0.000010  -0.000001   0.000063  -0.000049
    14  H   -0.000052   0.000303   0.000008   0.000294   0.000785   0.000053
    15  C    0.379079  -0.078305  -0.001528   0.004780  -0.001620  -0.055293
    16  H   -0.027458   0.004866  -0.000021  -0.000171  -0.000045  -0.009792
    17  H   -0.035966  -0.002236  -0.000756  -0.000041   0.004164  -0.000631
    18  H   -0.035537  -0.003261   0.004293  -0.000016  -0.000879   0.001542
    19  C    4.727155   0.371411  -0.035176  -0.033437  -0.037117   0.718778
    20  C    0.371411   5.001623   0.381129   0.385389   0.379800  -0.039116
    21  H   -0.035176   0.381129   0.590182  -0.026182  -0.036752  -0.000806
    22  H   -0.033437   0.385389  -0.026182   0.569531  -0.026949  -0.004998
    23  H   -0.037117   0.379800  -0.036752  -0.026949   0.596697  -0.001150
    24  C    0.718778  -0.039116  -0.000806  -0.004998  -0.001150   4.912732
    25  H   -0.034982  -0.014089   0.000254   0.006444   0.000200   0.378977
    26  C   -0.042686   0.005905  -0.000201   0.000104  -0.000109   0.355973
    27  H   -0.007494   0.000003   0.000016   0.000009  -0.000011  -0.037105
    28  H    0.003825  -0.000161   0.000006  -0.000010  -0.000001  -0.032027
              25         26         27         28
     1  C    0.000166   0.347956  -0.034859  -0.040885
     2  H   -0.000056  -0.038740  -0.004928   0.005503
     3  H   -0.000144  -0.039971  -0.003373  -0.003186
     4  C    0.002884  -0.052908   0.005320  -0.006433
     5  C    0.000149  -0.001805  -0.000041   0.001529
     6  H    0.000014   0.001781  -0.000113   0.002518
     7  H   -0.000005  -0.000029   0.000004  -0.000137
     8  H   -0.000000  -0.000428  -0.000001   0.000075
     9  C    0.000303  -0.006288  -0.000024   0.000103
    10  H    0.000024  -0.000111   0.000005  -0.000005
    11  C   -0.000065   0.000483  -0.000018  -0.000016
    12  H    0.000006  -0.000053   0.000001   0.000001
    13  H    0.000074  -0.000921   0.000076  -0.000001
    14  H    0.000072   0.000209  -0.000006   0.000002
    15  C    0.006445  -0.013063   0.000112   0.000341
    16  H    0.000041   0.003344   0.002648  -0.000035
    17  H   -0.000174   0.000499  -0.000241  -0.000017
    18  H   -0.000148   0.000006   0.000207   0.000008
    19  C   -0.034982  -0.042686  -0.007494   0.003825
    20  C   -0.014089   0.005905   0.000003  -0.000161
    21  H    0.000254  -0.000201   0.000016   0.000006
    22  H    0.006444   0.000104   0.000009  -0.000010
    23  H    0.000200  -0.000109  -0.000011  -0.000001
    24  C    0.378977   0.355973  -0.037105  -0.032027
    25  H    0.605660  -0.048947   0.004372  -0.005926
    26  C   -0.048947   5.010882   0.387065   0.387187
    27  H    0.004372   0.387065   0.601130  -0.032413
    28  H   -0.005926   0.387187  -0.032413   0.605399
 Mulliken charges:
               1
     1  C   -0.251874
     2  H    0.113481
     3  H    0.110598
     4  C    0.101194
     5  C   -0.396501
     6  H    0.122362
     7  H    0.123610
     8  H    0.126779
     9  C   -0.138440
    10  H    0.093262
    11  C   -0.377250
    12  H    0.124729
    13  H    0.114450
    14  H    0.129399
    15  C   -0.399781
    16  H    0.123099
    17  H    0.128180
    18  H    0.129408
    19  C    0.093748
    20  C   -0.392427
    21  H    0.125513
    22  H    0.125340
    23  H    0.122635
    24  C   -0.129240
    25  H    0.098451
    26  C   -0.255135
    27  H    0.119657
    28  H    0.114754
 Sum of Mulliken charges =  -0.00000
 Mulliken charges with hydrogens summed into heavy atoms:
               1
     1  C   -0.027795
     4  C    0.101194
     5  C   -0.023750
     9  C   -0.045178
    11  C   -0.008673
    15  C   -0.019094
    19  C    0.093748
    20  C   -0.018939
    24  C   -0.030789
    26  C   -0.020723
 Electronic spatial extent (au):  <R**2>=           1884.0493
 Charge=             -0.0000 electrons
 Dipole moment (field-independent basis, Debye):
    X=             -0.3229    Y=             -0.0686    Z=              0.1445  Tot=              0.3603
 Quadrupole moment (field-independent basis, Debye-Ang):
   XX=            -63.4837   YY=            -63.8475   ZZ=            -64.8202
   XY=             -1.4423   XZ=             -1.7348   YZ=             -1.0801
 Traceless Quadrupole moment (field-independent basis, Debye-Ang):
   XX=              0.5667   YY=              0.2030   ZZ=             -0.7697
   XY=             -1.4423   XZ=             -1.7348   YZ=             -1.0801
 Octapole moment (field-independent basis, Debye-Ang**2):
  XXX=             -5.9796  YYY=              2.7658  ZZZ=             -1.6775  XYY=              3.1025
  XXY=             -0.4599  XXZ=             -1.2249  XZZ=             -0.6341  YZZ=              0.4265
  YYZ=              1.4668  XYZ=             -0.0850
 Hexadecapole moment (field-independent basis, Debye-Ang**3):
 XXXX=          -1624.0284 YYYY=           -631.1200 ZZZZ=           -323.8961 XXXY=              0.9256
 XXXZ=             -8.5485 YYYX=              2.3712 YYYZ=             -1.1705 ZZZX=             -1.3349
 ZZZY=             -1.3772 XXYY=           -380.5729 XXZZ=           -334.3081 YYZZ=           -158.5882
 XXYZ=             -9.4588 YYXZ=             -4.7634 ZZXY=             -4.4426
 N-N= 5.421925034024D+02 E-N=-1.989510727151D+03  KE= 3.881293544024D+02
 No NMR shielding tensors so no spin-rotation constants.
 Leave Link  601 at Mon Jul  5 23:40:41 2021, MaxMem=   524288000 cpu:               2.3 elap:               0.5
 (Enter /opt/gaussian/g16_legacy/l9999.exe)
 1\1\GINC-TRUENO90\FOpt\RM062X\6-31G(d,p)\C10H18\JRAMOS\05-Jul-2021\0\\
 #p opt=loose m062x/6-31g(d,p)\\Conformer number 009. Energy MM = 23.48
 6 kcal/mol\\0,1\C,-1.0528552478,-1.2342092936,0.5833249925\H,-0.542562
 0637,-1.5881411062,-0.3176689828\H,-1.6314672125,-2.0800185659,0.97597
 20772\C,-1.995222334,-0.0982476163,0.2596141939\C,-3.1224536376,0.0887
 363552,1.2423720618\H,-2.7407752153,0.2185288206,2.262129581\H,-3.7329
 417022,0.9604864846,0.9966822342\H,-3.7729508226,-0.7934687116,1.26098
 43432\C,-1.850375376,0.7234173939,-0.7852521885\H,-2.5839612165,1.5226
 791659,-0.8952498345\C,-0.7791554056,0.6975522426,-1.8360022511\H,-1.2
 19034227,0.7165381369,-2.8386965127\H,-0.13235273,-0.1782659114,-1.758
 4406306\H,-0.136926664,1.5819965915,-1.749290069\C,2.460770927,-1.1521
 482713,-0.1948339756\H,1.9249441687,-2.0095801891,0.2154349703\H,2.367
 7498685,-1.1877632705,-1.2875928392\H,3.5262441778,-1.2722292193,0.032
 0276471\C,1.951052897,0.1658433904,0.324704264\C,2.7057668416,1.370158
 336,-0.1703143607\H,3.7646257812,1.3136884675,0.1078635484\H,2.2924170
 241,2.2980802728,0.2311831644\H,2.669817279,1.4234102947,-1.2655473455
 \C,0.8904903874,0.2905806975,1.1284163104\H,0.5841794702,1.2974543346,
 1.4084263389\C,0.0165713384,-0.8327939847,1.6232214331\H,0.6163345417,
 -1.7145709689,1.8721413615\H,-0.4777308479,-0.527213876,2.5518904681\\
 Version=EM64L-G16RevA.03\State=1-A\HF=-391.6915317\RMSD=5.723e-09\RMSF
 =1.283e-05\Dipole=0.1273159,-0.0574503,-0.0241881\Quadrupole=0.1136547
 ,0.4019334,-0.5155882,-0.49017,-1.6991051,-0.6121129\PG=C01 [X(C10H18)
 ]\\@


 THE ONLY EXISTING THINGS ARE ATOMS AND EMPTY SPACE;
 ALL ELSE IS MERE OPINION. -- DEMOCRITUS OF ABDERA D. 370 B.C.
 EXPERIMENTS ARE THE ONLY MEANS OF KNOWLEDGE AT OUR DISPOSAL
 THE REST IS POETRY, IMAGINATION. -- MAX PLANCK
 Job cpu time:       0 days  4 hours  9 minutes 49.5 seconds.
 Elapsed time:       0 days  0 hours 41 minutes 48.8 seconds.
 File lengths (MBytes):  RWF=     42 Int=      0 D2E=      0 Chk=      6 Scr=      1
 Normal termination of Gaussian 16 at Mon Jul  5 23:40:41 2021.
