 Entering Gaussian System, Link 0=/opt/gaussian/g16_legacy/g16
 Input=IsoP_rdkit_005_gaussian.com
 Output=IsoP_rdkit_005_gaussian.log
 Initial command:
 /opt/gaussian/g16_legacy/l1.exe "/scratch-local/jramos/2641255/Gau-1814.inp" -scrdir="/scratch-local/jramos/2641255/"
 Entering Link 1 = /opt/gaussian/g16_legacy/l1.exe PID=      1815.
  
 Copyright (c) 1988,1990,1992,1993,1995,1998,2003,2009,2016,
            Gaussian, Inc.  All Rights Reserved.
  
 This is part of the Gaussian(R) 16 program.  It is based on
 the Gaussian(R) 09 system (copyright 2009, Gaussian, Inc.),
 the Gaussian(R) 03 system (copyright 2003, Gaussian, Inc.),
 the Gaussian(R) 98 system (copyright 1998, Gaussian, Inc.),
 the Gaussian(R) 94 system (copyright 1995, Gaussian, Inc.),
 the Gaussian 92(TM) system (copyright 1992, Gaussian, Inc.),
 the Gaussian 90(TM) system (copyright 1990, Gaussian, Inc.),
 the Gaussian 88(TM) system (copyright 1988, Gaussian, Inc.),
 the Gaussian 86(TM) system (copyright 1986, Carnegie Mellon
 University), and the Gaussian 82(TM) system (copyright 1983,
 Carnegie Mellon University). Gaussian is a federally registered
 trademark of Gaussian, Inc.
  
 This software contains proprietary and confidential information,
 including trade secrets, belonging to Gaussian, Inc.
  
 This software is provided under written license and may be
 used, copied, transmitted, or stored only in accord with that
 written license.
  
 The following legend is applicable only to US Government
 contracts under FAR:
  
                    RESTRICTED RIGHTS LEGEND
  
 Use, reproduction and disclosure by the US Government is
 subject to restrictions as set forth in subparagraphs (a)
 and (c) of the Commercial Computer Software - Restricted
 Rights clause in FAR 52.227-19.
  
 Gaussian, Inc.
 340 Quinnipiac St., Bldg. 40, Wallingford CT 06492
  
  
 ---------------------------------------------------------------
 Warning -- This program may not be used in any manner that
 competes with the business of Gaussian, Inc. or will provide
 assistance to any competitor of Gaussian, Inc.  The licensee
 of this program is prohibited from giving any competitor of
 Gaussian, Inc. access to this program.  By using this program,
 the user acknowledges that Gaussian, Inc. is engaged in the
 business of creating and licensing software in the field of
 computational chemistry and represents and warrants to the
 licensee that it is not a competitor of Gaussian, Inc. and that
 it will not use this program in any manner prohibited above.
 ---------------------------------------------------------------
  

 Cite this work as:
 Gaussian 16, Revision A.03,
 M. J. Frisch, G. W. Trucks, H. B. Schlegel, G. E. Scuseria, 
 M. A. Robb, J. R. Cheeseman, G. Scalmani, V. Barone, 
 G. A. Petersson, H. Nakatsuji, X. Li, M. Caricato, A. V. Marenich, 
 J. Bloino, B. G. Janesko, R. Gomperts, B. Mennucci, H. P. Hratchian, 
 J. V. Ortiz, A. F. Izmaylov, J. L. Sonnenberg, D. Williams-Young, 
 F. Ding, F. Lipparini, F. Egidi, J. Goings, B. Peng, A. Petrone, 
 T. Henderson, D. Ranasinghe, V. G. Zakrzewski, J. Gao, N. Rega, 
 G. Zheng, W. Liang, M. Hada, M. Ehara, K. Toyota, R. Fukuda, 
 J. Hasegawa, M. Ishida, T. Nakajima, Y. Honda, O. Kitao, H. Nakai, 
 T. Vreven, K. Throssell, J. A. Montgomery, Jr., J. E. Peralta, 
 F. Ogliaro, M. J. Bearpark, J. J. Heyd, E. N. Brothers, K. N. Kudin, 
 V. N. Staroverov, T. A. Keith, R. Kobayashi, J. Normand, 
 K. Raghavachari, A. P. Rendell, J. C. Burant, S. S. Iyengar, 
 J. Tomasi, M. Cossi, J. M. Millam, M. Klene, C. Adamo, R. Cammi, 
 J. W. Ochterski, R. L. Martin, K. Morokuma, O. Farkas, 
 J. B. Foresman, and D. J. Fox, Gaussian, Inc., Wallingford CT, 2016.
 
 ******************************************
 Gaussian 16:  EM64L-G16RevA.03 25-Dec-2016
                 5-Jul-2021 
 ******************************************
 %chk=IsoP_rdkit_005_gaussian.chk
 %nproc=6
 Will use up to    6 processors via shared memory.
 %mem=4000Mb
 -----------------------------
 #p opt=loose m062x/6-31g(d,p)
 -----------------------------
 1/7=-1,18=20,19=15,26=3,38=1/1,3;
 2/9=110,12=2,17=6,18=5,40=1/2;
 3/5=1,6=6,7=101,11=2,25=1,30=1,71=1,74=-55/1,2,3;
 4//1;
 5/5=2,38=5/2;
 6/7=2,8=2,9=2,10=2,28=1/1;
 7//1,2,3,16;
 1/7=-1,18=20,19=15,26=3/3(2);
 2/9=110/2;
 99//99;
 2/9=110/2;
 3/5=1,6=6,7=101,11=2,25=1,30=1,71=1,74=-55/1,2,3;
 4/5=5,16=3,69=1/1;
 5/5=2,38=5/2;
 7//1,2,3,16;
 1/7=-1,18=20,19=15,26=3/3(-5);
 2/9=110/2;
 6/7=2,8=2,9=2,10=2,19=2,28=1/1;
 99/9=1/99;
 Leave Link    1 at Mon Jul  5 22:58:48 2021, MaxMem=   524288000 cpu:               0.2 elap:               0.1
 (Enter /opt/gaussian/g16_legacy/l101.exe)
 -------------------------------------------------
 Conformer number 005. Energy MM = 23.242 kcal/mol
 -------------------------------------------------
 Symbolic Z-matrix:
 Charge =  0 Multiplicity = 1
 C                    -0.6864   -0.057    -0.8449 
 H                    -0.4713   -1.0865   -0.5342 
 H                    -0.4614   -0.0346   -1.9197 
 C                    -2.1523    0.2657   -0.6407 
 C                    -2.7161    1.2982   -1.5828 
 H                    -2.6127    0.9625   -2.6199 
 H                    -3.7792    1.4889   -1.4014 
 H                    -2.1864    2.2493   -1.4699 
 C                    -2.9384   -0.319     0.2849 
 H                    -3.9882   -0.031     0.3345 
 C                    -2.5394   -1.3355    1.3076 
 H                    -1.4615   -1.505     1.3561 
 H                    -3.0308   -2.2896    1.0945 
 H                    -2.8612   -1.0005    2.299 
 C                     3.968    -0.2524    0.1564 
 H                     4.1961   -1.3232    0.1442 
 H                     4.2077    0.1499   -0.8335 
 H                     4.6269    0.2363    0.8817 
 C                     2.5259   -0.0297    0.5309 
 C                     2.1506   -0.558     1.8881 
 H                     1.0785   -0.5096    2.0917 
 H                     2.4419   -1.6104    1.9752 
 H                     2.6686    0.0084    2.6687 
 C                     1.6821    0.5855   -0.3206 
 H                     2.0657    0.9095   -1.2882 
 C                     0.2304    0.9161   -0.097 
 H                    -0.0187    0.931     0.9691 
 H                     0.062     1.9406   -0.4524 
 
 ITRead=  0  0  0  0  0  0  0  0  0  0  0  0  0  0  0  0  0  0  0  0
 ITRead=  0  0  0  0  0  0  0  0
 MicOpt= -1 -1 -1 -1 -1 -1 -1 -1 -1 -1 -1 -1 -1 -1 -1 -1 -1 -1 -1 -1
 MicOpt= -1 -1 -1 -1 -1 -1 -1 -1
 NAtoms=     28 NQM=       28 NQMF=       0 NMMI=      0 NMMIF=      0
                NMic=       0 NMicF=      0.
                    Isotopes and Nuclear Properties:
 (Nuclear quadrupole moments (NQMom) in fm**2, nuclear magnetic moments (NMagM)
  in nuclear magnetons)

  Atom         1           2           3           4           5           6           7           8           9          10
 IAtWgt=          12           1           1          12          12           1           1           1          12           1
 AtmWgt=  12.0000000   1.0078250   1.0078250  12.0000000  12.0000000   1.0078250   1.0078250   1.0078250  12.0000000   1.0078250
 NucSpn=           0           1           1           0           0           1           1           1           0           1
 AtZEff=  -0.0000000  -0.0000000  -0.0000000  -0.0000000  -0.0000000  -0.0000000  -0.0000000  -0.0000000  -0.0000000  -0.0000000
 NQMom=    0.0000000   0.0000000   0.0000000   0.0000000   0.0000000   0.0000000   0.0000000   0.0000000   0.0000000   0.0000000
 NMagM=    0.0000000   2.7928460   2.7928460   0.0000000   0.0000000   2.7928460   2.7928460   2.7928460   0.0000000   2.7928460
 AtZNuc=   6.0000000   1.0000000   1.0000000   6.0000000   6.0000000   1.0000000   1.0000000   1.0000000   6.0000000   1.0000000

  Atom        11          12          13          14          15          16          17          18          19          20
 IAtWgt=          12           1           1           1          12           1           1           1          12          12
 AtmWgt=  12.0000000   1.0078250   1.0078250   1.0078250  12.0000000   1.0078250   1.0078250   1.0078250  12.0000000  12.0000000
 NucSpn=           0           1           1           1           0           1           1           1           0           0
 AtZEff=  -0.0000000  -0.0000000  -0.0000000  -0.0000000  -0.0000000  -0.0000000  -0.0000000  -0.0000000  -0.0000000  -0.0000000
 NQMom=    0.0000000   0.0000000   0.0000000   0.0000000   0.0000000   0.0000000   0.0000000   0.0000000   0.0000000   0.0000000
 NMagM=    0.0000000   2.7928460   2.7928460   2.7928460   0.0000000   2.7928460   2.7928460   2.7928460   0.0000000   0.0000000
 AtZNuc=   6.0000000   1.0000000   1.0000000   1.0000000   6.0000000   1.0000000   1.0000000   1.0000000   6.0000000   6.0000000

  Atom        21          22          23          24          25          26          27          28
 IAtWgt=           1           1           1          12           1          12           1           1
 AtmWgt=   1.0078250   1.0078250   1.0078250  12.0000000   1.0078250  12.0000000   1.0078250   1.0078250
 NucSpn=           1           1           1           0           1           0           1           1
 AtZEff=  -0.0000000  -0.0000000  -0.0000000  -0.0000000  -0.0000000  -0.0000000  -0.0000000  -0.0000000
 NQMom=    0.0000000   0.0000000   0.0000000   0.0000000   0.0000000   0.0000000   0.0000000   0.0000000
 NMagM=    2.7928460   2.7928460   2.7928460   0.0000000   2.7928460   0.0000000   2.7928460   2.7928460
 AtZNuc=   1.0000000   1.0000000   1.0000000   6.0000000   1.0000000   6.0000000   1.0000000   1.0000000
 Leave Link  101 at Mon Jul  5 22:58:48 2021, MaxMem=   524288000 cpu:               0.7 elap:               0.1
 (Enter /opt/gaussian/g16_legacy/l103.exe)

 GradGradGradGradGradGradGradGradGradGradGradGradGradGradGradGradGradGrad
 Berny optimization.
 Initialization pass.
                           ----------------------------
                           !    Initial Parameters    !
                           ! (Angstroms and Degrees)  !
 --------------------------                            --------------------------
 ! Name  Definition              Value          Derivative Info.                !
 --------------------------------------------------------------------------------
 ! R1    R(1,2)                  1.0967         estimate D2E/DX2                !
 ! R2    R(1,3)                  1.0983         estimate D2E/DX2                !
 ! R3    R(1,4)                  1.5148         estimate D2E/DX2                !
 ! R4    R(1,26)                 1.5319         estimate D2E/DX2                !
 ! R5    R(4,5)                  1.5071         estimate D2E/DX2                !
 ! R6    R(4,9)                  1.3478         estimate D2E/DX2                !
 ! R7    R(5,6)                  1.095          estimate D2E/DX2                !
 ! R8    R(5,7)                  1.0952         estimate D2E/DX2                !
 ! R9    R(5,8)                  1.0945         estimate D2E/DX2                !
 ! R10   R(9,10)                 1.0897         estimate D2E/DX2                !
 ! R11   R(9,11)                 1.4961         estimate D2E/DX2                !
 ! R12   R(11,12)                1.0922         estimate D2E/DX2                !
 ! R13   R(11,13)                1.0942         estimate D2E/DX2                !
 ! R14   R(11,14)                1.0948         estimate D2E/DX2                !
 ! R15   R(15,16)                1.0949         estimate D2E/DX2                !
 ! R16   R(15,17)                1.0951         estimate D2E/DX2                !
 ! R17   R(15,18)                1.095          estimate D2E/DX2                !
 ! R18   R(15,19)                1.5065         estimate D2E/DX2                !
 ! R19   R(19,20)                1.504          estimate D2E/DX2                !
 ! R20   R(19,24)                1.3474         estimate D2E/DX2                !
 ! R21   R(20,21)                1.0923         estimate D2E/DX2                !
 ! R22   R(20,22)                1.0954         estimate D2E/DX2                !
 ! R23   R(20,23)                1.0947         estimate D2E/DX2                !
 ! R24   R(24,25)                1.0901         estimate D2E/DX2                !
 ! R25   R(24,26)                1.5056         estimate D2E/DX2                !
 ! R26   R(26,27)                1.0949         estimate D2E/DX2                !
 ! R27   R(26,28)                1.0974         estimate D2E/DX2                !
 ! A1    A(2,1,3)              104.8453         estimate D2E/DX2                !
 ! A2    A(2,1,4)              110.5849         estimate D2E/DX2                !
 ! A3    A(2,1,26)             109.9141         estimate D2E/DX2                !
 ! A4    A(3,1,4)              109.0146         estimate D2E/DX2                !
 ! A5    A(3,1,26)             110.0108         estimate D2E/DX2                !
 ! A6    A(4,1,26)             112.2101         estimate D2E/DX2                !
 ! A7    A(1,4,5)              115.0671         estimate D2E/DX2                !
 ! A8    A(1,4,9)              124.3723         estimate D2E/DX2                !
 ! A9    A(5,4,9)              120.5502         estimate D2E/DX2                !
 ! A10   A(4,5,6)              110.2854         estimate D2E/DX2                !
 ! A11   A(4,5,7)              112.264          estimate D2E/DX2                !
 ! A12   A(4,5,8)              110.4746         estimate D2E/DX2                !
 ! A13   A(6,5,7)              107.5733         estimate D2E/DX2                !
 ! A14   A(6,5,8)              108.5671         estimate D2E/DX2                !
 ! A15   A(7,5,8)              107.541          estimate D2E/DX2                !
 ! A16   A(4,9,10)             118.5866         estimate D2E/DX2                !
 ! A17   A(4,9,11)             127.4911         estimate D2E/DX2                !
 ! A18   A(10,9,11)            113.9143         estimate D2E/DX2                !
 ! A19   A(9,11,12)            113.5147         estimate D2E/DX2                !
 ! A20   A(9,11,13)            109.8492         estimate D2E/DX2                !
 ! A21   A(9,11,14)            109.4333         estimate D2E/DX2                !
 ! A22   A(12,11,13)           108.4542         estimate D2E/DX2                !
 ! A23   A(12,11,14)           107.2984         estimate D2E/DX2                !
 ! A24   A(13,11,14)           108.1298         estimate D2E/DX2                !
 ! A25   A(16,15,17)           107.6747         estimate D2E/DX2                !
 ! A26   A(16,15,18)           108.5722         estimate D2E/DX2                !
 ! A27   A(16,15,19)           110.29           estimate D2E/DX2                !
 ! A28   A(17,15,18)           107.6428         estimate D2E/DX2                !
 ! A29   A(17,15,19)           112.33           estimate D2E/DX2                !
 ! A30   A(18,15,19)           110.205          estimate D2E/DX2                !
 ! A31   A(15,19,20)           114.2851         estimate D2E/DX2                !
 ! A32   A(15,19,24)           120.6551         estimate D2E/DX2                !
 ! A33   A(20,19,24)           125.0569         estimate D2E/DX2                !
 ! A34   A(19,20,21)           113.4252         estimate D2E/DX2                !
 ! A35   A(19,20,22)           110.0513         estimate D2E/DX2                !
 ! A36   A(19,20,23)           110.0989         estimate D2E/DX2                !
 ! A37   A(21,20,22)           106.7827         estimate D2E/DX2                !
 ! A38   A(21,20,23)           107.9734         estimate D2E/DX2                !
 ! A39   A(22,20,23)           108.3326         estimate D2E/DX2                !
 ! A40   A(19,24,25)           118.4414         estimate D2E/DX2                !
 ! A41   A(19,24,26)           127.6065         estimate D2E/DX2                !
 ! A42   A(25,24,26)           113.9448         estimate D2E/DX2                !
 ! A43   A(1,26,24)            111.4113         estimate D2E/DX2                !
 ! A44   A(1,26,27)            110.3559         estimate D2E/DX2                !
 ! A45   A(1,26,28)            110.0642         estimate D2E/DX2                !
 ! A46   A(24,26,27)           111.5284         estimate D2E/DX2                !
 ! A47   A(24,26,28)           107.7501         estimate D2E/DX2                !
 ! A48   A(27,26,28)           105.5286         estimate D2E/DX2                !
 ! D1    D(2,1,4,5)           -151.4156         estimate D2E/DX2                !
 ! D2    D(2,1,4,9)             27.414          estimate D2E/DX2                !
 ! D3    D(3,1,4,5)            -36.6499         estimate D2E/DX2                !
 ! D4    D(3,1,4,9)            142.1796         estimate D2E/DX2                !
 ! D5    D(26,1,4,5)            85.4676         estimate D2E/DX2                !
 ! D6    D(26,1,4,9)           -95.7028         estimate D2E/DX2                !
 ! D7    D(2,1,26,24)           56.9378         estimate D2E/DX2                !
 ! D8    D(2,1,26,27)          -67.5274         estimate D2E/DX2                !
 ! D9    D(2,1,26,28)          176.3997         estimate D2E/DX2                !
 ! D10   D(3,1,26,24)          -58.0197         estimate D2E/DX2                !
 ! D11   D(3,1,26,27)          177.515          estimate D2E/DX2                !
 ! D12   D(3,1,26,28)           61.4421         estimate D2E/DX2                !
 ! D13   D(4,1,26,24)         -179.5687         estimate D2E/DX2                !
 ! D14   D(4,1,26,27)           55.966          estimate D2E/DX2                !
 ! D15   D(4,1,26,28)          -60.1068         estimate D2E/DX2                !
 ! D16   D(1,4,5,6)             59.4971         estimate D2E/DX2                !
 ! D17   D(1,4,5,7)            179.4404         estimate D2E/DX2                !
 ! D18   D(1,4,5,8)            -60.5273         estimate D2E/DX2                !
 ! D19   D(9,4,5,6)           -119.3811         estimate D2E/DX2                !
 ! D20   D(9,4,5,7)              0.5622         estimate D2E/DX2                !
 ! D21   D(9,4,5,8)            120.5944         estimate D2E/DX2                !
 ! D22   D(1,4,9,10)          -178.6044         estimate D2E/DX2                !
 ! D23   D(1,4,9,11)             2.4858         estimate D2E/DX2                !
 ! D24   D(5,4,9,10)             0.1645         estimate D2E/DX2                !
 ! D25   D(5,4,9,11)          -178.7453         estimate D2E/DX2                !
 ! D26   D(4,9,11,12)            7.9207         estimate D2E/DX2                !
 ! D27   D(4,9,11,13)         -113.6865         estimate D2E/DX2                !
 ! D28   D(4,9,11,14)          127.7474         estimate D2E/DX2                !
 ! D29   D(10,9,11,12)        -171.0322         estimate D2E/DX2                !
 ! D30   D(10,9,11,13)          67.3607         estimate D2E/DX2                !
 ! D31   D(10,9,11,14)         -51.2054         estimate D2E/DX2                !
 ! D32   D(16,15,19,20)         60.2595         estimate D2E/DX2                !
 ! D33   D(16,15,19,24)       -119.1598         estimate D2E/DX2                !
 ! D34   D(17,15,19,20)       -179.6216         estimate D2E/DX2                !
 ! D35   D(17,15,19,24)          0.9591         estimate D2E/DX2                !
 ! D36   D(18,15,19,20)        -59.6016         estimate D2E/DX2                !
 ! D37   D(18,15,19,24)        120.979          estimate D2E/DX2                !
 ! D38   D(15,19,20,21)       -172.335          estimate D2E/DX2                !
 ! D39   D(15,19,20,22)        -52.7893         estimate D2E/DX2                !
 ! D40   D(15,19,20,23)         66.5577         estimate D2E/DX2                !
 ! D41   D(24,19,20,21)          7.0548         estimate D2E/DX2                !
 ! D42   D(24,19,20,22)        126.6004         estimate D2E/DX2                !
 ! D43   D(24,19,20,23)       -114.0526         estimate D2E/DX2                !
 ! D44   D(15,19,24,25)          0.522          estimate D2E/DX2                !
 ! D45   D(15,19,24,26)       -178.4306         estimate D2E/DX2                !
 ! D46   D(20,19,24,25)       -178.8314         estimate D2E/DX2                !
 ! D47   D(20,19,24,26)          2.216          estimate D2E/DX2                !
 ! D48   D(19,24,26,1)        -103.3666         estimate D2E/DX2                !
 ! D49   D(19,24,26,27)         20.4368         estimate D2E/DX2                !
 ! D50   D(19,24,26,28)        135.8065         estimate D2E/DX2                !
 ! D51   D(25,24,26,1)          77.6411         estimate D2E/DX2                !
 ! D52   D(25,24,26,27)       -158.5555         estimate D2E/DX2                !
 ! D53   D(25,24,26,28)        -43.1858         estimate D2E/DX2                !
 --------------------------------------------------------------------------------
 Trust Radius=3.00D-01 FncErr=1.00D-07 GrdErr=1.00D-06 EigMax=2.50D+02 EigMin=1.00D-04
 Number of steps in this run=    138 maximum allowed number of steps=    168.
 GradGradGradGradGradGradGradGradGradGradGradGradGradGradGradGradGradGrad

 Leave Link  103 at Mon Jul  5 22:58:48 2021, MaxMem=   524288000 cpu:               0.1 elap:               0.1
 (Enter /opt/gaussian/g16_legacy/l202.exe)
                          Input orientation:                          
 ---------------------------------------------------------------------
 Center     Atomic      Atomic             Coordinates (Angstroms)
 Number     Number       Type             X           Y           Z
 ---------------------------------------------------------------------
      1          6           0       -0.686400   -0.057000   -0.844900
      2          1           0       -0.471300   -1.086500   -0.534200
      3          1           0       -0.461400   -0.034600   -1.919700
      4          6           0       -2.152300    0.265700   -0.640700
      5          6           0       -2.716100    1.298200   -1.582800
      6          1           0       -2.612700    0.962500   -2.619900
      7          1           0       -3.779200    1.488900   -1.401400
      8          1           0       -2.186400    2.249300   -1.469900
      9          6           0       -2.938400   -0.319000    0.284900
     10          1           0       -3.988200   -0.031000    0.334500
     11          6           0       -2.539400   -1.335500    1.307600
     12          1           0       -1.461500   -1.505000    1.356100
     13          1           0       -3.030800   -2.289600    1.094500
     14          1           0       -2.861200   -1.000500    2.299000
     15          6           0        3.968000   -0.252400    0.156400
     16          1           0        4.196100   -1.323200    0.144200
     17          1           0        4.207700    0.149900   -0.833500
     18          1           0        4.626900    0.236300    0.881700
     19          6           0        2.525900   -0.029700    0.530900
     20          6           0        2.150600   -0.558000    1.888100
     21          1           0        1.078500   -0.509600    2.091700
     22          1           0        2.441900   -1.610400    1.975200
     23          1           0        2.668600    0.008400    2.668700
     24          6           0        1.682100    0.585500   -0.320600
     25          1           0        2.065700    0.909500   -1.288200
     26          6           0        0.230400    0.916100   -0.097000
     27          1           0       -0.018700    0.931000    0.969100
     28          1           0        0.062000    1.940600   -0.452400
 ---------------------------------------------------------------------
                    Distance matrix (angstroms):
                    1          2          3          4          5
     1  C    0.000000
     2  H    1.096664   0.000000
     3  H    1.098327   1.739598   0.000000
     4  C    1.514825   2.159988   2.141300   0.000000
     5  C    2.549656   3.438820   2.640744   1.507143   0.000000
     6  H    2.810807   3.624105   2.472363   2.148193   1.094971
     7  H    3.502129   4.280996   3.687477   2.172944   1.095196
     8  H    2.821284   3.865833   2.897265   2.150210   1.094495
     9  C    2.533100   2.710454   3.328164   1.347799   2.480536
    10  H    3.506215   3.773235   4.185660   2.099899   2.657264
    11  C    3.114711   2.780515   4.052887   2.551384   3.914334
    12  H    2.746249   2.174597   3.727351   2.756772   4.250775
    13  H    3.773856   3.263611   4.557658   3.211268   4.487681
    14  H    3.937519   3.707565   4.948680   3.278359   4.513695
    15  C    4.764895   4.569468   4.896653   6.193696   7.078585
    16  H    5.140077   4.722380   5.254758   6.591119   7.591625
    17  H    4.898485   4.848846   4.797329   6.363975   7.058261
    18  H    5.594491   5.454009   5.814811   6.948102   7.817995
    19  C    3.494630   3.351786   3.863861   4.831714   5.805998
    20  C    3.971002   3.608491   4.647132   5.058484   6.259185
    21  H    3.455914   3.103231   4.322991   4.301763   5.582928
    22  H    4.489129   3.880502   5.107107   5.609756   6.908276
    23  H    4.858568   4.616963   5.554472   5.853154   6.980962
    24  C    2.509480   2.734655   2.745221   3.861005   4.630902
    25  H    2.950371   3.314951   2.770623   4.315699   4.806609
    26  C    1.531927   2.166549   2.169021   2.529010   3.321967
    27  H    2.170844   2.556377   3.077910   2.754329   3.731353
    28  H    2.169001   3.074806   2.515618   2.782781   3.067299
                    6          7          8          9         10
     6  H    0.000000
     7  H    1.767077   0.000000
     8  H    1.777663   1.766327   0.000000
     9  C    3.191580   2.611332   3.200155   0.000000
    10  H    3.406981   2.316706   3.420835   1.089717   0.000000
    11  C    4.550982   4.105243   4.548616   1.496125   2.178914
    12  H    4.818962   4.683906   4.754632   2.176074   3.098476
    13  H    4.954567   4.589845   5.281171   2.132429   2.568168
    14  H    5.301952   4.553328   5.022068   2.127675   2.463599
    15  C    7.244959   8.091846   6.839590   6.907916   7.961272
    16  H    7.695741   8.596639   7.490286   7.206199   8.287868
    17  H    7.097140   8.118251   6.759956   7.248271   8.280684
    18  H    8.074675   8.800231   7.483532   7.609093   8.636598
    19  C    6.108782   6.767142   5.603821   5.477480   6.517060
    20  C    6.732237   7.083300   6.161710   5.340907   6.354232
    21  H    6.163701   6.308169   5.563820   4.408666   5.384075
    22  H    7.299571   7.727171   6.941697   5.785539   6.821480
    23  H    7.534701   7.767350   6.761706   6.101487   7.054291
    24  C    4.886125   5.640041   4.365136   4.746975   5.741213
    25  H    4.864531   5.874638   4.461887   5.387474   6.337776
    26  C    3.801368   4.255168   3.082726   3.422370   4.345086
    27  H    4.428403   4.480166   3.519312   3.248889   4.133412
    28  H    3.578932   3.982393   2.487148   3.827767   4.572804
                   11         12         13         14         15
    11  C    0.000000
    12  H    1.092223   0.000000
    13  H    1.094163   1.773904   0.000000
    14  H    1.094831   1.761460   1.772389   0.000000
    15  C    6.696613   5.699803   7.349382   7.196413   0.000000
    16  H    6.835248   5.788799   7.352896   7.385985   1.094893
    17  H    7.232847   6.298640   7.878085   7.816989   1.095081
    18  H    7.349000   6.350259   8.066339   7.720755   1.095005
    19  C    5.288255   4.330915   6.025090   5.752345   1.506485
    20  C    4.789320   3.771883   5.520430   5.048048   2.528857
    21  H    3.792904   2.825514   4.587936   3.975574   3.487226
    22  H    5.033350   3.953597   5.584567   5.347868   2.735174
    23  H    5.548146   4.590319   6.343664   5.633227   2.840442
    24  C    4.915520   4.130827   5.699135   5.478985   2.480916
    25  H    5.743270   5.026258   6.471925   6.386740   2.656243
    26  C    3.835935   3.291770   4.725633   4.355705   3.924189
    27  H    3.406689   2.857540   4.411432   3.684987   4.237298
    28  H    4.538470   4.178981   5.463781   4.976482   4.520699
                   16         17         18         19         20
    16  H    0.000000
    17  H    1.768065   0.000000
    18  H    1.778071   1.767797   0.000000
    19  C    2.147614   2.173084   2.146629   0.000000
    20  C    2.794779   3.484234   2.788515   1.503976   0.000000
    21  H    3.764855   4.334008   3.822513   2.182056   1.092334
    22  H    2.551913   3.755729   3.062722   2.142818   1.095440
    23  H    3.237208   3.828088   2.660873   2.142896   1.094746
    24  C    3.190513   2.613708   3.199893   1.347413   2.530897
    25  H    3.402253   2.317738   3.423654   2.098334   3.499949
    26  C    4.560638   4.116845   4.555128   2.560882   3.130617
    27  H    4.850404   4.660680   4.698068   2.754987   2.787031
    28  H    5.300859   4.531961   5.052007   3.304507   4.010386
                   21         22         23         24         25
    21  H    0.000000
    22  H    1.756187   0.000000
    23  H    1.769088   1.775626   0.000000
    24  C    2.717125   3.266492   3.200335   0.000000
    25  H    3.796331   4.140193   4.102746   1.090126   0.000000
    26  C    2.746325   3.945624   3.797082   1.505565   2.187996
    27  H    2.130588   3.677704   3.310802   2.162271   3.072554
    28  H    3.675486   4.915971   4.502113   2.116221   2.403444
                   26         27         28
    26  C    0.000000
    27  H    1.094916   0.000000
    28  H    1.097391   1.745413   0.000000
 Stoichiometry    C10H18
 Framework group  C1[X(C10H18)]
 Deg. of freedom    78
 Full point group                 C1      NOp   1
 Largest Abelian subgroup         C1      NOp   1
 Largest concise Abelian subgroup C1      NOp   1
                         Standard orientation:                         
 ---------------------------------------------------------------------
 Center     Atomic      Atomic             Coordinates (Angstroms)
 Number     Number       Type             X           Y           Z
 ---------------------------------------------------------------------
      1          6           0       -0.793778   -0.586527    0.589131
      2          1           0       -0.484597    0.235344    1.246101
      3          1           0       -0.745957   -1.484311    1.220018
      4          6           0       -2.220914   -0.386974    0.122058
      5          6           0       -2.975636   -1.654980   -0.184594
      6          1           0       -3.025247   -2.291756    0.704798
      7          1           0       -4.003280   -1.458265   -0.508176
      8          1           0       -2.478754   -2.212228   -0.984908
      9          6           0       -2.820208    0.813908   -0.001596
     10          1           0       -3.860404    0.846740   -0.324704
     11          6           0       -2.215723    2.161914    0.234767
     12          1           0       -1.137457    2.131987    0.406225
     13          1           0       -2.690835    2.635768    1.099015
     14          1           0       -2.388757    2.797171   -0.639968
     15          6           0        3.965099   -0.407919    0.429738
     16          1           0        4.237018    0.181235    1.311639
     17          1           0        4.023694   -1.466022    0.705758
     18          1           0        4.709080   -0.227481   -0.353187
     19          6           0        2.593412   -0.018267   -0.056209
     20          6           0        2.466009    1.425955   -0.456125
     21          1           0        1.439577    1.725939   -0.678925
     22          1           0        2.815377    2.072783    0.355999
     23          1           0        3.076421    1.626101   -1.342583
     24          6           0        1.596314   -0.923596   -0.097404
     25          1           0        1.803952   -1.940202    0.236921
     26          6           0        0.185939   -0.715617   -0.581463
     27          1           0        0.111250    0.156963   -1.238630
     28          1           0       -0.084166   -1.577154   -1.205213
 ---------------------------------------------------------------------
 Rotational constants (GHZ):           2.2180769           0.5802319           0.4854226
 Leave Link  202 at Mon Jul  5 22:58:48 2021, MaxMem=   524288000 cpu:               0.1 elap:               0.1
 (Enter /opt/gaussian/g16_legacy/l301.exe)
 Standard basis: 6-31G(d,p) (6D, 7F)
 Ernie: Thresh=  0.10000D-02 Tol=  0.10000D-05 Strict=F.
 There are   240 symmetry adapted cartesian basis functions of A   symmetry.
 There are   240 symmetry adapted basis functions of A   symmetry.
   240 basis functions,   406 primitive gaussians,   240 cartesian basis functions
    39 alpha electrons       39 beta electrons
       nuclear repulsion energy       516.4341778584 Hartrees.
 IExCor= 4336 DFT=T Ex+Corr=M062X ExCW=0 ScaHFX=  0.540000
 ScaDFX=  1.000000  1.000000  1.000000  1.000000 ScalE2=  1.000000  1.000000
 IRadAn=      5 IRanWt=     -1 IRanGd=            0 ICorTp=0 IEmpDi=  4
 NAtoms=   28 NActive=   28 NUniq=   28 SFac= 1.00D+00 NAtFMM=   60 NAOKFM=F Big=F
 Integral buffers will be    131072 words long.
 Raffenetti 2 integral format.
 Two-electron integral symmetry is turned on.
 Leave Link  301 at Mon Jul  5 22:58:49 2021, MaxMem=   524288000 cpu:               0.3 elap:               0.3
 (Enter /opt/gaussian/g16_legacy/l302.exe)
 NPDir=0 NMtPBC=     1 NCelOv=     1 NCel=       1 NClECP=     1 NCelD=      1
         NCelK=      1 NCelE2=     1 NClLst=     1 CellRange=     0.0.
 One-electron integrals computed using PRISM.
 One-electron integral symmetry used in STVInt
 NBasis=   240 RedAO= T EigKep=  2.10D-03  NBF=   240
 NBsUse=   240 1.00D-06 EigRej= -1.00D+00 NBFU=   240
 Precomputing XC quadrature grid using
 IXCGrd= 4 IRadAn=           5 IRanWt=          -1 IRanGd=           0 AccXCQ= 0.00D+00.
 Generated NRdTot=       0 NPtTot=           0 NUsed=           0 NTot=          32
 NSgBfM=   240   240   240   240   240 MxSgAt=    28 MxSgA2=    28.
 Leave Link  302 at Mon Jul  5 22:58:49 2021, MaxMem=   524288000 cpu:               2.7 elap:               0.6
 (Enter /opt/gaussian/g16_legacy/l303.exe)
 DipDrv:  MaxL=1.
 Leave Link  303 at Mon Jul  5 22:58:50 2021, MaxMem=   524288000 cpu:               0.2 elap:               0.1
 (Enter /opt/gaussian/g16_legacy/l401.exe)
 ExpMin= 1.61D-01 ExpMax= 3.05D+03 ExpMxC= 4.57D+02 IAcc=3 IRadAn=         5 AccDes= 0.00D+00
 Harris functional with IExCor= 1009 and IRadAn=       5 diagonalized for initial guess.
 HarFok:  IExCor= 1009 AccDes= 0.00D+00 IRadAn=         5 IDoV= 1 UseB2=F ITyADJ=14
 ICtDFT=  3500011 ScaDFX=  1.000000  1.000000  1.000000  1.000000
 FoFCou: FMM=F IPFlag=           0 FMFlag=      100000 FMFlg1=           0
         NFxFlg=           0 DoJE=T BraDBF=F KetDBF=T FulRan=T
         wScrn=  0.000000 ICntrl=       500 IOpCl=  0 I1Cent=   200000004 NGrid=           0
         NMat0=    1 NMatS0=      1 NMatT0=    0 NMatD0=    1 NMtDS0=    0 NMtDT0=    0
 Petite list used in FoFCou.
 Harris En= -391.655443714946    
 JPrj=0 DoOrth=F DoCkMO=F.
 Leave Link  401 at Mon Jul  5 22:58:52 2021, MaxMem=   524288000 cpu:              12.3 elap:               2.2
 (Enter /opt/gaussian/g16_legacy/l502.exe)
 Integral symmetry usage will be decided dynamically.
 Closed shell SCF:
 Using DIIS extrapolation, IDIIS=  1040.
 NGot=   524288000 LenX=   524168546 LenY=   524110505
 Requested convergence on RMS density matrix=1.00D-08 within 128 cycles.
 Requested convergence on MAX density matrix=1.00D-06.
 Requested convergence on             energy=1.00D-06.
 No special actions if energy rises.
 Fock matrices will be formed incrementally for  20 cycles.
 Integral accuracy reduced to 1.0D-05 until final iterations.

 Cycle   1  Pass 0  IDiag  1:
 FoFJK:  IHMeth= 1 ICntrl=       0 DoSepK=F KAlg= 0 I1Cent=           0 FoldK=F
 IRaf= 860000000 NMat=       1 IRICut=       1 DoRegI=T DoRafI=F ISym2E= 0 IDoP0=0 IntGTp=1.
 FoFCou: FMM=F IPFlag=           0 FMFlag=      100000 FMFlg1=           0
         NFxFlg=           0 DoJE=F BraDBF=F KetDBF=F FulRan=T
         wScrn=  0.000000 ICntrl=         0 IOpCl=  0 I1Cent=           0 NGrid=           0
         NMat0=    1 NMatS0=      1 NMatT0=    0 NMatD0=    1 NMtDS0=    0 NMtDT0=    0
 Symmetry not used in FoFCou.
 E= -391.299480869099    
 DIIS: error= 3.62D-02 at cycle   1 NSaved=   1.
 NSaved= 1 IEnMin= 1 EnMin= -391.299480869099     IErMin= 1 ErrMin= 3.62D-02
 ErrMax= 3.62D-02  0.00D+00 EMaxC= 1.00D-01 BMatC= 3.69D-01 BMatP= 3.69D-01
 IDIUse=3 WtCom= 6.38D-01 WtEn= 3.62D-01
 Coeff-Com:  0.100D+01
 Coeff-En:   0.100D+01
 Coeff:      0.100D+01
 Gap=     0.340 Goal=   None    Shift=    0.000
 GapD=    0.340 DampG=1.000 DampE=0.500 DampFc=0.5000 IDamp=-1.
 Damping current iteration by 5.00D-01
 RMSDP=4.37D-03 MaxDP=1.14D-01              OVMax= 1.41D-01

 Cycle   2  Pass 0  IDiag  1:
 RMSU=  2.14D-03    CP:  9.75D-01
 E= -391.508207390814     Delta-E=       -0.208726521714 Rises=F Damp=T
 DIIS: error= 9.76D-03 at cycle   2 NSaved=   2.
 NSaved= 2 IEnMin= 2 EnMin= -391.508207390814     IErMin= 2 ErrMin= 9.76D-03
 ErrMax= 9.76D-03  0.00D+00 EMaxC= 1.00D-01 BMatC= 2.10D-02 BMatP= 3.69D-01
 IDIUse=3 WtCom= 9.02D-01 WtEn= 9.76D-02
 Coeff-Com: -0.153D+00 0.115D+01
 Coeff-En:   0.000D+00 0.100D+01
 Coeff:     -0.138D+00 0.114D+01
 Gap=     0.374 Goal=   None    Shift=    0.000
 RMSDP=8.31D-04 MaxDP=2.64D-02 DE=-2.09D-01 OVMax= 6.20D-02

 Cycle   3  Pass 0  IDiag  1:
 RMSU=  7.85D-04    CP:  9.69D-01  1.12D+00
 E= -391.687881437756     Delta-E=       -0.179674046943 Rises=F Damp=F
 DIIS: error= 1.35D-03 at cycle   3 NSaved=   3.
 NSaved= 3 IEnMin= 3 EnMin= -391.687881437756     IErMin= 3 ErrMin= 1.35D-03
 ErrMax= 1.35D-03  0.00D+00 EMaxC= 1.00D-01 BMatC= 6.06D-04 BMatP= 2.10D-02
 IDIUse=3 WtCom= 9.86D-01 WtEn= 1.35D-02
 Coeff-Com: -0.271D-01 0.123D+00 0.904D+00
 Coeff-En:   0.000D+00 0.000D+00 0.100D+01
 Coeff:     -0.267D-01 0.121D+00 0.906D+00
 Gap=     0.338 Goal=   None    Shift=    0.000
 RMSDP=1.86D-04 MaxDP=5.90D-03 DE=-1.80D-01 OVMax= 7.15D-03

 Cycle   4  Pass 0  IDiag  1:
 RMSU=  1.67D-04    CP:  9.68D-01  1.15D+00  9.36D-01
 E= -391.688275855851     Delta-E=       -0.000394418094 Rises=F Damp=F
 DIIS: error= 6.83D-04 at cycle   4 NSaved=   4.
 NSaved= 4 IEnMin= 4 EnMin= -391.688275855851     IErMin= 4 ErrMin= 6.83D-04
 ErrMax= 6.83D-04  0.00D+00 EMaxC= 1.00D-01 BMatC= 2.12D-04 BMatP= 6.06D-04
 IDIUse=3 WtCom= 9.93D-01 WtEn= 6.83D-03
 Coeff-Com: -0.598D-02 0.232D-01 0.378D+00 0.605D+00
 Coeff-En:   0.000D+00 0.000D+00 0.169D+00 0.831D+00
 Coeff:     -0.594D-02 0.231D-01 0.377D+00 0.606D+00
 Gap=     0.338 Goal=   None    Shift=    0.000
 RMSDP=8.16D-05 MaxDP=2.60D-03 DE=-3.94D-04 OVMax= 5.62D-03

 Cycle   5  Pass 0  IDiag  1:
 RMSU=  4.22D-05    CP:  9.68D-01  1.14D+00  9.77D-01  6.35D-01
 E= -391.688469759778     Delta-E=       -0.000193903927 Rises=F Damp=F
 DIIS: error= 2.84D-04 at cycle   5 NSaved=   5.
 NSaved= 5 IEnMin= 5 EnMin= -391.688469759778     IErMin= 5 ErrMin= 2.84D-04
 ErrMax= 2.84D-04  0.00D+00 EMaxC= 1.00D-01 BMatC= 2.40D-05 BMatP= 2.12D-04
 IDIUse=3 WtCom= 9.97D-01 WtEn= 2.84D-03
 Coeff-Com:  0.345D-03-0.121D-02 0.929D-01 0.287D+00 0.621D+00
 Coeff-En:   0.000D+00 0.000D+00 0.000D+00 0.000D+00 0.100D+01
 Coeff:      0.344D-03-0.120D-02 0.927D-01 0.287D+00 0.622D+00
 Gap=     0.338 Goal=   None    Shift=    0.000
 RMSDP=2.29D-05 MaxDP=9.78D-04 DE=-1.94D-04 OVMax= 1.92D-03

 Cycle   6  Pass 0  IDiag  1:
 RMSU=  1.45D-05    CP:  9.68D-01  1.14D+00  9.84D-01  6.97D-01  6.86D-01
 E= -391.688492533992     Delta-E=       -0.000022774214 Rises=F Damp=F
 DIIS: error= 6.72D-05 at cycle   6 NSaved=   6.
 NSaved= 6 IEnMin= 6 EnMin= -391.688492533992     IErMin= 6 ErrMin= 6.72D-05
 ErrMax= 6.72D-05  0.00D+00 EMaxC= 1.00D-01 BMatC= 1.86D-06 BMatP= 2.40D-05
 IDIUse=1 WtCom= 1.00D+00 WtEn= 0.00D+00
 Coeff-Com:  0.878D-03-0.301D-02 0.711D-02 0.764D-01 0.275D+00 0.643D+00
 Coeff:      0.878D-03-0.301D-02 0.711D-02 0.764D-01 0.275D+00 0.643D+00
 Gap=     0.338 Goal=   None    Shift=    0.000
 RMSDP=6.44D-06 MaxDP=2.36D-04 DE=-2.28D-05 OVMax= 5.16D-04

 Initial convergence to 1.0D-05 achieved.  Increase integral accuracy.
 Cycle   7  Pass 1  IDiag  1:
 E= -391.688478239002     Delta-E=        0.000014294990 Rises=F Damp=F
 DIIS: error= 1.93D-05 at cycle   1 NSaved=   1.
 NSaved= 1 IEnMin= 1 EnMin= -391.688478239002     IErMin= 1 ErrMin= 1.93D-05
 ErrMax= 1.93D-05  0.00D+00 EMaxC= 1.00D-01 BMatC= 2.24D-07 BMatP= 2.24D-07
 IDIUse=1 WtCom= 1.00D+00 WtEn= 0.00D+00
 Coeff-Com:  0.100D+01
 Coeff:      0.100D+01
 Gap=     0.338 Goal=   None    Shift=    0.000
 RMSDP=6.44D-06 MaxDP=2.36D-04 DE= 1.43D-05 OVMax= 2.07D-04

 Cycle   8  Pass 1  IDiag  1:
 RMSU=  7.78D-06    CP:  1.00D+00
 E= -391.688478349967     Delta-E=       -0.000000110965 Rises=F Damp=F
 DIIS: error= 1.47D-05 at cycle   2 NSaved=   2.
 NSaved= 2 IEnMin= 2 EnMin= -391.688478349967     IErMin= 2 ErrMin= 1.47D-05
 ErrMax= 1.47D-05  0.00D+00 EMaxC= 1.00D-01 BMatC= 1.24D-07 BMatP= 2.24D-07
 IDIUse=1 WtCom= 1.00D+00 WtEn= 0.00D+00
 Coeff-Com:  0.408D+00 0.592D+00
 Coeff:      0.408D+00 0.592D+00
 Gap=     0.338 Goal=   None    Shift=    0.000
 RMSDP=1.64D-06 MaxDP=6.87D-05 DE=-1.11D-07 OVMax= 1.46D-04

 Cycle   9  Pass 1  IDiag  1:
 RMSU=  1.62D-06    CP:  1.00D+00  9.70D-01
 E= -391.688478455977     Delta-E=       -0.000000106010 Rises=F Damp=F
 DIIS: error= 6.58D-06 at cycle   3 NSaved=   3.
 NSaved= 3 IEnMin= 3 EnMin= -391.688478455977     IErMin= 3 ErrMin= 6.58D-06
 ErrMax= 6.58D-06  0.00D+00 EMaxC= 1.00D-01 BMatC= 1.70D-08 BMatP= 1.24D-07
 IDIUse=1 WtCom= 1.00D+00 WtEn= 0.00D+00
 Coeff-Com:  0.101D-01 0.261D+00 0.729D+00
 Coeff:      0.101D-01 0.261D+00 0.729D+00
 Gap=     0.338 Goal=   None    Shift=    0.000
 RMSDP=6.22D-07 MaxDP=2.42D-05 DE=-1.06D-07 OVMax= 5.69D-05

 Cycle  10  Pass 1  IDiag  1:
 RMSU=  3.76D-07    CP:  1.00D+00  1.01D+00  7.51D-01
 E= -391.688478471417     Delta-E=       -0.000000015440 Rises=F Damp=F
 DIIS: error= 1.92D-06 at cycle   4 NSaved=   4.
 NSaved= 4 IEnMin= 4 EnMin= -391.688478471417     IErMin= 4 ErrMin= 1.92D-06
 ErrMax= 1.92D-06  0.00D+00 EMaxC= 1.00D-01 BMatC= 1.84D-09 BMatP= 1.70D-08
 IDIUse=1 WtCom= 1.00D+00 WtEn= 0.00D+00
 Coeff-Com: -0.205D-01 0.950D-01 0.369D+00 0.557D+00
 Coeff:     -0.205D-01 0.950D-01 0.369D+00 0.557D+00
 Gap=     0.338 Goal=   None    Shift=    0.000
 RMSDP=1.87D-07 MaxDP=5.96D-06 DE=-1.54D-08 OVMax= 1.36D-05

 Cycle  11  Pass 1  IDiag  1:
 RMSU=  1.32D-07    CP:  1.00D+00  1.01D+00  7.94D-01  7.01D-01
 E= -391.688478473331     Delta-E=       -0.000000001914 Rises=F Damp=F
 DIIS: error= 2.30D-07 at cycle   5 NSaved=   5.
 NSaved= 5 IEnMin= 5 EnMin= -391.688478473331     IErMin= 5 ErrMin= 2.30D-07
 ErrMax= 2.30D-07  0.00D+00 EMaxC= 1.00D-01 BMatC= 2.20D-11 BMatP= 1.84D-09
 IDIUse=1 WtCom= 1.00D+00 WtEn= 0.00D+00
 Coeff-Com: -0.332D-02-0.306D-02 0.260D-02 0.798D-01 0.924D+00
 Coeff:     -0.332D-02-0.306D-02 0.260D-02 0.798D-01 0.924D+00
 Gap=     0.338 Goal=   None    Shift=    0.000
 RMSDP=3.75D-08 MaxDP=8.50D-07 DE=-1.91D-09 OVMax= 1.64D-06

 Cycle  12  Pass 1  IDiag  1:
 RMSU=  2.78D-08    CP:  1.00D+00  1.01D+00  7.95D-01  7.66D-01  1.02D+00
 E= -391.688478473351     Delta-E=       -0.000000000020 Rises=F Damp=F
 DIIS: error= 7.13D-08 at cycle   6 NSaved=   6.
 NSaved= 6 IEnMin= 6 EnMin= -391.688478473351     IErMin= 6 ErrMin= 7.13D-08
 ErrMax= 7.13D-08  0.00D+00 EMaxC= 1.00D-01 BMatC= 2.55D-12 BMatP= 2.20D-11
 IDIUse=1 WtCom= 1.00D+00 WtEn= 0.00D+00
 Coeff-Com:  0.737D-03-0.863D-02-0.300D-01-0.201D-01 0.280D+00 0.778D+00
 Coeff:      0.737D-03-0.863D-02-0.300D-01-0.201D-01 0.280D+00 0.778D+00
 Gap=     0.338 Goal=   None    Shift=    0.000
 RMSDP=1.12D-08 MaxDP=1.95D-07 DE=-1.96D-11 OVMax= 5.07D-07

 Cycle  13  Pass 1  IDiag  1:
 RMSU=  5.30D-09    CP:  1.00D+00  1.01D+00  7.96D-01  7.76D-01  1.08D+00
                    CP:  8.87D-01
 E= -391.688478473346     Delta-E=        0.000000000005 Rises=F Damp=F
 DIIS: error= 1.99D-08 at cycle   7 NSaved=   7.
 NSaved= 7 IEnMin= 6 EnMin= -391.688478473351     IErMin= 7 ErrMin= 1.99D-08
 ErrMax= 1.99D-08  0.00D+00 EMaxC= 1.00D-01 BMatC= 1.53D-13 BMatP= 2.55D-12
 IDIUse=1 WtCom= 1.00D+00 WtEn= 0.00D+00
 Coeff-Com:  0.381D-03-0.257D-02-0.976D-02-0.961D-02 0.501D-01 0.258D+00
 Coeff-Com:  0.713D+00
 Coeff:      0.381D-03-0.257D-02-0.976D-02-0.961D-02 0.501D-01 0.258D+00
 Coeff:      0.713D+00
 Gap=     0.338 Goal=   None    Shift=    0.000
 RMSDP=1.95D-09 MaxDP=5.94D-08 DE= 4.77D-12 OVMax= 1.13D-07

 SCF Done:  E(RM062X) =  -391.688478473     A.U. after   13 cycles
            NFock= 13  Conv=0.19D-08     -V/T= 2.0093
 KE= 3.880859112688D+02 PE=-1.937901292646D+03 EE= 6.416927250456D+02
 Leave Link  502 at Mon Jul  5 22:59:39 2021, MaxMem=   524288000 cpu:             282.4 elap:              47.2
 (Enter /opt/gaussian/g16_legacy/l601.exe)
 Copying SCF densities to generalized density rwf, IOpCl= 0 IROHF=0.

 **********************************************************************

            Population analysis using the SCF density.

 **********************************************************************

 Orbital symmetries:
       Occupied  (A) (A) (A) (A) (A) (A) (A) (A) (A) (A) (A) (A)
                 (A) (A) (A) (A) (A) (A) (A) (A) (A) (A) (A) (A)
                 (A) (A) (A) (A) (A) (A) (A) (A) (A) (A) (A) (A)
                 (A) (A) (A)
       Virtual   (A) (A) (A) (A) (A) (A) (A) (A) (A) (A) (A) (A)
                 (A) (A) (A) (A) (A) (A) (A) (A) (A) (A) (A) (A)
                 (A) (A) (A) (A) (A) (A) (A) (A) (A) (A) (A) (A)
                 (A) (A) (A) (A) (A) (A) (A) (A) (A) (A) (A) (A)
                 (A) (A) (A) (A) (A) (A) (A) (A) (A) (A) (A) (A)
                 (A) (A) (A) (A) (A) (A) (A) (A) (A) (A) (A) (A)
                 (A) (A) (A) (A) (A) (A) (A) (A) (A) (A) (A) (A)
                 (A) (A) (A) (A) (A) (A) (A) (A) (A) (A) (A) (A)
                 (A) (A) (A) (A) (A) (A) (A) (A) (A) (A) (A) (A)
                 (A) (A) (A) (A) (A) (A) (A) (A) (A) (A) (A) (A)
                 (A) (A) (A) (A) (A) (A) (A) (A) (A) (A) (A) (A)
                 (A) (A) (A) (A) (A) (A) (A) (A) (A) (A) (A) (A)
                 (A) (A) (A) (A) (A) (A) (A) (A) (A) (A) (A) (A)
                 (A) (A) (A) (A) (A) (A) (A) (A) (A) (A) (A) (A)
                 (A) (A) (A) (A) (A) (A) (A) (A) (A) (A) (A) (A)
                 (A) (A) (A) (A) (A) (A) (A) (A) (A) (A) (A) (A)
                 (A) (A) (A) (A) (A) (A) (A) (A) (A)
 The electronic state is 1-A.
 Alpha  occ. eigenvalues --  -10.54672 -10.54137 -10.53915 -10.53826 -10.53600
 Alpha  occ. eigenvalues --  -10.53346 -10.53308 -10.53263 -10.53190 -10.53180
 Alpha  occ. eigenvalues --   -0.91983  -0.89942  -0.84729  -0.81566  -0.77854
 Alpha  occ. eigenvalues --   -0.76077  -0.71689  -0.68490  -0.58978  -0.57710
 Alpha  occ. eigenvalues --   -0.54371  -0.51495  -0.50505  -0.49868  -0.48811
 Alpha  occ. eigenvalues --   -0.47710  -0.46477  -0.45979  -0.44711  -0.43468
 Alpha  occ. eigenvalues --   -0.43025  -0.42543  -0.41666  -0.40335  -0.39819
 Alpha  occ. eigenvalues --   -0.37775  -0.36267  -0.28741  -0.27017
 Alpha virt. eigenvalues --    0.06795   0.07960   0.11969   0.14600   0.15413
 Alpha virt. eigenvalues --    0.17031   0.18290   0.18501   0.19840   0.20042
 Alpha virt. eigenvalues --    0.20849   0.21571   0.22491   0.22870   0.23345
 Alpha virt. eigenvalues --    0.24535   0.24823   0.25781   0.27100   0.28150
 Alpha virt. eigenvalues --    0.28987   0.29299   0.30606   0.30954   0.31569
 Alpha virt. eigenvalues --    0.38579   0.40158   0.47226   0.48087   0.54158
 Alpha virt. eigenvalues --    0.55036   0.55936   0.57744   0.59176   0.60104
 Alpha virt. eigenvalues --    0.60382   0.61457   0.62552   0.63185   0.64691
 Alpha virt. eigenvalues --    0.66792   0.68005   0.70961   0.72039   0.73581
 Alpha virt. eigenvalues --    0.74596   0.76523   0.77574   0.78254   0.79554
 Alpha virt. eigenvalues --    0.80230   0.81285   0.83198   0.84628   0.85679
 Alpha virt. eigenvalues --    0.88041   0.88892   0.89143   0.91645   0.92625
 Alpha virt. eigenvalues --    0.92947   0.94074   0.94881   0.95752   0.96200
 Alpha virt. eigenvalues --    0.96676   0.97251   0.98493   0.99387   1.00189
 Alpha virt. eigenvalues --    1.01149   1.02477   1.03314   1.05362   1.06070
 Alpha virt. eigenvalues --    1.13696   1.20903   1.21461   1.23431   1.25027
 Alpha virt. eigenvalues --    1.26775   1.32451   1.35464   1.36575   1.37415
 Alpha virt. eigenvalues --    1.39140   1.41558   1.44812   1.48206   1.49406
 Alpha virt. eigenvalues --    1.53505   1.60047   1.69033   1.69435   1.72412
 Alpha virt. eigenvalues --    1.75274   1.77836   1.79340   1.79619   1.83400
 Alpha virt. eigenvalues --    1.84894   1.86180   1.86982   1.88216   1.88886
 Alpha virt. eigenvalues --    1.90187   1.92638   1.93817   1.97989   2.01364
 Alpha virt. eigenvalues --    2.02140   2.03293   2.05495   2.09328   2.09996
 Alpha virt. eigenvalues --    2.10031   2.10156   2.12443   2.13498   2.13717
 Alpha virt. eigenvalues --    2.14733   2.15539   2.16443   2.18060   2.18383
 Alpha virt. eigenvalues --    2.19774   2.20937   2.22257   2.23010   2.26614
 Alpha virt. eigenvalues --    2.29114   2.29843   2.33192   2.33579   2.35522
 Alpha virt. eigenvalues --    2.37923   2.38396   2.43840   2.44468   2.45009
 Alpha virt. eigenvalues --    2.46593   2.48203   2.51218   2.52735   2.54812
 Alpha virt. eigenvalues --    2.57121   2.59332   2.61499   2.62795   2.64020
 Alpha virt. eigenvalues --    2.65996   2.68353   2.70375   2.71624   2.73362
 Alpha virt. eigenvalues --    2.74281   2.74593   2.76578   2.80573   2.83728
 Alpha virt. eigenvalues --    2.84911   2.85950   2.87180   2.88206   2.88610
 Alpha virt. eigenvalues --    2.90198   2.91589   2.93447   2.94403   3.01446
 Alpha virt. eigenvalues --    3.03762   3.08829   3.09663   3.17782   3.19457
 Alpha virt. eigenvalues --    3.20830   3.23273   3.28775   3.35672   3.39645
 Alpha virt. eigenvalues --    3.40326   3.41900   3.42747   3.43688   3.44207
 Alpha virt. eigenvalues --    3.45589   3.47034   3.48936   3.50674   3.52298
 Alpha virt. eigenvalues --    3.56636   4.18753   4.22309   4.34203   4.42625
 Alpha virt. eigenvalues --    4.48614   4.52625   4.53213   4.66942   4.69675
 Alpha virt. eigenvalues --    4.75918
          Condensed to atoms (all electrons):
               1          2          3          4          5          6
     1  C    5.038914   0.382993   0.387569   0.360398  -0.070595  -0.003944
     2  H    0.382993   0.600080  -0.034848  -0.030487   0.004633   0.000054
     3  H    0.387569  -0.034848   0.610520  -0.037103  -0.006282   0.004559
     4  C    0.360398  -0.030487  -0.037103   4.768586   0.368267  -0.034071
     5  C   -0.070595   0.004633  -0.006282   0.368267   5.000228   0.380001
     6  H   -0.003944   0.000054   0.004559  -0.034071   0.380001   0.589306
     7  H    0.004506  -0.000169   0.000106  -0.033911   0.385902  -0.027518
     8  H   -0.000028  -0.000002  -0.000382  -0.038769   0.382576  -0.034436
     9  C   -0.047668  -0.007979   0.003321   0.716364  -0.041392  -0.000619
    10  H    0.005613   0.000034  -0.000173  -0.030979  -0.013387   0.000322
    11  C   -0.012999   0.000862   0.000262  -0.044812   0.006115  -0.000173
    12  H    0.002653   0.002161  -0.000097  -0.008157   0.000091  -0.000002
    13  H    0.000190   0.000203   0.000029  -0.000870  -0.000150   0.000025
    14  H    0.000382  -0.000128  -0.000013   0.000949  -0.000148  -0.000004
    15  C   -0.000087  -0.000084   0.000002   0.000002  -0.000000  -0.000000
    16  H    0.000020  -0.000005  -0.000001  -0.000000   0.000000  -0.000000
    17  H   -0.000003  -0.000001   0.000002   0.000000  -0.000000  -0.000000
    18  H   -0.000005   0.000002   0.000000   0.000000  -0.000000   0.000000
    19  C   -0.003615   0.001758   0.000189   0.000049  -0.000004   0.000000
    20  C    0.000367   0.000513  -0.000001  -0.000021   0.000000   0.000000
    21  H   -0.000196  -0.000047  -0.000006  -0.000042  -0.000000  -0.000000
    22  H    0.000074  -0.000095  -0.000000  -0.000003   0.000000  -0.000000
    23  H   -0.000036   0.000015  -0.000000   0.000002  -0.000000   0.000000
    24  C   -0.053988  -0.000452  -0.001361   0.005663  -0.000091   0.000014
    25  H   -0.000657  -0.000110   0.002505  -0.000103   0.000007  -0.000003
    26  C    0.346209  -0.039217  -0.042556  -0.047337  -0.001587  -0.000223
    27  H   -0.039889  -0.004841   0.005557  -0.001522  -0.000056   0.000021
    28  H   -0.042215   0.005616  -0.005257  -0.003104   0.001248   0.000094
               7          8          9         10         11         12
     1  C    0.004506  -0.000028  -0.047668   0.005613  -0.012999   0.002653
     2  H   -0.000169  -0.000002  -0.007979   0.000034   0.000862   0.002161
     3  H    0.000106  -0.000382   0.003321  -0.000173   0.000262  -0.000097
     4  C   -0.033911  -0.038769   0.716364  -0.030979  -0.044812  -0.008157
     5  C    0.385902   0.382576  -0.041392  -0.013387   0.006115   0.000091
     6  H   -0.027518  -0.034436  -0.000619   0.000322  -0.000173  -0.000002
     7  H    0.574843  -0.027653  -0.005168   0.006167   0.000103   0.000007
     8  H   -0.027653   0.591378  -0.001217   0.000177  -0.000167   0.000001
     9  C   -0.005168  -0.001217   4.894933   0.378220   0.360457  -0.034065
    10  H    0.006167   0.000177   0.378220   0.612239  -0.056025   0.004529
    11  C    0.000103  -0.000167   0.360457  -0.056025   4.977025   0.389224
    12  H    0.000007   0.000001  -0.034065   0.004529   0.389224   0.580120
    13  H   -0.000004  -0.000006  -0.036351  -0.000412   0.385526  -0.027466
    14  H   -0.000011   0.000019  -0.033288  -0.003161   0.386560  -0.029949
    15  C    0.000000  -0.000000   0.000000   0.000000  -0.000000   0.000001
    16  H   -0.000000   0.000000  -0.000000  -0.000000   0.000000  -0.000000
    17  H    0.000000  -0.000000  -0.000000   0.000000   0.000000  -0.000000
    18  H    0.000000   0.000000   0.000000   0.000000   0.000000  -0.000000
    19  C    0.000000  -0.000001   0.000000   0.000000   0.000009  -0.000000
    20  C   -0.000000  -0.000000   0.000009  -0.000000  -0.000147   0.000041
    21  H    0.000000   0.000000  -0.000025   0.000001   0.000039   0.001479
    22  H   -0.000000   0.000000   0.000000  -0.000000  -0.000003   0.000028
    23  H    0.000000   0.000000   0.000000   0.000000   0.000003  -0.000009
    24  C    0.000003  -0.000157   0.000100   0.000003  -0.000045  -0.000053
    25  H   -0.000000   0.000015  -0.000001  -0.000000   0.000000  -0.000001
    26  C   -0.000036   0.001437  -0.004423  -0.000096   0.000378  -0.000056
    27  H   -0.000007   0.000016   0.002444  -0.000077   0.000546   0.000037
    28  H   -0.000099   0.001855   0.000056   0.000001  -0.000007  -0.000009
              13         14         15         16         17         18
     1  C    0.000190   0.000382  -0.000087   0.000020  -0.000003  -0.000005
     2  H    0.000203  -0.000128  -0.000084  -0.000005  -0.000001   0.000002
     3  H    0.000029  -0.000013   0.000002  -0.000001   0.000002   0.000000
     4  C   -0.000870   0.000949   0.000002  -0.000000   0.000000   0.000000
     5  C   -0.000150  -0.000148  -0.000000   0.000000  -0.000000  -0.000000
     6  H    0.000025  -0.000004  -0.000000  -0.000000  -0.000000   0.000000
     7  H   -0.000004  -0.000011   0.000000  -0.000000   0.000000   0.000000
     8  H   -0.000006   0.000019  -0.000000   0.000000  -0.000000   0.000000
     9  C   -0.036351  -0.033288   0.000000  -0.000000  -0.000000   0.000000
    10  H   -0.000412  -0.003161   0.000000  -0.000000   0.000000   0.000000
    11  C    0.385526   0.386560  -0.000000   0.000000   0.000000   0.000000
    12  H   -0.027466  -0.029949   0.000001  -0.000000  -0.000000  -0.000000
    13  H    0.576279  -0.031775   0.000000  -0.000000  -0.000000   0.000000
    14  H   -0.031775   0.579765  -0.000000   0.000000  -0.000000  -0.000000
    15  C    0.000000  -0.000000   5.004449   0.380448   0.385186   0.382972
    16  H   -0.000000   0.000000   0.380448   0.590056  -0.027128  -0.034284
    17  H   -0.000000  -0.000000   0.385186  -0.027128   0.572064  -0.027294
    18  H    0.000000  -0.000000   0.382972  -0.034284  -0.027294   0.589319
    19  C   -0.000000   0.000000   0.366842  -0.035978  -0.033023  -0.038111
    20  C    0.000003  -0.000004  -0.078890  -0.002160   0.004665  -0.000501
    21  H   -0.000011   0.000035   0.004781  -0.000049  -0.000168  -0.000005
    22  H   -0.000000   0.000000  -0.003608   0.004480   0.000032  -0.000851
    23  H   -0.000000  -0.000000  -0.001914  -0.000680  -0.000069   0.003708
    24  C    0.000003  -0.000004  -0.037392  -0.000761  -0.004840  -0.001455
    25  H    0.000000   0.000000  -0.013624   0.000294   0.006077   0.000217
    26  C   -0.000043   0.000077   0.005700  -0.000121   0.000120  -0.000206
    27  H    0.000021  -0.000095   0.000089  -0.000005   0.000010   0.000006
    28  H   -0.000000   0.000001  -0.000181  -0.000002  -0.000012   0.000014
              19         20         21         22         23         24
     1  C   -0.003615   0.000367  -0.000196   0.000074  -0.000036  -0.053988
     2  H    0.001758   0.000513  -0.000047  -0.000095   0.000015  -0.000452
     3  H    0.000189  -0.000001  -0.000006  -0.000000  -0.000000  -0.001361
     4  C    0.000049  -0.000021  -0.000042  -0.000003   0.000002   0.005663
     5  C   -0.000004   0.000000  -0.000000   0.000000  -0.000000  -0.000091
     6  H    0.000000   0.000000  -0.000000  -0.000000   0.000000   0.000014
     7  H    0.000000  -0.000000   0.000000  -0.000000   0.000000   0.000003
     8  H   -0.000001  -0.000000   0.000000   0.000000   0.000000  -0.000157
     9  C    0.000000   0.000009  -0.000025   0.000000   0.000000   0.000100
    10  H    0.000000  -0.000000   0.000001  -0.000000   0.000000   0.000003
    11  C    0.000009  -0.000147   0.000039  -0.000003   0.000003  -0.000045
    12  H   -0.000000   0.000041   0.001479   0.000028  -0.000009  -0.000053
    13  H   -0.000000   0.000003  -0.000011  -0.000000  -0.000000   0.000003
    14  H    0.000000  -0.000004   0.000035   0.000000  -0.000000  -0.000004
    15  C    0.366842  -0.078890   0.004781  -0.003608  -0.001914  -0.037392
    16  H   -0.035978  -0.002160  -0.000049   0.004480  -0.000680  -0.000761
    17  H   -0.033023   0.004665  -0.000168   0.000032  -0.000069  -0.004840
    18  H   -0.038111  -0.000501  -0.000005  -0.000851   0.003708  -0.001455
    19  C    4.732148   0.377674  -0.026774  -0.036192  -0.035974   0.718037
    20  C    0.377674   5.005586   0.382373   0.385394   0.382694  -0.052150
    21  H   -0.026774   0.382373   0.574803  -0.029615  -0.026670  -0.008305
    22  H   -0.036192   0.385394  -0.029615   0.583401  -0.032574   0.000973
    23  H   -0.035974   0.382694  -0.026670  -0.032574   0.578037  -0.000064
    24  C    0.718037  -0.052150  -0.008305   0.000973  -0.000064   4.917725
    25  H   -0.031857   0.006079   0.000027  -0.000153  -0.000160   0.374970
    26  C   -0.038343  -0.013675   0.002071   0.000450   0.000173   0.352774
    27  H   -0.006327   0.000825   0.002744  -0.000146   0.000054  -0.038037
    28  H    0.001801   0.000350  -0.000073  -0.000015   0.000031  -0.032069
              25         26         27         28
     1  C   -0.000657   0.346209  -0.039889  -0.042215
     2  H   -0.000110  -0.039217  -0.004841   0.005616
     3  H    0.002505  -0.042556   0.005557  -0.005257
     4  C   -0.000103  -0.047337  -0.001522  -0.003104
     5  C    0.000007  -0.001587  -0.000056   0.001248
     6  H   -0.000003  -0.000223   0.000021   0.000094
     7  H   -0.000000  -0.000036  -0.000007  -0.000099
     8  H    0.000015   0.001437   0.000016   0.001855
     9  C   -0.000001  -0.004423   0.002444   0.000056
    10  H   -0.000000  -0.000096  -0.000077   0.000001
    11  C    0.000000   0.000378   0.000546  -0.000007
    12  H   -0.000001  -0.000056   0.000037  -0.000009
    13  H    0.000000  -0.000043   0.000021  -0.000000
    14  H    0.000000   0.000077  -0.000095   0.000001
    15  C   -0.013624   0.005700   0.000089  -0.000181
    16  H    0.000294  -0.000121  -0.000005  -0.000002
    17  H    0.006077   0.000120   0.000010  -0.000012
    18  H    0.000217  -0.000206   0.000006   0.000014
    19  C   -0.031857  -0.038343  -0.006327   0.001801
    20  C    0.006079  -0.013675   0.000825   0.000350
    21  H    0.000027   0.002071   0.002744  -0.000073
    22  H   -0.000153   0.000450  -0.000146  -0.000015
    23  H   -0.000160   0.000173   0.000054   0.000031
    24  C    0.374970   0.352774  -0.038037  -0.032069
    25  H    0.613706  -0.052739   0.004707  -0.004886
    26  C   -0.052739   4.996711   0.391492   0.387270
    27  H    0.004707   0.391492   0.599879  -0.034478
    28  H   -0.004886   0.387270  -0.034478   0.604953
 Mulliken charges:
               1
     1  C   -0.253961
     2  H    0.119543
     3  H    0.113459
     4  C    0.091011
     5  C   -0.395376
     6  H    0.126596
     7  H    0.122938
     8  H    0.125342
     9  C   -0.143709
    10  H    0.097002
    11  C   -0.392729
    12  H    0.119493
    13  H    0.134809
    14  H    0.130792
    15  C   -0.394691
    16  H    0.125876
    17  H    0.124382
    18  H    0.126475
    19  C    0.087690
    20  C   -0.399024
    21  H    0.123635
    22  H    0.128422
    23  H    0.133435
    24  C   -0.139041
    25  H    0.095689
    26  C   -0.244205
    27  H    0.117030
    28  H    0.119116
 Sum of Mulliken charges =  -0.00000
 Mulliken charges with hydrogens summed into heavy atoms:
               1
     1  C   -0.020959
     4  C    0.091011
     5  C   -0.020499
     9  C   -0.046706
    11  C   -0.007636
    15  C   -0.017958
    19  C    0.087690
    20  C   -0.013532
    24  C   -0.043352
    26  C   -0.008059
 Electronic spatial extent (au):  <R**2>=           2421.0162
 Charge=             -0.0000 electrons
 Dipole moment (field-independent basis, Debye):
    X=              0.2926    Y=              0.1863    Z=             -0.0072  Tot=              0.3470
 Quadrupole moment (field-independent basis, Debye-Ang):
   XX=            -63.1047   YY=            -62.4439   ZZ=            -66.0644
   XY=              0.6028   XZ=              0.7767   YZ=             -0.4161
 Traceless Quadrupole moment (field-independent basis, Debye-Ang):
   XX=              0.7663   YY=              1.4271   ZZ=             -2.1934
   XY=              0.6028   XZ=              0.7767   YZ=             -0.4161
 Octapole moment (field-independent basis, Debye-Ang**2):
  XXX=              3.1049  YYY=             -1.4755  ZZZ=              0.1919  XYY=             -1.4305
  XXY=              4.5855  XXZ=             -2.2771  XZZ=              1.5834  YZZ=              1.2877
  YYZ=              1.2957  XYZ=             -0.8619
 Hexadecapole moment (field-independent basis, Debye-Ang**3):
 XXXX=          -2453.2794 YYYY=           -686.3194 ZZZZ=           -172.1900 XXXY=             -0.6282
 XXXZ=             10.2525 YYYX=            -10.3505 YYYZ=             -2.5447 ZZZX=             -1.0961
 ZZZY=              0.1303 XXYY=           -520.3720 XXZZ=           -448.9880 YYZZ=           -136.9236
 XXYZ=             -3.7921 YYXZ=              2.4069 ZZXY=              4.5464
 N-N= 5.164341778584D+02 E-N=-1.937901287515D+03  KE= 3.880859112688D+02
 No NMR shielding tensors so no spin-rotation constants.
 Leave Link  601 at Mon Jul  5 22:59:40 2021, MaxMem=   524288000 cpu:               1.7 elap:               0.4
 (Enter /opt/gaussian/g16_legacy/l701.exe)
 ... and contract with generalized density number  0.
 Compute integral first derivatives.
 Leave Link  701 at Mon Jul  5 22:59:40 2021, MaxMem=   524288000 cpu:               0.8 elap:               0.3
 (Enter /opt/gaussian/g16_legacy/l702.exe)
 L702 exits ... SP integral derivatives will be done elsewhere.
 Leave Link  702 at Mon Jul  5 22:59:40 2021, MaxMem=   524288000 cpu:               0.1 elap:               0.0
 (Enter /opt/gaussian/g16_legacy/l703.exe)
 Integral derivatives from FoFJK, PRISM(SPDF).
 Compute integral first derivatives, UseDBF=F ICtDFT=           0.
 Calling FoFJK, ICntrl=      2127 FMM=F ISym2X=0 I1Cent= 0 IOpClX= 0 NMat=1 NMatS=1 NMatT=0.
 FoFJK:  IHMeth= 1 ICntrl=    2127 DoSepK=F KAlg= 0 I1Cent=           0 FoldK=F
 IRaf=         0 NMat=       1 IRICut=       1 DoRegI=T DoRafI=F ISym2E= 0 IDoP0=0 IntGTp=1.
 FoFCou: FMM=F IPFlag=           0 FMFlag=      100000 FMFlg1=         800
         NFxFlg=           0 DoJE=F BraDBF=F KetDBF=F FulRan=T
         wScrn=  0.000000 ICntrl=      2127 IOpCl=  0 I1Cent=           0 NGrid=           0
         NMat0=    1 NMatS0=      1 NMatT0=    0 NMatD0=    1 NMtDS0=    0 NMtDT0=    0
 Symmetry not used in FoFCou.
 Leave Link  703 at Mon Jul  5 22:59:49 2021, MaxMem=   524288000 cpu:              49.5 elap:               8.4
 (Enter /opt/gaussian/g16_legacy/l716.exe)
 Dipole        = 1.15117738D-01 7.33134656D-02-2.81542554D-03
 ***** Axes restored to original set *****
 -------------------------------------------------------------------
 Center     Atomic                   Forces (Hartrees/Bohr)
 Number     Number              X              Y              Z
 -------------------------------------------------------------------
      1        6          -0.008395884   -0.004478201    0.001589030
      2        1           0.000974969    0.002183954    0.002594370
      3        1           0.000648012    0.002503091    0.000640223
      4        6          -0.011503119   -0.007345245    0.003898642
      5        6          -0.003201369   -0.000751084    0.002226506
      6        1           0.001662045    0.001984576   -0.000942758
      7        1           0.001730283   -0.000855244    0.001169712
      8        1           0.001184867    0.000934445   -0.002778989
      9        6           0.009985869    0.007402647   -0.007957768
     10        1           0.000399313    0.002113773   -0.002118865
     11        6           0.001622116    0.000347222    0.000337006
     12        1           0.000206019   -0.000067329   -0.001558477
     13        1           0.000022645   -0.001726886    0.002689327
     14        1          -0.000632823   -0.002256382    0.000511711
     15        6          -0.001255025    0.001364934   -0.003419727
     16        1           0.002234602   -0.000221344    0.002049634
     17        1          -0.001829311   -0.000042675    0.001449235
     18        1           0.001514536   -0.002197504    0.001091482
     19        6          -0.007210319    0.005096371   -0.012954926
     20        6          -0.004478088    0.000850071   -0.000905443
     21        1           0.000131838    0.001615809   -0.000909200
     22        1           0.002277811    0.000735945    0.001081923
     23        1           0.001180292   -0.001813223    0.001550323
     24        6           0.005673702   -0.001167469    0.010441457
     25        1           0.002454152   -0.001670369    0.000144494
     26        6           0.007845216    0.000847830    0.001344768
     27        1          -0.000964593   -0.002701559   -0.000471144
     28        1          -0.002277755   -0.000686154   -0.000792545
 -------------------------------------------------------------------
 Cartesian Forces:  Max     0.012954926 RMS     0.003706500
 Leave Link  716 at Mon Jul  5 22:59:49 2021, MaxMem=   524288000 cpu:               0.2 elap:               0.1
 (Enter /opt/gaussian/g16_legacy/l103.exe)

 GradGradGradGradGradGradGradGradGradGradGradGradGradGradGradGradGradGrad
 Berny optimization.
 FormGI is forming the generalized inverse of G from B-inverse, IUseBI=4.
 Internal  Forces:  Max     0.014850798 RMS     0.002453403
 Search for a local minimum.
 Step number   1 out of a maximum of  138
 All quantities printed in internal units (Hartrees-Bohrs-Radians)
 RMS Force = .24534D-02 SwitMx=.10000D-02 MixMth= 1
 Mixed Optimization -- RFO/linear search
 Second derivative matrix not updated -- first step.
 ITU=  0
     Eigenvalues ---    0.00344   0.00570   0.00671   0.00680   0.00692
     Eigenvalues ---    0.00713   0.00817   0.01219   0.01286   0.01569
     Eigenvalues ---    0.01641   0.02779   0.02784   0.04018   0.04138
     Eigenvalues ---    0.05349   0.05399   0.06978   0.07035   0.07090
     Eigenvalues ---    0.07093   0.07269   0.07301   0.07347   0.07505
     Eigenvalues ---    0.09278   0.09362   0.12767   0.12843   0.15999
     Eigenvalues ---    0.15999   0.16000   0.16000   0.16000   0.16000
     Eigenvalues ---    0.16000   0.16000   0.16000   0.16000   0.16000
     Eigenvalues ---    0.16000   0.16000   0.16000   0.21859   0.21866
     Eigenvalues ---    0.22000   0.22000   0.24994   0.24997   0.24998
     Eigenvalues ---    0.24999   0.29246   0.30870   0.31639   0.31706
     Eigenvalues ---    0.31800   0.31964   0.32787   0.33868   0.33972
     Eigenvalues ---    0.34054   0.34192   0.34219   0.34232   0.34241
     Eigenvalues ---    0.34244   0.34251   0.34253   0.34260   0.34270
     Eigenvalues ---    0.34298   0.34336   0.34544   0.34557   0.34798
     Eigenvalues ---    0.34845   0.55492   0.55575
 RFO step:  Lambda=-3.40778135D-03 EMin= 3.43614840D-03
 Linear search not attempted -- first point.
 Iteration  1 RMS(Cart)=  0.04188320 RMS(Int)=  0.00076481
 Iteration  2 RMS(Cart)=  0.00101033 RMS(Int)=  0.00017830
 Iteration  3 RMS(Cart)=  0.00000059 RMS(Int)=  0.00017830
 ITry= 1 IFail=0 DXMaxC= 2.15D-01 DCOld= 1.00D+10 DXMaxT= 3.00D-01 DXLimC= 3.00D+00 Rises=F
 Variable       Old X    -DE/DX   Delta X   Delta X   Delta X     New X
                                 (Linear)    (Quad)   (Total)
    R1        2.07240  -0.00112   0.00000  -0.00327  -0.00327   2.06913
    R2        2.07554  -0.00044   0.00000  -0.00129  -0.00129   2.07424
    R3        2.86260  -0.00209   0.00000  -0.00668  -0.00668   2.85592
    R4        2.89492   0.00303   0.00000   0.01024   0.01024   2.90517
    R5        2.84809   0.00059   0.00000   0.00184   0.00184   2.84993
    R6        2.54697  -0.01485   0.00000  -0.02660  -0.02660   2.52037
    R7        2.06920   0.00044   0.00000   0.00128   0.00128   2.07047
    R8        2.06962  -0.00164   0.00000  -0.00473  -0.00473   2.06489
    R9        2.06830   0.00110   0.00000   0.00317   0.00317   2.07147
   R10        2.05927   0.00008   0.00000   0.00022   0.00022   2.05949
   R11        2.82727   0.00419   0.00000   0.01266   0.01266   2.83992
   R12        2.06400   0.00014   0.00000   0.00041   0.00041   2.06442
   R13        2.06767   0.00097   0.00000   0.00280   0.00280   2.07047
   R14        2.06893  -0.00004   0.00000  -0.00012  -0.00012   2.06881
   R15        2.06905   0.00066   0.00000   0.00191   0.00191   2.07095
   R16        2.06940  -0.00173   0.00000  -0.00499  -0.00499   2.06441
   R17        2.06926   0.00065   0.00000   0.00189   0.00189   2.07115
   R18        2.84684   0.00051   0.00000   0.00158   0.00158   2.84843
   R19        2.84210   0.00047   0.00000   0.00146   0.00146   2.84357
   R20        2.54624  -0.01404   0.00000  -0.02512  -0.02512   2.52112
   R21        2.06421  -0.00023   0.00000  -0.00065  -0.00065   2.06356
   R22        2.07008  -0.00002   0.00000  -0.00004  -0.00004   2.07004
   R23        2.06877   0.00073   0.00000   0.00210   0.00210   2.07087
   R24        2.06004   0.00024   0.00000   0.00068   0.00068   2.06072
   R25        2.84511   0.00016   0.00000   0.00051   0.00051   2.84562
   R26        2.06909  -0.00028   0.00000  -0.00080  -0.00080   2.06829
   R27        2.07377  -0.00003   0.00000  -0.00010  -0.00010   2.07367
    A1        1.82990   0.00202   0.00000   0.02222   0.02202   1.85192
    A2        1.93007   0.00053   0.00000   0.00896   0.00898   1.93905
    A3        1.91836  -0.00280   0.00000  -0.02166  -0.02169   1.89667
    A4        1.90266  -0.00044   0.00000   0.00012   0.00011   1.90278
    A5        1.92005  -0.00190   0.00000  -0.01653  -0.01657   1.90348
    A6        1.95844   0.00253   0.00000   0.00771   0.00775   1.96619
    A7        2.00830   0.00208   0.00000   0.00853   0.00795   2.01625
    A8        2.17071  -0.00542   0.00000  -0.02103  -0.02157   2.14913
    A9        2.10400   0.00335   0.00000   0.01362   0.01302   2.11701
   A10        1.92484   0.00154   0.00000   0.00807   0.00809   1.93293
   A11        1.95938  -0.00218   0.00000  -0.00973  -0.00971   1.94967
   A12        1.92815   0.00208   0.00000   0.01050   0.01051   1.93866
   A13        1.87751   0.00107   0.00000   0.01079   0.01081   1.88832
   A14        1.89485  -0.00314   0.00000  -0.02631  -0.02629   1.86856
   A15        1.87694   0.00051   0.00000   0.00577   0.00579   1.88273
   A16        2.06973  -0.00193   0.00000  -0.01369  -0.01370   2.05603
   A17        2.22514  -0.00236   0.00000  -0.01054  -0.01054   2.21460
   A18        1.98818   0.00428   0.00000   0.02431   0.02430   2.01248
   A19        1.98120  -0.00263   0.00000  -0.01580  -0.01572   1.96548
   A20        1.91723   0.00377   0.00000   0.02181   0.02177   1.93900
   A21        1.90997   0.00245   0.00000   0.01592   0.01588   1.92585
   A22        1.89288  -0.00102   0.00000  -0.00788  -0.00780   1.88509
   A23        1.87271   0.00042   0.00000   0.00486   0.00491   1.87762
   A24        1.88722  -0.00318   0.00000  -0.02013  -0.02029   1.86694
   A25        1.87928   0.00088   0.00000   0.00951   0.00952   1.88880
   A26        1.89494  -0.00318   0.00000  -0.02665  -0.02663   1.86831
   A27        1.92492   0.00201   0.00000   0.01085   0.01087   1.93579
   A28        1.87872   0.00085   0.00000   0.00808   0.00810   1.88682
   A29        1.96053  -0.00234   0.00000  -0.01063  -0.01061   1.94992
   A30        1.92344   0.00165   0.00000   0.00793   0.00795   1.93139
   A31        1.99465   0.00121   0.00000   0.00479   0.00478   1.99943
   A32        2.10583   0.00270   0.00000   0.01069   0.01068   2.11651
   A33        2.18266  -0.00391   0.00000  -0.01540  -0.01541   2.16724
   A34        1.97964  -0.00192   0.00000  -0.00800  -0.00799   1.97165
   A35        1.92076   0.00012   0.00000  -0.00017  -0.00016   1.92060
   A36        1.92159   0.00213   0.00000   0.01029   0.01031   1.93189
   A37        1.86371   0.00188   0.00000   0.01675   0.01676   1.88047
   A38        1.88449   0.00018   0.00000   0.00297   0.00299   1.88748
   A39        1.89076  -0.00249   0.00000  -0.02274  -0.02272   1.86804
   A40        2.06719  -0.00173   0.00000  -0.01229  -0.01270   2.05449
   A41        2.22715  -0.00242   0.00000  -0.01064  -0.01106   2.21609
   A42        1.98871   0.00416   0.00000   0.02373   0.02330   2.01201
   A43        1.94449   0.00335   0.00000   0.01421   0.01423   1.95873
   A44        1.92607  -0.00277   0.00000  -0.02611  -0.02619   1.89988
   A45        1.92098  -0.00239   0.00000  -0.01474  -0.01496   1.90602
   A46        1.94654  -0.00042   0.00000  -0.00132  -0.00126   1.94528
   A47        1.88059   0.00066   0.00000   0.01802   0.01806   1.89866
   A48        1.84182   0.00148   0.00000   0.01040   0.01010   1.85192
    D1       -2.64270  -0.00179   0.00000  -0.04469  -0.04443  -2.68713
    D2        0.47846  -0.00076   0.00000   0.01859   0.01828   0.49674
    D3       -0.63966   0.00068   0.00000  -0.01295  -0.01263  -0.65229
    D4        2.48150   0.00171   0.00000   0.05033   0.05008   2.53158
    D5        1.49169  -0.00036   0.00000  -0.02871  -0.02843   1.46326
    D6       -1.67033   0.00067   0.00000   0.03456   0.03427  -1.63605
    D7        0.99375  -0.00051   0.00000   0.02458   0.02466   1.01841
    D8       -1.17858  -0.00035   0.00000   0.03514   0.03528  -1.14329
    D9        3.07876   0.00089   0.00000   0.04655   0.04648   3.12524
   D10       -1.01264  -0.00026   0.00000   0.01953   0.01952  -0.99312
   D11        3.09822  -0.00011   0.00000   0.03009   0.03015   3.12837
   D12        1.07237   0.00114   0.00000   0.04150   0.04135   1.11371
   D13       -3.13407  -0.00008   0.00000   0.02578   0.02579  -3.10827
   D14        0.97679   0.00007   0.00000   0.03634   0.03642   1.01321
   D15       -1.04906   0.00132   0.00000   0.04775   0.04762  -1.00144
   D16        1.03842  -0.00022   0.00000   0.03780   0.03820   1.07662
   D17        3.13183   0.00075   0.00000   0.05057   0.05097  -3.10039
   D18       -1.05640   0.00136   0.00000   0.05862   0.05902  -0.99738
   D19       -2.08359  -0.00110   0.00000  -0.02241  -0.02281  -2.10640
   D20        0.00981  -0.00013   0.00000  -0.00964  -0.01004  -0.00023
   D21        2.10477   0.00049   0.00000  -0.00158  -0.00199   2.10278
   D22       -3.11723  -0.00110   0.00000  -0.05102  -0.05088   3.11507
   D23        0.04339  -0.00125   0.00000  -0.05675  -0.05656  -0.01318
   D24        0.00287  -0.00004   0.00000   0.01545   0.01525   0.01813
   D25       -3.11969  -0.00018   0.00000   0.00971   0.00958  -3.11012
   D26        0.13824  -0.00044   0.00000  -0.01742  -0.01740   0.12084
   D27       -1.98420  -0.00007   0.00000  -0.01231  -0.01219  -1.99640
   D28        2.22961   0.00008   0.00000  -0.01039  -0.01046   2.21916
   D29       -2.98507  -0.00053   0.00000  -0.02259  -0.02262  -3.00769
   D30        1.17567  -0.00015   0.00000  -0.01748  -0.01741   1.15826
   D31       -0.89370   0.00000   0.00000  -0.01557  -0.01567  -0.90937
   D32        1.05173  -0.00079   0.00000  -0.00642  -0.00638   1.04535
   D33       -2.07973  -0.00089   0.00000  -0.01398  -0.01401  -2.09374
   D34       -3.13499   0.00015   0.00000   0.00605   0.00609  -3.12890
   D35        0.01674   0.00005   0.00000  -0.00151  -0.00154   0.01520
   D36       -1.04024   0.00082   0.00000   0.01470   0.01474  -1.02551
   D37        2.11148   0.00072   0.00000   0.00714   0.00710   2.11859
   D38       -3.00781  -0.00049   0.00000  -0.02268  -0.02265  -3.03046
   D39       -0.92135   0.00073   0.00000  -0.00673  -0.00670  -0.92805
   D40        1.16165  -0.00095   0.00000  -0.02848  -0.02845   1.13320
   D41        0.12313  -0.00034   0.00000  -0.01455  -0.01458   0.10854
   D42        2.20959   0.00088   0.00000   0.00139   0.00137   2.21096
   D43       -1.99059  -0.00080   0.00000  -0.02035  -0.02038  -2.01098
   D44        0.00911  -0.00005   0.00000   0.01114   0.01083   0.01994
   D45       -3.11420  -0.00118   0.00000  -0.04660  -0.04632   3.12266
   D46       -3.12120  -0.00020   0.00000   0.00258   0.00230  -3.11890
   D47        0.03868  -0.00133   0.00000  -0.05516  -0.05486  -0.01618
   D48       -1.80409   0.00078   0.00000   0.03083   0.03111  -1.77298
   D49        0.35669  -0.00067   0.00000   0.00631   0.00649   0.36318
   D50        2.37027   0.00127   0.00000   0.02872   0.02885   2.39912
   D51        1.35509  -0.00026   0.00000  -0.02442  -0.02454   1.33056
   D52       -2.76732  -0.00171   0.00000  -0.04894  -0.04915  -2.81647
   D53       -0.75373   0.00023   0.00000  -0.02653  -0.02679  -0.78052
         Item               Value     Threshold  Converged?
 Maximum Force            0.014851     0.002500     NO 
 RMS     Force            0.002453     0.001667     NO 
 Maximum Displacement     0.214596     0.010000     NO 
 RMS     Displacement     0.041926     0.006667     NO 
 Predicted change in Energy=-1.805827D-03
 Lowest energy point so far.  Saving SCF results.
 GradGradGradGradGradGradGradGradGradGradGradGradGradGradGradGradGradGrad

 Leave Link  103 at Mon Jul  5 22:59:49 2021, MaxMem=   524288000 cpu:               0.5 elap:               0.1
 (Enter /opt/gaussian/g16_legacy/l202.exe)
                          Input orientation:                          
 ---------------------------------------------------------------------
 Center     Atomic      Atomic             Coordinates (Angstroms)
 Number     Number       Type             X           Y           Z
[...]
                 (A) (A) (A) (A) (A) (A) (A) (A) (A) (A) (A) (A)
                 (A) (A) (A) (A) (A) (A) (A) (A) (A) (A) (A) (A)
                 (A) (A) (A) (A) (A) (A) (A) (A) (A) (A) (A) (A)
                 (A) (A) (A) (A) (A) (A) (A) (A) (A) (A) (A) (A)
                 (A) (A) (A) (A) (A) (A) (A) (A) (A) (A) (A) (A)
                 (A) (A) (A) (A) (A) (A) (A) (A) (A) (A) (A) (A)
                 (A) (A) (A) (A) (A) (A) (A) (A) (A) (A) (A) (A)
                 (A) (A) (A) (A) (A) (A) (A) (A) (A) (A) (A) (A)
                 (A) (A) (A) (A) (A) (A) (A) (A) (A) (A) (A) (A)
                 (A) (A) (A) (A) (A) (A) (A) (A) (A) (A) (A) (A)
                 (A) (A) (A) (A) (A) (A) (A) (A) (A) (A) (A) (A)
                 (A) (A) (A) (A) (A) (A) (A) (A) (A) (A) (A) (A)
                 (A) (A) (A) (A) (A) (A) (A) (A) (A)
 The electronic state is 1-A.
 Alpha  occ. eigenvalues --  -10.54567 -10.54041 -10.53920 -10.53770 -10.53587
 Alpha  occ. eigenvalues --  -10.53429 -10.53397 -10.53303 -10.53198 -10.53071
 Alpha  occ. eigenvalues --   -0.92195  -0.90147  -0.84514  -0.81604  -0.77895
 Alpha  occ. eigenvalues --   -0.76185  -0.71952  -0.68642  -0.58711  -0.57843
 Alpha  occ. eigenvalues --   -0.54705  -0.51375  -0.50897  -0.49634  -0.48971
 Alpha  occ. eigenvalues --   -0.47706  -0.46311  -0.45719  -0.44370  -0.43358
 Alpha  occ. eigenvalues --   -0.43283  -0.42656  -0.41874  -0.40702  -0.39859
 Alpha  occ. eigenvalues --   -0.37789  -0.36448  -0.28907  -0.27213
 Alpha virt. eigenvalues --    0.06582   0.08335   0.11914   0.14545   0.15267
 Alpha virt. eigenvalues --    0.17191   0.17944   0.18668   0.19794   0.20455
 Alpha virt. eigenvalues --    0.20981   0.21763   0.22403   0.23075   0.23579
 Alpha virt. eigenvalues --    0.24220   0.24739   0.25627   0.27137   0.27914
 Alpha virt. eigenvalues --    0.28811   0.29407   0.30181   0.31516   0.32573
 Alpha virt. eigenvalues --    0.38713   0.40485   0.47181   0.48549   0.54518
 Alpha virt. eigenvalues --    0.55077   0.56657   0.57143   0.58783   0.59806
 Alpha virt. eigenvalues --    0.60142   0.61459   0.62498   0.63593   0.65349
 Alpha virt. eigenvalues --    0.66671   0.67772   0.71266   0.72732   0.72954
 Alpha virt. eigenvalues --    0.74753   0.75995   0.77714   0.78160   0.79632
 Alpha virt. eigenvalues --    0.79867   0.81255   0.82753   0.84525   0.86223
 Alpha virt. eigenvalues --    0.87489   0.88712   0.89926   0.92009   0.92759
 Alpha virt. eigenvalues --    0.93339   0.94242   0.95301   0.95837   0.96209
 Alpha virt. eigenvalues --    0.96434   0.97359   0.98587   0.99378   1.00832
 Alpha virt. eigenvalues --    1.01402   1.03370   1.04535   1.05759   1.07470
 Alpha virt. eigenvalues --    1.14111   1.21675   1.22770   1.24462   1.26243
 Alpha virt. eigenvalues --    1.28120   1.32812   1.34606   1.36807   1.37942
 Alpha virt. eigenvalues --    1.40642   1.42769   1.44938   1.47567   1.48638
 Alpha virt. eigenvalues --    1.52196   1.60226   1.68257   1.69812   1.73161
 Alpha virt. eigenvalues --    1.75585   1.78365   1.78856   1.79270   1.83567
 Alpha virt. eigenvalues --    1.84699   1.84976   1.86915   1.87904   1.89333
 Alpha virt. eigenvalues --    1.90275   1.91661   1.94295   1.98122   2.02511
 Alpha virt. eigenvalues --    2.03094   2.04261   2.06327   2.09562   2.09981
 Alpha virt. eigenvalues --    2.10175   2.10335   2.11713   2.13193   2.14621
 Alpha virt. eigenvalues --    2.15051   2.16250   2.17388   2.17496   2.18870
 Alpha virt. eigenvalues --    2.19924   2.21929   2.22622   2.23585   2.25896
 Alpha virt. eigenvalues --    2.29269   2.30553   2.33942   2.34510   2.34760
 Alpha virt. eigenvalues --    2.38495   2.39237   2.43571   2.44014   2.44607
 Alpha virt. eigenvalues --    2.46455   2.47385   2.50212   2.52460   2.54913
 Alpha virt. eigenvalues --    2.56958   2.59740   2.61171   2.62473   2.64197
 Alpha virt. eigenvalues --    2.66652   2.68543   2.69345   2.71226   2.73663
 Alpha virt. eigenvalues --    2.74335   2.75417   2.76809   2.80637   2.84441
 Alpha virt. eigenvalues --    2.84693   2.86549   2.86892   2.87815   2.89377
 Alpha virt. eigenvalues --    2.90913   2.91171   2.92835   2.93863   3.02435
 Alpha virt. eigenvalues --    3.04792   3.10014   3.10368   3.17318   3.19170
 Alpha virt. eigenvalues --    3.20667   3.23783   3.29043   3.36118   3.39348
 Alpha virt. eigenvalues --    3.40931   3.42107   3.43421   3.43869   3.44751
 Alpha virt. eigenvalues --    3.45534   3.47148   3.48069   3.50231   3.52209
 Alpha virt. eigenvalues --    3.57981   4.19395   4.23319   4.34330   4.41925
 Alpha virt. eigenvalues --    4.48539   4.52493   4.53327   4.67112   4.70271
 Alpha virt. eigenvalues --    4.76892
          Condensed to atoms (all electrons):
               1          2          3          4          5          6
     1  C    5.045944   0.380601   0.388230   0.356043  -0.067618  -0.004122
     2  H    0.380601   0.600610  -0.033011  -0.028347   0.004327   0.000044
     3  H    0.388230  -0.033011   0.610732  -0.038488  -0.005914   0.003624
     4  C    0.356043  -0.028347  -0.038488   4.756264   0.371730  -0.031719
     5  C   -0.067618   0.004327  -0.005914   0.371730   4.998093   0.379115
     6  H   -0.004122   0.000044   0.003624  -0.031719   0.379115   0.587648
     7  H    0.004678  -0.000174   0.000149  -0.034683   0.386062  -0.026774
     8  H    0.000447   0.000035  -0.000280  -0.038614   0.382203  -0.036479
     9  C   -0.051335  -0.006961   0.004171   0.720004  -0.043023  -0.000541
    10  H    0.006039  -0.000022  -0.000178  -0.031924  -0.013753   0.000312
    11  C   -0.014367  -0.000688   0.000323  -0.044879   0.006158  -0.000164
    12  H    0.004052   0.003153  -0.000102  -0.009107   0.000107   0.000005
    13  H    0.000081   0.000180   0.000011   0.000590  -0.000139   0.000018
    14  H    0.000550  -0.000207  -0.000015  -0.000820  -0.000143  -0.000006
    15  C   -0.000073  -0.000098  -0.000003   0.000002  -0.000000  -0.000000
    16  H    0.000021  -0.000005  -0.000003  -0.000000   0.000000  -0.000000
    17  H   -0.000003  -0.000001   0.000003   0.000000   0.000000   0.000000
    18  H   -0.000006   0.000002   0.000000   0.000000  -0.000000   0.000000
    19  C   -0.005207   0.002349   0.000162   0.000134  -0.000003   0.000000
    20  C    0.000252   0.001163   0.000008  -0.000015  -0.000000   0.000000
    21  H   -0.000810  -0.000288   0.000006  -0.000031  -0.000001  -0.000000
    22  H    0.000149  -0.000167  -0.000003  -0.000009   0.000000  -0.000000
    23  H   -0.000025   0.000025  -0.000000   0.000002   0.000000   0.000000
    24  C   -0.053172  -0.001452  -0.000905   0.006128  -0.000124   0.000017
    25  H    0.000017  -0.000148   0.002180  -0.000135   0.000007  -0.000002
    26  C    0.351416  -0.039707  -0.043405  -0.044400  -0.001916  -0.000020
    27  H   -0.040955  -0.006319   0.005809  -0.003393  -0.000016   0.000003
    28  H   -0.044380   0.005826  -0.004575  -0.002371   0.001348   0.000042
               7          8          9         10         11         12
     1  C    0.004678   0.000447  -0.051335   0.006039  -0.014367   0.004052
     2  H   -0.000174   0.000035  -0.006961  -0.000022  -0.000688   0.003153
     3  H    0.000149  -0.000280   0.004171  -0.000178   0.000323  -0.000102
     4  C   -0.034683  -0.038614   0.720004  -0.031924  -0.044879  -0.009107
     5  C    0.386062   0.382203  -0.043023  -0.013753   0.006158   0.000107
     6  H   -0.026774  -0.036479  -0.000541   0.000312  -0.000164   0.000005
     7  H    0.573462  -0.027239  -0.005289   0.006512   0.000073   0.000008
     8  H   -0.027239   0.594535  -0.001032   0.000166  -0.000165  -0.000007
     9  C   -0.005289  -0.001032   4.889554   0.377247   0.361915  -0.035232
    10  H    0.006512   0.000166   0.377247   0.611897  -0.053646   0.004457
    11  C    0.000073  -0.000165   0.361915  -0.053646   4.978168   0.387835
    12  H    0.000008  -0.000007  -0.035232   0.004457   0.387835   0.584740
    13  H   -0.000007  -0.000004  -0.032592  -0.002005   0.385280  -0.027078
    14  H   -0.000005   0.000022  -0.033312  -0.000933   0.386301  -0.030587
    15  C    0.000000  -0.000000   0.000000   0.000000  -0.000000   0.000001
    16  H   -0.000000   0.000000   0.000000  -0.000000  -0.000000  -0.000000
    17  H   -0.000000  -0.000000  -0.000000   0.000000   0.000000  -0.000000
    18  H    0.000000   0.000000   0.000000   0.000000   0.000000  -0.000000
    19  C    0.000000  -0.000001  -0.000007   0.000000   0.000019  -0.000017
    20  C   -0.000000  -0.000000   0.000025  -0.000000  -0.000427  -0.000011
    21  H    0.000000   0.000000  -0.000053   0.000001   0.000105   0.002347
    22  H   -0.000000   0.000000   0.000001  -0.000000  -0.000018   0.000133
    23  H    0.000000  -0.000000  -0.000000   0.000000   0.000010  -0.000022
    24  C    0.000003  -0.000195   0.000230   0.000003  -0.000041  -0.000013
    25  H   -0.000000   0.000015  -0.000002  -0.000000   0.000000  -0.000002
    26  C   -0.000066   0.000973  -0.005916  -0.000090   0.000225  -0.001231
    27  H    0.000004   0.000005   0.002457  -0.000094   0.001421  -0.000446
    28  H   -0.000138   0.002028   0.000201  -0.000007  -0.000007   0.000016
              13         14         15         16         17         18
     1  C    0.000081   0.000550  -0.000073   0.000021  -0.000003  -0.000006
     2  H    0.000180  -0.000207  -0.000098  -0.000005  -0.000001   0.000002
     3  H    0.000011  -0.000015  -0.000003  -0.000003   0.000003   0.000000
     4  C    0.000590  -0.000820   0.000002  -0.000000   0.000000   0.000000
     5  C   -0.000139  -0.000143  -0.000000   0.000000   0.000000  -0.000000
     6  H    0.000018  -0.000006  -0.000000  -0.000000   0.000000   0.000000
     7  H   -0.000007  -0.000005   0.000000  -0.000000  -0.000000   0.000000
     8  H   -0.000004   0.000022  -0.000000   0.000000  -0.000000   0.000000
     9  C   -0.032592  -0.033312   0.000000   0.000000  -0.000000   0.000000
    10  H   -0.002005  -0.000933   0.000000  -0.000000   0.000000   0.000000
    11  C    0.385280   0.386301  -0.000000  -0.000000   0.000000   0.000000
    12  H   -0.027078  -0.030587   0.000001  -0.000000  -0.000000  -0.000000
    13  H    0.576722  -0.033569   0.000000  -0.000000  -0.000000   0.000000
    14  H   -0.033569   0.579703  -0.000000   0.000000  -0.000000  -0.000000
    15  C    0.000000  -0.000000   5.005500   0.381472   0.385088   0.381252
    16  H   -0.000000   0.000000   0.381472   0.591106  -0.026432  -0.036762
    17  H   -0.000000  -0.000000   0.385088  -0.026432   0.569943  -0.026265
    18  H    0.000000  -0.000000   0.381252  -0.036762  -0.026265   0.590175
    19  C   -0.000000   0.000002   0.368499  -0.036210  -0.033474  -0.035683
    20  C    0.000010  -0.000031  -0.078320  -0.001509   0.004740  -0.001300
    21  H   -0.000028   0.000213   0.004871  -0.000042  -0.000173  -0.000012
    22  H   -0.000001  -0.000000  -0.002491   0.003981  -0.000024  -0.000740
    23  H   -0.000000  -0.000001  -0.002875  -0.000840  -0.000024   0.004244
    24  C    0.000002  -0.000016  -0.038399  -0.000708  -0.004952  -0.001371
    25  H    0.000000   0.000000  -0.014238   0.000237   0.006503   0.000255
    26  C    0.000001   0.000124   0.005769  -0.000105   0.000104  -0.000207
    27  H    0.000033  -0.000060   0.000040  -0.000008   0.000011   0.000012
    28  H   -0.000001   0.000002  -0.000169  -0.000001  -0.000010   0.000009
              19         20         21         22         23         24
     1  C   -0.005207   0.000252  -0.000810   0.000149  -0.000025  -0.053172
     2  H    0.002349   0.001163  -0.000288  -0.000167   0.000025  -0.001452
     3  H    0.000162   0.000008   0.000006  -0.000003  -0.000000  -0.000905
     4  C    0.000134  -0.000015  -0.000031  -0.000009   0.000002   0.006128
     5  C   -0.000003  -0.000000  -0.000001   0.000000   0.000000  -0.000124
     6  H    0.000000   0.000000  -0.000000  -0.000000   0.000000   0.000017
     7  H    0.000000  -0.000000   0.000000  -0.000000   0.000000   0.000003
     8  H   -0.000001  -0.000000   0.000000   0.000000  -0.000000  -0.000195
     9  C   -0.000007   0.000025  -0.000053   0.000001  -0.000000   0.000230
    10  H    0.000000  -0.000000   0.000001  -0.000000   0.000000   0.000003
    11  C    0.000019  -0.000427   0.000105  -0.000018   0.000010  -0.000041
    12  H   -0.000017  -0.000011   0.002347   0.000133  -0.000022  -0.000013
    13  H   -0.000000   0.000010  -0.000028  -0.000001  -0.000000   0.000002
    14  H    0.000002  -0.000031   0.000213  -0.000000  -0.000001  -0.000016
    15  C    0.368499  -0.078320   0.004871  -0.002491  -0.002875  -0.038399
    16  H   -0.036210  -0.001509  -0.000042   0.003981  -0.000840  -0.000708
    17  H   -0.033474   0.004740  -0.000173  -0.000024  -0.000024  -0.004952
    18  H   -0.035683  -0.001300  -0.000012  -0.000740   0.004244  -0.001371
    19  C    4.717586   0.378802  -0.027088  -0.034963  -0.035954   0.721778
    20  C    0.378802   5.008219   0.381543   0.384249   0.382982  -0.053967
    21  H   -0.027088   0.381543   0.577418  -0.028875  -0.026149  -0.009653
    22  H   -0.034963   0.384249  -0.028875   0.583324  -0.034683  -0.000099
    23  H   -0.035954   0.382982  -0.026149  -0.034683   0.582314   0.001058
    24  C    0.721778  -0.053967  -0.009653  -0.000099   0.001058   4.917727
    25  H   -0.033862   0.006446   0.000029  -0.000169  -0.000155   0.376119
    26  C   -0.039104  -0.014610   0.003022   0.000612   0.000036   0.349186
    27  H   -0.006757  -0.000262   0.003092  -0.000226   0.000151  -0.037088
    28  H    0.002694   0.000412  -0.000068  -0.000015   0.000013  -0.029863
              25         26         27         28
     1  C    0.000017   0.351416  -0.040955  -0.044380
     2  H   -0.000148  -0.039707  -0.006319   0.005826
     3  H    0.002180  -0.043405   0.005809  -0.004575
     4  C   -0.000135  -0.044400  -0.003393  -0.002371
     5  C    0.000007  -0.001916  -0.000016   0.001348
     6  H   -0.000002  -0.000020   0.000003   0.000042
     7  H   -0.000000  -0.000066   0.000004  -0.000138
     8  H    0.000015   0.000973   0.000005   0.002028
     9  C   -0.000002  -0.005916   0.002457   0.000201
    10  H   -0.000000  -0.000090  -0.000094  -0.000007
    11  C    0.000000   0.000225   0.001421  -0.000007
    12  H   -0.000002  -0.001231  -0.000446   0.000016
    13  H    0.000000   0.000001   0.000033  -0.000001
    14  H    0.000000   0.000124  -0.000060   0.000002
    15  C   -0.014238   0.005769   0.000040  -0.000169
    16  H    0.000237  -0.000105  -0.000008  -0.000001
    17  H    0.006503   0.000104   0.000011  -0.000010
    18  H    0.000255  -0.000207   0.000012   0.000009
    19  C   -0.033862  -0.039104  -0.006757   0.002694
    20  C    0.006446  -0.014610  -0.000262   0.000412
    21  H    0.000029   0.003022   0.003092  -0.000068
    22  H   -0.000169   0.000612  -0.000226  -0.000015
    23  H   -0.000155   0.000036   0.000151   0.000013
    24  C    0.376119   0.349186  -0.037088  -0.029863
    25  H    0.612681  -0.050365   0.004504  -0.005109
    26  C   -0.050365   4.996518   0.390799   0.386760
    27  H    0.004504   0.390799   0.603563  -0.033180
    28  H   -0.005109   0.386760  -0.033180   0.604017
 Mulliken charges:
               1
     1  C   -0.256448
     2  H    0.119279
     3  H    0.111472
     4  C    0.098037
     5  C   -0.396500
     6  H    0.128999
     7  H    0.123426
     8  H    0.123588
     9  C   -0.140511
    10  H    0.096017
    11  C   -0.393430
    12  H    0.117002
    13  H    0.132496
    14  H    0.132788
    15  C   -0.395826
    16  H    0.125808
    17  H    0.124968
    18  H    0.126395
    19  C    0.096304
    20  C   -0.398398
    21  H    0.120624
    22  H    0.130035
    23  H    0.129894
    24  C   -0.140237
    25  H    0.095195
    26  C   -0.244401
    27  H    0.116899
    28  H    0.116526
 Sum of Mulliken charges =  -0.00000
 Mulliken charges with hydrogens summed into heavy atoms:
               1
     1  C   -0.025696
     4  C    0.098037
     5  C   -0.020488
     9  C   -0.044494
    11  C   -0.011145
    15  C   -0.018655
    19  C    0.096304
    20  C   -0.017846
    24  C   -0.045042
    26  C   -0.010976
 Electronic spatial extent (au):  <R**2>=           2351.1052
 Charge=              0.0000 electrons
 Dipole moment (field-independent basis, Debye):
    X=              0.2944    Y=              0.1661    Z=              0.0686  Tot=              0.3449
 Quadrupole moment (field-independent basis, Debye-Ang):
   XX=            -62.9781   YY=            -62.2068   ZZ=            -66.5059
   XY=              0.7397   XZ=              1.2398   YZ=             -0.2328
 Traceless Quadrupole moment (field-independent basis, Debye-Ang):
   XX=              0.9188   YY=              1.6901   ZZ=             -2.6090
   XY=              0.7397   XZ=              1.2398   YZ=             -0.2328
 Octapole moment (field-independent basis, Debye-Ang**2):
  XXX=              4.0755  YYY=             -1.9375  ZZZ=              1.3092  XYY=             -1.2601
  XXY=              3.6246  XXZ=             -1.2955  XZZ=              1.1215  YZZ=              1.4152
  YYZ=              0.0405  XYZ=              0.1708
 Hexadecapole moment (field-independent basis, Debye-Ang**3):
 XXXX=          -2362.1338 YYYY=           -682.1836 ZZZZ=           -161.6430 XXXY=              4.1333
 XXXZ=             12.7911 YYYX=            -12.7980 YYYZ=             -0.2031 ZZZX=              4.3501
 ZZZY=             -0.9867 XXYY=           -503.6856 XXZZ=           -437.0147 YYZZ=           -135.9661
 XXYZ=             -4.1583 YYXZ=             -1.4925 ZZXY=              6.1811
 N-N= 5.205808535210D+02 E-N=-1.946211207489D+03  KE= 3.881384089652D+02
 No NMR shielding tensors so no spin-rotation constants.
 Leave Link  601 at Mon Jul  5 23:09:49 2021, MaxMem=   524288000 cpu:               0.9 elap:               0.2
 (Enter /opt/gaussian/g16_legacy/l9999.exe)
 1\1\GINC-TRUENO95\FOpt\RM062X\6-31G(d,p)\C10H18\JRAMOS\05-Jul-2021\0\\
 #p opt=loose m062x/6-31g(d,p)\\Conformer number 005. Energy MM = 23.24
 2 kcal/mol\\0,1\C,-0.6519681076,-0.0477354558,-0.823020195\H,-0.394081
 5977,-1.0612540375,-0.4986778073\H,-0.357878959,0.0210825297,-1.877524
 7001\C,-2.1340436171,0.2185250646,-0.6902920379\C,-2.7212204765,1.1226
 754639,-1.7413816405\H,-2.6524493046,0.6617293975,-2.7334829839\H,-3.7
 698559287,1.3529082789,-1.5402016033\H,-2.1676749175,2.0679513408,-1.7
 954348831\C,-2.8773242061,-0.2571108095,0.3134463093\H,-3.9311092417,0
 .0199838805,0.340340794\C,-2.4118742105,-1.1347816236,1.4383272252\H,-
 1.3667215522,-1.4331124866,1.3304333021\H,-3.0168355609,-2.0453482598,
 1.5026599188\H,-2.5134110651,-0.6195156367,2.4001441862\C,3.9357612131
 ,-0.1558000691,0.1873271691\H,4.1913431917,-1.2038864929,-0.0077358747
 \H,4.2070651273,0.4333133266,-0.6913360397\H,4.5616674068,0.1693384812
 ,1.0266454158\C,2.4750931632,-0.0145782504,0.5243710937\C,2.0311180784
 ,-0.8100266355,1.7232165747\H,0.973194748,-0.6793781914,1.9560071643\H
 ,2.2108489246,-1.8782985102,1.5549303619\H,2.6132659409,-0.5302054013,
 2.6088115051\C,1.6640183503,0.7557884201,-0.2076597132\H,2.0947334738,
 1.2619819356,-1.0718624876\C,0.1874667469,0.9545626986,-0.0039477559\H
 ,-0.0887802896,0.8572991025,1.0510708365\H,-0.0899473299,1.9737919398,
 -0.2977741345\\Version=EM64L-G16RevA.03\State=1-A\HF=-391.6905457\RMSD
 =3.025e-09\RMSF=1.571e-05\Dipole=0.1045118,-0.0653961,0.0566691\Quadru
 pole=0.6135205,-0.9397799,0.3262593,-0.8939141,-0.1091469,-1.6100062\P
 G=C01 [X(C10H18)]\\@


 THE GREAT THING ABOUT BEING IMPERFECT IS THE JOY IT BRINGS OTHERS.
   -- SIGN OUTSIDE LAKE AGASSIZ JR. HIGH SCHOOL, FARGO, N.D.
 Job cpu time:       0 days  1 hours  5 minutes 37.1 seconds.
 Elapsed time:       0 days  0 hours 10 minutes 59.8 seconds.
 File lengths (MBytes):  RWF=     42 Int=      0 D2E=      0 Chk=      6 Scr=      1
 Normal termination of Gaussian 16 at Mon Jul  5 23:09:50 2021.
