 Copyright (c) 1988-2019, Gaussian, Inc.  All Rights Reserved.
  
 This is part of the Gaussian(R) 16 program.  It is based on
 the Gaussian(R) 09 system (copyright 2009, Gaussian, Inc.),
 the Gaussian(R) 03 system (copyright 2003, Gaussian, Inc.),
 the Gaussian(R) 98 system (copyright 1998, Gaussian, Inc.),
 the Gaussian(R) 94 system (copyright 1995, Gaussian, Inc.),
 the Gaussian 92(TM) system (copyright 1992, Gaussian, Inc.),
 the Gaussian 90(TM) system (copyright 1990, Gaussian, Inc.),
 the Gaussian 88(TM) system (copyright 1988, Gaussian, Inc.),
 the Gaussian 86(TM) system (copyright 1986, Carnegie Mellon
 University), and the Gaussian 82(TM) system (copyright 1983,
 Carnegie Mellon University). Gaussian is a federally registered
 trademark of Gaussian, Inc.
 Cite this work as:
 Gaussian 16, Revision C.01,
 M. J. Frisch, G. W. Trucks, H. B. Schlegel, G. E. Scuseria, 
 M. A. Robb, J. R. Cheeseman, G. Scalmani, V. Barone, 
 G. A. Petersson, H. Nakatsuji, X. Li, M. Caricato, A. V. Marenich, 
 J. Bloino, B. G. Janesko, R. Gomperts, B. Mennucci, H. P. Hratchian, 
 J. V. Ortiz, A. F. Izmaylov, J. L. Sonnenberg, D. Williams-Young, 
 F. Ding, F. Lipparini, F. Egidi, J. Goings, B. Peng, A. Petrone, 
 T. Henderson, D. Ranasinghe, V. G. Zakrzewski, J. Gao, N. Rega, 
 G. Zheng, W. Liang, M. Hada, M. Ehara, K. Toyota, R. Fukuda, 
 J. Hasegawa, M. Ishida, T. Nakajima, Y. Honda, O. Kitao, H. Nakai, 
 T. Vreven, K. Throssell, J. A. Montgomery, Jr., J. E. Peralta, 
 F. Ogliaro, M. J. Bearpark, J. J. Heyd, E. N. Brothers, K. N. Kudin, 
 V. N. Staroverov, T. A. Keith, R. Kobayashi, J. Normand, 
 K. Raghavachari, A. P. Rendell, J. C. Burant, S. S. Iyengar, 
 J. Tomasi, M. Cossi, J. M. Millam, M. Klene, C. Adamo, R. Cammi, 
 J. W. Ochterski, R. L. Martin, K. Morokuma, O. Farkas, 
 J. B. Foresman, and D. J. Fox, Gaussian, Inc., Wallingford CT, 2019.
 
 ******************************************
 Gaussian 16:  EM64L-G16RevC.01  3-Jul-2019
                 8-Jul-2023 
 ******************************************
 ----------------------------------------------------------------------
 #P B3LYP/6-31G(d) Integral=Ultrafine Opt=(Tight,MaxCycle=55) GFInput G
 FPrint SCF(Conver=8,XQC,MaxConventionalCycles=64,MaxCycle=128) Test
 ----------------------------------------------------------------------
 1/6=55,7=10,18=20,19=15,26=4,38=1/1,3;
 2/9=110,12=2,17=6,18=5,40=1/2;
 3/5=1,6=6,7=1,11=2,24=110,25=1,30=1,71=1,74=-5,75=-5/1,2,3;
 4//1;
 5/5=2,6=8,7=128,8=3,13=1,38=5,85=64/2,8;
 6/7=2,8=2,9=2,10=2,28=1/1;
 7//1,2,3,16;
 1/6=55,7=10,18=20,19=15,26=4/3(2);
 2/9=110/2;
 99//99;
 2/9=110/2;
 3/5=1,6=6,7=1,11=2,25=1,30=1,71=1,74=-5,75=-5/1,2,3;
 4/5=5,16=3,69=1/1;
 5/5=2,6=8,7=128,8=3,13=1,38=5,85=64/2,8;
 7//1,2,3,16;
 1/6=55,7=10,18=20,19=15,26=4/3(-5);
 2/9=110/2;
 6/7=2,8=2,9=2,10=2,19=2,28=1/1;
 99/9=1/99;
 ----------------------------------------------------------
 Optimization step - Input generated by PyRED DVE-DMDS-OPLS
 ----------------------------------------------------------
 Symbolic Z-matrix:
 Charge =  0 Multiplicity = 1
 C                     9.07101  -1.77006   0.88245 
 H                     9.93972  -1.92706   1.53251 
 H                     8.21528  -2.27271   1.34614 
 H                     9.27067  -2.24969  -0.0817 
 C                     8.82237  -0.2747    0.6915 
 H                     8.60944   0.20565   1.66094 
 H                     9.71612   0.20234   0.2754 
 O                     7.78187   0.02011  -0.23197 
 C                     6.47289  -0.21317   0.25057 
 H                     6.32151   0.26413   1.23263 
 H                     6.27029  -1.28891   0.37156 
 C                     5.50881   0.39892  -0.76633 
 H                     5.68467   1.47759  -0.82367 
 H                     5.69993  -0.02715  -1.76191 
 O                     4.15169   0.22     -0.38381 
 C                     3.57146  -1.00959  -0.8037 
 H                     4.11625  -1.86706  -0.3762 
 H                     3.61158  -1.09809  -1.90091 
 C                     2.12478  -1.07665  -0.33245 
 H                     2.07573  -0.82654   0.73568 
 H                     1.77357  -2.10762  -0.44764 
 O                     1.20837  -0.3      -1.09013 
 C                     1.31759   1.11436  -1.01434 
 H                     0.49626   1.4821   -1.63822 
 H                     2.25896   1.45753  -1.46455 
 C                     1.23277   1.73582   0.38379 
 H                     1.19396   2.8251    0.262 
 H                     2.13875   1.51093   0.95441 
 S                    -0.14327   1.19617   1.47759 
 C                    -1.62713   1.4686    0.41771 
 H                    -2.41637   1.80737   1.09571 
 H                    -1.42564   2.29145  -0.2751 
 C                    -2.0605    0.20887  -0.33657 
 H                    -2.30608  -0.59281   0.36682 
 H                    -1.24676  -0.1642   -0.96344 
 S                    -3.47714   0.49067  -1.47939 
 C                    -4.90105   0.59056  -0.31425 
 H                    -5.70105   1.05433  -0.89968 
 H                    -4.66862   1.27456   0.50721 
 C                    -5.34369  -0.77099   0.22373 
 H                    -5.57642  -1.45509  -0.59754 
 H                    -4.54342  -1.23464   0.80881 
 S                    -6.76659  -0.67557   1.38753 
 C                    -8.17744  -0.36983   0.24448 
 H                    -8.9967   -0.07763   0.91003 
 H                    -7.9546    0.50194  -0.3803 
 C                    -8.58298  -1.57168  -0.60764 
 H                    -8.8465   -2.4269    0.02227 
 H                    -9.45116  -1.31921  -1.22959 
 H                    -7.77629  -1.88352  -1.27966 
 
 ITRead=  0  0  0  0  0  0  0  0  0  0  0  0  0  0  0  0  0  0  0  0
 ITRead=  0  0  0  0  0  0  0  0  0  0  0  0  0  0  0  0  0  0  0  0
 ITRead=  0  0  0  0  0  0  0  0  0  0
 MicOpt= -1 -1 -1 -1 -1 -1 -1 -1 -1 -1 -1 -1 -1 -1 -1 -1 -1 -1 -1 -1
 MicOpt= -1 -1 -1 -1 -1 -1 -1 -1 -1 -1 -1 -1 -1 -1 -1 -1 -1 -1 -1 -1
 MicOpt= -1 -1 -1 -1 -1 -1 -1 -1 -1 -1
 NAtoms=     50 NQM=       50 NQMF=       0 NMMI=      0 NMMIF=      0
                NMic=       0 NMicF=      0.
                          Input orientation:                          
 ---------------------------------------------------------------------
 Center     Atomic      Atomic             Coordinates (Angstroms)
 Number     Number       Type             X           Y           Z
 ---------------------------------------------------------------------
      1          6           0        9.071009   -1.770058    0.882445
      2          1           0        9.939718   -1.927062    1.532512
      3          1           0        8.215282   -2.272709    1.346140
      4          1           0        9.270670   -2.249686   -0.081698
      5          6           0        8.822370   -0.274704    0.691501
      6          1           0        8.609437    0.205654    1.660939
      7          1           0        9.716117    0.202335    0.275395
      8          8           0        7.781870    0.020109   -0.231971
      9          6           0        6.472893   -0.213166    0.250566
     10          1           0        6.321510    0.264127    1.232625
     11          1           0        6.270287   -1.288906    0.371558
     12          6           0        5.508814    0.398922   -0.766325
     13          1           0        5.684665    1.477588   -0.823674
     14          1           0        5.699927   -0.027150   -1.761906
     15          8           0        4.151693    0.219998   -0.383806
     16          6           0        3.571461   -1.009588   -0.803697
     17          1           0        4.116250   -1.867062   -0.376200
     18          1           0        3.611576   -1.098089   -1.900907
     19          6           0        2.124784   -1.076646   -0.332450
     20          1           0        2.075728   -0.826541    0.735678
     21          1           0        1.773567   -2.107619   -0.447637
     22          8           0        1.208371   -0.299998   -1.090129
     23          6           0        1.317590    1.114358   -1.014343
     24          1           0        0.496262    1.482101   -1.638224
     25          1           0        2.258957    1.457533   -1.464546
     26          6           0        1.232771    1.735815    0.383788
     27          1           0        1.193956    2.825096    0.261997
     28          1           0        2.138746    1.510933    0.954414
     29         16           0       -0.143268    1.196167    1.477585
     30          6           0       -1.627130    1.468595    0.417709
     31          1           0       -2.416368    1.807369    1.095712
     32          1           0       -1.425640    2.291453   -0.275104
     33          6           0       -2.060502    0.208867   -0.336569
     34          1           0       -2.306083   -0.592808    0.366823
     35          1           0       -1.246757   -0.164202   -0.963441
     36         16           0       -3.477140    0.490668   -1.479389
     37          6           0       -4.901054    0.590560   -0.314251
     38          1           0       -5.701054    1.054332   -0.899678
     39          1           0       -4.668623    1.274557    0.507210
     40          6           0       -5.343687   -0.770988    0.223726
     41          1           0       -5.576423   -1.455088   -0.597541
     42          1           0       -4.543422   -1.234636    0.808811
     43         16           0       -6.766588   -0.675572    1.387528
     44          6           0       -8.177437   -0.369832    0.244484
     45          1           0       -8.996698   -0.077626    0.910029
     46          1           0       -7.954599    0.501943   -0.380295
     47          6           0       -8.582980   -1.571683   -0.607643
     48          1           0       -8.846497   -2.426903    0.022269
     49          1           0       -9.451161   -1.319210   -1.229595
     50          1           0       -7.776288   -1.883521   -1.279659
 ---------------------------------------------------------------------
 Stoichiometry    C14H30O3S3
 Framework group  C1[X(C14H30O3S3)]
                         Standard orientation:                         
 ---------------------------------------------------------------------
 Center     Atomic      Atomic             Coordinates (Angstroms)
 Number     Number       Type             X           Y           Z
 ---------------------------------------------------------------------
      1          6           0       -9.071009    1.770058    0.882445
      2          1           0       -9.939718    1.927062    1.532512
      3          1           0       -8.215282    2.272709    1.346140
      4          1           0       -9.270670    2.249686   -0.081698
      5          6           0       -8.822370    0.274704    0.691501
      6          1           0       -8.609437   -0.205654    1.660939
      7          1           0       -9.716117   -0.202335    0.275395
      8          8           0       -7.781870   -0.020109   -0.231971
      9          6           0       -6.472893    0.213166    0.250566
     10          1           0       -6.321510   -0.264127    1.232625
     11          1           0       -6.270287    1.288906    0.371558
     12          6           0       -5.508814   -0.398922   -0.766325
     13          1           0       -5.684665   -1.477588   -0.823674
     14          1           0       -5.699927    0.027150   -1.761906
     15          8           0       -4.151693   -0.219998   -0.383806
     16          6           0       -3.571461    1.009588   -0.803697
     17          1           0       -4.116250    1.867062   -0.376200
     18          1           0       -3.611576    1.098089   -1.900907
     19          6           0       -2.124784    1.076646   -0.332450
     20          1           0       -2.075728    0.826541    0.735678
     21          1           0       -1.773567    2.107619   -0.447637
     22          8           0       -1.208371    0.299998   -1.090129
     23          6           0       -1.317590   -1.114358   -1.014343
     24          1           0       -0.496262   -1.482101   -1.638224
     25          1           0       -2.258957   -1.457533   -1.464546
     26          6           0       -1.232771   -1.735815    0.383788
     27          1           0       -1.193956   -2.825096    0.261997
     28          1           0       -2.138746   -1.510933    0.954414
     29         16           0        0.143268   -1.196167    1.477585
     30          6           0        1.627130   -1.468595    0.417709
     31          1           0        2.416368   -1.807369    1.095712
     32          1           0        1.425640   -2.291453   -0.275104
     33          6           0        2.060502   -0.208867   -0.336569
     34          1           0        2.306083    0.592808    0.366823
     35          1           0        1.246757    0.164202   -0.963441
     36         16           0        3.477140   -0.490668   -1.479389
     37          6           0        4.901054   -0.590560   -0.314251
     38          1           0        5.701054   -1.054332   -0.899678
     39          1           0        4.668623   -1.274557    0.507210
     40          6           0        5.343687    0.770988    0.223726
     41          1           0        5.576423    1.455088   -0.597541
     42          1           0        4.543422    1.234636    0.808811
     43         16           0        6.766588    0.675572    1.387528
     44          6           0        8.177437    0.369832    0.244484
     45          1           0        8.996698    0.077626    0.910029
     46          1           0        7.954599   -0.501943   -0.380295
     47          6           0        8.582980    1.571683   -0.607643
     48          1           0        8.846497    2.426903    0.022269
     49          1           0        9.451161    1.319210   -1.229595
     50          1           0        7.776288    1.883521   -1.279659
 ---------------------------------------------------------------------
 Standard basis: 6-31G(d) (6D, 7F)
   372 basis functions,   752 primitive gaussians,   372 cartesian basis functions
    93 alpha electrons       93 beta electrons
 Requested convergence on RMS density matrix=1.00D-08 within  64 cycles.
 Requested convergence on MAX density matrix=1.00D-06.
 Requested convergence on             energy=1.00D-06.
 SCF Done:  E(RB3LYP) =  -1971.75409392     A.U. after   13 cycles
            NFock= 13  Conv=0.54D-08     -V/T= 2.0058
 Mulliken charges:
     1  C   -0.461880
     2  H    0.146892
     3  H    0.150523
     4  H    0.158759
     5  C   -0.014284
     6  H    0.122523
     7  H    0.147118
     8  O   -0.474421
     9  C   -0.029124
    10  H    0.128298
    11  H    0.125162
    12  C   -0.039192
    13  H    0.155630
    14  H    0.138407
    15  O   -0.482234
    16  C   -0.040140
    17  H    0.125574
    18  H    0.138618
    19  C   -0.042111
    20  H    0.151772
    21  H    0.149457
    22  O   -0.468720
    23  C   -0.017814
    24  H    0.146546
    25  H    0.154250
    26  C   -0.453076
    27  H    0.170067
    28  H    0.193584
    29  S    0.080878
    30  C   -0.415974
    31  H    0.179694
    32  H    0.180337
    33  C   -0.422581
    34  H    0.177429
    35  H    0.216589
    36  S    0.070882
    37  C   -0.412285
    38  H    0.178274
    39  H    0.184160
    40  C   -0.412346
    41  H    0.185831
    42  H    0.181395
    43  S    0.078474
    44  C   -0.410170
    45  H    0.177346
    46  H    0.169004
    47  C   -0.435788
    48  H    0.164681
    49  H    0.149128
    50  H    0.154854
 Sum of Mulliken charges =  -0.00000
 Dipole moment (field-independent basis, Debye):
    X=             -2.2265    Y=              0.4751    Z=             -0.5012  Tot=              2.3312
 Quadrupole moment (field-independent basis, Debye-Ang):
   XX=           -119.0865   YY=           -144.3485   ZZ=           -156.7820
   XY=             -7.3869   XZ=            -12.3808   YZ=              1.0845
 Traceless Quadrupole moment (field-independent basis, Debye-Ang):
   XX=             20.9859   YY=             -4.2762   ZZ=            -16.7097
   XY=             -7.3869   XZ=            -12.3808   YZ=              1.0845
 Octapole moment (field-independent basis, Debye-Ang**2):
  XXX=            -47.6161  YYY=             -2.4970  ZZZ=            -12.5189  XYY=            -34.7731
  XXY=             25.0441  XXZ=              5.4577  XZZ=            -53.4235  YZZ=              3.3016
  YYZ=             -9.4550  XYZ=            -10.4409
 Hexadecapole moment (field-independent basis, Debye-Ang**3):
 XXXX=         -22632.9756 YYYY=          -1102.6318 ZZZZ=          -1019.5604 XXXY=           -354.0207
 XXXZ=           -972.9972 YYYX=              2.2573 YYYZ=              1.3357 ZZZX=              7.1795
 ZZZY=              7.2725 XXYY=          -4492.8344 XXZZ=          -4577.1141 YYZZ=           -367.7489
 XXYZ=            -53.6876 YYXZ=              2.5211 ZZXY=            -10.0572
 Step number   1 out of a maximum of   55
     Eigenvalues ---    0.00230   0.00230   0.00230   0.00230   0.00230
     Eigenvalues ---    0.00230   0.00338   0.00357   0.00377   0.00381
     Eigenvalues ---    0.00394   0.00397   0.00462   0.01388   0.01399
     Eigenvalues ---    0.01410   0.01419   0.01424   0.01501   0.04055
     Eigenvalues ---    0.04317   0.04401   0.04453   0.04464   0.04466
     Eigenvalues ---    0.04529   0.04568   0.04669   0.04888   0.05212
     Eigenvalues ---    0.05421   0.05478   0.05479   0.05557   0.05562
     Eigenvalues ---    0.05595   0.05600   0.05607   0.05618   0.05663
     Eigenvalues ---    0.05672   0.05745   0.05832   0.05896   0.05959
     Eigenvalues ---    0.05967   0.06050   0.10986   0.11198   0.11551
     Eigenvalues ---    0.11565   0.11570   0.11595   0.11612   0.11781
     Eigenvalues ---    0.11882   0.11921   0.11970   0.12068   0.13567
     Eigenvalues ---    0.13741   0.13898   0.13927   0.13938   0.13940
     Eigenvalues ---    0.13950   0.14045   0.14072   0.14165   0.14215
     Eigenvalues ---    0.14237   0.16000   0.16000   0.16000   0.16000
     Eigenvalues ---    0.16000   0.16000   0.21938   0.21999   0.22001
     Eigenvalues ---    0.22008   0.22011   0.22011   0.22014   0.22049
     Eigenvalues ---    0.22054   0.22093   0.22096   0.22114   0.22953
     Eigenvalues ---    0.23031   0.23081   0.23113   0.23156   0.23286
     Eigenvalues ---    0.25000   0.25000   0.25000   0.25000   0.25000
     Eigenvalues ---    0.25000   0.29205   0.29340   0.29476   0.29506
     Eigenvalues ---    0.29601   0.29622   0.30082   0.33388   0.33424
     Eigenvalues ---    0.33442   0.33516   0.33537   0.33720   0.33853
     Eigenvalues ---    0.33891   0.33970   0.34043   0.34094   0.34191
     Eigenvalues ---    0.34194   0.34211   0.34215   0.34215   0.34217
     Eigenvalues ---    0.34218   0.34240   0.34304   0.34307   0.34308
     Eigenvalues ---    0.34309   0.34311   0.34313   0.34328   0.34347
     Eigenvalues ---    0.34363   0.34365   0.34485   0.42015   0.42146
     Eigenvalues ---    0.42264   0.42372   0.42425   0.43307
 Maximum Force            0.000001     0.000015     YES
 RMS     Force            0.000000     0.000010     YES
 Maximum Displacement     0.000310     0.000060     NO 
 RMS     Displacement     0.000088     0.000040     NO 
                          Input orientation:                          
 ---------------------------------------------------------------------
 Center     Atomic      Atomic             Coordinates (Angstroms)
 Number     Number       Type             X           Y           Z
 ---------------------------------------------------------------------
      1          6           0        9.070971   -1.770111    0.882399
      2          1           0        9.939693   -1.927112    1.532450
      3          1           0        8.215246   -2.272732    1.346130
      4          1           0        9.270599   -2.249772   -0.081735
      5          6           0        8.822357   -0.274759    0.691415
      6          1           0        8.609457    0.205633    1.660844
      7          1           0        9.716103    0.202251    0.275272
      8          8           0        7.781840    0.020046   -0.232040
      9          6           0        6.472870   -0.213187    0.250537
     10          1           0        6.321521    0.264139    1.232585
     11          1           0        6.270245   -1.288920    0.371568
     12          6           0        5.508778    0.398887   -0.766349
     13          1           0        5.684649    1.477548   -0.823737
     14          1           0        5.699858   -0.027220   -1.761921
     15          8           0        4.151662    0.220003   -0.383791
     16          6           0        3.571398   -1.009588   -0.803624
     17          1           0        4.116180   -1.867057   -0.376109
     18          1           0        3.611487   -1.098129   -1.900831
     19          6           0        2.124731   -1.076601   -0.332342
     20          1           0        2.075703   -0.826454    0.735777
     21          1           0        1.773492   -2.107573   -0.447481
     22          8           0        1.208315   -0.299966   -1.090030
     23          6           0        1.317562    1.114392   -1.014300
     24          1           0        0.496232    1.482126   -1.638183
     25          1           0        2.258929    1.457533   -1.464530
     26          6           0        1.232774    1.735905    0.383807
     27          1           0        1.193982    2.825181    0.261974
     28          1           0        2.138750    1.511025    0.954432
     29         16           0       -0.143266    1.196331    1.477640
     30          6           0       -1.627127    1.468704    0.417750
     31          1           0       -2.416378    1.807472    1.095740
     32          1           0       -1.425651    2.291555   -0.275076
     33          6           0       -2.060460    0.208952   -0.336512
     34          1           0       -2.306030   -0.592716    0.366891
     35          1           0       -1.246699   -0.164108   -0.963367
     36         16           0       -3.477091    0.490700   -1.479354
     37          6           0       -4.901027    0.590549   -0.314239
     38          1           0       -5.701028    1.054306   -0.899676
     39          1           0       -4.668627    1.274545    0.507231
     40          6           0       -5.343638   -0.771014    0.223720
     41          1           0       -5.576343   -1.455113   -0.597557
     42          1           0       -4.543372   -1.234648    0.808815
     43         16           0       -6.766563   -0.675641    1.387496
     44          6           0       -8.177394   -0.369907    0.244428
     45          1           0       -8.996673   -0.077725    0.909962
     46          1           0       -7.954559    0.501882   -0.380332
     47          6           0       -8.582900   -1.571751   -0.607726
     48          1           0       -8.846416   -2.426986    0.022167
     49          1           0       -9.451073   -1.319282   -1.229692
     50          1           0       -7.776190   -1.883565   -1.279731
 ---------------------------------------------------------------------
 Stoichiometry    C14H30O3S3
 Framework group  C1[X(C14H30O3S3)]
                         Standard orientation:                         
 ---------------------------------------------------------------------
 Center     Atomic      Atomic             Coordinates (Angstroms)
 Number     Number       Type             X           Y           Z
 ---------------------------------------------------------------------
      1          6           0       -9.070969    1.770125    0.882392
      2          1           0       -9.939691    1.927126    1.532443
      3          1           0       -8.215243    2.272745    1.346123
      4          1           0       -9.270597    2.249786   -0.081742
      5          6           0       -8.822355    0.274772    0.691408
      6          1           0       -8.609456   -0.205620    1.660837
      7          1           0       -9.716102   -0.202237    0.275265
      8          8           0       -7.781838   -0.020033   -0.232047
      9          6           0       -6.472868    0.213200    0.250530
     10          1           0       -6.321520   -0.264127    1.232578
     11          1           0       -6.270243    1.288933    0.371561
     12          6           0       -5.508776   -0.398875   -0.766356
     13          1           0       -5.684648   -1.477536   -0.823743
     14          1           0       -5.699857    0.027232   -1.761928
     15          8           0       -4.151661   -0.219991   -0.383798
     16          6           0       -3.571396    1.009599   -0.803631
     17          1           0       -4.116178    1.867068   -0.376115
     18          1           0       -3.611485    1.098140   -1.900838
     19          6           0       -2.124729    1.076612   -0.332349
     20          1           0       -2.075701    0.826465    0.735770
     21          1           0       -1.773489    2.107583   -0.447488
     22          8           0       -1.208313    0.299976   -1.090037
     23          6           0       -1.317561   -1.114381   -1.014307
     24          1           0       -0.496231   -1.482116   -1.638189
     25          1           0       -2.258928   -1.457522   -1.464537
     26          6           0       -1.232773   -1.735895    0.383800
     27          1           0       -1.193981   -2.825171    0.261967
     28          1           0       -2.138749   -1.511014    0.954425
     29         16           0        0.143267   -1.196321    1.477633
     30          6           0        1.627127   -1.468695    0.417743
     31          1           0        2.416379   -1.807463    1.095733
     32          1           0        1.425652   -2.291546   -0.275083
     33          6           0        2.060462   -0.208944   -0.336519
     34          1           0        2.306032    0.592725    0.366884
     35          1           0        1.246701    0.164117   -0.963374
     36         16           0        3.477092   -0.490692   -1.479361
     37          6           0        4.901028   -0.590542   -0.314246
     38          1           0        5.701029   -1.054299   -0.899683
     39          1           0        4.668628   -1.274537    0.507224
     40          6           0        5.343640    0.771021    0.223713
     41          1           0        5.576345    1.455120   -0.597564
     42          1           0        4.543375    1.234656    0.808808
     43         16           0        6.766565    0.675648    1.387489
     44          6           0        8.177396    0.369913    0.244421
     45          1           0        8.996674    0.077731    0.909955
     46          1           0        7.954560   -0.501876   -0.380339
     47          6           0        8.582903    1.571757   -0.607733
     48          1           0        8.846418    2.426992    0.022160
     49          1           0        9.451075    1.319288   -1.229699
     50          1           0        7.776192    1.883571   -1.279737
 ---------------------------------------------------------------------
 Standard basis: 6-31G(d) (6D, 7F)
   372 basis functions,   752 primitive gaussians,   372 cartesian basis functions
    93 alpha electrons       93 beta electrons
 Requested convergence on RMS density matrix=1.00D-08 within  64 cycles.
 Requested convergence on MAX density matrix=1.00D-06.
 Requested convergence on             energy=1.00D-06.
 SCF Done:  E(RB3LYP) =  -1971.75409392     A.U. after    4 cycles
            NFock=  4  Conv=0.86D-08     -V/T= 2.0058
 Step number   2 out of a maximum of   55
     Eigenvalues ---    0.00213   0.00230   0.00230   0.00230   0.00230
     Eigenvalues ---    0.00317   0.00354   0.00377   0.00381   0.00394
     Eigenvalues ---    0.00397   0.00459   0.01035   0.01341   0.01388
     Eigenvalues ---    0.01400   0.01418   0.01444   0.01501   0.04054
     Eigenvalues ---    0.04304   0.04396   0.04446   0.04456   0.04476
     Eigenvalues ---    0.04568   0.04656   0.04868   0.05123   0.05175
     Eigenvalues ---    0.05415   0.05477   0.05478   0.05536   0.05564
     Eigenvalues ---    0.05581   0.05599   0.05604   0.05618   0.05671
     Eigenvalues ---    0.05744   0.05822   0.05834   0.05899   0.05946
     Eigenvalues ---    0.05965   0.06049   0.10982   0.11197   0.11402
     Eigenvalues ---    0.11562   0.11581   0.11600   0.11616   0.11781
     Eigenvalues ---    0.11882   0.11901   0.11970   0.12035   0.13537
     Eigenvalues ---    0.13692   0.13909   0.13927   0.13940   0.13949
     Eigenvalues ---    0.14028   0.14058   0.14061   0.14165   0.14228
     Eigenvalues ---    0.14259   0.15874   0.16000   0.16000   0.16000
     Eigenvalues ---    0.16000   0.16001   0.21647   0.21940   0.22000
     Eigenvalues ---    0.22009   0.22011   0.22012   0.22027   0.22042
     Eigenvalues ---    0.22054   0.22087   0.22101   0.22620   0.23004
     Eigenvalues ---    0.23025   0.23110   0.23119   0.23154   0.23527
     Eigenvalues ---    0.24464   0.25000   0.25000   0.25000   0.25000
     Eigenvalues ---    0.27688   0.29210   0.29376   0.29505   0.29569
     Eigenvalues ---    0.29613   0.30077   0.31003   0.33321   0.33421
     Eigenvalues ---    0.33426   0.33505   0.33517   0.33611   0.33822
     Eigenvalues ---    0.33877   0.33935   0.33971   0.34067   0.34132
     Eigenvalues ---    0.34193   0.34197   0.34213   0.34216   0.34216
     Eigenvalues ---    0.34218   0.34241   0.34255   0.34304   0.34307
     Eigenvalues ---    0.34309   0.34313   0.34319   0.34329   0.34346
     Eigenvalues ---    0.34359   0.34365   0.35866   0.41996   0.42119
     Eigenvalues ---    0.42199   0.42278   0.42488   0.43312
 Maximum Force            0.000003     0.000015     YES
 RMS     Force            0.000000     0.000010     YES
 Maximum Displacement     0.000305     0.000060     NO 
 RMS     Displacement     0.000091     0.000040     NO 
                          Input orientation:                          
 ---------------------------------------------------------------------
 Center     Atomic      Atomic             Coordinates (Angstroms)
 Number     Number       Type             X           Y           Z
 ---------------------------------------------------------------------
      1          6           0        9.071043   -1.770037    0.882403
      2          1           0        9.939761   -1.927034    1.532460
      3          1           0        8.215325   -2.272692    1.346109
      4          1           0        9.270694   -2.249665   -0.081743
      5          6           0        8.822394   -0.274685    0.691458
      6          1           0        8.609471    0.205674    1.660899
      7          1           0        9.716134    0.202359    0.275339
      8          8           0        7.781880    0.020121   -0.232001
      9          6           0        6.472911   -0.213159    0.250554
     10          1           0        6.321538    0.264136    1.232614
     11          1           0        6.270311   -1.288900    0.371553
     12          6           0        5.508815    0.398921   -0.766326
     13          1           0        5.684662    1.477589   -0.823681
     14          1           0        5.699918   -0.027153   -1.761907
     15          8           0        4.151700    0.219993   -0.383789
     16          6           0        3.571472   -1.009601   -0.803662
     17          1           0        4.116269   -1.867068   -0.376163
     18          1           0        3.611577   -1.098111   -1.900871
     19          6           0        2.124800   -1.076663   -0.332400
     20          1           0        2.075752   -0.826545    0.735725
     21          1           0        1.773587   -2.107640   -0.447572
     22          8           0        1.208375   -0.300029   -1.090080
     23          6           0        1.317587    1.114329   -1.014310
     24          1           0        0.496257    1.482060   -1.638194
     25          1           0        2.258952    1.457505   -1.464517
     26          6           0        1.232762    1.735803    0.383812
     27          1           0        1.193947    2.825082    0.262007
     28          1           0        2.138736    1.510929    0.954445
     29         16           0       -0.143281    1.196169    1.477611
     30          6           0       -1.627137    1.468587    0.417725
     31          1           0       -2.416375    1.807378    1.095718
     32          1           0       -1.425639    2.291431   -0.275101
     33          6           0       -2.060511    0.208847   -0.336536
     34          1           0       -2.306102   -0.592813    0.366868
     35          1           0       -1.246762   -0.164237   -0.963393
     36         16           0       -3.477136    0.490638   -1.479373
     37          6           0       -4.901063    0.590551   -0.314253
     38          1           0       -5.701052    1.054323   -0.899694
     39          1           0       -4.668639    1.274553    0.507204
     40          6           0       -5.343715   -0.770990    0.223730
     41          1           0       -5.576445   -1.455095   -0.597535
     42          1           0       -4.543461   -1.234640    0.808829
     43         16           0       -6.766631   -0.675553    1.387511
     44          6           0       -8.177459   -0.369805    0.244444
     45          1           0       -8.996727   -0.077587    0.909975
     46          1           0       -7.954604    0.501964   -0.380336
     47          6           0       -8.583002   -1.571656   -0.607684
     48          1           0       -8.846537   -2.426871    0.022228
     49          1           0       -9.451170   -1.319177   -1.229651
     50          1           0       -7.776303   -1.883505   -1.279686
 ---------------------------------------------------------------------
 Stoichiometry    C14H30O3S3
 Framework group  C1[X(C14H30O3S3)]
                         Standard orientation:                         
 ---------------------------------------------------------------------
 Center     Atomic      Atomic             Coordinates (Angstroms)
 Number     Number       Type             X           Y           Z
 ---------------------------------------------------------------------
      1          6           0       -9.071046    1.770033    0.882399
      2          1           0       -9.939765    1.927030    1.532456
      3          1           0       -8.215329    2.272688    1.346106
      4          1           0       -9.270698    2.249661   -0.081746
      5          6           0       -8.822398    0.274681    0.691454
      6          1           0       -8.609474   -0.205678    1.660895
      7          1           0       -9.716137   -0.202363    0.275335
      8          8           0       -7.781884   -0.020124   -0.232004
      9          6           0       -6.472914    0.213155    0.250551
     10          1           0       -6.321542   -0.264139    1.232610
     11          1           0       -6.270314    1.288897    0.371549
     12          6           0       -5.508819   -0.398924   -0.766330
     13          1           0       -5.684665   -1.477592   -0.823684
     14          1           0       -5.699922    0.027150   -1.761911
     15          8           0       -4.151703   -0.219995   -0.383793
     16          6           0       -3.571476    1.009598   -0.803665
     17          1           0       -4.116273    1.867065   -0.376166
     18          1           0       -3.611580    1.098108   -1.900875
     19          6           0       -2.124804    1.076660   -0.332403
     20          1           0       -2.075756    0.826543    0.735721
     21          1           0       -1.773591    2.107637   -0.447575
     22          8           0       -1.208378    0.300027   -1.090083
     23          6           0       -1.317590   -1.114331   -1.014314
     24          1           0       -0.496260   -1.482062   -1.638198
     25          1           0       -2.258955   -1.457508   -1.464521
     26          6           0       -1.232766   -1.735805    0.383809
     27          1           0       -1.193950   -2.825084    0.262003
     28          1           0       -2.138739   -1.510932    0.954441
     29         16           0        0.143277   -1.196171    1.477607
     30          6           0        1.627133   -1.468588    0.417721
     31          1           0        2.416372   -1.807379    1.095714
     32          1           0        1.425636   -2.291433   -0.275105
     33          6           0        2.060507   -0.208849   -0.336539
     34          1           0        2.306098    0.592812    0.366864
     35          1           0        1.246759    0.164236   -0.963397
     36         16           0        3.477132   -0.490639   -1.479377
     37          6           0        4.901060   -0.590552   -0.314257
     38          1           0        5.701049   -1.054323   -0.899698
     39          1           0        4.668635   -1.274554    0.507201
     40          6           0        5.343711    0.770989    0.223726
     41          1           0        5.576441    1.455094   -0.597538
     42          1           0        4.543457    1.234639    0.808826
     43         16           0        6.766627    0.675552    1.387508
     44          6           0        8.177455    0.369805    0.244440
     45          1           0        8.996724    0.077587    0.909971
     46          1           0        7.954600   -0.501965   -0.380340
     47          6           0        8.582998    1.571656   -0.607688
     48          1           0        8.846533    2.426871    0.022224
     49          1           0        9.451167    1.319177   -1.229655
     50          1           0        7.776299    1.883505   -1.279689
 ---------------------------------------------------------------------
 Standard basis: 6-31G(d) (6D, 7F)
   372 basis functions,   752 primitive gaussians,   372 cartesian basis functions
    93 alpha electrons       93 beta electrons
 Requested convergence on RMS density matrix=1.00D-08 within  64 cycles.
 Requested convergence on MAX density matrix=1.00D-06.
 Requested convergence on             energy=1.00D-06.
 SCF Done:  E(RB3LYP) =  -1971.75409392     A.U. after    4 cycles
            NFock=  4  Conv=0.27D-08     -V/T= 2.0058
 Step number   3 out of a maximum of   55
     Eigenvalues ---    0.00207   0.00230   0.00230   0.00230   0.00230
     Eigenvalues ---    0.00312   0.00354   0.00377   0.00381   0.00394
     Eigenvalues ---    0.00397   0.00459   0.01137   0.01333   0.01388
     Eigenvalues ---    0.01400   0.01415   0.01430   0.01501   0.04054
     Eigenvalues ---    0.04306   0.04394   0.04449   0.04456   0.04474
     Eigenvalues ---    0.04568   0.04658   0.04867   0.05039   0.05192
     Eigenvalues ---    0.05417   0.05477   0.05479   0.05538   0.05562
     Eigenvalues ---    0.05583   0.05600   0.05606   0.05618   0.05671
     Eigenvalues ---    0.05744   0.05785   0.05880   0.05895   0.05945
     Eigenvalues ---    0.05964   0.06049   0.10980   0.11196   0.11433
     Eigenvalues ---    0.11562   0.11583   0.11611   0.11638   0.11780
     Eigenvalues ---    0.11882   0.11904   0.11971   0.12037   0.13544
     Eigenvalues ---    0.13703   0.13908   0.13928   0.13940   0.13949
     Eigenvalues ---    0.14025   0.14049   0.14063   0.14165   0.14230
     Eigenvalues ---    0.14307   0.15894   0.16000   0.16000   0.16000
     Eigenvalues ---    0.16000   0.16001   0.21776   0.21941   0.22000
     Eigenvalues ---    0.22010   0.22011   0.22012   0.22027   0.22039
     Eigenvalues ---    0.22054   0.22096   0.22123   0.22680   0.22999
     Eigenvalues ---    0.23035   0.23112   0.23139   0.23157   0.23694
     Eigenvalues ---    0.24504   0.25000   0.25000   0.25000   0.25008
     Eigenvalues ---    0.27810   0.29205   0.29389   0.29506   0.29575
     Eigenvalues ---    0.29614   0.30078   0.31466   0.33417   0.33425
     Eigenvalues ---    0.33477   0.33511   0.33556   0.33610   0.33822
     Eigenvalues ---    0.33857   0.33921   0.33971   0.34067   0.34135
     Eigenvalues ---    0.34193   0.34195   0.34213   0.34216   0.34216
     Eigenvalues ---    0.34218   0.34244   0.34254   0.34304   0.34308
     Eigenvalues ---    0.34309   0.34313   0.34317   0.34328   0.34344
     Eigenvalues ---    0.34359   0.34365   0.36472   0.41992   0.42117
     Eigenvalues ---    0.42199   0.42279   0.42422   0.43302
 Maximum Force            0.000000     0.000015     YES
 RMS     Force            0.000000     0.000010     YES
 Maximum Displacement     0.000158     0.000060     NO 
 RMS     Displacement     0.000048     0.000040     NO 
                          Input orientation:                          
 ---------------------------------------------------------------------
 Center     Atomic      Atomic             Coordinates (Angstroms)
 Number     Number       Type             X           Y           Z
 ---------------------------------------------------------------------
      1          6           0        9.071004   -1.770075    0.882433
      2          1           0        9.939713   -1.927087    1.532499
      3          1           0        8.215277   -2.272731    1.346123
      4          1           0        9.270665   -2.249692   -0.081715
      5          6           0        8.822366   -0.274719    0.691506
      6          1           0        8.609434    0.205629    1.660949
      7          1           0        9.716114    0.202324    0.275405
      8          8           0        7.781867    0.020105   -0.231963
      9          6           0        6.472889   -0.213172    0.250572
     10          1           0        6.321508    0.264111    1.232636
     11          1           0        6.270281   -1.288913    0.371553
     12          6           0        5.508812    0.398928   -0.766313
     13          1           0        5.684666    1.477594   -0.823651
     14          1           0        5.699924   -0.027134   -1.761898
     15          8           0        4.151690    0.220004   -0.383797
     16          6           0        3.571457   -1.009580   -0.803693
     17          1           0        4.116244   -1.867056   -0.376198
     18          1           0        3.611575   -1.098077   -1.900904
     19          6           0        2.124779   -1.076637   -0.332450
     20          1           0        2.075721   -0.826532    0.735677
     21          1           0        1.773561   -2.107610   -0.447638
     22          8           0        1.208368   -0.299989   -1.090131
     23          6           0        1.317590    1.114367   -1.014345
     24          1           0        0.496265    1.482112   -1.638228
     25          1           0        2.258959    1.457541   -1.464544
     26          6           0        1.232766    1.735822    0.383786
     27          1           0        1.193946    2.825103    0.261997
     28          1           0        2.138741    1.510945    0.954414
     29         16           0       -0.143271    1.196165    1.477580
     30          6           0       -1.627132    1.468599    0.417704
     31          1           0       -2.416371    1.807373    1.095707
     32          1           0       -1.425640    2.291458   -0.275106
     33          6           0       -2.060504    0.208873   -0.336579
     34          1           0       -2.306087   -0.592804    0.366810
     35          1           0       -1.246758   -0.164194   -0.963450
     36         16           0       -3.477139    0.490679   -1.479400
     37          6           0       -4.901054    0.590578   -0.314264
     38          1           0       -5.701056    1.054338   -0.899697
     39          1           0       -4.668627    1.274585    0.507189
     40          6           0       -5.343680   -0.770967    0.223729
     41          1           0       -5.576412   -1.455078   -0.597530
     42          1           0       -4.543411   -1.234604    0.808818
     43         16           0       -6.766580   -0.675546    1.387530
     44          6           0       -8.177433   -0.369843    0.244482
     45          1           0       -8.996698   -0.077638    0.910022
     46          1           0       -7.954608    0.501925   -0.380311
     47          6           0       -8.582961   -1.571713   -0.607627
     48          1           0       -8.846466   -2.426927    0.022299
     49          1           0       -9.451145   -1.319261   -1.229582
     50          1           0       -7.776265   -1.883551   -1.279638
 ---------------------------------------------------------------------
 Stoichiometry    C14H30O3S3
 Framework group  C1[X(C14H30O3S3)]
                         Standard orientation:                         
 ---------------------------------------------------------------------
 Center     Atomic      Atomic             Coordinates (Angstroms)
 Number     Number       Type             X           Y           Z
 ---------------------------------------------------------------------
      1          6           0       -9.071005    1.770071    0.882434
      2          1           0       -9.939715    1.927082    1.532500
      3          1           0       -8.215279    2.272727    1.346123
      4          1           0       -9.270667    2.249688   -0.081715
      5          6           0       -8.822367    0.274715    0.691506
      6          1           0       -8.609434   -0.205632    1.660950
      7          1           0       -9.716114   -0.202329    0.275405
      8          8           0       -7.781867   -0.020108   -0.231962
      9          6           0       -6.472890    0.213170    0.250572
     10          1           0       -6.321508   -0.264113    1.232636
     11          1           0       -6.270283    1.288912    0.371554
     12          6           0       -5.508811   -0.398929   -0.766313
     13          1           0       -5.684664   -1.477596   -0.823650
     14          1           0       -5.699924    0.027133   -1.761897
     15          8           0       -4.151690   -0.220004   -0.383796
     16          6           0       -3.571458    1.009580   -0.803693
     17          1           0       -4.116245    1.867056   -0.376198
     18          1           0       -3.611576    1.098077   -1.900903
     19          6           0       -2.124780    1.076639   -0.332449
     20          1           0       -2.075722    0.826534    0.735678
     21          1           0       -1.773563    2.107612   -0.447637
     22          8           0       -1.208368    0.299991   -1.090131
     23          6           0       -1.317589   -1.114365   -1.014344
     24          1           0       -0.496263   -1.482109   -1.638228
     25          1           0       -2.258958   -1.457540   -1.464543
     26          6           0       -1.232765   -1.735820    0.383787
     27          1           0       -1.193944   -2.825101    0.261997
     28          1           0       -2.138740   -1.510943    0.954415
     29         16           0        0.143272   -1.196161    1.477581
     30          6           0        1.627133   -1.468594    0.417705
     31          1           0        2.416372   -1.807367    1.095707
     32          1           0        1.425642   -2.291453   -0.275106
     33          6           0        2.060504   -0.208868   -0.336578
     34          1           0        2.306086    0.592809    0.366811
     35          1           0        1.246758    0.164198   -0.963449
     36         16           0        3.477140   -0.490673   -1.479400
     37          6           0        4.901054   -0.590570   -0.314264
     38          1           0        5.701057   -1.054329   -0.899696
     39          1           0        4.668628   -1.274578    0.507189
     40          6           0        5.343679    0.770975    0.223730
     41          1           0        5.576411    1.455086   -0.597530
     42          1           0        4.543410    1.234611    0.808819
     43         16           0        6.766580    0.675555    1.387531
     44          6           0        8.177433    0.369853    0.244482
     45          1           0        8.996698    0.077649    0.910023
     46          1           0        7.954608   -0.501915   -0.380310
     47          6           0        8.582960    1.571724   -0.607626
     48          1           0        8.846464    2.426938    0.022299
     49          1           0        9.451144    1.319272   -1.229582
     50          1           0        7.776263    1.883560   -1.279637
 ---------------------------------------------------------------------
 Standard basis: 6-31G(d) (6D, 7F)
   372 basis functions,   752 primitive gaussians,   372 cartesian basis functions
    93 alpha electrons       93 beta electrons
 Requested convergence on RMS density matrix=1.00D-08 within  64 cycles.
 Requested convergence on MAX density matrix=1.00D-06.
 Requested convergence on             energy=1.00D-06.
 SCF Done:  E(RB3LYP) =  -1971.75409392     A.U. after    4 cycles
            NFock=  4  Conv=0.35D-08     -V/T= 2.0058
 Step number   4 out of a maximum of   55
     Eigenvalues ---    0.00212   0.00229   0.00230   0.00230   0.00284
     Eigenvalues ---    0.00354   0.00376   0.00381   0.00394   0.00397
     Eigenvalues ---    0.00438   0.00486   0.00999   0.01255   0.01389
     Eigenvalues ---    0.01400   0.01428   0.01500   0.01558   0.04079
     Eigenvalues ---    0.04311   0.04426   0.04450   0.04468   0.04549
     Eigenvalues ---    0.04662   0.04715   0.04838   0.05126   0.05251
     Eigenvalues ---    0.05421   0.05452   0.05481   0.05499   0.05564
     Eigenvalues ---    0.05582   0.05603   0.05619   0.05627   0.05671
     Eigenvalues ---    0.05741   0.05815   0.05882   0.05899   0.05968
     Eigenvalues ---    0.05979   0.06053   0.10631   0.11126   0.11251
     Eigenvalues ---    0.11562   0.11589   0.11621   0.11640   0.11782
     Eigenvalues ---    0.11874   0.11915   0.11969   0.12134   0.13581
     Eigenvalues ---    0.13772   0.13906   0.13928   0.13941   0.13966
     Eigenvalues ---    0.14044   0.14060   0.14097   0.14158   0.14245
     Eigenvalues ---    0.14579   0.15911   0.16000   0.16000   0.16000
     Eigenvalues ---    0.16003   0.16070   0.19984   0.21945   0.22001
     Eigenvalues ---    0.22012   0.22012   0.22024   0.22041   0.22054
     Eigenvalues ---    0.22072   0.22097   0.22559   0.22829   0.22965
     Eigenvalues ---    0.23078   0.23115   0.23148   0.23363   0.23822
     Eigenvalues ---    0.24607   0.25000   0.25000   0.25089   0.26347
     Eigenvalues ---    0.28203   0.29381   0.29495   0.29576   0.29599
     Eigenvalues ---    0.29617   0.30089   0.33049   0.33265   0.33425
     Eigenvalues ---    0.33441   0.33515   0.33535   0.33690   0.33843
     Eigenvalues ---    0.33910   0.33971   0.34067   0.34094   0.34163
     Eigenvalues ---    0.34196   0.34205   0.34215   0.34217   0.34222
     Eigenvalues ---    0.34239   0.34249   0.34298   0.34304   0.34309
     Eigenvalues ---    0.34313   0.34325   0.34327   0.34343   0.34357
     Eigenvalues ---    0.34374   0.34889   0.36135   0.42001   0.42075
     Eigenvalues ---    0.42229   0.42301   0.42707   0.43318
 Maximum Force            0.000001     0.000015     YES
 RMS     Force            0.000000     0.000010     YES
 Maximum Displacement     0.000143     0.000060     NO 
 RMS     Displacement     0.000035     0.000040     YES
                          Input orientation:                          
 ---------------------------------------------------------------------
 Center     Atomic      Atomic             Coordinates (Angstroms)
 Number     Number       Type             X           Y           Z
 ---------------------------------------------------------------------
      1          6           0        9.071018   -1.770059    0.882416
      2          1           0        9.939734   -1.927060    1.532476
      3          1           0        8.215296   -2.272708    1.346122
      4          1           0        9.270670   -2.249691   -0.081727
      5          6           0        8.822378   -0.274706    0.691468
      6          1           0        8.609456    0.205657    1.660906
      7          1           0        9.716121    0.202331    0.275350
      8          8           0        7.781869    0.020103   -0.231995
      9          6           0        6.472897   -0.213167    0.250558
     10          1           0        6.321525    0.264131    1.232616
     11          1           0        6.270290   -1.288907    0.371558
     12          6           0        5.508808    0.398916   -0.766327
     13          1           0        5.684661    1.477582   -0.823684
     14          1           0        5.699910   -0.027162   -1.761907
     15          8           0        4.151690    0.219997   -0.383793
     16          6           0        3.571455   -1.009594   -0.803664
     17          1           0        4.116246   -1.867063   -0.376162
     18          1           0        3.611561   -1.098108   -1.900874
     19          6           0        2.124781   -1.076645   -0.332405
     20          1           0        2.075733   -0.826523    0.735719
     21          1           0        1.773563   -2.107620   -0.447574
     22          8           0        1.208362   -0.300008   -1.090090
     23          6           0        1.317584    1.114349   -1.014326
     24          1           0        0.496255    1.482084   -1.638210
     25          1           0        2.258950    1.457516   -1.464537
     26          6           0        1.232769    1.735828    0.383795
     27          1           0        1.193960    2.825107    0.261987
     28          1           0        2.138744    1.510951    0.954423
     29         16           0       -0.143271    1.196205    1.477603
     30          6           0       -1.627132    1.468615    0.417721
     31          1           0       -2.416372    1.807395    1.095718
     32          1           0       -1.425644    2.291465   -0.275101
     33          6           0       -2.060499    0.208876   -0.336543
     34          1           0       -2.306082   -0.592789    0.366858
     35          1           0       -1.246751   -0.164200   -0.963406
     36         16           0       -3.477131    0.490661   -1.479373
     37          6           0       -4.901054    0.590550   -0.314246
     38          1           0       -5.701050    1.054322   -0.899679
     39          1           0       -4.668631    1.274546    0.507218
     40          6           0       -5.343691   -0.771000    0.223725
     41          1           0       -5.576419   -1.455098   -0.597546
     42          1           0       -4.543429   -1.234649    0.808815
     43         16           0       -6.766601   -0.675588    1.387516
     44          6           0       -8.177438   -0.369836    0.244461
     45          1           0       -8.996705   -0.077633    0.910001
     46          1           0       -7.954594    0.501944   -0.380309
     47          6           0       -8.582977   -1.571679   -0.607680
     48          1           0       -8.846502   -2.426904    0.022223
     49          1           0       -9.451152   -1.319198   -1.229638
     50          1           0       -7.776280   -1.883513   -1.279690
 ---------------------------------------------------------------------
 Stoichiometry    C14H30O3S3
 Framework group  C1[X(C14H30O3S3)]
                         Standard orientation:                         
 ---------------------------------------------------------------------
 Center     Atomic      Atomic             Coordinates (Angstroms)
 Number     Number       Type             X           Y           Z
 ---------------------------------------------------------------------
      1          6           0       -9.071019    1.770061    0.882413
      2          1           0       -9.939735    1.927063    1.532473
      3          1           0       -8.215297    2.272710    1.346119
      4          1           0       -9.270670    2.249693   -0.081730
      5          6           0       -8.822380    0.274708    0.691465
      6          1           0       -8.609457   -0.205655    1.660904
      7          1           0       -9.716123   -0.202329    0.275347
      8          8           0       -7.781870   -0.020101   -0.231998
      9          6           0       -6.472898    0.213169    0.250555
     10          1           0       -6.321526   -0.264129    1.232613
     11          1           0       -6.270291    1.288909    0.371555
     12          6           0       -5.508809   -0.398914   -0.766330
     13          1           0       -5.684662   -1.477580   -0.823687
     14          1           0       -5.699912    0.027164   -1.761910
     15          8           0       -4.151691   -0.219996   -0.383796
     16          6           0       -3.571456    1.009595   -0.803667
     17          1           0       -4.116247    1.867064   -0.376165
     18          1           0       -3.611562    1.098109   -1.900877
     19          6           0       -2.124782    1.076646   -0.332408
     20          1           0       -2.075734    0.826524    0.735716
     21          1           0       -1.773563    2.107621   -0.447577
     22          8           0       -1.208364    0.300009   -1.090093
     23          6           0       -1.317586   -1.114348   -1.014329
     24          1           0       -0.496256   -1.482083   -1.638213
     25          1           0       -2.258952   -1.457515   -1.464540
     26          6           0       -1.232771   -1.735827    0.383792
     27          1           0       -1.193962   -2.825106    0.261984
     28          1           0       -2.138746   -1.510950    0.954421
     29         16           0        0.143270   -1.196204    1.477600
     30          6           0        1.627130   -1.468615    0.417718
     31          1           0        2.416370   -1.807395    1.095715
     32          1           0        1.425642   -2.291465   -0.275104
     33          6           0        2.060498   -0.208876   -0.336546
     34          1           0        2.306081    0.592789    0.366855
     35          1           0        1.246749    0.164200   -0.963409
     36         16           0        3.477130   -0.490661   -1.479376
     37          6           0        4.901053   -0.590551   -0.314249
     38          1           0        5.701049   -1.054322   -0.899682
     39          1           0        4.668629   -1.274546    0.507215
     40          6           0        5.343690    0.770999    0.223722
     41          1           0        5.576418    1.455097   -0.597548
     42          1           0        4.543428    1.234648    0.808812
     43         16           0        6.766600    0.675587    1.387513
     44          6           0        8.177437    0.369834    0.244458
     45          1           0        8.996704    0.077632    0.909998
     46          1           0        7.954592   -0.501945   -0.380312
     47          6           0        8.582976    1.571678   -0.607683
     48          1           0        8.846501    2.426902    0.022220
     49          1           0        9.451151    1.319197   -1.229641
     50          1           0        7.776279    1.883512   -1.279693
 ---------------------------------------------------------------------
 Standard basis: 6-31G(d) (6D, 7F)
   372 basis functions,   752 primitive gaussians,   372 cartesian basis functions
    93 alpha electrons       93 beta electrons
 Requested convergence on RMS density matrix=1.00D-08 within  64 cycles.
 Requested convergence on MAX density matrix=1.00D-06.
 Requested convergence on             energy=1.00D-06.
 SCF Done:  E(RB3LYP) =  -1971.75409392     A.U. after    4 cycles
            NFock=  4  Conv=0.30D-08     -V/T= 2.0058
 Step number   5 out of a maximum of   55
     Eigenvalues ---    0.00205   0.00230   0.00230   0.00238   0.00286
     Eigenvalues ---    0.00350   0.00376   0.00381   0.00394   0.00397
     Eigenvalues ---    0.00437   0.00549   0.01083   0.01171   0.01390
     Eigenvalues ---    0.01400   0.01428   0.01501   0.01526   0.04074
     Eigenvalues ---    0.04308   0.04418   0.04450   0.04459   0.04559
     Eigenvalues ---    0.04666   0.04775   0.04837   0.05100   0.05250
     Eigenvalues ---    0.05425   0.05465   0.05481   0.05511   0.05564
     Eigenvalues ---    0.05580   0.05603   0.05620   0.05627   0.05671
     Eigenvalues ---    0.05742   0.05830   0.05858   0.05900   0.05965
     Eigenvalues ---    0.05974   0.06052   0.10646   0.11125   0.11235
     Eigenvalues ---    0.11560   0.11589   0.11619   0.11632   0.11783
     Eigenvalues ---    0.11876   0.11912   0.11970   0.12138   0.13590
     Eigenvalues ---    0.13779   0.13904   0.13925   0.13941   0.13967
     Eigenvalues ---    0.14042   0.14055   0.14104   0.14160   0.14245
     Eigenvalues ---    0.14593   0.15929   0.16000   0.16000   0.16000
     Eigenvalues ---    0.16003   0.16091   0.20200   0.21921   0.21952
     Eigenvalues ---    0.22002   0.22012   0.22014   0.22026   0.22054
     Eigenvalues ---    0.22065   0.22101   0.22556   0.22809   0.22889
     Eigenvalues ---    0.23073   0.23105   0.23131   0.23358   0.23735
     Eigenvalues ---    0.24726   0.24997   0.25000   0.25154   0.26638
     Eigenvalues ---    0.28171   0.29382   0.29502   0.29598   0.29622
     Eigenvalues ---    0.29655   0.30094   0.32716   0.33384   0.33423
     Eigenvalues ---    0.33432   0.33515   0.33540   0.33746   0.33868
     Eigenvalues ---    0.33891   0.33971   0.34063   0.34110   0.34183
     Eigenvalues ---    0.34196   0.34209   0.34215   0.34216   0.34220
     Eigenvalues ---    0.34238   0.34247   0.34301   0.34307   0.34309
     Eigenvalues ---    0.34314   0.34322   0.34329   0.34349   0.34358
     Eigenvalues ---    0.34382   0.35259   0.36553   0.41904   0.42091
     Eigenvalues ---    0.42203   0.42317   0.42771   0.43327
 Maximum Force            0.000000     0.000015     YES
 RMS     Force            0.000000     0.000010     YES
 Maximum Displacement     0.000057     0.000060     YES
 RMS     Displacement     0.000016     0.000040     YES
 Optimization completed.
    -- Stationary point found.
                          Input orientation:                          
 ---------------------------------------------------------------------
 Center     Atomic      Atomic             Coordinates (Angstroms)
 Number     Number       Type             X           Y           Z
 ---------------------------------------------------------------------
      1          6           0        9.071018   -1.770059    0.882416
      2          1           0        9.939734   -1.927060    1.532476
      3          1           0        8.215296   -2.272708    1.346122
      4          1           0        9.270670   -2.249691   -0.081727
      5          6           0        8.822378   -0.274706    0.691468
      6          1           0        8.609456    0.205657    1.660906
      7          1           0        9.716121    0.202331    0.275350
      8          8           0        7.781869    0.020103   -0.231995
      9          6           0        6.472897   -0.213167    0.250558
     10          1           0        6.321525    0.264131    1.232616
     11          1           0        6.270290   -1.288907    0.371558
     12          6           0        5.508808    0.398916   -0.766327
     13          1           0        5.684661    1.477582   -0.823684
     14          1           0        5.699910   -0.027162   -1.761907
     15          8           0        4.151690    0.219997   -0.383793
     16          6           0        3.571455   -1.009594   -0.803664
     17          1           0        4.116246   -1.867063   -0.376162
     18          1           0        3.611561   -1.098108   -1.900874
     19          6           0        2.124781   -1.076645   -0.332405
     20          1           0        2.075733   -0.826523    0.735719
     21          1           0        1.773563   -2.107620   -0.447574
     22          8           0        1.208362   -0.300008   -1.090090
     23          6           0        1.317584    1.114349   -1.014326
     24          1           0        0.496255    1.482084   -1.638210
     25          1           0        2.258950    1.457516   -1.464537
     26          6           0        1.232769    1.735828    0.383795
     27          1           0        1.193960    2.825107    0.261987
     28          1           0        2.138744    1.510951    0.954423
     29         16           0       -0.143271    1.196205    1.477603
     30          6           0       -1.627132    1.468615    0.417721
     31          1           0       -2.416372    1.807395    1.095718
     32          1           0       -1.425644    2.291465   -0.275101
     33          6           0       -2.060499    0.208876   -0.336543
     34          1           0       -2.306082   -0.592789    0.366858
     35          1           0       -1.246751   -0.164200   -0.963406
     36         16           0       -3.477131    0.490661   -1.479373
     37          6           0       -4.901054    0.590550   -0.314246
     38          1           0       -5.701050    1.054322   -0.899679
     39          1           0       -4.668631    1.274546    0.507218
     40          6           0       -5.343691   -0.771000    0.223725
     41          1           0       -5.576419   -1.455098   -0.597546
     42          1           0       -4.543429   -1.234649    0.808815
     43         16           0       -6.766601   -0.675588    1.387516
     44          6           0       -8.177438   -0.369836    0.244461
     45          1           0       -8.996705   -0.077633    0.910001
     46          1           0       -7.954594    0.501944   -0.380309
     47          6           0       -8.582977   -1.571679   -0.607680
     48          1           0       -8.846502   -2.426904    0.022223
     49          1           0       -9.451152   -1.319198   -1.229638
     50          1           0       -7.776280   -1.883513   -1.279690
 ---------------------------------------------------------------------
 Stoichiometry    C14H30O3S3
 Framework group  C1[X(C14H30O3S3)]
                         Standard orientation:                         
 ---------------------------------------------------------------------
 Center     Atomic      Atomic             Coordinates (Angstroms)
 Number     Number       Type             X           Y           Z
 ---------------------------------------------------------------------
      1          6           0       -9.071019    1.770061    0.882413
      2          1           0       -9.939735    1.927063    1.532473
      3          1           0       -8.215297    2.272710    1.346119
      4          1           0       -9.270670    2.249693   -0.081730
      5          6           0       -8.822380    0.274708    0.691465
      6          1           0       -8.609457   -0.205655    1.660904
      7          1           0       -9.716123   -0.202329    0.275347
      8          8           0       -7.781870   -0.020101   -0.231998
      9          6           0       -6.472898    0.213169    0.250555
     10          1           0       -6.321526   -0.264129    1.232613
     11          1           0       -6.270291    1.288909    0.371555
     12          6           0       -5.508809   -0.398914   -0.766330
     13          1           0       -5.684662   -1.477580   -0.823687
     14          1           0       -5.699912    0.027164   -1.761910
     15          8           0       -4.151691   -0.219996   -0.383796
     16          6           0       -3.571456    1.009595   -0.803667
     17          1           0       -4.116247    1.867064   -0.376165
     18          1           0       -3.611562    1.098109   -1.900877
     19          6           0       -2.124782    1.076646   -0.332408
     20          1           0       -2.075734    0.826524    0.735716
     21          1           0       -1.773563    2.107621   -0.447577
     22          8           0       -1.208364    0.300009   -1.090093
     23          6           0       -1.317586   -1.114348   -1.014329
     24          1           0       -0.496256   -1.482083   -1.638213
     25          1           0       -2.258952   -1.457515   -1.464540
     26          6           0       -1.232771   -1.735827    0.383792
     27          1           0       -1.193962   -2.825106    0.261984
     28          1           0       -2.138746   -1.510950    0.954421
     29         16           0        0.143270   -1.196204    1.477600
     30          6           0        1.627130   -1.468615    0.417718
     31          1           0        2.416370   -1.807395    1.095715
     32          1           0        1.425642   -2.291465   -0.275104
     33          6           0        2.060498   -0.208876   -0.336546
     34          1           0        2.306081    0.592789    0.366855
     35          1           0        1.246749    0.164200   -0.963409
     36         16           0        3.477130   -0.490661   -1.479376
     37          6           0        4.901053   -0.590551   -0.314249
     38          1           0        5.701049   -1.054322   -0.899682
     39          1           0        4.668629   -1.274546    0.507215
     40          6           0        5.343690    0.770999    0.223722
     41          1           0        5.576418    1.455097   -0.597548
     42          1           0        4.543428    1.234648    0.808812
     43         16           0        6.766600    0.675587    1.387513
     44          6           0        8.177437    0.369834    0.244458
     45          1           0        8.996704    0.077632    0.909998
     46          1           0        7.954592   -0.501945   -0.380312
     47          6           0        8.582976    1.571678   -0.607683
     48          1           0        8.846501    2.426902    0.022220
     49          1           0        9.451151    1.319197   -1.229641
     50          1           0        7.776279    1.883512   -1.279693
 ---------------------------------------------------------------------
 Mulliken charges:
     1  C   -0.461880
     2  H    0.146892
     3  H    0.150524
     4  H    0.158759
     5  C   -0.014284
     6  H    0.122522
     7  H    0.147118
     8  O   -0.474421
     9  C   -0.029124
    10  H    0.128298
    11  H    0.125162
    12  C   -0.039191
    13  H    0.155629
    14  H    0.138408
    15  O   -0.482233
    16  C   -0.040140
    17  H    0.125574
    18  H    0.138618
    19  C   -0.042111
    20  H    0.151772
    21  H    0.149457
    22  O   -0.468720
    23  C   -0.017815
    24  H    0.146546
    25  H    0.154251
    26  C   -0.453075
    27  H    0.170067
    28  H    0.193584
    29  S    0.080878
    30  C   -0.415974
    31  H    0.179694
    32  H    0.180337
    33  C   -0.422582
    34  H    0.177429
    35  H    0.216590
    36  S    0.070882
    37  C   -0.412286
    38  H    0.178274
    39  H    0.184161
    40  C   -0.412346
    41  H    0.185831
    42  H    0.181395
    43  S    0.078474
    44  C   -0.410169
    45  H    0.177346
    46  H    0.169004
    47  C   -0.435788
    48  H    0.164681
    49  H    0.149128
    50  H    0.154855
 Sum of Mulliken charges =  -0.00000
 Dipole moment (field-independent basis, Debye):
    X=             -2.2265    Y=              0.4751    Z=             -0.5012  Tot=              2.3312
 Quadrupole moment (field-independent basis, Debye-Ang):
   XX=           -119.0865   YY=           -144.3486   ZZ=           -156.7820
   XY=             -7.3870   XZ=            -12.3809   YZ=              1.0846
 Traceless Quadrupole moment (field-independent basis, Debye-Ang):
   XX=             20.9859   YY=             -4.2763   ZZ=            -16.7096
   XY=             -7.3870   XZ=            -12.3809   YZ=              1.0846
 Octapole moment (field-independent basis, Debye-Ang**2):
  XXX=            -47.6200  YYY=             -2.4967  ZZZ=            -12.5191  XYY=            -34.7732
  XXY=             25.0429  XXZ=              5.4562  XZZ=            -53.4224  YZZ=              3.3018
  YYZ=             -9.4551  XYZ=            -10.4411
 Hexadecapole moment (field-independent basis, Debye-Ang**3):
 XXXX=         -22632.9885 YYYY=          -1102.6443 ZZZZ=          -1019.5476 XXXY=           -354.0259
 XXXZ=           -973.0027 YYYX=              2.2563 YYYZ=              1.3425 ZZZX=              7.1800
 ZZZY=              7.2786 XXYY=          -4492.8403 XXZZ=          -4577.1179 YYZZ=           -367.7494
 XXYZ=            -53.6874 YYXZ=              2.5208 ZZXY=            -10.0573
 Job cpu time:       0 days  0 hours 58 minutes 25.0 seconds.
 Normal termination of Gaussian 16 at Sat Jul  8 17:34:30 2023.
