 Copyright (c) 1988-2019, Gaussian, Inc.  All Rights Reserved.
  
 This is part of the Gaussian(R) 16 program.  It is based on
 the Gaussian(R) 09 system (copyright 2009, Gaussian, Inc.),
 the Gaussian(R) 03 system (copyright 2003, Gaussian, Inc.),
 the Gaussian(R) 98 system (copyright 1998, Gaussian, Inc.),
 the Gaussian(R) 94 system (copyright 1995, Gaussian, Inc.),
 the Gaussian 92(TM) system (copyright 1992, Gaussian, Inc.),
 the Gaussian 90(TM) system (copyright 1990, Gaussian, Inc.),
 the Gaussian 88(TM) system (copyright 1988, Gaussian, Inc.),
 the Gaussian 86(TM) system (copyright 1986, Carnegie Mellon
 University), and the Gaussian 82(TM) system (copyright 1983,
 Carnegie Mellon University). Gaussian is a federally registered
 trademark of Gaussian, Inc.
 Cite this work as:
 Gaussian 16, Revision C.01,
 M. J. Frisch, G. W. Trucks, H. B. Schlegel, G. E. Scuseria, 
 M. A. Robb, J. R. Cheeseman, G. Scalmani, V. Barone, 
 G. A. Petersson, H. Nakatsuji, X. Li, M. Caricato, A. V. Marenich, 
 J. Bloino, B. G. Janesko, R. Gomperts, B. Mennucci, H. P. Hratchian, 
 J. V. Ortiz, A. F. Izmaylov, J. L. Sonnenberg, D. Williams-Young, 
 F. Ding, F. Lipparini, F. Egidi, J. Goings, B. Peng, A. Petrone, 
 T. Henderson, D. Ranasinghe, V. G. Zakrzewski, J. Gao, N. Rega, 
 G. Zheng, W. Liang, M. Hada, M. Ehara, K. Toyota, R. Fukuda, 
 J. Hasegawa, M. Ishida, T. Nakajima, Y. Honda, O. Kitao, H. Nakai, 
 T. Vreven, K. Throssell, J. A. Montgomery, Jr., J. E. Peralta, 
 F. Ogliaro, M. J. Bearpark, J. J. Heyd, E. N. Brothers, K. N. Kudin, 
 V. N. Staroverov, T. A. Keith, R. Kobayashi, J. Normand, 
 K. Raghavachari, A. P. Rendell, J. C. Burant, S. S. Iyengar, 
 J. Tomasi, M. Cossi, J. M. Millam, M. Klene, C. Adamo, R. Cammi, 
 J. W. Ochterski, R. L. Martin, K. Morokuma, O. Farkas, 
 J. B. Foresman, and D. J. Fox, Gaussian, Inc., Wallingford CT, 2019.
 
 ******************************************
 Gaussian 16:  EM64L-G16RevC.01  3-Jul-2019
                 9-Jul-2023 
 ******************************************
 ----------------------------------------------------------------------
 #P B3LYP/6-31G(d) Integral=Ultrafine Opt=(Tight,MaxCycle=55) GFInput G
 FPrint SCF(Conver=8,XQC,MaxConventionalCycles=64,MaxCycle=128) Test
 ----------------------------------------------------------------------
 1/6=55,7=10,18=20,19=15,26=4,38=1/1,3;
 2/9=110,12=2,17=6,18=5,40=1/2;
 3/5=1,6=6,7=1,11=2,24=110,25=1,30=1,71=1,74=-5,75=-5/1,2,3;
 4//1;
 5/5=2,6=8,7=128,8=3,13=1,38=5,85=64/2,8;
 6/7=2,8=2,9=2,10=2,28=1/1;
 7//1,2,3,16;
 1/6=55,7=10,18=20,19=15,26=4/3(2);
 2/9=110/2;
 99//99;
 2/9=110/2;
 3/5=1,6=6,7=1,11=2,25=1,30=1,71=1,74=-5,75=-5/1,2,3;
 4/5=5,16=3,69=1/1;
 5/5=2,6=8,7=128,8=3,13=1,38=5,85=64/2,8;
 7//1,2,3,16;
 1/6=55,7=10,18=20,19=15,26=4/3(-5);
 2/9=110/2;
 6/7=2,8=2,9=2,10=2,19=2,28=1/1;
 99/9=1/99;
 ----------------------------------------------------------
 Optimization step - Input generated by PyRED DVE-DMDS-OPLS
 ----------------------------------------------------------
 Symbolic Z-matrix:
 Charge =  0 Multiplicity = 1
 C                    -7.835     0.387    -1.767 
 H                    -8.488    -0.416    -1.412 
 H                    -7.956     1.247    -1.103 
 H                    -8.175     0.673    -2.768 
 C                    -6.377    -0.045    -1.812 
 H                    -6.256    -0.924    -2.464 
 H                    -5.76      0.759    -2.224 
 O                    -5.832    -0.319    -0.536 
 C                    -6.27     -1.522     0.05 
 H                    -6.229    -2.345    -0.68 
 H                    -7.307    -1.438     0.408 
 C                    -5.373    -1.858     1.223 
 H                    -5.291    -0.98      1.877 
 H                    -5.843    -2.665     1.801 
 O                    -4.101    -2.302     0.803 
 C                    -2.994    -1.501     1.155 
 H                    -2.123    -2.162     1.182 
 H                    -3.121    -1.084     2.164 
 C                    -2.736    -0.39      0.14 
 H                    -3.591     0.292     0.081 
 H                    -2.603    -0.84     -0.848 
 O                    -1.541     0.306     0.451 
 C                    -1.717     1.408     1.319 
 H                    -2.137     1.08      2.283 
 H                    -2.417     2.131     0.876 
 C                    -0.373     2.063     1.569 
 H                     0.341     1.332     1.958 
 H                    -0.493     2.832     2.338 
 S                     0.36      2.955     0.164 
 C                     0.814     1.629    -1.006 
 H                    -0.091     1.235    -1.471 
 H                     1.401     2.147    -1.77 
 C                     1.606     0.46     -0.437 
 H                     1.883    -0.191    -1.272 
 H                     0.971    -0.12      0.237 
 S                     3.12      0.995     0.432 
 C                     3.923    -0.631     0.603 
 H                     3.165    -1.363     0.908 
 H                     4.62     -0.535     1.44 
 C                     4.654    -1.136    -0.64 
 H                     4.892    -2.199    -0.524 
 H                     4.013    -1.055    -1.522 
 S                     6.179    -0.232    -1.058 
 C                     7.353    -0.97      0.127 
 H                     8.205    -0.285     0.133 
 H                     6.921    -0.934     1.133 
 C                     7.81     -2.381    -0.222 
 H                     6.973    -3.085    -0.241 
 H                     8.287    -2.402    -1.205 
 H                     8.53     -2.743     0.52 
 
 ITRead=  0  0  0  0  0  0  0  0  0  0  0  0  0  0  0  0  0  0  0  0
 ITRead=  0  0  0  0  0  0  0  0  0  0  0  0  0  0  0  0  0  0  0  0
 ITRead=  0  0  0  0  0  0  0  0  0  0
 MicOpt= -1 -1 -1 -1 -1 -1 -1 -1 -1 -1 -1 -1 -1 -1 -1 -1 -1 -1 -1 -1
 MicOpt= -1 -1 -1 -1 -1 -1 -1 -1 -1 -1 -1 -1 -1 -1 -1 -1 -1 -1 -1 -1
 MicOpt= -1 -1 -1 -1 -1 -1 -1 -1 -1 -1
 NAtoms=     50 NQM=       50 NQMF=       0 NMMI=      0 NMMIF=      0
                NMic=       0 NMicF=      0.
                          Input orientation:                          
 ---------------------------------------------------------------------
 Center     Atomic      Atomic             Coordinates (Angstroms)
 Number     Number       Type             X           Y           Z
 ---------------------------------------------------------------------
      1          6           0       -7.835000    0.387000   -1.767000
      2          1           0       -8.488000   -0.416000   -1.412000
      3          1           0       -7.956000    1.247000   -1.103000
      4          1           0       -8.175000    0.673000   -2.768000
      5          6           0       -6.377000   -0.045000   -1.812000
      6          1           0       -6.256000   -0.924000   -2.464000
      7          1           0       -5.760000    0.759000   -2.224000
      8          8           0       -5.832000   -0.319000   -0.536000
      9          6           0       -6.270000   -1.522000    0.050000
     10          1           0       -6.229000   -2.345000   -0.680000
     11          1           0       -7.307000   -1.438000    0.408000
     12          6           0       -5.373000   -1.858000    1.223000
     13          1           0       -5.291000   -0.980000    1.877000
     14          1           0       -5.843000   -2.665000    1.801000
     15          8           0       -4.101000   -2.302000    0.803000
     16          6           0       -2.994000   -1.501000    1.155000
     17          1           0       -2.123000   -2.162000    1.182000
     18          1           0       -3.121000   -1.084000    2.164000
     19          6           0       -2.736000   -0.390000    0.140000
     20          1           0       -3.591000    0.292000    0.081000
     21          1           0       -2.603000   -0.840000   -0.848000
     22          8           0       -1.541000    0.306000    0.451000
     23          6           0       -1.717000    1.408000    1.319000
     24          1           0       -2.137000    1.080000    2.283000
     25          1           0       -2.417000    2.131000    0.876000
     26          6           0       -0.373000    2.063000    1.569000
     27          1           0        0.341000    1.332000    1.958000
     28          1           0       -0.493000    2.832000    2.338000
     29         16           0        0.360000    2.955000    0.164000
     30          6           0        0.814000    1.629000   -1.006000
     31          1           0       -0.091000    1.235000   -1.471000
     32          1           0        1.401000    2.147000   -1.770000
     33          6           0        1.606000    0.460000   -0.437000
     34          1           0        1.883000   -0.191000   -1.272000
     35          1           0        0.971000   -0.120000    0.237000
     36         16           0        3.120000    0.995000    0.432000
     37          6           0        3.923000   -0.631000    0.603000
     38          1           0        3.165000   -1.363000    0.908000
     39          1           0        4.620000   -0.535000    1.440000
     40          6           0        4.654000   -1.136000   -0.640000
     41          1           0        4.892000   -2.199000   -0.524000
     42          1           0        4.013000   -1.055000   -1.522000
     43         16           0        6.179000   -0.232000   -1.058000
     44          6           0        7.353000   -0.970000    0.127000
     45          1           0        8.205000   -0.285000    0.133000
     46          1           0        6.921000   -0.934000    1.133000
     47          6           0        7.810000   -2.381000   -0.222000
     48          1           0        6.973000   -3.085000   -0.241000
     49          1           0        8.287000   -2.402000   -1.205000
     50          1           0        8.530000   -2.743000    0.520000
 ---------------------------------------------------------------------
 Stoichiometry    C14H30O3S3
 Framework group  C1[X(C14H30O3S3)]
                         Standard orientation:                         
 ---------------------------------------------------------------------
 Center     Atomic      Atomic             Coordinates (Angstroms)
 Number     Number       Type             X           Y           Z
 ---------------------------------------------------------------------
      1          6           0        7.834920    0.386720    1.766995
      2          1           0        8.487896   -0.416300    1.411995
      3          1           0        7.955946    1.246716    1.102995
      4          1           0        8.174929    0.672709    2.767995
      5          6           0        6.376907   -0.045236    1.811995
      6          1           0        6.255881   -0.924232    2.463995
      7          1           0        5.759932    0.758783    2.223995
      8          8           0        5.831899   -0.319220    0.535995
      9          6           0        6.269863   -1.522233   -0.050005
     10          1           0        6.228838   -2.345232    0.679995
     11          1           0        7.306865   -1.438264   -0.408005
     12          6           0        5.372852   -1.858206   -1.223005
     13          1           0        5.290879   -0.980203   -1.877005
     14          1           0        5.842828   -2.665220   -1.801005
     15          8           0        4.100839   -2.302167   -0.803005
     16          6           0        2.993863   -1.501134   -1.155005
     17          1           0        2.122843   -2.162107   -1.182005
     18          1           0        3.120876   -1.084137   -2.164005
     19          6           0        2.735897   -0.390126   -0.140005
     20          1           0        3.590917    0.291848   -0.081005
     21          1           0        2.602883   -0.840122    0.847995
     22          8           0        1.540918    0.305910   -0.451005
     23          6           0        1.716951    1.407905   -1.319005
     24          1           0        2.136941    1.079892   -2.283005
     25          1           0        2.416973    2.130884   -0.876005
     26          6           0        0.372971    2.062946   -1.569005
     27          1           0       -0.341051    1.331967   -1.958005
     28          1           0        0.492994    2.831942   -2.338005
     29         16           0       -0.360002    2.954968   -0.164005
     30          6           0       -0.814042    1.628982    1.005995
     31          1           0        0.090946    1.234954    1.470995
     32          1           0       -1.401026    2.146999    1.769995
     33          6           0       -1.606077    0.460006    0.436995
     34          1           0       -1.883097   -0.190986    1.271995
     35          1           0       -0.971095   -0.120014   -0.237005
     36         16           0       -3.120061    0.995051   -0.432005
     37          6           0       -3.923111   -0.630924   -0.603005
     38          1           0       -3.165133   -1.362947   -0.908005
     39          1           0       -4.620108   -0.534903   -1.440005
     40          6           0       -4.654126   -1.135902    0.639995
     41          1           0       -4.892158   -2.198895    0.523995
     42          1           0       -4.013123   -1.054922    1.521995
     43         16           0       -6.179098   -0.231856    1.057995
     44          6           0       -7.353121   -0.969820   -0.127005
     45          1           0       -8.205100   -0.284795   -0.133005
     46          1           0       -6.921120   -0.933833   -1.133005
     47          6           0       -7.810163   -2.380807    0.221995
     48          1           0       -6.973185   -3.084832    0.240995
     49          1           0       -8.287164   -2.401792    1.204995
     50          1           0       -8.530174   -2.742785   -0.520005
 ---------------------------------------------------------------------
 Standard basis: 6-31G(d) (6D, 7F)
   372 basis functions,   752 primitive gaussians,   372 cartesian basis functions
    93 alpha electrons       93 beta electrons
 Requested convergence on RMS density matrix=1.00D-08 within  64 cycles.
 Requested convergence on MAX density matrix=1.00D-06.
 Requested convergence on             energy=1.00D-06.
 SCF Done:  E(RB3LYP) =  -1971.74813534     A.U. after   13 cycles
            NFock= 13  Conv=0.51D-08     -V/T= 2.0056
 Mulliken charges:
     1  C   -0.462682
     2  H    0.151049
     3  H    0.158639
     4  H    0.147727
     5  C   -0.017148
     6  H    0.124906
     7  H    0.146953
     8  O   -0.464214
     9  C   -0.018479
    10  H    0.132258
    11  H    0.119435
    12  C   -0.038340
    13  H    0.135101
    14  H    0.136029
    15  O   -0.467017
    16  C   -0.046054
    17  H    0.147673
    18  H    0.123557
    19  C   -0.053350
    20  H    0.157794
    21  H    0.145213
    22  O   -0.475051
    23  C   -0.004971
    24  H    0.120469
    25  H    0.140903
    26  C   -0.445440
    27  H    0.193445
    28  H    0.176404
    29  S    0.094832
    30  C   -0.411842
    31  H    0.189768
    32  H    0.182062
    33  C   -0.419515
    34  H    0.164070
    35  H    0.187850
    36  S    0.127585
    37  C   -0.417617
    38  H    0.163638
    39  H    0.178059
    40  C   -0.413805
    41  H    0.167463
    42  H    0.179932
    43  S    0.108866
    44  C   -0.415590
    45  H    0.177908
    46  H    0.165489
    47  C   -0.434078
    48  H    0.149400
    49  H    0.164026
    50  H    0.146690
 Sum of Mulliken charges =  -0.00000
 Dipole moment (field-independent basis, Debye):
    X=              3.7504    Y=             -3.4456    Z=             -1.1329  Tot=              5.2174
 Quadrupole moment (field-independent basis, Debye-Ang):
   XX=           -124.3880   YY=           -156.0460   ZZ=           -140.6505
   XY=             13.1480   XZ=              8.0423   YZ=              0.0280
 Traceless Quadrupole moment (field-independent basis, Debye-Ang):
   XX=             15.9735   YY=            -15.6845   ZZ=             -0.2890
   XY=             13.1480   XZ=              8.0423   YZ=              0.0280
 Octapole moment (field-independent basis, Debye-Ang**2):
  XXX=            152.1841  YYY=            -28.2912  ZZZ=             -5.6896  XYY=             16.5920
  XXY=            -83.4497  XXZ=            -40.3020  XZZ=             51.4947  YZZ=              5.0417
  YYZ=             -3.8261  XYZ=             -6.8914
 Hexadecapole moment (field-independent basis, Debye-Ang**3):
 XXXX=         -17831.3710 YYYY=          -2365.3583 ZZZZ=          -1045.4301 XXXY=             67.5432
 XXXZ=            537.4190 YYYX=             30.0363 YYYZ=            -14.6198 ZZZX=             44.6700
 ZZZY=              5.4226 XXYY=          -3651.2436 XXZZ=          -3415.8569 YYZZ=           -523.0153
 XXYZ=             62.6377 YYXZ=            -14.6904 ZZXY=            -18.0283
 Step number   1 out of a maximum of   55
     Eigenvalues ---    0.00230   0.00230   0.00230   0.00230   0.00230
     Eigenvalues ---    0.00230   0.00397   0.00411   0.00453   0.00470
     Eigenvalues ---    0.00484   0.00556   0.00575   0.01461   0.01502
     Eigenvalues ---    0.01509   0.01543   0.01546   0.01586   0.04274
     Eigenvalues ---    0.04301   0.04306   0.04333   0.04351   0.04697
     Eigenvalues ---    0.04772   0.04831   0.04980   0.05040   0.05309
     Eigenvalues ---    0.05359   0.05533   0.05550   0.05620   0.05629
     Eigenvalues ---    0.05642   0.05644   0.05724   0.05727   0.05794
     Eigenvalues ---    0.05801   0.05889   0.05920   0.05961   0.06057
     Eigenvalues ---    0.06103   0.06161   0.11187   0.11235   0.11246
     Eigenvalues ---    0.11484   0.11536   0.11696   0.11742   0.11764
     Eigenvalues ---    0.11774   0.11850   0.11851   0.11880   0.13734
     Eigenvalues ---    0.13736   0.13845   0.13866   0.13940   0.13991
     Eigenvalues ---    0.14047   0.14050   0.14061   0.14075   0.14121
     Eigenvalues ---    0.14147   0.16000   0.16000   0.16000   0.16000
     Eigenvalues ---    0.16000   0.16000   0.21999   0.22008   0.22014
     Eigenvalues ---    0.22017   0.22027   0.22036   0.22042   0.22048
     Eigenvalues ---    0.22056   0.22060   0.22072   0.22135   0.24185
     Eigenvalues ---    0.24190   0.24310   0.24492   0.24500   0.24711
     Eigenvalues ---    0.25000   0.25000   0.25000   0.25000   0.25000
     Eigenvalues ---    0.25000   0.29620   0.29721   0.30016   0.30140
     Eigenvalues ---    0.30240   0.30768   0.30912   0.33518   0.33563
     Eigenvalues ---    0.33586   0.33653   0.33734   0.33778   0.33872
     Eigenvalues ---    0.33918   0.34016   0.34187   0.34190   0.34193
     Eigenvalues ---    0.34210   0.34222   0.34307   0.34333   0.34340
     Eigenvalues ---    0.34354   0.34367   0.34370   0.34381   0.34383
     Eigenvalues ---    0.34419   0.34425   0.34431   0.34441   0.34443
     Eigenvalues ---    0.34489   0.34507   0.34687   0.42847   0.43329
     Eigenvalues ---    0.43409   0.43812   0.43843   0.44321
 Maximum Force            0.006892     0.000015     NO 
 RMS     Force            0.001812     0.000010     NO 
 Maximum Displacement     1.404248     0.000060     NO 
 RMS     Displacement     0.419811     0.000040     NO 
                          Input orientation:                          
 ---------------------------------------------------------------------
 Center     Atomic      Atomic             Coordinates (Angstroms)
 Number     Number       Type             X           Y           Z
 ---------------------------------------------------------------------
      1          6           0       -8.298350    0.624940   -1.739604
      2          1           0       -8.986691   -0.130744   -1.345667
      3          1           0       -8.347794    1.505628   -1.090202
      4          1           0       -8.656667    0.911343   -2.735337
      5          6           0       -6.863567    0.105239   -1.824072
      6          1           0       -6.816460   -0.790289   -2.465895
      7          1           0       -6.217992    0.866194   -2.275845
      8          8           0       -6.278345   -0.177006   -0.559323
      9          6           0       -6.744131   -1.351614    0.076732
     10          1           0       -6.773403   -2.193102   -0.634695
     11          1           0       -7.763901   -1.212703    0.472494
     12          6           0       -5.820774   -1.711639    1.233033
     13          1           0       -5.671207   -0.827391    1.868949
     14          1           0       -6.324579   -2.476922    1.841836
     15          8           0       -4.582990   -2.250592    0.795121
     16          6           0       -3.398642   -1.545064    1.130946
     17          1           0       -2.594103   -2.288495    1.158046
     18          1           0       -3.475125   -1.112057    2.140648
     19          6           0       -3.028150   -0.466009    0.104026
     20          1           0       -3.808314    0.301789    0.042819
     21          1           0       -2.949645   -0.933783   -0.883339
     22          8           0       -1.757128    0.108230    0.397026
     23          6           0       -1.798507    1.239262    1.254495
     24          1           0       -2.241607    0.970540    2.229178
     25          1           0       -2.424850    2.029764    0.812704
     26          6           0       -0.385285    1.758875    1.493079
     27          1           0        0.257728    0.965590    1.888660
     28          1           0       -0.433001    2.538456    2.261874
     29         16           0        0.442459    2.595513    0.087727
     30          6           0        1.006976    1.234645   -1.014174
     31          1           0        0.136617    0.736816   -1.448055
     32          1           0        1.537405    1.761179   -1.814965
     33          6           0        1.917282    0.169793   -0.400895
     34          1           0        2.233448   -0.499086   -1.211061
     35          1           0        1.351835   -0.430874    0.317803
     36         16           0        3.409861    0.881673    0.403755
     37          6           0        4.372351   -0.661555    0.643366
     38          1           0        3.689868   -1.445848    0.997454
     39          1           0        5.063314   -0.456202    1.467345
     40          6           0        5.144396   -1.166071   -0.584830
     41          1           0        5.479582   -2.196778   -0.414198
     42          1           0        4.491134   -1.195651   -1.462664
     43         16           0        6.585357   -0.146341   -1.082930
     44          6           0        7.864325   -0.718078    0.105989
     45          1           0        8.638647    0.055593    0.064850
     46          1           0        7.453409   -0.687310    1.122227
     47          6           0        8.470048   -2.088785   -0.201276
     48          1           0        7.716096   -2.883128   -0.172283
     49          1           0        8.928197   -2.099363   -1.195214
     50          1           0        9.241875   -2.340584    0.537341
 ---------------------------------------------------------------------
 Stoichiometry    C14H30O3S3
 Framework group  C1[X(C14H30O3S3)]
                         Standard orientation:                         
 ---------------------------------------------------------------------
 Center     Atomic      Atomic             Coordinates (Angstroms)
 Number     Number       Type             X           Y           Z
 ---------------------------------------------------------------------
      1          6           0        8.315813    0.818519    1.659983
      2          1           0        9.003850    0.027308    1.342733
      3          1           0        8.366545    1.631197    0.927345
      4          1           0        8.673530    1.200975    2.623139
      5          6           0        6.880523    0.310696    1.793716
      6          1           0        6.832122   -0.517497    2.520271
      7          1           0        6.235208    1.112795    2.168047
      8          8           0        6.296130   -0.093847    0.562227
      9          6           0        6.761465   -1.325550    0.044927
     10          1           0        6.789429   -2.093192    0.835518
     11          1           0        7.781684   -1.226913   -0.361615
     12          6           0        5.838781   -1.796602   -1.071317
     13          1           0        5.690494   -0.978908   -1.791068
     14          1           0        6.342455   -2.618311   -1.601626
     15          8           0        4.600175   -2.289052   -0.583776
     16          6           0        3.416704   -1.618988   -0.988300
     17          1           0        2.611564   -2.360883   -0.943063
     18          1           0        3.494403   -1.287205   -2.035547
     19          6           0        3.046254   -0.444096   -0.072559
     20          1           0        3.827011    0.325414   -0.086267
     21          1           0        2.966523   -0.812668    0.955869
     22          8           0        1.775963    0.099580   -0.421662
     23          6           0        1.819016    1.140984   -1.385935
     24          1           0        2.262711    0.777585   -2.329138
     25          1           0        2.445651    1.970549   -1.023266
     26          6           0        0.406432    1.635744   -1.675657
     27          1           0       -0.236913    0.807957   -1.992081
     28          1           0        0.455452    2.336090   -2.517192
     29         16           0       -0.421792    2.606868   -0.359944
     30          6           0       -0.988382    1.361116    0.869652
     31          1           0       -0.118808    0.907607    1.351090
     32          1           0       -1.519043    1.964085    1.614424
     33          6           0       -1.899066    0.241912    0.362981
     34          1           0       -2.216477   -0.344004    1.234579
     35          1           0       -1.333519   -0.426804   -0.292788
     36         16           0       -3.390367    0.872526   -0.509013
     37          6           0       -4.353951   -0.686040   -0.596928
     38          1           0       -3.671830   -1.501807   -0.871721
     39          1           0       -5.044047   -0.562009   -1.437718
     40          6           0       -5.127456   -1.067023    0.674133
     41          1           0       -5.463364   -2.109246    0.605153
     42          1           0       -4.474959   -1.010816    1.551235
     43         16           0       -6.567978   -0.002252    1.068442
     44          6           0       -7.846424   -0.686927   -0.059817
     45          1           0       -8.620129    0.087630   -0.095506
     46          1           0       -7.434625   -0.756335   -1.073790
     47          6           0       -8.453558   -2.020413    0.379905
     48          1           0       -7.700250   -2.814335    0.429691
     49          1           0       -8.912554   -1.933065    1.369662
     50          1           0       -9.224973   -2.342890   -0.331151
 ---------------------------------------------------------------------
 Standard basis: 6-31G(d) (6D, 7F)
   372 basis functions,   752 primitive gaussians,   372 cartesian basis functions
    93 alpha electrons       93 beta electrons
 Requested convergence on RMS density matrix=1.00D-08 within  64 cycles.
 Requested convergence on MAX density matrix=1.00D-06.
 Requested convergence on             energy=1.00D-06.
 SCF Done:  E(RB3LYP) =  -1971.74830496     A.U. after   11 cycles
            NFock= 11  Conv=0.75D-08     -V/T= 2.0058
 Step number   2 out of a maximum of   55
     Eigenvalues ---    0.00226   0.00230   0.00230   0.00230   0.00230
     Eigenvalues ---    0.00350   0.00397   0.00414   0.00453   0.00470
     Eigenvalues ---    0.00484   0.00560   0.00578   0.01461   0.01502
     Eigenvalues ---    0.01509   0.01545   0.01586   0.01623   0.04206
     Eigenvalues ---    0.04253   0.04281   0.04296   0.04347   0.04654
     Eigenvalues ---    0.04717   0.04763   0.04923   0.05058   0.05248
     Eigenvalues ---    0.05293   0.05514   0.05531   0.05623   0.05629
     Eigenvalues ---    0.05634   0.05652   0.05714   0.05744   0.05811
     Eigenvalues ---    0.05831   0.05912   0.05928   0.05967   0.06094
     Eigenvalues ---    0.06143   0.06213   0.11243   0.11255   0.11297
     Eigenvalues ---    0.11531   0.11600   0.11781   0.11783   0.11798
     Eigenvalues ---    0.11817   0.11903   0.11920   0.11943   0.13753
     Eigenvalues ---    0.13788   0.13840   0.13900   0.14004   0.14051
     Eigenvalues ---    0.14071   0.14076   0.14091   0.14099   0.14174
     Eigenvalues ---    0.14234   0.15986   0.16000   0.16000   0.16000
     Eigenvalues ---    0.16000   0.16010   0.18988   0.22011   0.22014
     Eigenvalues ---    0.22022   0.22025   0.22033   0.22046   0.22054
     Eigenvalues ---    0.22056   0.22069   0.22096   0.22220   0.23196
     Eigenvalues ---    0.24195   0.24256   0.24393   0.24496   0.24665
     Eigenvalues ---    0.24987   0.25000   0.25000   0.25000   0.25000
     Eigenvalues ---    0.28537   0.29665   0.29876   0.30068   0.30195
     Eigenvalues ---    0.30295   0.30855   0.33423   0.33543   0.33579
     Eigenvalues ---    0.33625   0.33715   0.33758   0.33854   0.33891
     Eigenvalues ---    0.33972   0.34027   0.34098   0.34188   0.34193
     Eigenvalues ---    0.34217   0.34251   0.34322   0.34330   0.34338
     Eigenvalues ---    0.34359   0.34360   0.34372   0.34381   0.34398
     Eigenvalues ---    0.34410   0.34422   0.34432   0.34436   0.34442
     Eigenvalues ---    0.34485   0.34665   0.35990   0.42697   0.43009
     Eigenvalues ---    0.43377   0.43773   0.44009   0.44513
 Maximum Force            0.010168     0.000015     NO 
 RMS     Force            0.001213     0.000010     NO 
 Maximum Displacement     2.147964     0.000060     NO 
 RMS     Displacement     0.715468     0.000040     NO 
                          Input orientation:                          
 ---------------------------------------------------------------------
 Center     Atomic      Atomic             Coordinates (Angstroms)
 Number     Number       Type             X           Y           Z
 ---------------------------------------------------------------------
      1          6           0       -7.633422    0.057666   -2.022013
      2          1           0       -8.252028   -0.780859   -1.681349
      3          1           0       -7.864239    0.929573   -1.398353
      4          1           0       -7.925932    0.286413   -3.054200
      5          6           0       -6.137369   -0.266103   -1.956619
      6          1           0       -5.909073   -1.151528   -2.574614
      7          1           0       -5.557049    0.572575   -2.358133
      8          8           0       -5.643270   -0.459334   -0.633032
      9          6           0       -6.006208   -1.686039   -0.019815
     10          1           0       -5.852088   -2.529383   -0.713969
     11          1           0       -7.069662   -1.687104    0.276812
     12          6           0       -5.157863   -1.906959    1.229030
     13          1           0       -5.197343   -1.005279    1.858088
     14          1           0       -5.605842   -2.733357    1.802472
     15          8           0       -3.815521   -2.262723    0.917907
     16          6           0       -2.787252   -1.370156    1.328418
     17          1           0       -1.881542   -1.976545    1.451135
     18          1           0       -3.021969   -0.929674    2.311460
     19          6           0       -2.503320   -0.267957    0.292439
     20          1           0       -3.391306    0.356649    0.130216
     21          1           0       -2.254625   -0.740157   -0.665018
     22          8           0       -1.375067    0.521894    0.672693
     23          6           0       -1.683160    1.653064    1.479721
     24          1           0       -2.157002    1.342443    2.428721
     25          1           0       -2.391256    2.315647    0.956453
     26          6           0       -0.398325    2.409971    1.807455
     27          1           0        0.325566    1.743231    2.289579
     28          1           0       -0.632114    3.201298    2.530344
     29         16           0        0.408117    3.309022    0.419040
     30          6           0        0.758816    2.002671   -0.837719
     31          1           0       -0.172925    1.734646   -1.344146
     32          1           0        1.407613    2.515149   -1.557365
     33          6           0        1.431214    0.715693   -0.346765
     34          1           0        1.648659    0.100958   -1.231000
     35          1           0        0.738776    0.147225    0.284355
     36         16           0        3.005127    1.029564    0.567133
     37          6           0        3.682985   -0.683644    0.583064
     38          1           0        2.870878   -1.376736    0.843317
     39          1           0        4.394114   -0.710486    1.415970
     40          6           0        4.363614   -1.151274   -0.716547
     41          1           0        4.515928   -2.238350   -0.684031
     42          1           0        3.719185   -0.954806   -1.580278
     43         16           0        5.967162   -0.335452   -1.111452
     44          6           0        7.126193   -1.239833    0.004565
     45          1           0        8.030185   -0.619201    0.013431
     46          1           0        6.729724   -1.221778    1.027413
     47          6           0        7.467833   -2.669449   -0.429766
     48          1           0        6.579442   -3.311968   -0.453461
     49          1           0        7.914100   -2.679332   -1.430130
     50          1           0        8.182540   -3.121885    0.271543
 ---------------------------------------------------------------------
 Stoichiometry    C14H30O3S3
 Framework group  C1[X(C14H30O3S3)]
                         Standard orientation:                         
 ---------------------------------------------------------------------
 Center     Atomic      Atomic             Coordinates (Angstroms)
 Number     Number       Type             X           Y           Z
 ---------------------------------------------------------------------
      1          6           0        7.636242   -0.295969    2.038597
      2          1           0        8.254261   -1.072072    1.572157
      3          1           0        7.867560    0.661792    1.557311
      4          1           0        7.929017   -0.229875    3.093685
      5          6           0        6.139971   -0.604779    1.924208
      6          1           0        5.911164   -1.575021    2.397803
      7          1           0        5.560244    0.162036    2.450780
      8          8           0        5.645597   -0.590569    0.586767
      9          6           0        6.007664   -1.707842   -0.208954
     10          1           0        5.853070   -2.648341    0.346379
     11          1           0        7.071085   -1.663666   -0.502397
     12          6           0        5.159036   -1.732330   -1.476762
     13          1           0        5.199037   -0.744198   -1.958732
     14          1           0        5.606411   -2.460326   -2.171264
     15          8           0        3.816496   -2.131106   -1.224151
     16          6           0        2.788765   -1.185122   -1.491391
     17          1           0        1.882645   -1.764650   -1.706267
     18          1           0        3.023662   -0.597983   -2.394486
     19          6           0        2.505670   -0.256320   -0.297282
     20          1           0        3.394083    0.335104   -0.040554
     21          1           0        2.256774   -0.870827    0.575631
     22          8           0        1.377892    0.583567   -0.550502
     23          6           0        1.686636    1.825793   -1.172845
     24          1           0        2.160168    1.665457   -2.158580
     25          1           0        2.395224    2.398984   -0.553506
     26          6           0        0.402260    2.625104   -1.379243
     27          1           0       -0.322121    2.041450   -1.958574
     28          1           0        0.636486    3.518608   -1.971030
     29         16           0       -0.403439    3.299000    0.131734
     30          6           0       -0.754853    1.814141    1.171296
     31          1           0        0.176769    1.470397    1.629954
     32          1           0       -1.403235    2.209502    1.961708
     33          6           0       -1.428148    0.619053    0.487258
     34          1           0       -1.645896   -0.124961    1.265770
     35          1           0       -0.736152    0.154651   -0.224368
     36         16           0       -3.001957    1.071545   -0.366734
     37          6           0       -3.680937   -0.618138   -0.647420
     38          1           0       -2.869313   -1.263123   -1.011954
     39          1           0       -4.392177   -0.515330   -1.474298
     40          6           0       -4.361728   -1.280801    0.564324
     41          1           0       -4.514757   -2.349656    0.364026
     42          1           0       -3.717074   -1.220752    1.447917
     43         16           0       -5.964698   -0.534900    1.081047
     44          6           0       -7.124444   -1.254974   -0.161222
     45          1           0       -8.028031   -0.639877   -0.073758
     46          1           0       -6.728077   -1.079117   -1.169041
     47          6           0       -7.466972   -2.734362    0.046741
     48          1           0       -6.578999   -3.373368   -0.029456
     49          1           0       -7.913133   -2.898636    1.033622
     50          1           0       -8.182052   -3.072384   -0.715978
 ---------------------------------------------------------------------
 Standard basis: 6-31G(d) (6D, 7F)
   372 basis functions,   752 primitive gaussians,   372 cartesian basis functions
    93 alpha electrons       93 beta electrons
 Requested convergence on RMS density matrix=1.00D-08 within  64 cycles.
 Requested convergence on MAX density matrix=1.00D-06.
 Requested convergence on             energy=1.00D-06.
 SCF Done:  E(RB3LYP) =  -1971.74695275     A.U. after   12 cycles
            NFock= 12  Conv=0.39D-08     -V/T= 2.0059
 Step number   3 out of a maximum of   55
     Eigenvalues ---    0.00221   0.00229   0.00230   0.00230   0.00230
     Eigenvalues ---    0.00397   0.00410   0.00453   0.00469   0.00484
     Eigenvalues ---    0.00553   0.00574   0.01460   0.01478   0.01502
     Eigenvalues ---    0.01511   0.01542   0.01584   0.01616   0.04208
     Eigenvalues ---    0.04241   0.04274   0.04300   0.04640   0.04706
     Eigenvalues ---    0.04755   0.04913   0.04932   0.05096   0.05293
     Eigenvalues ---    0.05384   0.05508   0.05523   0.05609   0.05623
     Eigenvalues ---    0.05630   0.05632   0.05706   0.05715   0.05799
     Eigenvalues ---    0.05809   0.05885   0.05910   0.05977   0.06125
     Eigenvalues ---    0.06149   0.06179   0.11218   0.11261   0.11283
     Eigenvalues ---    0.11546   0.11576   0.11754   0.11797   0.11809
     Eigenvalues ---    0.11836   0.11902   0.11925   0.11931   0.13735
     Eigenvalues ---    0.13767   0.13839   0.13906   0.13980   0.14027
     Eigenvalues ---    0.14074   0.14082   0.14098   0.14107   0.14177
     Eigenvalues ---    0.14429   0.15988   0.16000   0.16000   0.16000
     Eigenvalues ---    0.16000   0.16001   0.19669   0.22014   0.22017
     Eigenvalues ---    0.22020   0.22032   0.22037   0.22045   0.22052
     Eigenvalues ---    0.22054   0.22061   0.22126   0.22311   0.23096
     Eigenvalues ---    0.24191   0.24256   0.24394   0.24496   0.24666
     Eigenvalues ---    0.24987   0.25000   0.25000   0.25000   0.25010
     Eigenvalues ---    0.29281   0.29669   0.29939   0.30081   0.30203
     Eigenvalues ---    0.30359   0.30878   0.33278   0.33545   0.33575
     Eigenvalues ---    0.33615   0.33685   0.33746   0.33805   0.33898
     Eigenvalues ---    0.33926   0.34017   0.34156   0.34188   0.34194
     Eigenvalues ---    0.34209   0.34221   0.34272   0.34329   0.34337
     Eigenvalues ---    0.34352   0.34360   0.34368   0.34378   0.34382
     Eigenvalues ---    0.34413   0.34422   0.34430   0.34436   0.34442
     Eigenvalues ---    0.34485   0.34674   0.36715   0.41957   0.43077
     Eigenvalues ---    0.43419   0.43658   0.43833   0.44213
 Maximum Force            0.017235     0.000015     NO 
 RMS     Force            0.002241     0.000010     NO 
 Maximum Displacement     1.491111     0.000060     NO 
 RMS     Displacement     0.475531     0.000040     NO 
                          Input orientation:                          
 ---------------------------------------------------------------------
 Center     Atomic      Atomic             Coordinates (Angstroms)
 Number     Number       Type             X           Y           Z
 ---------------------------------------------------------------------
      1          6           0       -7.535493    0.450592   -2.190099
      2          1           0       -8.309803   -0.245933   -1.849514
      3          1           0       -7.649777    1.389001   -1.636315
      4          1           0       -7.714736    0.653212   -3.252598
      5          6           0       -6.129177   -0.116016   -1.995231
      6          1           0       -6.019266   -1.067355   -2.541771
      7          1           0       -5.385031    0.582353   -2.392863
      8          8           0       -5.772251   -0.300619   -0.630462
      9          6           0       -6.393817   -1.403154    0.004592
     10          1           0       -6.337554   -2.301647   -0.631477
     11          1           0       -7.458208   -1.201979    0.212264
     12          6           0       -5.688383   -1.679528    1.323069
     13          1           0       -5.616680   -0.743007    1.894241
     14          1           0       -6.299370   -2.385028    1.905517
     15          8           0       -4.406766   -2.256080    1.123901
     16          6           0       -3.291138   -1.469955    1.508527
     17          1           0       -2.477314   -2.167762    1.735599
     18          1           0       -3.510762   -0.904805    2.427953
     19          6           0       -2.841404   -0.525043    0.385677
     20          1           0       -3.647346    0.167085    0.109841
     21          1           0       -2.596748   -1.119096   -0.501384
     22          8           0       -1.658041    0.178568    0.755830
     23          6           0       -1.893725    1.405166    1.431114
     24          1           0       -2.444505    1.230544    2.371772
     25          1           0       -2.508031    2.070676    0.804966
     26          6           0       -0.569844    2.081253    1.771947
     27          1           0        0.068258    1.421733    2.369681
     28          1           0       -0.797111    2.956466    2.391501
     29         16           0        0.391632    2.799240    0.378556
     30          6           0        0.793790    1.378317   -0.723901
     31          1           0       -0.132902    0.945584   -1.109958
     32          1           0        1.324272    1.858319   -1.553411
     33          6           0        1.663299    0.264602   -0.139170
     34          1           0        1.884102   -0.441612   -0.950069
     35          1           0        1.113498   -0.277180    0.635126
     36         16           0        3.251671    0.899234    0.547830
     37          6           0        4.167052   -0.690891    0.655488
     38          1           0        3.513709   -1.437259    1.126675
     39          1           0        4.990525   -0.506953    1.353159
     40          6           0        4.703259   -1.242543   -0.673194
     41          1           0        5.030495   -2.281036   -0.536857
     42          1           0        3.913810   -1.259334   -1.431473
     43         16           0        6.076205   -0.281338   -1.426914
     44          6           0        7.492113   -0.791916   -0.365988
     45          1           0        8.295181   -0.099020   -0.640243
     46          1           0        7.247040   -0.586284    0.682696
     47          6           0        7.948446   -2.239672   -0.552320
     48          1           0        7.157385   -2.951976   -0.291672
     49          1           0        8.239758   -2.427381   -1.590679
     50          1           0        8.810683   -2.452546    0.093041
 ---------------------------------------------------------------------
 Stoichiometry    C14H30O3S3
 Framework group  C1[X(C14H30O3S3)]
                         Standard orientation:                         
 ---------------------------------------------------------------------
 Center     Atomic      Atomic             Coordinates (Angstroms)
 Number     Number       Type             X           Y           Z
 ---------------------------------------------------------------------
      1          6           0        7.475680    0.079848    2.418843
      2          1           0        8.256149   -0.556756    1.987214
      3          1           0        7.603501    1.094503    2.025798
      4          1           0        7.631997    0.108072    3.503673
      5          6           0        6.073068   -0.440929    2.105453
      6          1           0        5.949757   -1.467203    2.489364
      7          1           0        5.321512    0.188170    2.594313
      8          8           0        5.745739   -0.401865    0.721473
      9          6           0        6.379294   -1.391068   -0.069292
     10          1           0        6.307746   -2.379852    0.412606
     11          1           0        7.448280   -1.164505   -0.219176
     12          6           0        5.702386   -1.448260   -1.429779
     13          1           0        5.644641   -0.431731   -1.844247
     14          1           0        6.324838   -2.054004   -2.104988
     15          8           0        4.415823   -2.042843   -1.353299
     16          6           0        3.310094   -1.199465   -1.630123
     17          1           0        2.500329   -1.847551   -1.983778
     18          1           0        3.550628   -0.494944   -2.441768
     19          6           0        2.837431   -0.445140   -0.379726
     20          1           0        3.638242    0.189539    0.020964
     21          1           0        2.572531   -1.172857    0.394800
     22          8           0        1.663538    0.314814   -0.656986
     23          6           0        1.915834    1.632828   -1.120974
     24          1           0        2.486748    1.608952   -2.065525
     25          1           0        2.517363    2.185876   -0.382979
     26          6           0        0.600773    2.361614   -1.376724
     27          1           0       -0.025158    1.810029   -2.086224
     28          1           0        0.842886    3.323900   -1.842428
     29         16           0       -0.389773    2.851055    0.093224
     30          6           0       -0.818137    1.273401    0.943915
     31          1           0        0.099226    0.779537    1.274979
     32          1           0       -1.365851    1.616449    1.828350
     33          6           0       -1.676415    0.272618    0.169249
     34          1           0       -1.915980   -0.553673    0.851087
     35          1           0       -1.110688   -0.140382   -0.670231
     36         16           0       -3.248409    1.017491   -0.440381
     37          6           0       -4.163714   -0.529978   -0.821917
     38          1           0       -3.501410   -1.194163   -1.393012
     39          1           0       -4.971467   -0.232083   -1.498289
     40          6           0       -4.729671   -1.285383    0.388988
     41          1           0       -5.055479   -2.286770    0.080423
     42          1           0       -3.956995   -1.427882    1.151329
     43         16           0       -6.117239   -0.450950    1.258106
     44          6           0       -7.510441   -0.777115    0.098947
     45          1           0       -8.318219   -0.133281    0.463929
     46          1           0       -7.242206   -0.406774   -0.897538
     47          6           0       -7.973004   -2.233666    0.040185
     48          1           0       -7.177558   -2.898783   -0.314749
     49          1           0       -8.287214   -2.584424    1.028379
     50          1           0       -8.821277   -2.335630   -0.649233
 ---------------------------------------------------------------------
 Standard basis: 6-31G(d) (6D, 7F)
   372 basis functions,   752 primitive gaussians,   372 cartesian basis functions
    93 alpha electrons       93 beta electrons
 Requested convergence on RMS density matrix=1.00D-08 within  64 cycles.
 Requested convergence on MAX density matrix=1.00D-06.
 Requested convergence on             energy=1.00D-06.
 SCF Done:  E(RB3LYP) =  -1971.74815170     A.U. after   11 cycles
            NFock= 11  Conv=0.86D-08     -V/T= 2.0058
 Step number   4 out of a maximum of   55
 Maximum Force            0.007369     0.000015     NO 
 RMS     Force            0.001221     0.000010     NO 
 Maximum Displacement     0.966564     0.000060     NO 
 RMS     Displacement     0.244098     0.000040     NO 
                          Input orientation:                          
 ---------------------------------------------------------------------
 Center     Atomic      Atomic             Coordinates (Angstroms)
 Number     Number       Type             X           Y           Z
 ---------------------------------------------------------------------
      1          6           0       -7.949727    0.524480   -1.968771
      2          1           0       -8.680560   -0.195194   -1.583648
      3          1           0       -8.028967    1.443628   -1.378058
      4          1           0       -8.226219    0.755691   -3.004186
      5          6           0       -6.523462   -0.022463   -1.915014
      6          1           0       -6.447574   -0.955396   -2.497991
      7          1           0       -5.829357    0.699938   -2.357858
      8          8           0       -6.042040   -0.239132   -0.594352
      9          6           0       -6.582896   -1.368182    0.065856
     10          1           0       -6.573155   -2.248438   -0.597559
     11          1           0       -7.626898   -1.190700    0.373652
     12          6           0       -5.757491   -1.671831    1.307807
     13          1           0       -5.643327   -0.752490    1.899699
     14          1           0       -6.312642   -2.397742    1.920226
     15          8           0       -4.496031   -2.238427    0.988171
     16          6           0       -3.342422   -1.489728    1.335407
     17          1           0       -2.529950   -2.212938    1.468111
     18          1           0       -3.485928   -0.976242    2.299070
     19          6           0       -2.938657   -0.490153    0.242760
     20          1           0       -3.735618    0.243092    0.068267
     21          1           0       -2.781706   -1.035820   -0.693919
     22          8           0       -1.706489    0.150053    0.564687
     23          6           0       -1.841586    1.343257    1.322422
     24          1           0       -2.334383    1.135534    2.288146
     25          1           0       -2.467198    2.069153    0.780165
     26          6           0       -0.467238    1.940923    1.603404
     27          1           0        0.179202    1.215239    2.108215
     28          1           0       -0.601490    2.781556    2.293757
     29         16           0        0.421616    2.698117    0.186710
     30          6           0        0.902733    1.286820   -0.893598
     31          1           0        0.002211    0.813338   -1.292576
     32          1           0        1.430809    1.775872   -1.719335
     33          6           0        1.795453    0.208209   -0.278656
     34          1           0        2.062090   -0.494217   -1.078575
     35          1           0        1.239028   -0.349999    0.479648
     36         16           0        3.339353    0.895938    0.451387
     37          6           0        4.281091   -0.667527    0.651798
     38          1           0        3.610937   -1.424928    1.079993
     39          1           0        5.041968   -0.458080    1.410619
     40          6           0        4.935911   -1.220724   -0.622313
     41          1           0        5.267346   -2.252441   -0.450016
     42          1           0        4.211100   -1.259733   -1.441753
     43         16           0        6.348348   -0.242748   -1.269628
     44          6           0        7.698150   -0.765051   -0.134471
     45          1           0        8.493461   -0.031470   -0.305842
     46          1           0        7.369717   -0.628741    0.902771
     47          6           0        8.224485   -2.182759   -0.363927
     48          1           0        7.445399   -2.936756   -0.205257
     49          1           0        8.600103   -2.299639   -1.385372
     50          1           0        9.043497   -2.403152    0.332926
 ---------------------------------------------------------------------
 Stoichiometry    C14H30O3S3
 Framework group  C1[X(C14H30O3S3)]
                         Standard orientation:                         
 ---------------------------------------------------------------------
 Center     Atomic      Atomic             Coordinates (Angstroms)
 Number     Number       Type             X           Y           Z
 ---------------------------------------------------------------------
      1          6           0        7.933839    0.536649    2.056918
      2          1           0        8.667211   -0.184930    1.680278
      3          1           0        8.022227    1.455536    1.467099
      4          1           0        8.198986    0.767246    3.095433
      5          6           0        6.506891   -0.006646    1.986782
      6          1           0        6.421908   -0.939328    2.568904
      7          1           0        5.809587    0.717570    2.421561
      8          8           0        6.040150   -0.222203    0.660678
      9          6           0        6.585675   -1.352696    0.006811
     10          1           0        6.566044   -2.232863    0.670125
     11          1           0        7.633602   -1.177915   -0.288959
     12          6           0        5.773846   -1.654344   -1.244540
     13          1           0        5.668857   -0.734769   -1.837764
     14          1           0        6.334148   -2.381730   -1.850483
     15          8           0        4.507343   -2.217679   -0.939410
     16          6           0        3.359728   -1.466061   -1.299949
     17          1           0        2.546988   -2.187201   -1.441951
     18          1           0        3.515632   -0.953033   -2.261928
     19          6           0        2.945975   -0.465355   -0.212084
     20          1           0        3.742750    0.265863   -0.028475
     21          1           0        2.776856   -1.010532    0.722761
     22          8           0        1.719238    0.177974   -0.548213
     23          6           0        1.866103    1.370758   -1.304418
     24          1           0        2.369450    1.161685   -2.264392
     25          1           0        2.487289    2.095100   -0.755041
     26          6           0        0.496616    1.971915   -1.601238
     27          1           0       -0.145827    1.247843   -2.113411
     28          1           0        0.640958    2.812138   -2.290053
     29         16           0       -0.406544    2.731513   -0.194916
     30          6           0       -0.903677    1.321552    0.879870
     31          1           0       -0.009022    0.845803    1.289217
     32          1           0       -1.439969    1.812030    1.699443
     33          6           0       -1.792020    0.245174    0.254760
     34          1           0       -2.069644   -0.456494    1.051601
     35          1           0       -1.228334   -0.314527   -0.497053
     36         16           0       -3.325647    0.936786   -0.493049
     37          6           0       -4.269017   -0.624281   -0.704189
     38          1           0       -3.595921   -1.383435   -1.124594
     39          1           0       -5.020571   -0.412957   -1.471731
     40          6           0       -4.939875   -1.175683    0.562335
     41          1           0       -5.271946   -2.206564    0.386299
     42          1           0       -4.224646   -1.216472    1.390066
     43         16           0       -6.357159   -0.194034    1.193287
     44          6           0       -7.695138   -0.712984    0.042701
     45          1           0       -8.490489    0.022646    0.204860
     46          1           0       -7.354440   -0.577611   -0.990700
     47          6           0       -8.227710   -2.129319    0.266172
     48          1           0       -7.448782   -2.885323    0.116528
     49          1           0       -8.615358   -2.245142    1.283233
     50          1           0       -9.039207   -2.347678   -0.440048
 ---------------------------------------------------------------------
 Standard basis: 6-31G(d) (6D, 7F)
   372 basis functions,   752 primitive gaussians,   372 cartesian basis functions
    93 alpha electrons       93 beta electrons
 Requested convergence on RMS density matrix=1.00D-08 within  64 cycles.
 Requested convergence on MAX density matrix=1.00D-06.
 Requested convergence on             energy=1.00D-06.
 SCF Done:  E(RB3LYP) =  -1971.74885552     A.U. after   10 cycles
            NFock= 10  Conv=0.41D-08     -V/T= 2.0058
 Step number   5 out of a maximum of   55
     Eigenvalues ---    0.00226   0.00229   0.00230   0.00230   0.00378
     Eigenvalues ---    0.00400   0.00443   0.00454   0.00463   0.00484
     Eigenvalues ---    0.00556   0.00587   0.01061   0.01462   0.01502
     Eigenvalues ---    0.01513   0.01541   0.01585   0.01800   0.04239
     Eigenvalues ---    0.04260   0.04296   0.04327   0.04678   0.04735
     Eigenvalues ---    0.04772   0.04848   0.04942   0.05234   0.05305
     Eigenvalues ---    0.05461   0.05509   0.05533   0.05594   0.05628
     Eigenvalues ---    0.05637   0.05657   0.05713   0.05724   0.05806
     Eigenvalues ---    0.05814   0.05905   0.05934   0.05997   0.06121
     Eigenvalues ---    0.06144   0.06256   0.11206   0.11240   0.11309
     Eigenvalues ---    0.11530   0.11580   0.11731   0.11733   0.11790
     Eigenvalues ---    0.11814   0.11880   0.11911   0.11952   0.13723
     Eigenvalues ---    0.13779   0.13822   0.13887   0.13985   0.13994
     Eigenvalues ---    0.14038   0.14069   0.14087   0.14091   0.14190
     Eigenvalues ---    0.14500   0.15975   0.16000   0.16000   0.16000
     Eigenvalues ---    0.16003   0.16007   0.19709   0.22013   0.22017
     Eigenvalues ---    0.22022   0.22035   0.22043   0.22049   0.22054
     Eigenvalues ---    0.22056   0.22139   0.22497   0.22777   0.23642
     Eigenvalues ---    0.24215   0.24263   0.24394   0.24496   0.24654
     Eigenvalues ---    0.24982   0.24993   0.25000   0.25002   0.28182
     Eigenvalues ---    0.29662   0.29841   0.30045   0.30175   0.30339
     Eigenvalues ---    0.30391   0.33152   0.33521   0.33571   0.33601
     Eigenvalues ---    0.33668   0.33709   0.33758   0.33823   0.33914
     Eigenvalues ---    0.33967   0.34046   0.34184   0.34190   0.34215
     Eigenvalues ---    0.34237   0.34304   0.34329   0.34333   0.34356
     Eigenvalues ---    0.34358   0.34370   0.34381   0.34401   0.34407
     Eigenvalues ---    0.34423   0.34435   0.34437   0.34442   0.34484
     Eigenvalues ---    0.34634   0.35069   0.38001   0.42936   0.43228
     Eigenvalues ---    0.43471   0.43787   0.44140   0.47161
 Maximum Force            0.009517     0.000015     NO 
 RMS     Force            0.000854     0.000010     NO 
 Maximum Displacement     0.221217     0.000060     NO 
 RMS     Displacement     0.074313     0.000040     NO 
                          Input orientation:                          
 ---------------------------------------------------------------------
 Center     Atomic      Atomic             Coordinates (Angstroms)
 Number     Number       Type             X           Y           Z
 ---------------------------------------------------------------------
      1          6           0       -7.931871    0.541997   -1.881726
      2          1           0       -8.647173   -0.199749   -1.509280
      3          1           0       -8.014727    1.440928   -1.260995
      4          1           0       -8.225845    0.801821   -2.905526
      5          6           0       -6.497649    0.013312   -1.865929
      6          1           0       -6.417964   -0.899408   -2.479487
      7          1           0       -5.818960    0.759153   -2.293447
      8          8           0       -5.995622   -0.239684   -0.558941
      9          6           0       -6.514302   -1.398356    0.068147
     10          1           0       -6.499720   -2.255392   -0.624858
     11          1           0       -7.556903   -1.246006    0.394099
     12          6           0       -5.669265   -1.729853    1.289246
     13          1           0       -5.557746   -0.827184    1.906704
     14          1           0       -6.205491   -2.482017    1.886650
     15          8           0       -4.404953   -2.268139    0.932591
     16          6           0       -3.260775   -1.502855    1.276125
     17          1           0       -2.430489   -2.210634    1.378095
     18          1           0       -3.398213   -1.012136    2.252474
     19          6           0       -2.903611   -0.472090    0.196230
     20          1           0       -3.720719    0.246524    0.055191
     21          1           0       -2.753991   -0.993899   -0.755071
     22          8           0       -1.678777    0.188133    0.506389
     23          6           0       -1.826654    1.360309    1.294670
     24          1           0       -2.289606    1.124505    2.268886
     25          1           0       -2.476686    2.086546    0.782298
     26          6           0       -0.455232    1.970637    1.548312
     27          1           0        0.209336    1.235133    2.013894
     28          1           0       -0.564791    2.800549    2.256119
     29         16           0        0.376920    2.737221    0.103900
     30          6           0        0.841068    1.300812   -0.947883
     31          1           0       -0.069533    0.822648   -1.317662
     32          1           0        1.359593    1.765581   -1.793545
     33          6           0        1.724913    0.231291   -0.305418
     34          1           0        1.975048   -0.501995   -1.082580
     35          1           0        1.169842   -0.294169    0.478772
     36         16           0        3.284282    0.924275    0.388572
     37          6           0        4.207222   -0.644898    0.638441
     38          1           0        3.520433   -1.388599    1.064128
     39          1           0        4.951164   -0.426039    1.411256
     40          6           0        4.887540   -1.227167   -0.609011
     41          1           0        5.206855   -2.257619   -0.408600
     42          1           0        4.183365   -1.275691   -1.445783
     43         16           0        6.323755   -0.271994   -1.241396
     44          6           0        7.646838   -0.796968   -0.074001
     45          1           0        8.440662   -0.056132   -0.219471
     46          1           0        7.289468   -0.671705    0.954941
     47          6           0        8.188195   -2.209141   -0.302220
     48          1           0        7.410394   -2.969592   -0.169625
     49          1           0        8.590887   -2.314696   -1.314613
     50          1           0        8.990488   -2.429566    0.413940
 ---------------------------------------------------------------------
 Stoichiometry    C14H30O3S3
 Framework group  C1[X(C14H30O3S3)]
                         Standard orientation:                         
 ---------------------------------------------------------------------
 Center     Atomic      Atomic             Coordinates (Angstroms)
 Number     Number       Type             X           Y           Z
 ---------------------------------------------------------------------
      1          6           0        7.917023    0.598405    1.927607
      2          1           0        8.632629   -0.158477    1.587612
      3          1           0        8.010438    1.475696    1.278081
      4          1           0        8.201699    0.891065    2.945156
      5          6           0        6.480582    0.075701    1.914568
      6          1           0        6.390347   -0.815625    2.557417
      7          1           0        5.801041    0.838361    2.309844
      8          8           0        5.990802   -0.218709    0.611612
      9          6           0        6.510461   -1.399949    0.029017
     10          1           0        6.484769   -2.233246    0.750083
     11          1           0        7.557048   -1.263105   -0.290982
     12          6           0        5.676444   -1.768456   -1.189046
     13          1           0        5.575481   -0.886479   -1.837447
     14          1           0        6.215243   -2.542502   -1.755374
     15          8           0        4.406040   -2.289028   -0.827774
     16          6           0        3.269033   -1.530722   -1.208568
     17          1           0        2.436536   -2.237915   -1.295462
     18          1           0        3.418764   -1.073545   -2.199285
     19          6           0        2.905641   -0.462865   -0.167490
     20          1           0        3.724611    0.256522   -0.042050
     21          1           0        2.743840   -0.951899    0.799107
     22          8           0        1.687151    0.191908   -0.512259
     23          6           0        1.848577    1.336400   -1.337686
     24          1           0        2.320383    1.066129   -2.298610
     25          1           0        2.496710    2.076553   -0.843132
     26          6           0        0.482694    1.943830   -1.625828
     27          1           0       -0.180497    1.196044   -2.073462
     28          1           0        0.603381    2.749113   -2.359792
     29         16           0       -0.360627    2.761910   -0.216570
     30          6           0       -0.842240    1.363521    0.877736
     31          1           0        0.062278    0.894060    1.272737
     32          1           0       -1.367229    1.858565    1.701958
     33          6           0       -1.724443    0.276939    0.262208
     34          1           0       -1.985956   -0.428844    1.060794
     35          1           0       -1.163825   -0.276865   -0.498171
     36         16           0       -3.273361    0.953058   -0.470730
     37          6           0       -4.201016   -0.619587   -0.677615
     38          1           0       -3.513383   -1.380082   -1.071048
     39          1           0       -4.935966   -0.423490   -1.465007
     40          6           0       -4.896799   -1.156840    0.581454
     41          1           0       -5.218856   -2.192029    0.412275
     42          1           0       -4.201473   -1.180386    1.426658
     43         16           0       -6.334940   -0.174834    1.166598
     44          6           0       -7.648427   -0.732842    0.003698
     45          1           0       -8.440228    0.015876    0.116069
     46          1           0       -7.279947   -0.643626   -1.025082
     47          6           0       -8.198690   -2.134231    0.273332
     48          1           0       -7.423134   -2.902053    0.174317
     49          1           0       -8.612227   -2.204109    1.284443
     50          1           0       -8.994622   -2.375020   -0.443369
 ---------------------------------------------------------------------
 Standard basis: 6-31G(d) (6D, 7F)
   372 basis functions,   752 primitive gaussians,   372 cartesian basis functions
    93 alpha electrons       93 beta electrons
 Requested convergence on RMS density matrix=1.00D-08 within  64 cycles.
 Requested convergence on MAX density matrix=1.00D-06.
 Requested convergence on             energy=1.00D-06.
 SCF Done:  E(RB3LYP) =  -1971.74918077     A.U. after   10 cycles
            NFock= 10  Conv=0.65D-08     -V/T= 2.0058
 Step number   6 out of a maximum of   55
     Eigenvalues ---    0.00225   0.00229   0.00230   0.00248   0.00355
     Eigenvalues ---    0.00397   0.00423   0.00453   0.00465   0.00484
     Eigenvalues ---    0.00568   0.00584   0.01164   0.01461   0.01500
     Eigenvalues ---    0.01510   0.01533   0.01584   0.01918   0.04251
     Eigenvalues ---    0.04287   0.04298   0.04307   0.04577   0.04694
     Eigenvalues ---    0.04744   0.04866   0.04955   0.05288   0.05329
     Eigenvalues ---    0.05341   0.05518   0.05535   0.05609   0.05624
     Eigenvalues ---    0.05643   0.05668   0.05699   0.05727   0.05802
     Eigenvalues ---    0.05840   0.05901   0.05926   0.06016   0.06093
     Eigenvalues ---    0.06148   0.06315   0.11172   0.11238   0.11338
     Eigenvalues ---    0.11522   0.11569   0.11710   0.11754   0.11792
     Eigenvalues ---    0.11826   0.11871   0.11906   0.11918   0.13737
     Eigenvalues ---    0.13749   0.13797   0.13874   0.13972   0.14009
     Eigenvalues ---    0.14030   0.14068   0.14080   0.14088   0.14133
     Eigenvalues ---    0.14421   0.15951   0.16000   0.16000   0.16000
     Eigenvalues ---    0.16002   0.16006   0.19780   0.21733   0.22018
     Eigenvalues ---    0.22024   0.22025   0.22038   0.22045   0.22053
     Eigenvalues ---    0.22061   0.22099   0.22385   0.22595   0.23896
     Eigenvalues ---    0.24200   0.24262   0.24396   0.24496   0.24666
     Eigenvalues ---    0.24928   0.25000   0.25000   0.25191   0.29321
     Eigenvalues ---    0.29683   0.29860   0.30020   0.30177   0.30331
     Eigenvalues ---    0.30576   0.32986   0.33521   0.33570   0.33591
     Eigenvalues ---    0.33657   0.33756   0.33796   0.33833   0.33930
     Eigenvalues ---    0.33942   0.34024   0.34181   0.34192   0.34201
     Eigenvalues ---    0.34223   0.34306   0.34332   0.34351   0.34357
     Eigenvalues ---    0.34366   0.34378   0.34381   0.34397   0.34420
     Eigenvalues ---    0.34427   0.34434   0.34442   0.34460   0.34492
     Eigenvalues ---    0.34588   0.35334   0.37905   0.43012   0.43201
     Eigenvalues ---    0.43411   0.43788   0.44127   0.51547
 Maximum Force            0.001968     0.000015     NO 
 RMS     Force            0.000342     0.000010     NO 
 Maximum Displacement     0.286570     0.000060     NO 
 RMS     Displacement     0.072940     0.000040     NO 
                          Input orientation:                          
 ---------------------------------------------------------------------
 Center     Atomic      Atomic             Coordinates (Angstroms)
 Number     Number       Type             X           Y           Z
 ---------------------------------------------------------------------
      1          6           0       -7.929632    0.485316   -1.858106
      2          1           0       -8.622500   -0.276510   -1.484146
      3          1           0       -8.028448    1.377636   -1.230541
      4          1           0       -8.238754    0.744436   -2.877513
      5          6           0       -6.483415   -0.007910   -1.859413
      6          1           0       -6.386905   -0.913873   -2.479947
      7          1           0       -5.826471    0.757621   -2.285562
      8          8           0       -5.965556   -0.258816   -0.558173
      9          6           0       -6.451796   -1.436330    0.059542
     10          1           0       -6.417611   -2.285668   -0.641685
     11          1           0       -7.496644   -1.312454    0.389654
     12          6           0       -5.594969   -1.756977    1.274925
     13          1           0       -5.497737   -0.856368    1.897317
     14          1           0       -6.113922   -2.523119    1.869166
     15          8           0       -4.322380   -2.272180    0.912586
     16          6           0       -3.190097   -1.490141    1.259503
     17          1           0       -2.350902   -2.186661    1.363144
     18          1           0       -3.337266   -1.001662    2.235178
     19          6           0       -2.844175   -0.455407    0.180815
     20          1           0       -3.668587    0.254370    0.040899
     21          1           0       -2.687423   -0.974663   -0.770506
     22          8           0       -1.626356    0.217259    0.493153
     23          6           0       -1.789746    1.384535    1.285209
     24          1           0       -2.250103    1.136117    2.257284
     25          1           0       -2.449184    2.104213    0.776213
     26          6           0       -0.425751    2.008805    1.543589
     27          1           0        0.249870    1.273494    1.992639
     28          1           0       -0.541992    2.824266    2.266406
     29         16           0        0.389863    2.810927    0.107592
     30          6           0        0.869618    1.395997   -0.966601
     31          1           0       -0.035234    0.945190   -1.380528
     32          1           0        1.428457    1.872597   -1.779019
     33          6           0        1.707639    0.295656   -0.318125
     34          1           0        1.976852   -0.422994   -1.102226
     35          1           0        1.114315   -0.238807    0.431007
     36         16           0        3.249689    0.944319    0.453975
     37          6           0        4.144987   -0.645505    0.672468
     38          1           0        3.445335   -1.383736    1.085863
     39          1           0        4.895595   -0.454120    1.445920
     40          6           0        4.806852   -1.215633   -0.588705
     41          1           0        5.114075   -2.253253   -0.407957
     42          1           0        4.096872   -1.238055   -1.421561
     43         16           0        6.252227   -0.269257   -1.213408
     44          6           0        7.572638   -0.837173   -0.062806
     45          1           0        8.387871   -0.122438   -0.218532
     46          1           0        7.230475   -0.701395    0.969659
     47          6           0        8.061262   -2.266191   -0.299041
     48          1           0        7.258748   -2.998620   -0.156909
     49          1           0        8.446925   -2.384287   -1.316476
     50          1           0        8.864393   -2.514555    0.406782
 ---------------------------------------------------------------------
 Stoichiometry    C14H30O3S3
 Framework group  C1[X(C14H30O3S3)]
                         Standard orientation:                         
 ---------------------------------------------------------------------
 Center     Atomic      Atomic             Coordinates (Angstroms)
 Number     Number       Type             X           Y           Z
 ---------------------------------------------------------------------
      1          6           0        7.918897    0.514643    1.896495
      2          1           0        8.612058   -0.255838    1.541279
      3          1           0        8.025029    1.395271    1.253793
      4          1           0        8.221466    0.791064    2.913320
      5          6           0        6.471172    0.025859    1.896119
      6          1           0        6.367353   -0.868543    2.532053
      7          1           0        5.813569    0.800872    2.303710
      8          8           0        5.961931   -0.246775    0.595849
      9          6           0        6.448928   -1.436623    0.002862
     10          1           0        6.407027   -2.273151    0.718914
     11          1           0        7.496512   -1.321818   -0.321811
     12          6           0        5.599892   -1.776431   -1.212783
     13          1           0        5.509970   -0.886834   -1.851887
     14          1           0        6.120719   -2.554654   -1.789426
     15          8           0        4.323116   -2.281238   -0.850539
     16          6           0        3.195818   -1.502150   -1.219621
     17          1           0        2.355217   -2.197896   -1.316875
     18          1           0        3.351549   -1.031680   -2.202788
     19          6           0        2.845363   -0.447216   -0.162171
     20          1           0        3.670960    0.262479   -0.028994
     21          1           0        2.680128   -0.948865    0.797128
     22          8           0        1.631939    0.223393   -0.495344
     23          6           0        1.804690    1.375791   -1.306960
     24          1           0        2.271268    1.108610   -2.271060
     25          1           0        2.462688    2.102495   -0.806149
     26          6           0        0.444555    1.999417   -1.586381
     27          1           0       -0.230107    1.258206   -2.027096
     28          1           0        0.568558    2.801440   -2.322815
     29         16           0       -0.378884    2.829590   -0.170940
     30          6           0       -0.870801    1.435585    0.924895
     31          1           0        0.029627    0.989558    1.353391
     32          1           0       -1.433992    1.928344    1.724567
     33          6           0       -1.707560    0.326317    0.290144
     34          1           0       -1.984670   -0.377354    1.085007
     35          1           0       -1.110522   -0.223264   -0.444967
     36         16           0       -3.241963    0.965659   -0.504631
     37          6           0       -4.140632   -0.625133   -0.701133
     38          1           0       -3.440329   -1.372750   -1.096150
     39          1           0       -4.885037   -0.445391   -1.483323
     40          6           0       -4.813358   -1.170578    0.565199
     41          1           0       -5.122514   -2.210345    0.400826
     42          1           0       -4.109479   -1.180199    1.403462
     43         16           0       -6.260234   -0.208827    1.162339
     44          6           0       -7.574080   -0.793311    0.012520
     45          1           0       -8.388175   -0.073458    0.149497
     46          1           0       -7.224055   -0.677086   -1.019696
     47          6           0       -8.068865   -2.216393    0.270740
     48          1           0       -7.267642   -2.953656    0.147578
     49          1           0       -8.462226   -2.315078    1.287296
     50          1           0       -8.867656   -2.474959   -0.436343
 ---------------------------------------------------------------------
 Standard basis: 6-31G(d) (6D, 7F)
   372 basis functions,   752 primitive gaussians,   372 cartesian basis functions
    93 alpha electrons       93 beta electrons
 Requested convergence on RMS density matrix=1.00D-08 within  64 cycles.
 Requested convergence on MAX density matrix=1.00D-06.
 Requested convergence on             energy=1.00D-06.
 SCF Done:  E(RB3LYP) =  -1971.74927762     A.U. after   10 cycles
            NFock= 10  Conv=0.65D-08     -V/T= 2.0058
 Step number   7 out of a maximum of   55
     Eigenvalues ---    0.00225   0.00230   0.00231   0.00332   0.00376
[...]
 SCF Done:  E(RB3LYP) =  -1971.74843093     A.U. after   10 cycles
            NFock= 10  Conv=0.58D-08     -V/T= 2.0058
 Step number  54 out of a maximum of   55
 Maximum Force            0.014092     0.000015     NO 
 RMS     Force            0.001586     0.000010     NO 
 Maximum Displacement     0.425057     0.000060     NO 
 RMS     Displacement     0.088669     0.000040     NO 
                          Input orientation:                          
 ---------------------------------------------------------------------
 Center     Atomic      Atomic             Coordinates (Angstroms)
 Number     Number       Type             X           Y           Z
 ---------------------------------------------------------------------
      1          6           0       -8.132816    0.645529   -1.301546
      2          1           0       -8.749473   -0.220919   -1.039328
      3          1           0       -8.233160    1.391922   -0.506423
      4          1           0       -8.535959    1.071719   -2.227609
      5          6           0       -6.665392    0.266777   -1.494413
      6          1           0       -6.563664   -0.487253   -2.291797
      7          1           0       -6.088607    1.147362   -1.796917
      8          8           0       -6.036279   -0.200795   -0.304890
      9          6           0       -6.385011   -1.520522    0.075348
     10          1           0       -6.290295   -2.207302   -0.780789
     11          1           0       -7.427489   -1.566217    0.431732
     12          6           0       -5.469131   -1.994823    1.199573
     13          1           0       -5.418469   -1.215541    1.972896
     14          1           0       -5.923749   -2.889439    1.649827
     15          8           0       -4.161661   -2.363370    0.758173
     16          6           0       -3.052675   -1.523793    1.090153
     17          1           0       -2.192896   -2.184188    1.258579
     18          1           0       -3.245164   -0.982535    2.028185
     19          6           0       -2.703950   -0.545384   -0.039777
     20          1           0       -3.539281    0.138679   -0.221456
     21          1           0       -2.527566   -1.117837   -0.957126
     22          8           0       -1.499222    0.167158    0.239719
     23          6           0       -1.680671    1.366830    0.979156
     24          1           0       -2.121483    1.156210    1.968638
     25          1           0       -2.365834    2.041480    0.443997
     26          6           0       -0.326118    2.033373    1.175159
     27          1           0        0.393202    1.320263    1.589249
     28          1           0       -0.424938    2.848426    1.900419
     29         16           0        0.397908    2.838089   -0.306479
     30          6           0        0.956792    1.427400   -1.352956
     31          1           0        0.088655    0.989849   -1.852971
     32          1           0        1.588183    1.905408   -2.109124
     33          6           0        1.726536    0.305899   -0.658736
     34          1           0        2.081730   -0.380116   -1.436900
     35          1           0        1.055786   -0.253514    0.000049
     36         16           0        3.176952    0.927240    0.291690
     37          6           0        4.019270   -0.671226    0.617948
     38          1           0        3.276992   -1.387645    0.993831
     39          1           0        4.705759   -0.468123    1.446154
     40          6           0        4.777764   -1.293472   -0.561861
     41          1           0        5.054016   -2.325553   -0.314030
     42          1           0        4.138616   -1.348094   -1.448703
     43         16           0        6.275706   -0.389944   -1.117020
     44          6           0        7.477479   -0.801911    0.214030
     45          1           0        8.320758   -0.131178    0.017347
     46          1           0        7.062024   -0.503753    1.183379
     47          6           0        7.950466   -2.255091    0.238592
     48          1           0        7.125076   -2.950087    0.427580
     49          1           0        8.412303   -2.532423   -0.714077
     50          1           0        8.689980   -2.399565    1.036522
 ---------------------------------------------------------------------
 Stoichiometry    C14H30O3S3
 Framework group  C1[X(C14H30O3S3)]
                         Standard orientation:                         
 ---------------------------------------------------------------------
 Center     Atomic      Atomic             Coordinates (Angstroms)
 Number     Number       Type             X           Y           Z
 ---------------------------------------------------------------------
      1          6           0        8.139673    0.836884    1.144709
      2          1           0        8.750169   -0.067798    1.051958
      3          1           0        8.249947    1.421553    0.225256
      4          1           0        8.542183    1.424896    1.977765
      5          6           0        6.668235    0.511585    1.395776
      6          1           0        6.556501   -0.080157    2.318863
      7          1           0        6.097545    1.437354    1.525721
      8          8           0        6.040616   -0.164414    0.310192
      9          6           0        6.379903   -1.534405    0.184170
     10          1           0        6.275483   -2.049195    1.152517
     11          1           0        7.423571   -1.653382   -0.151182
     12          6           0        5.465176   -2.202728   -0.837739
     13          1           0        5.424631   -1.580563   -1.742804
     14          1           0        5.914259   -3.168858   -1.110983
     15          8           0        4.152639   -2.472957   -0.343411
     16          6           0        3.052317   -1.701547   -0.832459
     17          1           0        2.187760   -2.375312   -0.880314
     18          1           0        3.253648   -1.345700   -1.853613
     19          6           0        2.706735   -0.527433    0.093643
     20          1           0        3.546984    0.172235    0.149969
     21          1           0        2.521338   -0.917898    1.100375
     22          8           0        1.509361    0.129641   -0.320788
     23          6           0        1.704316    1.169418   -1.269346
     24          1           0        2.147835    0.775110   -2.199703
     25          1           0        2.392715    1.926719   -0.864872
     26          6           0        0.356356    1.797950   -1.594094
     27          1           0       -0.367075    1.025640   -1.872667
     28          1           0        0.465369    2.463087   -2.457684
     29         16           0       -0.367581    2.869639   -0.292392
     30          6           0       -0.943137    1.682473    0.994806
     31          1           0       -0.081019    1.339118    1.572722
     32          1           0       -1.573902    2.297510    1.645038
     33          6           0       -1.719168    0.457175    0.516652
     34          1           0       -2.083692   -0.069426    1.406670
     35          1           0       -1.050178   -0.220021   -0.022519
     36         16           0       -3.159932    0.901658   -0.541513
     37          6           0       -4.014243   -0.723269   -0.569860
     38          1           0       -3.276346   -1.502628   -0.801435
     39          1           0       -4.695209   -0.672674   -1.425529
     40          6           0       -4.783340   -1.109484    0.700486
     41          1           0       -5.067178   -2.167564    0.647276
     42          1           0       -4.148723   -1.002934    1.585864
     43         16           0       -6.276101   -0.107297    1.068834
     44          6           0       -7.475238   -0.750720   -0.169612
     45          1           0       -8.313702   -0.048832   -0.106220
     46          1           0       -7.052864   -0.641212   -1.174971
     47          6           0       -7.960380   -2.179530    0.073680
     48          1           0       -7.140045   -2.903691    0.022253
     49          1           0       -8.428883   -2.271333    1.058496
     50          1           0       -8.697447   -2.464405   -0.687914
 ---------------------------------------------------------------------
 Standard basis: 6-31G(d) (6D, 7F)
   372 basis functions,   752 primitive gaussians,   372 cartesian basis functions
    93 alpha electrons       93 beta electrons
 Requested convergence on RMS density matrix=1.00D-08 within  64 cycles.
 Requested convergence on MAX density matrix=1.00D-06.
 Requested convergence on             energy=1.00D-06.
 SCF Done:  E(RB3LYP) =  -1971.74860606     A.U. after   10 cycles
            NFock= 10  Conv=0.57D-08     -V/T= 2.0058
 Step number  55 out of a maximum of   55
 Maximum Force            0.010877     0.000015     NO 
 RMS     Force            0.001228     0.000010     NO 
 Maximum Displacement     0.427362     0.000060     NO 
 RMS     Displacement     0.089399     0.000040     NO 
 Optimization stopped.
    -- Number of steps exceeded,  NStep=  55
                          Input orientation:                          
 ---------------------------------------------------------------------
 Center     Atomic      Atomic             Coordinates (Angstroms)
 Number     Number       Type             X           Y           Z
 ---------------------------------------------------------------------
      1          6           0       -8.132816    0.645529   -1.301546
      2          1           0       -8.749473   -0.220919   -1.039328
      3          1           0       -8.233160    1.391922   -0.506423
      4          1           0       -8.535959    1.071719   -2.227609
      5          6           0       -6.665392    0.266777   -1.494413
      6          1           0       -6.563664   -0.487253   -2.291797
      7          1           0       -6.088607    1.147362   -1.796917
      8          8           0       -6.036279   -0.200795   -0.304890
      9          6           0       -6.385011   -1.520522    0.075348
     10          1           0       -6.290295   -2.207302   -0.780789
     11          1           0       -7.427489   -1.566217    0.431732
     12          6           0       -5.469131   -1.994823    1.199573
     13          1           0       -5.418469   -1.215541    1.972896
     14          1           0       -5.923749   -2.889439    1.649827
     15          8           0       -4.161661   -2.363370    0.758173
     16          6           0       -3.052675   -1.523793    1.090153
     17          1           0       -2.192896   -2.184188    1.258579
     18          1           0       -3.245164   -0.982535    2.028185
     19          6           0       -2.703950   -0.545384   -0.039777
     20          1           0       -3.539281    0.138679   -0.221456
     21          1           0       -2.527566   -1.117837   -0.957126
     22          8           0       -1.499222    0.167158    0.239719
     23          6           0       -1.680671    1.366830    0.979156
     24          1           0       -2.121483    1.156210    1.968638
     25          1           0       -2.365834    2.041480    0.443997
     26          6           0       -0.326118    2.033373    1.175159
     27          1           0        0.393202    1.320263    1.589249
     28          1           0       -0.424938    2.848426    1.900419
     29         16           0        0.397908    2.838089   -0.306479
     30          6           0        0.956792    1.427400   -1.352956
     31          1           0        0.088655    0.989849   -1.852971
     32          1           0        1.588183    1.905408   -2.109124
     33          6           0        1.726536    0.305899   -0.658736
     34          1           0        2.081730   -0.380116   -1.436900
     35          1           0        1.055786   -0.253514    0.000049
     36         16           0        3.176952    0.927240    0.291690
     37          6           0        4.019270   -0.671226    0.617948
     38          1           0        3.276992   -1.387645    0.993831
     39          1           0        4.705759   -0.468123    1.446154
     40          6           0        4.777764   -1.293472   -0.561861
     41          1           0        5.054016   -2.325553   -0.314030
     42          1           0        4.138616   -1.348094   -1.448703
     43         16           0        6.275706   -0.389944   -1.117020
     44          6           0        7.477479   -0.801911    0.214030
     45          1           0        8.320758   -0.131178    0.017347
     46          1           0        7.062024   -0.503753    1.183379
     47          6           0        7.950466   -2.255091    0.238592
     48          1           0        7.125076   -2.950087    0.427580
     49          1           0        8.412303   -2.532423   -0.714077
     50          1           0        8.689980   -2.399565    1.036522
 ---------------------------------------------------------------------
 Stoichiometry    C14H30O3S3
 Framework group  C1[X(C14H30O3S3)]
                         Standard orientation:                         
 ---------------------------------------------------------------------
 Center     Atomic      Atomic             Coordinates (Angstroms)
 Number     Number       Type             X           Y           Z
 ---------------------------------------------------------------------
      1          6           0        8.139673    0.836884    1.144709
      2          1           0        8.750169   -0.067798    1.051958
      3          1           0        8.249947    1.421553    0.225256
      4          1           0        8.542183    1.424896    1.977765
      5          6           0        6.668235    0.511585    1.395776
      6          1           0        6.556501   -0.080157    2.318863
      7          1           0        6.097545    1.437354    1.525721
      8          8           0        6.040616   -0.164414    0.310192
      9          6           0        6.379903   -1.534405    0.184170
     10          1           0        6.275483   -2.049195    1.152517
     11          1           0        7.423571   -1.653382   -0.151182
     12          6           0        5.465176   -2.202728   -0.837739
     13          1           0        5.424631   -1.580563   -1.742804
     14          1           0        5.914259   -3.168858   -1.110983
     15          8           0        4.152639   -2.472957   -0.343411
     16          6           0        3.052317   -1.701547   -0.832459
     17          1           0        2.187760   -2.375312   -0.880314
     18          1           0        3.253648   -1.345700   -1.853613
     19          6           0        2.706735   -0.527433    0.093643
     20          1           0        3.546984    0.172235    0.149969
     21          1           0        2.521338   -0.917898    1.100375
     22          8           0        1.509361    0.129641   -0.320788
     23          6           0        1.704316    1.169418   -1.269346
     24          1           0        2.147835    0.775110   -2.199703
     25          1           0        2.392715    1.926719   -0.864872
     26          6           0        0.356356    1.797950   -1.594094
     27          1           0       -0.367075    1.025640   -1.872667
     28          1           0        0.465369    2.463087   -2.457684
     29         16           0       -0.367581    2.869639   -0.292392
     30          6           0       -0.943137    1.682473    0.994806
     31          1           0       -0.081019    1.339118    1.572722
     32          1           0       -1.573902    2.297510    1.645038
     33          6           0       -1.719168    0.457175    0.516652
     34          1           0       -2.083692   -0.069426    1.406670
     35          1           0       -1.050178   -0.220021   -0.022519
     36         16           0       -3.159932    0.901658   -0.541513
     37          6           0       -4.014243   -0.723269   -0.569860
     38          1           0       -3.276346   -1.502628   -0.801435
     39          1           0       -4.695209   -0.672674   -1.425529
     40          6           0       -4.783340   -1.109484    0.700486
     41          1           0       -5.067178   -2.167564    0.647276
     42          1           0       -4.148723   -1.002934    1.585864
     43         16           0       -6.276101   -0.107297    1.068834
     44          6           0       -7.475238   -0.750720   -0.169612
     45          1           0       -8.313702   -0.048832   -0.106220
     46          1           0       -7.052864   -0.641212   -1.174971
     47          6           0       -7.960380   -2.179530    0.073680
     48          1           0       -7.140045   -2.903691    0.022253
     49          1           0       -8.428883   -2.271333    1.058496
     50          1           0       -8.697447   -2.464405   -0.687914
 ---------------------------------------------------------------------
 Mulliken charges:
     1  C   -0.461477
     2  H    0.150927
     3  H    0.158840
     4  H    0.147762
     5  C   -0.016937
     6  H    0.125255
     7  H    0.147631
     8  O   -0.470330
     9  C   -0.020702
    10  H    0.133408
    11  H    0.119727
    12  C   -0.036547
    13  H    0.137296
    14  H    0.139258
    15  O   -0.479543
    16  C   -0.038284
    17  H    0.147025
    18  H    0.125484
    19  C   -0.054127
    20  H    0.156410
    21  H    0.146182
    22  O   -0.479130
    23  C   -0.004338
    24  H    0.122047
    25  H    0.142459
    26  C   -0.444559
    27  H    0.197078
    28  H    0.176297
    29  S    0.088241
    30  C   -0.408541
    31  H    0.187155
    32  H    0.183638
    33  C   -0.419808
    34  H    0.166159
    35  H    0.190045
    36  S    0.122472
    37  C   -0.416913
    38  H    0.165375
    39  H    0.177556
    40  C   -0.412876
    41  H    0.169513
    42  H    0.179175
    43  S    0.102586
    44  C   -0.412501
    45  H    0.177935
    46  H    0.167739
    47  C   -0.435572
    48  H    0.149066
    49  H    0.164311
    50  H    0.148129
 Sum of Mulliken charges =  -0.00000
 Dipole moment (field-independent basis, Debye):
    X=              3.5117    Y=             -3.3558    Z=             -0.8452  Tot=              4.9303
 Quadrupole moment (field-independent basis, Debye-Ang):
   XX=           -121.8073   YY=           -155.2364   ZZ=           -141.8903
   XY=             13.4324   XZ=              7.8639   YZ=              2.2891
 Traceless Quadrupole moment (field-independent basis, Debye-Ang):
   XX=             17.8374   YY=            -15.5917   ZZ=             -2.2457
   XY=             13.4324   XZ=              7.8639   YZ=              2.2891
 Octapole moment (field-independent basis, Debye-Ang**2):
  XXX=            158.6886  YYY=            -28.5230  ZZZ=             -6.7262  XYY=             21.4990
  XXY=            -77.4908  XXZ=            -37.0210  XZZ=             44.7018  YZZ=              3.8412
  YYZ=             -1.8795  XYZ=              0.1403
 Hexadecapole moment (field-independent basis, Debye-Ang**3):
 XXXX=         -18523.1151 YYYY=          -2343.3788 ZZZZ=           -850.0219 XXXY=            104.2083
 XXXZ=            629.3781 YYYX=             20.4642 YYYZ=             10.0482 ZZZX=             31.5811
 ZZZY=             -1.5012 XXYY=          -3761.1806 XXZZ=          -3586.2215 YYZZ=           -487.0315
 XXYZ=             92.1290 YYXZ=            -25.3331 ZZXY=            -12.6827
 Error termination request processed by link 9999.
 Error termination via Lnk1e in /usr/local/g16C01-legacy-userred/g16/l9999.exe at Sun Jul  9 04:36:22 2023.
 Job cpu time:       0 days 15 hours 12 minutes 18.6 seconds.
