 Copyright (c) 1988-2019, Gaussian, Inc.  All Rights Reserved.
  
 This is part of the Gaussian(R) 16 program.  It is based on
 the Gaussian(R) 09 system (copyright 2009, Gaussian, Inc.),
 the Gaussian(R) 03 system (copyright 2003, Gaussian, Inc.),
 the Gaussian(R) 98 system (copyright 1998, Gaussian, Inc.),
 the Gaussian(R) 94 system (copyright 1995, Gaussian, Inc.),
 the Gaussian 92(TM) system (copyright 1992, Gaussian, Inc.),
 the Gaussian 90(TM) system (copyright 1990, Gaussian, Inc.),
 the Gaussian 88(TM) system (copyright 1988, Gaussian, Inc.),
 the Gaussian 86(TM) system (copyright 1986, Carnegie Mellon
 University), and the Gaussian 82(TM) system (copyright 1983,
 Carnegie Mellon University). Gaussian is a federally registered
 trademark of Gaussian, Inc.
 Cite this work as:
 Gaussian 16, Revision C.01,
 M. J. Frisch, G. W. Trucks, H. B. Schlegel, G. E. Scuseria, 
 M. A. Robb, J. R. Cheeseman, G. Scalmani, V. Barone, 
 G. A. Petersson, H. Nakatsuji, X. Li, M. Caricato, A. V. Marenich, 
 J. Bloino, B. G. Janesko, R. Gomperts, B. Mennucci, H. P. Hratchian, 
 J. V. Ortiz, A. F. Izmaylov, J. L. Sonnenberg, D. Williams-Young, 
 F. Ding, F. Lipparini, F. Egidi, J. Goings, B. Peng, A. Petrone, 
 T. Henderson, D. Ranasinghe, V. G. Zakrzewski, J. Gao, N. Rega, 
 G. Zheng, W. Liang, M. Hada, M. Ehara, K. Toyota, R. Fukuda, 
 J. Hasegawa, M. Ishida, T. Nakajima, Y. Honda, O. Kitao, H. Nakai, 
 T. Vreven, K. Throssell, J. A. Montgomery, Jr., J. E. Peralta, 
 F. Ogliaro, M. J. Bearpark, J. J. Heyd, E. N. Brothers, K. N. Kudin, 
 V. N. Staroverov, T. A. Keith, R. Kobayashi, J. Normand, 
 K. Raghavachari, A. P. Rendell, J. C. Burant, S. S. Iyengar, 
 J. Tomasi, M. Cossi, J. M. Millam, M. Klene, C. Adamo, R. Cammi, 
 J. W. Ochterski, R. L. Martin, K. Morokuma, O. Farkas, 
 J. B. Foresman, and D. J. Fox, Gaussian, Inc., Wallingford CT, 2019.
 
 ******************************************
 Gaussian 16:  EM64L-G16RevC.01  3-Jul-2019
                 8-Jul-2023 
 ******************************************
 ----------------------------------------------------------------------
 #P B3LYP/6-31G(d) Integral=Ultrafine Opt=(Tight,MaxCycle=55) GFInput G
 FPrint SCF(Conver=8,XQC,MaxConventionalCycles=64,MaxCycle=128) Test
 ----------------------------------------------------------------------
 1/6=55,7=10,18=20,19=15,26=4,38=1/1,3;
 2/9=110,12=2,17=6,18=5,40=1/2;
 3/5=1,6=6,7=1,11=2,24=110,25=1,30=1,71=1,74=-5,75=-5/1,2,3;
 4//1;
 5/5=2,6=8,7=128,8=3,13=1,38=5,85=64/2,8;
 6/7=2,8=2,9=2,10=2,28=1/1;
 7//1,2,3,16;
 1/6=55,7=10,18=20,19=15,26=4/3(2);
 2/9=110/2;
 99//99;
 2/9=110/2;
 3/5=1,6=6,7=1,11=2,25=1,30=1,71=1,74=-5,75=-5/1,2,3;
 4/5=5,16=3,69=1/1;
 5/5=2,6=8,7=128,8=3,13=1,38=5,85=64/2,8;
 7//1,2,3,16;
 1/6=55,7=10,18=20,19=15,26=4/3(-5);
 2/9=110/2;
 6/7=2,8=2,9=2,10=2,19=2,28=1/1;
 99/9=1/99;
 ----------------------------------------------------------
 Optimization step - Input generated by PyRED DVE-DMDS-OPLS
 ----------------------------------------------------------
 Symbolic Z-matrix:
 Charge =  0 Multiplicity = 1
 C                    -2.998     4.36     -0.181 
 H                    -2.708     4.986    -1.03 
 H                    -3.977     3.919    -0.391 
 H                    -3.084     4.999     0.702 
 C                    -1.966     3.276     0.053 
 H                    -2.253     2.642     0.905 
 H                    -1.896     2.622    -0.829 
 O                    -0.726     3.904     0.318 
 C                     0.305     3.03      0.712 
 H                    -0.065     2.266     1.411 
 H                     1.042     3.64      1.245 
 C                     0.974     2.348    -0.48 
 H                     0.273     1.675    -0.983 
 H                     1.293     3.103    -1.21 
 O                     2.07      1.555    -0.053 
 C                     3.305     2.248    -0.033 
 H                     3.206     3.198     0.512 
 H                     3.626     2.476    -1.06 
 C                     4.365     1.412     0.656 
 H                     3.993     1.1       1.642 
 H                     5.243     2.047     0.813 
 O                     4.808     0.303    -0.09 
 C                     4.112    -0.918     0.087 
 H                     3.472    -0.863     0.976 
 H                     4.855    -1.706     0.257 
 C                     3.288    -1.252    -1.148 
 H                     3.95     -1.339    -2.014 
 H                     2.582    -0.445    -1.35 
 S                     2.436    -2.859    -1.046 
 C                     1.273    -2.603     0.338 
 H                     0.751    -3.56      0.419 
 H                     1.812    -2.454     1.276 
 C                     0.29     -1.462     0.109 
 H                    -0.23     -1.59     -0.846 
 H                     0.827    -0.512     0.065 
 S                    -0.91     -1.225     1.461 
 C                    -1.932    -2.729     1.343 
 H                    -2.556    -2.706     2.24 
 H                    -1.287    -3.61      1.426 
 C                    -2.818    -2.865     0.106 
 H                    -2.231    -2.809    -0.817 
 H                    -3.271    -3.862     0.122 
 S                    -4.21     -1.697    -0.011 
 C                    -3.5      -0.356    -1.026 
 H                    -2.663     0.094    -0.489 
 H                    -3.124    -0.786    -1.96 
 C                    -4.577     0.681    -1.319 
 H                    -5.421     0.238    -1.855 
 H                    -4.959     1.124    -0.394 
 H                    -4.168     1.486    -1.937 
 
 ITRead=  0  0  0  0  0  0  0  0  0  0  0  0  0  0  0  0  0  0  0  0
 ITRead=  0  0  0  0  0  0  0  0  0  0  0  0  0  0  0  0  0  0  0  0
 ITRead=  0  0  0  0  0  0  0  0  0  0
 MicOpt= -1 -1 -1 -1 -1 -1 -1 -1 -1 -1 -1 -1 -1 -1 -1 -1 -1 -1 -1 -1
 MicOpt= -1 -1 -1 -1 -1 -1 -1 -1 -1 -1 -1 -1 -1 -1 -1 -1 -1 -1 -1 -1
 MicOpt= -1 -1 -1 -1 -1 -1 -1 -1 -1 -1
 NAtoms=     50 NQM=       50 NQMF=       0 NMMI=      0 NMMIF=      0
                NMic=       0 NMicF=      0.
                          Input orientation:                          
 ---------------------------------------------------------------------
 Center     Atomic      Atomic             Coordinates (Angstroms)
 Number     Number       Type             X           Y           Z
 ---------------------------------------------------------------------
      1          6           0       -2.998000    4.360000   -0.181000
      2          1           0       -2.708000    4.986000   -1.030000
      3          1           0       -3.977000    3.919000   -0.391000
      4          1           0       -3.084000    4.999000    0.702000
      5          6           0       -1.966000    3.276000    0.053000
      6          1           0       -2.253000    2.642000    0.905000
      7          1           0       -1.896000    2.622000   -0.829000
      8          8           0       -0.726000    3.904000    0.318000
      9          6           0        0.305000    3.030000    0.712000
     10          1           0       -0.065000    2.266000    1.411000
     11          1           0        1.042000    3.640000    1.245000
     12          6           0        0.974000    2.348000   -0.480000
     13          1           0        0.273000    1.675000   -0.983000
     14          1           0        1.293000    3.103000   -1.210000
     15          8           0        2.070000    1.555000   -0.053000
     16          6           0        3.305000    2.248000   -0.033000
     17          1           0        3.206000    3.198000    0.512000
     18          1           0        3.626000    2.476000   -1.060000
     19          6           0        4.365000    1.412000    0.656000
     20          1           0        3.993000    1.100000    1.642000
     21          1           0        5.243000    2.047000    0.813000
     22          8           0        4.808000    0.303000   -0.090000
     23          6           0        4.112000   -0.918000    0.087000
     24          1           0        3.472000   -0.863000    0.976000
     25          1           0        4.855000   -1.706000    0.257000
     26          6           0        3.288000   -1.252000   -1.148000
     27          1           0        3.950000   -1.339000   -2.014000
     28          1           0        2.582000   -0.445000   -1.350000
     29         16           0        2.436000   -2.859000   -1.046000
     30          6           0        1.273000   -2.603000    0.338000
     31          1           0        0.751000   -3.560000    0.419000
     32          1           0        1.812000   -2.454000    1.276000
     33          6           0        0.290000   -1.462000    0.109000
     34          1           0       -0.230000   -1.590000   -0.846000
     35          1           0        0.827000   -0.512000    0.065000
     36         16           0       -0.910000   -1.225000    1.461000
     37          6           0       -1.932000   -2.729000    1.343000
     38          1           0       -2.556000   -2.706000    2.240000
     39          1           0       -1.287000   -3.610000    1.426000
     40          6           0       -2.818000   -2.865000    0.106000
     41          1           0       -2.231000   -2.809000   -0.817000
     42          1           0       -3.271000   -3.862000    0.122000
     43         16           0       -4.210000   -1.697000   -0.011000
     44          6           0       -3.500000   -0.356000   -1.026000
     45          1           0       -2.663000    0.094000   -0.489000
     46          1           0       -3.124000   -0.786000   -1.960000
     47          6           0       -4.577000    0.681000   -1.319000
     48          1           0       -5.421000    0.238000   -1.855000
     49          1           0       -4.959000    1.124000   -0.394000
     50          1           0       -4.168000    1.486000   -1.937000
 ---------------------------------------------------------------------
 Stoichiometry    C14H30O3S3
 Framework group  C1[X(C14H30O3S3)]
                         Standard orientation:                         
 ---------------------------------------------------------------------
 Center     Atomic      Atomic             Coordinates (Angstroms)
 Number     Number       Type             X           Y           Z
 ---------------------------------------------------------------------
      1          6           0       -2.997933    4.360195   -0.181065
      2          1           0       -2.707900    4.986180   -1.030065
      3          1           0       -3.976956    3.919246   -0.391065
      4          1           0       -3.083899    4.999199    0.701935
      5          6           0       -1.965990    3.276141    0.052935
      6          1           0       -2.253023    2.642156    0.904935
      7          1           0       -1.896024    2.622137   -0.829065
      8          8           0       -0.725957    3.904076    0.317935
      9          6           0        0.304997    3.030022    0.711935
     10          1           0       -0.065043    2.266041    1.410935
     11          1           0        1.042029    3.639983    1.244935
     12          6           0        0.973962    2.347987   -0.480065
     13          1           0        0.272926    1.675023   -0.983065
     14          1           0        1.293001    3.102970   -1.210065
     15          8           0        2.069920    1.554929   -0.053065
     16          6           0        3.304956    2.247864   -0.033065
     17          1           0        3.206006    3.197870    0.511935
     18          1           0        3.625968    2.475848   -1.060065
     19          6           0        4.364913    1.411809    0.655935
     20          1           0        3.992896    1.099828    1.641935
     21          1           0        5.242946    2.046763    0.812935
     22          8           0        4.807855    0.302786   -0.090065
     23          6           0        4.111791   -0.918178    0.086935
     24          1           0        3.471793   -0.863144    0.975935
     25          1           0        4.854749   -1.706217    0.256935
     26          6           0        3.287773   -1.252135   -1.148065
     27          1           0        3.949769   -1.339169   -2.014065
     28          1           0        2.581815   -0.445098   -1.350065
     29         16           0        2.435689   -2.859090   -1.046065
     30          6           0        1.272702   -2.603029    0.337935
     31          1           0        0.750652   -3.560002    0.418935
     32          1           0        1.811710   -2.454057    1.275935
     33          6           0        0.289762   -1.461978    0.108935
     34          1           0       -0.230245   -1.589950   -0.846065
     35          1           0        0.826812   -0.512006    0.064935
     36         16           0       -0.910225   -1.224915    1.460935
     37          6           0       -1.932304   -2.728861    1.342935
     38          1           0       -2.556303   -2.705828    2.239935
     39          1           0       -1.287350   -3.609895    1.425935
     40          6           0       -2.818311   -2.864815    0.105935
     41          1           0       -2.231308   -2.808845   -0.817065
     42          1           0       -3.271364   -3.861791    0.121935
     43         16           0       -4.210250   -1.696742   -0.011065
     44          6           0       -3.500180   -0.355779   -1.026065
     45          1           0       -2.663156    0.094177   -0.489065
     46          1           0       -3.124202   -0.785799   -1.960065
     47          6           0       -4.577126    0.681277   -1.319065
     48          1           0       -5.421149    0.238322   -1.855065
     49          1           0       -4.959102    1.124297   -0.394065
     50          1           0       -4.168083    1.486256   -1.937065
 ---------------------------------------------------------------------
 Standard basis: 6-31G(d) (6D, 7F)
   372 basis functions,   752 primitive gaussians,   372 cartesian basis functions
    93 alpha electrons       93 beta electrons
 Requested convergence on RMS density matrix=1.00D-08 within  64 cycles.
 Requested convergence on MAX density matrix=1.00D-06.
 Requested convergence on             energy=1.00D-06.
 SCF Done:  E(RB3LYP) =  -1971.75144052     A.U. after   13 cycles
            NFock= 13  Conv=0.74D-08     -V/T= 2.0056
 Mulliken charges:
     1  C   -0.456373
     2  H    0.156691
     3  H    0.147040
     4  H    0.159893
     5  C   -0.021694
     6  H    0.136389
     7  H    0.121385
     8  O   -0.468353
     9  C   -0.041764
    10  H    0.145820
    11  H    0.143236
    12  C   -0.051937
    13  H    0.145753
    14  H    0.142132
    15  O   -0.479131
    16  C   -0.029480
    17  H    0.125203
    18  H    0.140936
    19  C   -0.045788
    20  H    0.137491
    21  H    0.146924
    22  O   -0.470109
    23  C   -0.016878
    24  H    0.134519
    25  H    0.151136
    26  C   -0.437333
    27  H    0.181789
    28  H    0.191552
    29  S    0.077527
    30  C   -0.414670
    31  H    0.176304
    32  H    0.186455
    33  C   -0.450900
    34  H    0.176113
    35  H    0.216367
    36  S    0.091379
    37  C   -0.409670
    38  H    0.192190
    39  H    0.169893
    40  C   -0.422323
    41  H    0.175100
    42  H    0.180989
    43  S    0.093413
    44  C   -0.408177
    45  H    0.196065
    46  H    0.161385
    47  C   -0.460949
    48  H    0.165288
    49  H    0.165393
    50  H    0.153778
 Sum of Mulliken charges =  -0.00000
 Dipole moment (field-independent basis, Debye):
    X=              0.3074    Y=              1.0711    Z=             -0.1415  Tot=              1.1233
 Quadrupole moment (field-independent basis, Debye-Ang):
   XX=           -157.7120   YY=           -147.2255   ZZ=           -147.9607
   XY=              6.2264   XZ=              6.4208   YZ=             -4.9147
 Traceless Quadrupole moment (field-independent basis, Debye-Ang):
   XX=             -6.7460   YY=              3.7406   ZZ=              3.0054
   XY=              6.2264   XZ=              6.4208   YZ=             -4.9147
 Octapole moment (field-independent basis, Debye-Ang**2):
  XXX=             42.1166  YYY=            -12.9395  ZZZ=             -3.1805  XYY=             -3.5096
  XXY=             66.2129  XXZ=             10.2553  XZZ=              8.7985  YZZ=             14.3791
  YYZ=             19.7228  XYZ=              5.4917
 Hexadecapole moment (field-independent basis, Debye-Ang**3):
 XXXX=          -8308.1748 YYYY=          -5138.9093 ZZZZ=           -829.6577 XXXY=            -80.3803
 XXXZ=             74.3906 YYYX=            213.5868 YYYZ=            -83.0912 ZZZX=            -11.5690
 ZZZY=             -2.9930 XXYY=          -2085.1427 XXZZ=          -1394.0730 YYZZ=           -968.4574
 XXYZ=            -11.8169 YYXZ=              5.1321 ZZXY=             17.1598
 Step number   1 out of a maximum of   55
     Eigenvalues ---    0.00230   0.00230   0.00230   0.00230   0.00230
     Eigenvalues ---    0.00230   0.00400   0.00401   0.00455   0.00457
     Eigenvalues ---    0.00478   0.00559   0.00569   0.01446   0.01473
     Eigenvalues ---    0.01476   0.01493   0.01585   0.01588   0.04162
     Eigenvalues ---    0.04177   0.04438   0.04481   0.04540   0.04763
     Eigenvalues ---    0.04878   0.05020   0.05050   0.05063   0.05215
     Eigenvalues ---    0.05390   0.05547   0.05657   0.05663   0.05677
     Eigenvalues ---    0.05705   0.05711   0.05745   0.05748   0.05784
     Eigenvalues ---    0.05808   0.05819   0.05882   0.05897   0.05960
     Eigenvalues ---    0.06082   0.06111   0.11048   0.11205   0.11309
     Eigenvalues ---    0.11503   0.11516   0.11521   0.11616   0.11647
     Eigenvalues ---    0.11673   0.11833   0.11840   0.11906   0.13600
     Eigenvalues ---    0.13667   0.13805   0.13851   0.13860   0.13943
     Eigenvalues ---    0.13961   0.13980   0.13996   0.14124   0.14138
     Eigenvalues ---    0.14168   0.16000   0.16000   0.16000   0.16000
     Eigenvalues ---    0.16000   0.16000   0.21940   0.22006   0.22008
     Eigenvalues ---    0.22012   0.22020   0.22038   0.22045   0.22048
     Eigenvalues ---    0.22049   0.22060   0.22078   0.22108   0.24185
     Eigenvalues ---    0.24204   0.24371   0.24443   0.24476   0.24539
     Eigenvalues ---    0.25000   0.25000   0.25000   0.25000   0.25000
     Eigenvalues ---    0.25000   0.29643   0.29647   0.30029   0.30046
     Eigenvalues ---    0.30198   0.30789   0.30866   0.33655   0.33671
     Eigenvalues ---    0.33694   0.33716   0.33723   0.33787   0.33951
     Eigenvalues ---    0.34040   0.34094   0.34210   0.34218   0.34224
     Eigenvalues ---    0.34239   0.34252   0.34255   0.34261   0.34305
     Eigenvalues ---    0.34328   0.34334   0.34345   0.34358   0.34404
     Eigenvalues ---    0.34410   0.34429   0.34455   0.34475   0.34565
     Eigenvalues ---    0.34577   0.34636   0.34686   0.42674   0.42986
     Eigenvalues ---    0.43024   0.43223   0.44310   0.44342
 Maximum Force            0.015151     0.000015     NO 
 RMS     Force            0.002652     0.000010     NO 
 Maximum Displacement     2.823371     0.000060     NO 
 RMS     Displacement     0.718870     0.000040     NO 
                          Input orientation:                          
 ---------------------------------------------------------------------
 Center     Atomic      Atomic             Coordinates (Angstroms)
 Number     Number       Type             X           Y           Z
 ---------------------------------------------------------------------
      1          6           0       -2.347037    5.590364    0.080730
      2          1           0       -1.973421    6.167024   -0.771187
      3          1           0       -3.398024    5.343196   -0.100049
      4          1           0       -2.284486    6.219781    0.973374
      5          6           0       -1.527240    4.326776    0.267083
      6          1           0       -1.901545    3.742078    1.121900
      7          1           0       -1.610293    3.686153   -0.624686
      8          8           0       -0.180504    4.707760    0.496602
      9          6           0        0.689948    3.653291    0.846889
     10          1           0        0.212660    2.955600    1.551490
     11          1           0        1.538384    4.116430    1.362859
     12          6           0        1.198907    2.879747   -0.373470
     13          1           0        0.380841    2.340884   -0.862150
     14          1           0        1.619250    3.581959   -1.106080
     15          8           0        2.164395    1.908744    0.011918
     16          6           0        3.493641    2.405319    0.010485
     17          1           0        3.543789    3.351217    0.571121
     18          1           0        3.823140    2.606411   -1.020090
     19          6           0        4.449415    1.422546    0.667010
     20          1           0        4.065199    1.143289    1.659086
     21          1           0        5.398126    1.951392    0.814400
     22          8           0        4.769682    0.280019   -0.098915
     23          6           0        4.008137   -0.905749    0.084334
     24          1           0        3.387680   -0.834040    0.986403
     25          1           0        4.723787   -1.722772    0.237123
     26          6           0        3.157698   -1.219946   -1.143547
     27          1           0        3.812599   -1.304250   -2.016139
     28          1           0        2.453023   -0.408965   -1.336163
     29         16           0        2.319350   -2.843999   -1.058053
     30          6           0        1.107833   -2.644832    0.302636
     31          1           0        0.693502   -3.650608    0.418875
     32          1           0        1.609713   -2.398796    1.242008
     33          6           0       -0.004963   -1.643109    0.006346
     34          1           0       -0.485903   -1.883421   -0.947811
     35          1           0        0.407099   -0.634708   -0.078764
     36         16           0       -1.258205   -1.498590    1.331827
     37          6           0       -2.023281   -3.160035    1.338924
     38          1           0       -2.655361   -3.163771    2.231444
     39          1           0       -1.241267   -3.910593    1.502104
     40          6           0       -2.857310   -3.562516    0.118796
     41          1           0       -2.277579   -3.493378   -0.808203
     42          1           0       -3.125164   -4.619134    0.233382
     43         16           0       -4.445070   -2.686602   -0.107835
     44          6           0       -4.001533   -1.362501   -1.292505
     45          1           0       -3.270341   -0.696854   -0.828236
     46          1           0       -3.542706   -1.822236   -2.174930
     47          6           0       -5.259537   -0.595838   -1.691340
     48          1           0       -5.998253   -1.256064   -2.156289
     49          1           0       -5.727829   -0.124668   -0.820874
     50          1           0       -5.009947    0.191994   -2.409830
 ---------------------------------------------------------------------
 Stoichiometry    C14H30O3S3
 Framework group  C1[X(C14H30O3S3)]
                         Standard orientation:                         
 ---------------------------------------------------------------------
 Center     Atomic      Atomic             Coordinates (Angstroms)
 Number     Number       Type             X           Y           Z
 ---------------------------------------------------------------------
      1          6           0        1.232442    5.976838   -0.118055
      2          1           0        1.830477    6.223512   -1.000889
      3          1           0        0.215917    6.353762   -0.269559
      4          1           0        1.669791    6.487860    0.744774
      5          6           0        1.215645    4.476389    0.109580
      6          1           0        0.612672    4.223513    0.995675
      7          1           0        0.755079    3.967545   -0.751528
      8          8           0        2.553944    4.046631    0.298756
      9          6           0        2.702067    2.695718    0.680052
     10          1           0        1.944865    2.402598    1.422860
     11          1           0        3.683970    2.619980    1.160359
     12          6           0        2.645702    1.737305   -0.513663
     13          1           0        1.647859    1.734029   -0.963901
     14          1           0        3.357098    2.065210   -1.283663
     15          8           0        2.920526    0.403491   -0.102628
     16          6           0        4.299731    0.073132   -0.148934
     17          1           0        4.890202    0.844576    0.368529
     18          1           0        4.644954    0.028200   -1.192915
     19          6           0        4.570500   -1.257723    0.533620
     20          1           0        4.134838   -1.248094    1.543535
     21          1           0        5.657836   -1.344873    0.641131
     22          8           0        4.169724   -2.404533   -0.186648
     23          6           0        2.884485   -2.957709    0.061815
     24          1           0        2.444917   -2.527587    0.970447
     25          1           0        3.028813   -4.030619    0.238050
     26          6           0        1.956184   -2.776503   -1.136133
     27          1           0        2.418453   -3.235505   -2.015363
     28          1           0        1.816042   -1.715802   -1.352074
     29         16           0        0.359226   -3.652865   -0.964677
     30          6           0       -0.481733   -2.774737    0.406672
     31          1           0       -1.381288   -3.374306    0.574263
     32          1           0        0.108233   -2.825633    1.325468
     33          6           0       -0.858160   -1.330814    0.085830
     34          1           0       -1.428144   -1.287261   -0.848349
     35          1           0        0.042188   -0.726965   -0.050743
     36         16           0       -1.765549   -0.475654    1.425140
     37          6           0       -3.325618   -1.426038    1.518667
     38          1           0       -3.817235   -1.052245    2.421286
     39          1           0       -3.088804   -2.480604    1.701204
     40          6           0       -4.289196   -1.326992    0.332069
     41          1           0       -3.805901   -1.618255   -0.606967
     42          1           0       -5.095645   -2.050539    0.497715
     43         16           0       -5.126978    0.279644    0.094568
     44          6           0       -4.067440    1.098120   -1.154787
     45          1           0       -3.071966    1.254369   -0.733017
     46          1           0       -3.977377    0.437003   -2.023905
     47          6           0       -4.699279    2.425434   -1.565190
     48          1           0       -5.698000    2.277862   -1.987748
     49          1           0       -4.791286    3.100996   -0.708358
     50          1           0       -4.081261    2.920046   -2.321904
 ---------------------------------------------------------------------
 Standard basis: 6-31G(d) (6D, 7F)
   372 basis functions,   752 primitive gaussians,   372 cartesian basis functions
    93 alpha electrons       93 beta electrons
 Requested convergence on RMS density matrix=1.00D-08 within  64 cycles.
 Requested convergence on MAX density matrix=1.00D-06.
 Requested convergence on             energy=1.00D-06.
 SCF Done:  E(RB3LYP) =  -1971.75107351     A.U. after   12 cycles
            NFock= 12  Conv=0.48D-08     -V/T= 2.0057
 Step number   2 out of a maximum of   55
     Eigenvalues ---    0.00229   0.00230   0.00230   0.00230   0.00230
     Eigenvalues ---    0.00306   0.00401   0.00404   0.00455   0.00457
     Eigenvalues ---    0.00526   0.00569   0.00616   0.01446   0.01476
     Eigenvalues ---    0.01493   0.01503   0.01588   0.01856   0.04082
     Eigenvalues ---    0.04122   0.04410   0.04455   0.04516   0.04757
     Eigenvalues ---    0.04838   0.05012   0.05044   0.05084   0.05384
     Eigenvalues ---    0.05538   0.05653   0.05661   0.05681   0.05695
     Eigenvalues ---    0.05714   0.05740   0.05747   0.05774   0.05802
     Eigenvalues ---    0.05824   0.05901   0.05921   0.05964   0.06065
     Eigenvalues ---    0.06114   0.06754   0.11053   0.11204   0.11426
     Eigenvalues ---    0.11503   0.11524   0.11607   0.11643   0.11666
     Eigenvalues ---    0.11705   0.11889   0.11963   0.11993   0.13604
     Eigenvalues ---    0.13671   0.13849   0.13879   0.13928   0.13955
     Eigenvalues ---    0.13990   0.14003   0.14055   0.14181   0.14217
     Eigenvalues ---    0.14259   0.15992   0.16000   0.16000   0.16000
     Eigenvalues ---    0.16000   0.16001   0.21199   0.21941   0.22009
     Eigenvalues ---    0.22012   0.22025   0.22039   0.22048   0.22050
     Eigenvalues ---    0.22056   0.22068   0.22084   0.22455   0.23346
     Eigenvalues ---    0.24195   0.24271   0.24411   0.24466   0.24519
     Eigenvalues ---    0.24971   0.25000   0.25000   0.25000   0.25000
     Eigenvalues ---    0.29231   0.29638   0.29910   0.30033   0.30137
     Eigenvalues ---    0.30690   0.30834   0.33601   0.33660   0.33689
     Eigenvalues ---    0.33706   0.33721   0.33781   0.33937   0.34032
     Eigenvalues ---    0.34087   0.34170   0.34210   0.34222   0.34227
     Eigenvalues ---    0.34243   0.34251   0.34260   0.34302   0.34321
     Eigenvalues ---    0.34330   0.34342   0.34356   0.34393   0.34408
     Eigenvalues ---    0.34425   0.34450   0.34472   0.34516   0.34571
     Eigenvalues ---    0.34627   0.34662   0.41062   0.42097   0.42826
     Eigenvalues ---    0.43148   0.43828   0.44189   0.48973
 Maximum Force            0.012962     0.000015     NO 
 RMS     Force            0.001742     0.000010     NO 
 Maximum Displacement     2.831704     0.000060     NO 
 RMS     Displacement     0.648961     0.000040     NO 
                          Input orientation:                          
 ---------------------------------------------------------------------
 Center     Atomic      Atomic             Coordinates (Angstroms)
 Number     Number       Type             X           Y           Z
 ---------------------------------------------------------------------
      1          6           0       -2.947760    4.672887   -0.236908
      2          1           0       -2.626487    5.281210   -1.088368
      3          1           0       -3.947317    4.278910   -0.448030
      4          1           0       -3.006042    5.320576    0.643178
      5          6           0       -1.968118    3.538031    0.005462
      6          1           0       -2.289799    2.921782    0.860139
      7          1           0       -1.929307    2.876512   -0.874410
      8          8           0       -0.694969    4.106250    0.272798
      9          6           0        0.300960    3.188554    0.675300
     10          1           0       -0.100778    2.444108    1.379645
     11          1           0        1.058278    3.774166    1.208636
     12          6           0        0.955497    2.469594   -0.510366
     13          1           0        0.233744    1.822351   -1.019255
     14          1           0        1.310837    3.210067   -1.240236
     15          8           0        2.021246    1.634326   -0.070244
     16          6           0        3.279106    2.293004   -0.037814
     17          1           0        3.196715    3.245895    0.507748
     18          1           0        3.615441    2.517806   -1.061556
     19          6           0        4.325549    1.441188    0.663707
     20          1           0        3.951277    1.146787    1.655525
     21          1           0        5.208969    2.073455    0.813546
     22          8           0        4.776713    0.316862   -0.063685
     23          6           0        4.110340   -0.926180    0.116637
     24          1           0        3.466776   -0.892338    1.004898
     25          1           0        4.882893   -1.684906    0.292674
     26          6           0        3.306922   -1.311428   -1.124106
     27          1           0        3.986973   -1.397559   -1.977425
     28          1           0        2.577384   -0.533873   -1.359885
     29         16           0        2.520645   -2.961464   -1.007018
     30          6           0        1.318591   -2.781500    0.367520
     31          1           0        0.806214   -3.748289    0.382054
     32          1           0        1.834460   -2.681331    1.326424
     33          6           0        0.314267   -1.646727    0.175166
     34          1           0       -0.181000   -1.739275   -0.797296
     35          1           0        0.827903   -0.681862    0.190331
     36         16           0       -0.928382   -1.504276    1.514516
     37          6           0       -1.969691   -2.988207    1.254477
     38          1           0       -2.609586   -3.027134    2.140893
     39          1           0       -1.332598   -3.880146    1.284214
     40          6           0       -2.838862   -3.033726   -0.007244
     41          1           0       -2.236818   -2.922907   -0.915901
     42          1           0       -3.295851   -4.028805   -0.061980
     43         16           0       -4.237247   -1.855778   -0.076875
     44          6           0       -3.504243   -0.419459   -0.949595
     45          1           0       -2.684821   -0.016183   -0.349559
     46          1           0       -3.097743   -0.762778   -1.907761
     47          6           0       -4.580943    0.638474   -1.181317
     48          1           0       -5.406668    0.242409   -1.781134
     49          1           0       -4.993890    0.997260   -0.232566
     50          1           0       -4.157779    1.497665   -1.712952
 ---------------------------------------------------------------------
 Stoichiometry    C14H30O3S3
 Framework group  C1[X(C14H30O3S3)]
                         Standard orientation:                         
 ---------------------------------------------------------------------
 Center     Atomic      Atomic             Coordinates (Angstroms)
 Number     Number       Type             X           Y           Z
 ---------------------------------------------------------------------
      1          6           0       -2.874628    4.754391   -0.182514
      2          1           0       -2.545994    5.366078   -1.028738
      3          1           0       -3.880824    4.378355   -0.394813
      4          1           0       -2.920399    5.394064    0.704150
      5          6           0       -1.912404    3.601861    0.045827
      6          1           0       -2.241562    2.982224    0.895190
      7          1           0       -1.886319    2.948666   -0.840707
      8          8           0       -0.629753    4.147233    0.315325
      9          6           0        0.352599    3.209964    0.705912
     10          1           0       -0.059020    2.464920    1.403892
     11          1           0        1.120447    3.778191    1.242986
     12          6           0        0.992632    2.492696   -0.488664
     13          1           0        0.259436    1.862044   -1.002005
     14          1           0        1.357731    3.234755   -1.212079
     15          8           0        2.046196    1.636363   -0.059828
     16          6           0        3.314379    2.274773   -0.024278
     17          1           0        3.248456    3.223329    0.530992
     18          1           0        3.651572    2.504496   -1.046645
     19          6           0        4.349053    1.399580    0.665831
     20          1           0        3.972746    1.101188    1.655684
     21          1           0        5.242731    2.016309    0.819547
     22          8           0        4.780524    0.275629   -0.073983
     23          6           0        4.095076   -0.958500    0.095751
     24          1           0        3.454427   -0.923422    0.986069
     25          1           0        4.856006   -1.731035    0.262085
     26          6           0        3.282467   -1.318579   -1.146565
     27          1           0        3.958864   -1.406862   -2.002565
     28          1           0        2.564690   -0.527298   -1.372568
     29         16           0        2.470541   -2.957107   -1.043794
     30          6           0        1.275039   -2.772004    0.335766
     31          1           0        0.747500   -3.730693    0.342055
     32          1           0        1.794904   -2.689596    1.294202
     33          6           0        0.288263   -1.619670    0.157506
     34          1           0       -0.210917   -1.694648   -0.814468
     35          1           0        0.817108   -0.663222    0.180890
     36         16           0       -0.948512   -1.471081    1.501617
     37          6           0       -2.013791   -2.935732    1.229639
     38          1           0       -2.651926   -2.973451    2.117375
     39          1           0       -1.390786   -3.837856    1.248723
     40          6           0       -2.886834   -2.954896   -0.030083
     41          1           0       -2.285469   -2.844478   -0.939238
     42          1           0       -3.359618   -3.942049   -0.093493
     43         16           0       -4.266621   -1.754413   -0.084114
     44          6           0       -3.513290   -0.321151   -0.944463
     45          1           0       -2.686052    0.063124   -0.342683
     46          1           0       -3.114742   -0.661214   -1.907120
     47          6           0       -4.573747    0.755892   -1.162657
     48          1           0       -5.407172    0.378924   -1.764129
     49          1           0       -4.978521    1.111614   -0.209242
     50          1           0       -4.138447    1.613591   -1.686850
 ---------------------------------------------------------------------
 Standard basis: 6-31G(d) (6D, 7F)
   372 basis functions,   752 primitive gaussians,   372 cartesian basis functions
    93 alpha electrons       93 beta electrons
 Requested convergence on RMS density matrix=1.00D-08 within  64 cycles.
 Requested convergence on MAX density matrix=1.00D-06.
 Requested convergence on             energy=1.00D-06.
 SCF Done:  E(RB3LYP) =  -1971.75227238     A.U. after   11 cycles
            NFock= 11  Conv=0.80D-08     -V/T= 2.0057
 Step number   3 out of a maximum of   55
     Eigenvalues ---    0.00223   0.00229   0.00230   0.00230   0.00230
     Eigenvalues ---    0.00390   0.00398   0.00415   0.00455   0.00457
     Eigenvalues ---    0.00543   0.00569   0.00701   0.01445   0.01476
     Eigenvalues ---    0.01493   0.01522   0.01588   0.01598   0.04084
     Eigenvalues ---    0.04168   0.04414   0.04527   0.04563   0.04788
     Eigenvalues ---    0.04841   0.05005   0.05042   0.05104   0.05382
     Eigenvalues ---    0.05535   0.05642   0.05663   0.05670   0.05700
     Eigenvalues ---    0.05714   0.05740   0.05750   0.05770   0.05791
     Eigenvalues ---    0.05814   0.05904   0.05908   0.05971   0.06079
     Eigenvalues ---    0.06118   0.06665   0.11055   0.11205   0.11371
     Eigenvalues ---    0.11494   0.11531   0.11590   0.11635   0.11686
     Eigenvalues ---    0.11711   0.11888   0.11939   0.11993   0.13608
     Eigenvalues ---    0.13673   0.13827   0.13869   0.13912   0.13950
     Eigenvalues ---    0.13989   0.14006   0.14082   0.14177   0.14223
     Eigenvalues ---    0.14247   0.15984   0.16000   0.16000   0.16000
     Eigenvalues ---    0.16001   0.16006   0.19186   0.21941   0.22010
     Eigenvalues ---    0.22015   0.22024   0.22038   0.22049   0.22055
     Eigenvalues ---    0.22064   0.22082   0.22192   0.22755   0.23646
     Eigenvalues ---    0.24218   0.24310   0.24427   0.24466   0.24518
     Eigenvalues ---    0.24970   0.25000   0.25000   0.25000   0.25524
     Eigenvalues ---    0.29087   0.29644   0.29891   0.30034   0.30131
     Eigenvalues ---    0.30682   0.30838   0.33578   0.33663   0.33691
     Eigenvalues ---    0.33705   0.33720   0.33778   0.33940   0.34027
     Eigenvalues ---    0.34095   0.34147   0.34211   0.34222   0.34227
     Eigenvalues ---    0.34250   0.34255   0.34261   0.34301   0.34318
     Eigenvalues ---    0.34331   0.34342   0.34356   0.34391   0.34408
     Eigenvalues ---    0.34425   0.34449   0.34472   0.34535   0.34570
     Eigenvalues ---    0.34637   0.34686   0.40940   0.42535   0.42826
     Eigenvalues ---    0.43167   0.43910   0.44232   0.75277
 Maximum Force            0.007968     0.000015     NO 
 RMS     Force            0.000952     0.000010     NO 
 Maximum Displacement     1.741311     0.000060     NO 
 RMS     Displacement     0.437463     0.000040     NO 
                          Input orientation:                          
 ---------------------------------------------------------------------
 Center     Atomic      Atomic             Coordinates (Angstroms)
 Number     Number       Type             X           Y           Z
 ---------------------------------------------------------------------
      1          6           0       -2.663124    4.742345    0.062907
      2          1           0       -2.376403    5.338952   -0.809422
      3          1           0       -3.673825    4.352004   -0.099946
      4          1           0       -2.679759    5.401336    0.937128
      5          6           0       -1.679905    3.601665    0.275779
      6          1           0       -1.969498    2.997153    1.151586
      7          1           0       -1.684849    2.929186   -0.597706
      8          8           0       -0.389280    4.163839    0.482320
      9          6           0        0.618895    3.239859    0.849363
     10          1           0        0.241791    2.502738    1.575809
     11          1           0        1.401163    3.824141    1.347668
     12          6           0        1.219506    2.505567   -0.359723
     13          1           0        0.473584    1.853403   -0.826653
     14          1           0        1.540289    3.238231   -1.114354
     15          8           0        2.302786    1.666242    0.037411
     16          6           0        3.571293    2.312621    0.017637
     17          1           0        3.539312    3.263960    0.573083
     18          1           0        3.866177    2.536546   -1.019739
     19          6           0        4.626580    1.426016    0.662695
     20          1           0        4.280798    1.125354    1.663757
     21          1           0        5.539692    2.023284    0.785654
     22          8           0        4.983987    0.295047   -0.106612
     23          6           0        4.227441   -0.893326    0.090159
     24          1           0        3.640002   -0.817153    1.014850
     25          1           0        4.930682   -1.727938    0.205680
     26          6           0        3.311018   -1.151839   -1.107607
     27          1           0        3.919760   -1.260146   -2.011658
     28          1           0        2.638325   -0.303598   -1.261097
     29         16           0        2.377822   -2.728597   -0.997052
     30          6           0        1.139379   -2.395498    0.323361
     31          1           0        0.703329   -3.382534    0.510072
     32          1           0        1.631994   -2.084043    1.249660
     33          6           0        0.054942   -1.391037   -0.075171
     34          1           0       -0.417353   -1.693305   -1.015987
     35          1           0        0.494369   -0.401160   -0.235515
     36         16           0       -1.219730   -1.097314    1.218727
     37          6           0       -2.074073   -2.720701    1.320310
     38          1           0       -2.685532   -2.644041    2.224964
     39          1           0       -1.330831   -3.506657    1.505644
     40          6           0       -2.958774   -3.131998    0.135360
     41          1           0       -2.398068   -3.128347   -0.806201
     42          1           0       -3.278095   -4.168714    0.299437
     43         16           0       -4.511147   -2.178931   -0.093247
     44          6           0       -4.005260   -0.869141   -1.282713
     45          1           0       -3.249583   -0.232599   -0.813657
     46          1           0       -3.558719   -1.349037   -2.161927
     47          6           0       -5.230405   -0.049439   -1.690234
     48          1           0       -5.993243   -0.679052   -2.161251
     49          1           0       -5.684962    0.443293   -0.823735
     50          1           0       -4.941500    0.727362   -2.407815
 ---------------------------------------------------------------------
 Stoichiometry    C14H30O3S3
 Framework group  C1[X(C14H30O3S3)]
                         Standard orientation:                         
 ---------------------------------------------------------------------
 Center     Atomic      Atomic             Coordinates (Angstroms)
 Number     Number       Type             X           Y           Z
 ---------------------------------------------------------------------
      1          6           0       -1.448632    5.231913   -0.114243
      2          1           0       -1.056675    5.704502   -1.020959
      3          1           0       -2.527153    5.083869   -0.237864
      4          1           0       -1.283705    5.914698    0.725646
      5          6           0       -0.754272    3.902350    0.137374
      6          1           0       -1.150768    3.422919    1.048019
      7          1           0       -0.943307    3.211590   -0.700684
      8          8           0        0.637853    4.153197    0.290594
      9          6           0        1.411958    3.035024    0.684709
     10          1           0        0.894799    2.440796    1.454591
     11          1           0        2.324192    3.440188    1.137817
     12          6           0        1.786614    2.126532   -0.496850
     13          1           0        0.894733    1.648305   -0.915883
     14          1           0        2.247147    2.728443   -1.293578
     15          8           0        2.654459    1.074188   -0.078404
     16          6           0        4.037956    1.401868   -0.155010
     17          1           0        4.246827    2.357820    0.352057
     18          1           0        4.345445    1.503348   -1.207816
     19          6           0        4.875053    0.321315    0.513923
     20          1           0        4.499013    0.155709    1.535322
     21          1           0        5.906056    0.691458    0.589087
     22          8           0        4.933762   -0.895282   -0.203787
     23          6           0        3.926011   -1.861864    0.067264
     24          1           0        3.401199   -1.608105    0.997919
     25          1           0        4.417135   -2.832669    0.211500
     26          6           0        2.938543   -1.950450   -1.098225
     27          1           0        3.477147   -2.239503   -2.007048
     28          1           0        2.479142   -0.975312   -1.281647
     29         16           0        1.665466   -3.256305   -0.890236
     30          6           0        0.580379   -2.581997    0.434935
     31          1           0       -0.069061   -3.429100    0.679649
     32          1           0        1.160214   -2.354283    1.334736
     33          6           0       -0.249914   -1.369130    0.006753
     34          1           0       -0.808293   -1.593362   -0.908394
     35          1           0        0.404275   -0.518884   -0.211841
     36         16           0       -1.380241   -0.725695    1.308132
     37          6           0       -2.587908   -2.095802    1.508022
     38          1           0       -3.136553   -1.836805    2.419102
     39          1           0       -2.044386   -3.025675    1.718745
     40          6           0       -3.579986   -2.339614    0.362464
     41          1           0       -3.062946   -2.510335   -0.588569
     42          1           0       -4.128344   -3.263468    0.584872
     43         16           0       -4.871832   -1.058760    0.115462
     44          6           0       -4.109344    0.040351   -1.148210
     45          1           0       -3.211582    0.501207   -0.726449
     46          1           0       -3.814713   -0.570106   -2.010331
     47          6           0       -5.119949    1.106611   -1.573335
     48          1           0       -6.023103    0.654080   -1.997269
     49          1           0       -5.419745    1.730849   -0.724409
     50          1           0       -4.678915    1.760542   -2.334697
 ---------------------------------------------------------------------
 Standard basis: 6-31G(d) (6D, 7F)
   372 basis functions,   752 primitive gaussians,   372 cartesian basis functions
    93 alpha electrons       93 beta electrons
 Requested convergence on RMS density matrix=1.00D-08 within  64 cycles.
 Requested convergence on MAX density matrix=1.00D-06.
 Requested convergence on             energy=1.00D-06.
 SCF Done:  E(RB3LYP) =  -1971.75242661     A.U. after   12 cycles
            NFock= 12  Conv=0.48D-08     -V/T= 2.0058
 Step number   4 out of a maximum of   55
     Eigenvalues ---    0.00219   0.00225   0.00230   0.00230   0.00242
     Eigenvalues ---    0.00391   0.00398   0.00423   0.00455   0.00456
     Eigenvalues ---    0.00569   0.00570   0.00865   0.01454   0.01475
     Eigenvalues ---    0.01493   0.01561   0.01590   0.01711   0.04090
     Eigenvalues ---    0.04174   0.04431   0.04560   0.04801   0.04907
     Eigenvalues ---    0.04937   0.05027   0.05047   0.05188   0.05376
     Eigenvalues ---    0.05519   0.05621   0.05673   0.05681   0.05696
     Eigenvalues ---    0.05703   0.05742   0.05743   0.05758   0.05785
     Eigenvalues ---    0.05817   0.05873   0.05901   0.05977   0.06058
     Eigenvalues ---    0.06166   0.06796   0.11045   0.11208   0.11342
     Eigenvalues ---    0.11471   0.11515   0.11551   0.11652   0.11697
     Eigenvalues ---    0.11721   0.11839   0.11882   0.11979   0.13608
     Eigenvalues ---    0.13677   0.13800   0.13853   0.13878   0.13965
     Eigenvalues ---    0.14001   0.14027   0.14126   0.14150   0.14169
     Eigenvalues ---    0.14208   0.15831   0.16000   0.16000   0.16000
     Eigenvalues ---    0.16002   0.16011   0.16890   0.21942   0.22012
     Eigenvalues ---    0.22021   0.22024   0.22032   0.22048   0.22055
     Eigenvalues ---    0.22063   0.22088   0.22396   0.22896   0.23989
     Eigenvalues ---    0.24217   0.24310   0.24425   0.24471   0.24520
     Eigenvalues ---    0.24995   0.25000   0.25000   0.25443   0.26833
     Eigenvalues ---    0.29586   0.29656   0.29928   0.30081   0.30212
     Eigenvalues ---    0.30678   0.30998   0.33629   0.33666   0.33697
     Eigenvalues ---    0.33703   0.33721   0.33777   0.33945   0.34027
     Eigenvalues ---    0.34112   0.34192   0.34213   0.34224   0.34226
     Eigenvalues ---    0.34253   0.34259   0.34279   0.34300   0.34316
     Eigenvalues ---    0.34336   0.34342   0.34356   0.34389   0.34408
     Eigenvalues ---    0.34426   0.34449   0.34473   0.34549   0.34571
     Eigenvalues ---    0.34636   0.34843   0.39763   0.42166   0.42808
     Eigenvalues ---    0.43155   0.43794   0.44263   0.58348
 Maximum Force            0.006069     0.000015     NO 
 RMS     Force            0.000899     0.000010     NO 
 Maximum Displacement     0.522084     0.000060     NO 
 RMS     Displacement     0.125455     0.000040     NO 
                          Input orientation:                          
 ---------------------------------------------------------------------
 Center     Atomic      Atomic             Coordinates (Angstroms)
 Number     Number       Type             X           Y           Z
 ---------------------------------------------------------------------
      1          6           0       -2.744597    4.720451    0.044909
      2          1           0       -2.486470    5.284779   -0.857240
      3          1           0       -3.751786    4.307611   -0.079309
      4          1           0       -2.753068    5.414104    0.891877
      5          6           0       -1.739976    3.604305    0.282027
      6          1           0       -2.000444    3.031890    1.187601
      7          1           0       -1.752012    2.896980   -0.563072
      8          8           0       -0.454514    4.194914    0.437189
      9          6           0        0.570934    3.295936    0.816169
     10          1           0        0.215390    2.581641    1.575271
     11          1           0        1.358447    3.904087    1.275713
     12          6           0        1.147663    2.525105   -0.380478
     13          1           0        0.391076    1.860366   -0.810624
     14          1           0        1.455298    3.231986   -1.164301
     15          8           0        2.234680    1.693826    0.023006
     16          6           0        3.505174    2.332735   -0.039745
     17          1           0        3.480746    3.300767    0.486088
     18          1           0        3.784168    2.524746   -1.087591
     19          6           0        4.567995    1.464383    0.620487
     20          1           0        4.231227    1.183008    1.630092
     21          1           0        5.473682    2.074970    0.726825
     22          8           0        4.951347    0.323839   -0.123980
     23          6           0        4.237288   -0.884067    0.115383
     24          1           0        3.644245   -0.800412    1.035790
     25          1           0        4.974847   -1.682600    0.261909
     26          6           0        3.341141   -1.230473   -1.074689
     27          1           0        3.952968   -1.334905   -1.977121
     28          1           0        2.622092   -0.426949   -1.249027
     29         16           0        2.489862   -2.848460   -0.905872
     30          6           0        1.232164   -2.505561    0.393461
     31          1           0        0.844076   -3.498956    0.641391
     32          1           0        1.708300   -2.110778    1.295925
     33          6           0        0.109784   -1.575256   -0.068522
     34          1           0       -0.353510   -1.953571   -0.985718
     35          1           0        0.515979   -0.584230   -0.292806
     36         16           0       -1.171559   -1.237695    1.209331
     37          6           0       -2.105020   -2.818791    1.266946
     38          1           0       -2.715864   -2.735240    2.171240
     39          1           0       -1.402577   -3.645552    1.431004
     40          6           0       -3.000874   -3.144300    0.065461
     41          1           0       -2.435632   -3.133135   -0.873301
     42          1           0       -3.375130   -4.167760    0.190729
     43         16           0       -4.500966   -2.103961   -0.131705
     44          6           0       -3.902276   -0.750071   -1.226905
     45          1           0       -3.125535   -0.185199   -0.704250
     46          1           0       -3.461742   -1.198281   -2.125314
     47          6           0       -5.075119    0.155352   -1.603635
     48          1           0       -5.857872   -0.402777   -2.128646
     49          1           0       -5.522690    0.615589   -0.716090
     50          1           0       -4.730339    0.959611   -2.263881
 ---------------------------------------------------------------------
 Stoichiometry    C14H30O3S3
 Framework group  C1[X(C14H30O3S3)]
                         Standard orientation:                         
 ---------------------------------------------------------------------
 Center     Atomic      Atomic             Coordinates (Angstroms)
 Number     Number       Type             X           Y           Z
 ---------------------------------------------------------------------
      1          6           0       -1.714741    5.188855   -0.069452
      2          1           0       -1.371921    5.659122   -0.996971
      3          1           0       -2.787337    4.984335   -0.158927
      4          1           0       -1.561177    5.897560    0.750753
      5          6           0       -0.949665    3.901095    0.190554
      6          1           0       -1.296317    3.423499    1.121844
      7          1           0       -1.126013    3.183216   -0.626880
      8          8           0        0.432018    4.224364    0.298973
      9          6           0        1.264936    3.149652    0.692128
     10          1           0        0.792785    2.547560    1.484228
     11          1           0        2.170542    3.600870    1.113417
     12          6           0        1.643098    2.238909   -0.485286
     13          1           0        0.757145    1.727023   -0.875655
     14          1           0        2.066200    2.842613   -1.300899
     15          8           0        2.550579    1.218820   -0.071368
     16          6           0        3.921636    1.585172   -0.182207
     17          1           0        4.106442    2.555022    0.307100
     18          1           0        4.206088    1.681976   -1.241642
     19          6           0        4.804672    0.542196    0.490086
     20          1           0        4.444650    0.368339    1.515780
     21          1           0        5.817243    0.960199    0.556158
     22          8           0        4.930846   -0.676331   -0.217942
     23          6           0        3.994640   -1.706278    0.080287
     24          1           0        3.454876   -1.473980    1.007940
     25          1           0        4.559823   -2.632160    0.242852
     26          6           0        3.016282   -1.903538   -1.078699
     27          1           0        3.570725   -2.159375   -1.987963
     28          1           0        2.469502   -0.977435   -1.269590
     29         16           0        1.861276   -3.309453   -0.832885
     30          6           0        0.732833   -2.676452    0.476152
     31          1           0        0.159234   -3.562074    0.768682
     32          1           0        1.302158   -2.356435    1.353909
     33          6           0       -0.190858   -1.554226    0.000722
     34          1           0       -0.744678   -1.861211   -0.892618
     35          1           0        0.400611   -0.673801   -0.268436
     36         16           0       -1.344091   -0.922381    1.288946
     37          6           0       -2.575043   -2.279252    1.423821
     38          1           0       -3.132680   -2.043991    2.335715
     39          1           0       -2.049471   -3.225081    1.605632
     40          6           0       -3.549205   -2.456497    0.252638
     41          1           0       -3.018043   -2.590972   -0.696404
     42          1           0       -4.118523   -3.378406    0.423486
     43         16           0       -4.813648   -1.141417    0.044783
     44          6           0       -3.983383    0.026393   -1.111845
     45          1           0       -3.095392    0.439520   -0.625664
     46          1           0       -3.665799   -0.531154   -2.000880
     47          6           0       -4.959268    1.137295   -1.500206
     48          1           0       -5.851850    0.731905   -1.988882
     49          1           0       -5.281605    1.707676   -0.622346
     50          1           0       -4.476951    1.832892   -2.196729
 ---------------------------------------------------------------------
 Standard basis: 6-31G(d) (6D, 7F)
   372 basis functions,   752 primitive gaussians,   372 cartesian basis functions
    93 alpha electrons       93 beta electrons
 Requested convergence on RMS density matrix=1.00D-08 within  64 cycles.
 Requested convergence on MAX density matrix=1.00D-06.
 Requested convergence on             energy=1.00D-06.
 SCF Done:  E(RB3LYP) =  -1971.75279803     A.U. after   11 cycles
            NFock= 11  Conv=0.51D-08     -V/T= 2.0058
 Step number   5 out of a maximum of   55
     Eigenvalues ---    0.00164   0.00230   0.00230   0.00236   0.00373
     Eigenvalues ---    0.00394   0.00405   0.00445   0.00455   0.00513
     Eigenvalues ---    0.00569   0.00582   0.00880   0.01450   0.01472
     Eigenvalues ---    0.01490   0.01568   0.01590   0.01786   0.03962
     Eigenvalues ---    0.04145   0.04378   0.04543   0.04804   0.04867
     Eigenvalues ---    0.04928   0.05010   0.05128   0.05177   0.05383
     Eigenvalues ---    0.05507   0.05584   0.05652   0.05684   0.05696
     Eigenvalues ---    0.05709   0.05736   0.05752   0.05756   0.05772
     Eigenvalues ---    0.05825   0.05888   0.05891   0.05972   0.06077
     Eigenvalues ---    0.06154   0.07100   0.10955   0.11205   0.11361
     Eigenvalues ---    0.11453   0.11539   0.11547   0.11653   0.11677
     Eigenvalues ---    0.11702   0.11832   0.11904   0.11919   0.13340
     Eigenvalues ---    0.13618   0.13672   0.13822   0.13881   0.13889
     Eigenvalues ---    0.13973   0.13996   0.14061   0.14146   0.14186
     Eigenvalues ---    0.14311   0.14909   0.16000   0.16000   0.16000
     Eigenvalues ---    0.16004   0.16011   0.16134   0.21941   0.22010
     Eigenvalues ---    0.22019   0.22033   0.22036   0.22049   0.22057
     Eigenvalues ---    0.22069   0.22113   0.22437   0.23178   0.24193
     Eigenvalues ---    0.24219   0.24302   0.24444   0.24478   0.24522
     Eigenvalues ---    0.24991   0.25000   0.25001   0.26489   0.27960
     Eigenvalues ---    0.29666   0.29775   0.29988   0.30123   0.30252
     Eigenvalues ---    0.30619   0.30965   0.33654   0.33676   0.33702
     Eigenvalues ---    0.33715   0.33727   0.33793   0.33954   0.34060
     Eigenvalues ---    0.34107   0.34199   0.34216   0.34225   0.34231
     Eigenvalues ---    0.34253   0.34263   0.34289   0.34301   0.34317
     Eigenvalues ---    0.34341   0.34343   0.34356   0.34398   0.34424
     Eigenvalues ---    0.34429   0.34450   0.34476   0.34556   0.34585
     Eigenvalues ---    0.34721   0.34893   0.39670   0.42625   0.42808
     Eigenvalues ---    0.43141   0.43823   0.44325   0.68290
 Maximum Force            0.001891     0.000015     NO 
 RMS     Force            0.000395     0.000010     NO 
 Maximum Displacement     0.810425     0.000060     NO 
 RMS     Displacement     0.207863     0.000040     NO 
                          Input orientation:                          
 ---------------------------------------------------------------------
 Center     Atomic      Atomic             Coordinates (Angstroms)
 Number     Number       Type             X           Y           Z
 ---------------------------------------------------------------------
      1          6           0       -2.928874    4.360924    0.063499
      2          1           0       -2.748050    4.865470   -0.891719
      3          1           0       -3.912358    3.878753    0.021209
      4          1           0       -2.945020    5.119126    0.853726
      5          6           0       -1.845323    3.327723    0.337519
      6          1           0       -2.029432    2.814906    1.296682
      7          1           0       -1.849455    2.555190   -0.449071
      8          8           0       -0.590863    4.006097    0.385012
      9          6           0        0.506979    3.197302    0.776170
     10          1           0        0.229232    2.516390    1.596532
     11          1           0        1.272492    3.883034    1.157589
     12          6           0        1.080364    2.380042   -0.394248
     13          1           0        0.340139    1.657743   -0.755300
     14          1           0        1.329329    3.050677   -1.229761
     15          8           0        2.217899    1.618636    0.018641
     16          6           0        3.458868    2.308293   -0.117289
     17          1           0        3.406876    3.299320    0.363278
     18          1           0        3.697747    2.461856   -1.181537
     19          6           0        4.579640    1.517083    0.551890
     20          1           0        4.282596    1.268716    1.582791
     21          1           0        5.458543    2.173419    0.605212
     22          8           0        5.003761    0.359512   -0.150175
     23          6           0        4.346854   -0.871043    0.153014
     24          1           0        3.765874   -0.777201    1.080227
     25          1           0        5.123528   -1.627973    0.316546
     26          6           0        3.445940   -1.307661   -1.006702
     27          1           0        4.046121   -1.439600   -1.913790
     28          1           0        2.696959   -0.538574   -1.207598
     29         16           0        2.639516   -2.942617   -0.734959
     30          6           0        1.345488   -2.537709    0.519940
     31          1           0        0.928714   -3.513704    0.792264
     32          1           0        1.806766   -2.118323    1.419387
     33          6           0        0.260190   -1.597691   -0.009713
     34          1           0       -0.192435   -1.997748   -0.922584
     35          1           0        0.698869   -0.626379   -0.259450
     36         16           0       -1.047995   -1.181293    1.227171
     37          6           0       -2.095684   -2.697899    1.215223
     38          1           0       -2.688326   -2.620366    2.132566
     39          1           0       -1.447474   -3.577598    1.323874
     40          6           0       -3.025193   -2.896311    0.008637
     41          1           0       -2.474654   -2.861530   -0.938389
     42          1           0       -3.458775   -3.901781    0.082046
     43         16           0       -4.478350   -1.767678   -0.101610
     44          6           0       -3.899297   -0.471909   -1.286668
     45          1           0       -3.054146    0.062931   -0.844700
     46          1           0       -3.555830   -0.969698   -2.201669
     47          6           0       -5.053195    0.484338   -1.597845
     48          1           0       -5.902640   -0.045026   -2.044295
     49          1           0       -5.405030    0.991712   -0.692706
     50          1           0       -4.719889    1.252120   -2.306866
 ---------------------------------------------------------------------
 Stoichiometry    C14H30O3S3
 Framework group  C1[X(C14H30O3S3)]
                         Standard orientation:                         
 ---------------------------------------------------------------------
 Center     Atomic      Atomic             Coordinates (Angstroms)
 Number     Number       Type             X           Y           Z
 ---------------------------------------------------------------------
      1          6           0       -2.628528    4.550643    0.030190
      2          1           0       -2.437973    5.021194   -0.940364
      3          1           0       -3.643079    4.135748    0.022114
      4          1           0       -2.573675    5.324888    0.802928
      5          6           0       -1.610720    3.452165    0.302376
      6          1           0       -1.805011    2.973671    1.277141
      7          1           0       -1.686675    2.665083   -0.465922
      8          8           0       -0.312515    4.044427    0.304775
      9          6           0        0.737631    3.171311    0.688538
     10          1           0        0.435123    2.528561    1.530643
     11          1           0        1.557001    3.811330    1.035998
     12          6           0        1.225079    2.292106   -0.475916
     13          1           0        0.428969    1.614327   -0.802772
     14          1           0        1.497807    2.926241   -1.332251
     15          8           0        2.318557    1.464021   -0.072455
     16          6           0        3.599484    2.064539   -0.253323
     17          1           0        3.626568    3.066842    0.205410
     18          1           0        3.821514    2.178721   -1.326139
     19          6           0        4.680637    1.213339    0.407369
     20          1           0        4.393356    1.007842    1.450402
     21          1           0        5.602916    1.809311    0.424921
     22          8           0        5.007931    0.014853   -0.277653
     23          6           0        4.277200   -1.161372    0.069107
     24          1           0        3.727241   -1.008418    1.007306
     25          1           0        5.004824   -1.965753    0.231719
     26          6           0        3.320151   -1.560315   -1.058779
     27          1           0        3.887191   -1.752146   -1.976438
     28          1           0        2.620034   -0.746491   -1.259664
     29         16           0        2.412194   -3.130403   -0.730635
     30          6           0        1.180237   -2.611638    0.544667
     31          1           0        0.705436   -3.550958    0.849083
     32          1           0        1.691122   -2.205514    1.423147
     33          6           0        0.148004   -1.611445    0.019170
     34          1           0       -0.353281   -1.999165   -0.873374
     35          1           0        0.644901   -0.677805   -0.263078
     36         16           0       -1.097748   -1.080640    1.276535
     37          6           0       -2.245441   -2.522315    1.324086
     38          1           0       -2.808381   -2.385045    2.253070
     39          1           0       -1.655610   -3.441578    1.437687
     40          6           0       -3.216095   -2.682713    0.144549
     41          1           0       -2.688306   -2.705723   -0.815697
     42          1           0       -3.714623   -3.654537    0.251230
     43         16           0       -4.592011   -1.460387    0.042532
     44          6           0       -3.956570   -0.232647   -1.185291
     45          1           0       -3.066444    0.252735   -0.775715
     46          1           0       -3.670483   -0.772089   -2.096415
     47          6           0       -5.050667    0.793069   -1.491192
     48          1           0       -5.944817    0.313346   -1.905272
     49          1           0       -5.344700    1.342431   -0.589948
     50          1           0       -4.684095    1.521064   -2.225319
 ---------------------------------------------------------------------
 Standard basis: 6-31G(d) (6D, 7F)
   372 basis functions,   752 primitive gaussians,   372 cartesian basis functions
    93 alpha electrons       93 beta electrons
 Requested convergence on RMS density matrix=1.00D-08 within  64 cycles.
 Requested convergence on MAX density matrix=1.00D-06.
 Requested convergence on             energy=1.00D-06.
 SCF Done:  E(RB3LYP) =  -1971.75253111     A.U. after   11 cycles
            NFock= 11  Conv=0.54D-08     -V/T= 2.0059
 Step number   6 out of a maximum of   55
     Eigenvalues ---    0.00208   0.00230   0.00235   0.00308   0.00352
     Eigenvalues ---    0.00394   0.00404   0.00454   0.00469   0.00567
     Eigenvalues ---    0.00569   0.00604   0.00903   0.01436   0.01485
     Eigenvalues ---    0.01489   0.01554   0.01586   0.01825   0.04078
     Eigenvalues ---    0.04267   0.04574   0.04706   0.04841   0.04873
     Eigenvalues ---    0.04928   0.05064   0.05174   0.05197   0.05383
     Eigenvalues ---    0.05467   0.05539   0.05655   0.05693   0.05698
     Eigenvalues ---    0.05707   0.05720   0.05747   0.05760   0.05780
     Eigenvalues ---    0.05829   0.05886   0.05899   0.05970   0.06089
     Eigenvalues ---    0.06148   0.06882   0.10971   0.11204   0.11350
     Eigenvalues ---    0.11486   0.11535   0.11552   0.11628   0.11670
     Eigenvalues ---    0.11699   0.11903   0.11940   0.11945   0.13178
     Eigenvalues ---    0.13613   0.13672   0.13820   0.13890   0.13911
     Eigenvalues ---    0.13962   0.13989   0.14057   0.14159   0.14223
     Eigenvalues ---    0.14312   0.15661   0.16000   0.16000   0.16000
     Eigenvalues ---    0.16006   0.16010   0.16356   0.21941   0.22008
     Eigenvalues ---    0.22024   0.22037   0.22042   0.22058   0.22070
     Eigenvalues ---    0.22106   0.22345   0.22786   0.23865   0.24122
     Eigenvalues ---    0.24235   0.24297   0.24447   0.24477   0.24535
     Eigenvalues ---    0.25000   0.25003   0.26286   0.27757   0.28231
     Eigenvalues ---    0.29665   0.29949   0.30056   0.30116   0.30618
     Eigenvalues ---    0.30892   0.32761   0.33660   0.33687   0.33702
     Eigenvalues ---    0.33720   0.33779   0.33878   0.33979   0.34091
     Eigenvalues ---    0.34109   0.34215   0.34223   0.34225   0.34249
     Eigenvalues ---    0.34255   0.34270   0.34300   0.34312   0.34325
     Eigenvalues ---    0.34342   0.34356   0.34377   0.34413   0.34426
     Eigenvalues ---    0.34444   0.34459   0.34477   0.34576   0.34699
     Eigenvalues ---    0.34778   0.36897   0.40078   0.42791   0.43107
     Eigenvalues ---    0.43144   0.43839   0.44511   0.56232
 Maximum Force            0.003316     0.000015     NO 
 RMS     Force            0.000855     0.000010     NO 
 Maximum Displacement     0.506343     0.000060     NO 
 RMS     Displacement     0.150502     0.000040     NO 
                          Input orientation:                          
 ---------------------------------------------------------------------
 Center     Atomic      Atomic             Coordinates (Angstroms)
 Number     Number       Type             X           Y           Z
 ---------------------------------------------------------------------
      1          6           0       -2.813630    4.584367   -0.063585
      2          1           0       -2.562176    5.127242   -0.980682
      3          1           0       -3.811213    4.146698   -0.180859
      4          1           0       -2.841675    5.302200    0.762553
      5          6           0       -1.787647    3.496650    0.211757
      6          1           0       -2.041224    2.945549    1.132118
      7          1           0       -1.779384    2.765021   -0.612136
      8          8           0       -0.514699    4.118935    0.357013
      9          6           0        0.527960    3.250353    0.762603
     10          1           0        0.182715    2.542903    1.532554
     11          1           0        1.297463    3.885852    1.215584
     12          6           0        1.130914    2.469491   -0.414457
     13          1           0        0.387900    1.789215   -0.843909
     14          1           0        1.440998    3.168458   -1.204309
     15          8           0        2.223447    1.658262    0.015900
     16          6           0        3.484891    2.317297   -0.030052
     17          1           0        3.435003    3.288621    0.487854
     18          1           0        3.779022    2.505835   -1.074240
     19          6           0        4.549203    1.469970    0.656001
     20          1           0        4.196707    1.189635    1.660196
     21          1           0        5.443296    2.095057    0.776042
     22          8           0        4.965017    0.329991   -0.074065
     23          6           0        4.261139   -0.887841    0.154429
     24          1           0        3.650865   -0.812224    1.063733
     25          1           0        5.006630   -1.676427    0.313106
     26          6           0        3.389189   -1.243422   -1.050855
     27          1           0        4.016418   -1.340348   -1.943125
     28          1           0        2.665052   -0.447224   -1.235995
     29         16           0        2.545497   -2.869547   -0.892166
     30          6           0        1.279435   -2.537220    0.405502
     31          1           0        0.863815   -3.526284    0.624624
     32          1           0        1.755992   -2.176934    1.321685
     33          6           0        0.186441   -1.567507   -0.043572
     34          1           0       -0.277416   -1.908475   -0.974612
     35          1           0        0.617962   -0.580434   -0.233276
     36         16           0       -1.103589   -1.247763    1.232265
     37          6           0       -2.059685   -2.818320    1.218297
     38          1           0       -2.651008   -2.782830    2.138454
     39          1           0       -1.362493   -3.660074    1.316199
     40          6           0       -2.981549   -3.057887    0.016377
     41          1           0       -2.435601   -2.988702   -0.931068
     42          1           0       -3.364174   -4.083801    0.082438
     43         16           0       -4.477866   -1.994697   -0.081731
     44          6           0       -3.914124   -0.611498   -1.162461
     45          1           0       -3.103711   -0.075736   -0.661265
     46          1           0       -3.525431   -1.037155   -2.094923
     47          6           0       -5.091340    0.320366   -1.450527
     48          1           0       -5.906455   -0.209808   -1.954752
     49          1           0       -5.488398    0.755780   -0.527140
     50          1           0       -4.767484    1.142410   -2.099525
 ---------------------------------------------------------------------
 Stoichiometry    C14H30O3S3
 Framework group  C1[X(C14H30O3S3)]
                         Standard orientation:                         
 ---------------------------------------------------------------------
 Center     Atomic      Atomic             Coordinates (Angstroms)
 Number     Number       Type             X           Y           Z
 ---------------------------------------------------------------------
      1          6           0       -2.128930    4.946956   -0.108329
      2          1           0       -1.824515    5.429862   -1.042749
      3          1           0       -3.180779    4.652822   -0.195381
      4          1           0       -2.036215    5.678233    0.701124
      5          6           0       -1.260844    3.730631    0.171963
      6          1           0       -1.568447    3.239952    1.109882
      7          1           0       -1.375035    2.988550   -0.634527
      8          8           0        0.090263    4.169013    0.277160
      9          6           0        1.008818    3.169859    0.682160
     10          1           0        0.584932    2.534367    1.475239
     11          1           0        1.870629    3.698971    1.104663
     12          6           0        1.468092    2.287540   -0.488032
     13          1           0        0.626714    1.710838   -0.886493
     14          1           0        1.855521    2.919215   -1.300101
     15          8           0        2.444682    1.338583   -0.060616
     16          6           0        3.785186    1.811063   -0.147171
     17          1           0        3.884989    2.790020    0.348680
     18          1           0        4.078844    1.934640   -1.201154
     19          6           0        4.734641    0.835602    0.537229
     20          1           0        4.369327    0.628631    1.554557
     21          1           0        5.710610    1.329950    0.624710
     22          8           0        4.968274   -0.366477   -0.174018
     23          6           0        4.104852   -1.467306    0.096994
     24          1           0        3.532517   -1.287389    1.016259
     25          1           0        4.734908   -2.350203    0.259245
     26          6           0        3.163849   -1.720223   -1.081984
     27          1           0        3.750346   -1.923285   -1.984062
     28          1           0        2.555392   -0.833360   -1.271291
     29         16           0        2.102757   -3.206742   -0.868372
     30          6           0        0.926615   -2.671867    0.446122
[...]
     18          1           0        3.778085    2.556786   -0.845127
     19          6           0        4.413842    1.399055    0.859775
     20          1           0        3.973958    1.023008    1.795726
     21          1           0        5.279209    2.021190    1.121212
     22          8           0        4.919682    0.336406    0.072592
     23          6           0        4.252729   -0.919272    0.154280
     24          1           0        3.647607   -0.967587    1.069481
     25          1           0        5.025649   -1.693706    0.222264
     26          6           0        3.386789   -1.167859   -1.081163
     27          1           0        4.017684   -1.171801   -1.975952
     28          1           0        2.653202   -0.367178   -1.193242
     29         16           0        2.566364   -2.812269   -1.085979
     30          6           0        1.349231   -2.663073    0.289623
     31          1           0        0.906898   -3.662792    0.346958
     32          1           0        1.861421   -2.484347    1.239216
     33          6           0        0.275729   -1.600641    0.054100
     34          1           0       -0.206232   -1.745694   -0.918191
     35          1           0        0.725392   -0.603333    0.055801
     36         16           0       -0.994018   -1.518804    1.385695
     37          6           0       -1.961224   -3.052821    1.083898
     38          1           0       -2.540641   -3.196807    2.000670
     39          1           0       -1.267513   -3.899203    1.006757
     40          6           0       -2.899290   -3.050587   -0.128614
     41          1           0       -2.366688   -2.793234   -1.050712
     42          1           0       -3.283505   -4.068931   -0.263688
     43         16           0       -4.392769   -1.989233    0.008918
     44          6           0       -3.840992   -0.422205   -0.786986
     45          1           0       -3.019510    0.002413   -0.204108
     46          1           0       -3.470820   -0.656284   -1.791821
     47          6           0       -5.018473    0.548840   -0.864597
     48          1           0       -5.844910    0.128875   -1.447748
     49          1           0       -5.396707    0.794604    0.133468
     50          1           0       -4.703745    1.482127   -1.346241
 ---------------------------------------------------------------------
 Stoichiometry    C14H30O3S3
 Framework group  C1[X(C14H30O3S3)]
                         Standard orientation:                         
 ---------------------------------------------------------------------
 Center     Atomic      Atomic             Coordinates (Angstroms)
 Number     Number       Type             X           Y           Z
 ---------------------------------------------------------------------
      1          6           0       -2.392096    4.848972   -0.480030
      2          1           0       -2.036347    5.217891   -1.447468
      3          1           0       -3.431021    4.519785   -0.593127
      4          1           0       -2.365190    5.678376    0.233870
      5          6           0       -1.522567    3.701617    0.007144
      6          1           0       -1.887334    3.320764    0.975047
      7          1           0       -1.562475    2.863513   -0.707200
      8          8           0       -0.192844    4.187765    0.151421
      9          6           0        0.732344    3.241895    0.658742
     10          1           0        0.268650    2.592608    1.416805
     11          1           0        1.522669    3.818003    1.153066
     12          6           0        1.334011    2.377540   -0.458211
     13          1           0        0.552880    1.777461   -0.936360
     14          1           0        1.779195    3.023383   -1.228280
     15          8           0        2.293245    1.454628    0.053842
     16          6           0        3.611913    1.983572    0.148756
     17          1           0        3.615932    2.910687    0.743389
     18          1           0        3.998661    2.222731   -0.853770
     19          6           0        4.539756    0.983745    0.826513
     20          1           0        4.076830    0.638167    1.763097
     21          1           0        5.464443    1.515295    1.084720
     22          8           0        4.930674   -0.111052    0.018210
     23          6           0        4.146190   -1.297391    0.091776
     24          1           0        3.550331   -1.300519    1.014295
     25          1           0        4.841173   -2.143891    0.138809
     26          6           0        3.245375   -1.442672   -1.135170
     27          1           0        3.862065   -1.494347   -2.038339
     28          1           0        2.591548   -0.573202   -1.226463
     29         16           0        2.269431   -2.999745   -1.151316
     30          6           0        1.089192   -2.753937    0.242444
     31          1           0        0.552769   -3.706914    0.292120
     32          1           0        1.627724   -2.639715    1.187402
     33          6           0        0.120954   -1.589256    0.035866
     34          1           0       -0.384504   -1.672553   -0.931735
     35          1           0        0.665152   -0.640264    0.045083
     36         16           0       -1.118707   -1.404739    1.385418
     37          6           0       -2.233618   -2.833341    1.075823
     38          1           0       -2.813148   -2.934190    1.998266
     39          1           0       -1.626191   -3.741627    0.977845
     40          6           0       -3.181625   -2.722368   -0.123812
     41          1           0       -2.637763   -2.504088   -1.049408
     42          1           0       -3.664337   -3.696648   -0.267545
     43         16           0       -4.563430   -1.523668    0.048234
     44          6           0       -3.872020   -0.005730   -0.733631
     45          1           0       -3.006271    0.328724   -0.156138
     46          1           0       -3.538442   -0.259580   -1.746449
     47          6           0       -4.950690    1.075717   -0.782171
     48          1           0       -5.820924    0.746377   -1.359806
     49          1           0       -5.291242    1.342077    0.224145
     50          1           0       -4.552825    1.981226   -1.255265
 ---------------------------------------------------------------------
 Standard basis: 6-31G(d) (6D, 7F)
   372 basis functions,   752 primitive gaussians,   372 cartesian basis functions
    93 alpha electrons       93 beta electrons
 Requested convergence on RMS density matrix=1.00D-08 within  64 cycles.
 Requested convergence on MAX density matrix=1.00D-06.
 Requested convergence on             energy=1.00D-06.
 SCF Done:  E(RB3LYP) =  -1971.75314999     A.U. after    3 cycles
            NFock=  3  Conv=0.61D-08     -V/T= 2.0058
 Step number  32 out of a maximum of   55
     Eigenvalues ---    0.00118   0.00192   0.00243   0.00299   0.00331
     Eigenvalues ---    0.00390   0.00412   0.00459   0.00481   0.00521
     Eigenvalues ---    0.00600   0.00699   0.00734   0.00763   0.00909
     Eigenvalues ---    0.01288   0.01455   0.01640   0.02293   0.04368
     Eigenvalues ---    0.04669   0.04817   0.04891   0.05011   0.05092
     Eigenvalues ---    0.05202   0.05306   0.05412   0.05472   0.05518
     Eigenvalues ---    0.05554   0.05594   0.05688   0.05697   0.05746
     Eigenvalues ---    0.05758   0.05784   0.05792   0.05852   0.05865
     Eigenvalues ---    0.05891   0.05936   0.06019   0.06067   0.06220
     Eigenvalues ---    0.06387   0.07805   0.10971   0.11184   0.11236
     Eigenvalues ---    0.11446   0.11514   0.11585   0.11646   0.11705
     Eigenvalues ---    0.11751   0.11898   0.11968   0.12279   0.13131
     Eigenvalues ---    0.13279   0.13684   0.13730   0.13852   0.13917
     Eigenvalues ---    0.14041   0.14093   0.14261   0.14379   0.14515
     Eigenvalues ---    0.15141   0.15999   0.16002   0.16010   0.16030
     Eigenvalues ---    0.16112   0.16267   0.17938   0.19821   0.21081
     Eigenvalues ---    0.21427   0.21794   0.22013   0.22265   0.22453
     Eigenvalues ---    0.22901   0.23103   0.23210   0.23761   0.24071
     Eigenvalues ---    0.24260   0.24360   0.24496   0.25020   0.25510
     Eigenvalues ---    0.25776   0.26372   0.27527   0.29083   0.29484
     Eigenvalues ---    0.29969   0.30197   0.30365   0.30498   0.30851
     Eigenvalues ---    0.32000   0.32771   0.33611   0.33669   0.33705
     Eigenvalues ---    0.33738   0.33817   0.33954   0.33970   0.34092
     Eigenvalues ---    0.34142   0.34216   0.34219   0.34243   0.34284
     Eigenvalues ---    0.34306   0.34314   0.34334   0.34354   0.34365
     Eigenvalues ---    0.34378   0.34403   0.34423   0.34433   0.34483
     Eigenvalues ---    0.34514   0.34522   0.34637   0.34799   0.35128
     Eigenvalues ---    0.35306   0.37195   0.41552   0.42215   0.43187
     Eigenvalues ---    0.43995   0.44383   0.45456   0.81007
 Maximum Force            0.000000     0.000015     YES
 RMS     Force            0.000000     0.000010     YES
 Maximum Displacement     0.000053     0.000060     YES
 RMS     Displacement     0.000011     0.000040     YES
 Optimization completed.
    -- Stationary point found.
                          Input orientation:                          
 ---------------------------------------------------------------------
 Center     Atomic      Atomic             Coordinates (Angstroms)
 Number     Number       Type             X           Y           Z
 ---------------------------------------------------------------------
      1          6           0       -2.841214    4.556080   -0.587621
      2          1           0       -2.509836    4.944547   -1.556063
      3          1           0       -3.841803    4.126238   -0.708359
      4          1           0       -2.904283    5.393822    0.114161
      5          6           0       -1.871401    3.505140   -0.073004
      6          1           0       -2.210605    3.103929    0.895970
      7          1           0       -1.820424    2.657474   -0.775259
      8          8           0       -0.597009    4.119800    0.080089
      9          6           0        0.408434    3.275048    0.612531
     10          1           0       -0.000431    2.594247    1.374494
     11          1           0        1.132594    3.931717    1.107758
     12          6           0        1.105876    2.457963   -0.484120
     13          1           0        0.392968    1.778549   -0.962707
     14          1           0        1.496814    3.133377   -1.258258
     15          8           0        2.142918    1.639422    0.053124
     16          6           0        3.402831    2.294929    0.156094
     17          1           0        3.309137    3.226073    0.736905
     18          1           0        3.778085    2.556786   -0.845127
     19          6           0        4.413842    1.399055    0.859775
     20          1           0        3.973958    1.023008    1.795726
     21          1           0        5.279209    2.021190    1.121212
     22          8           0        4.919682    0.336406    0.072592
     23          6           0        4.252729   -0.919272    0.154280
     24          1           0        3.647607   -0.967587    1.069481
     25          1           0        5.025649   -1.693706    0.222264
     26          6           0        3.386789   -1.167859   -1.081163
     27          1           0        4.017684   -1.171801   -1.975952
     28          1           0        2.653202   -0.367178   -1.193242
     29         16           0        2.566364   -2.812269   -1.085979
     30          6           0        1.349231   -2.663073    0.289623
     31          1           0        0.906898   -3.662792    0.346958
     32          1           0        1.861421   -2.484347    1.239216
     33          6           0        0.275729   -1.600641    0.054100
     34          1           0       -0.206232   -1.745694   -0.918191
     35          1           0        0.725392   -0.603333    0.055801
     36         16           0       -0.994018   -1.518804    1.385695
     37          6           0       -1.961224   -3.052821    1.083898
     38          1           0       -2.540641   -3.196807    2.000670
     39          1           0       -1.267513   -3.899203    1.006757
     40          6           0       -2.899290   -3.050587   -0.128614
     41          1           0       -2.366688   -2.793234   -1.050712
     42          1           0       -3.283505   -4.068931   -0.263688
     43         16           0       -4.392769   -1.989233    0.008918
     44          6           0       -3.840992   -0.422205   -0.786986
     45          1           0       -3.019510    0.002413   -0.204108
     46          1           0       -3.470820   -0.656284   -1.791821
     47          6           0       -5.018473    0.548840   -0.864597
     48          1           0       -5.844910    0.128875   -1.447748
     49          1           0       -5.396707    0.794604    0.133468
     50          1           0       -4.703745    1.482127   -1.346241
 ---------------------------------------------------------------------
 Stoichiometry    C14H30O3S3
 Framework group  C1[X(C14H30O3S3)]
                         Standard orientation:                         
 ---------------------------------------------------------------------
 Center     Atomic      Atomic             Coordinates (Angstroms)
 Number     Number       Type             X           Y           Z
 ---------------------------------------------------------------------
      1          6           0       -2.392096    4.848972   -0.480030
      2          1           0       -2.036347    5.217891   -1.447468
      3          1           0       -3.431021    4.519785   -0.593127
      4          1           0       -2.365190    5.678376    0.233870
      5          6           0       -1.522567    3.701617    0.007144
      6          1           0       -1.887334    3.320764    0.975047
      7          1           0       -1.562475    2.863513   -0.707200
      8          8           0       -0.192844    4.187765    0.151421
      9          6           0        0.732344    3.241895    0.658742
     10          1           0        0.268650    2.592608    1.416805
     11          1           0        1.522669    3.818003    1.153066
     12          6           0        1.334011    2.377540   -0.458211
     13          1           0        0.552880    1.777461   -0.936360
     14          1           0        1.779195    3.023383   -1.228280
     15          8           0        2.293245    1.454628    0.053842
     16          6           0        3.611913    1.983572    0.148756
     17          1           0        3.615932    2.910687    0.743389
     18          1           0        3.998661    2.222731   -0.853770
     19          6           0        4.539756    0.983745    0.826513
     20          1           0        4.076830    0.638167    1.763097
     21          1           0        5.464443    1.515295    1.084720
     22          8           0        4.930674   -0.111052    0.018210
     23          6           0        4.146190   -1.297391    0.091776
     24          1           0        3.550331   -1.300519    1.014295
     25          1           0        4.841173   -2.143891    0.138809
     26          6           0        3.245375   -1.442672   -1.135170
     27          1           0        3.862065   -1.494347   -2.038339
     28          1           0        2.591548   -0.573202   -1.226463
     29         16           0        2.269431   -2.999745   -1.151316
     30          6           0        1.089192   -2.753937    0.242444
     31          1           0        0.552769   -3.706914    0.292120
     32          1           0        1.627724   -2.639715    1.187402
     33          6           0        0.120954   -1.589256    0.035866
     34          1           0       -0.384504   -1.672553   -0.931735
     35          1           0        0.665152   -0.640264    0.045083
     36         16           0       -1.118707   -1.404739    1.385418
     37          6           0       -2.233618   -2.833341    1.075823
     38          1           0       -2.813148   -2.934190    1.998266
     39          1           0       -1.626191   -3.741627    0.977845
     40          6           0       -3.181625   -2.722368   -0.123812
     41          1           0       -2.637763   -2.504088   -1.049408
     42          1           0       -3.664337   -3.696648   -0.267545
     43         16           0       -4.563430   -1.523668    0.048234
     44          6           0       -3.872020   -0.005730   -0.733631
     45          1           0       -3.006271    0.328724   -0.156138
     46          1           0       -3.538442   -0.259580   -1.746449
     47          6           0       -4.950690    1.075717   -0.782171
     48          1           0       -5.820924    0.746377   -1.359806
     49          1           0       -5.291242    1.342077    0.224145
     50          1           0       -4.552825    1.981226   -1.255265
 ---------------------------------------------------------------------
 Mulliken charges:
     1  C   -0.456364
     2  H    0.158035
     3  H    0.146750
     4  H    0.161161
     5  C   -0.018666
     6  H    0.131280
     7  H    0.122533
     8  O   -0.471933
     9  C   -0.039913
    10  H    0.139067
    11  H    0.144720
    12  C   -0.046154
    13  H    0.145817
    14  H    0.140980
    15  O   -0.481789
    16  C   -0.030162
    17  H    0.125198
    18  H    0.141698
    19  C   -0.043737
    20  H    0.138329
    21  H    0.146757
    22  O   -0.472679
    23  C   -0.016106
    24  H    0.132147
    25  H    0.153709
    26  C   -0.438817
    27  H    0.180968
    28  H    0.195411
    29  S    0.070677
    30  C   -0.410710
    31  H    0.177243
    32  H    0.186636
    33  C   -0.436966
    34  H    0.178243
    35  H    0.205462
    36  S    0.085908
    37  C   -0.407896
    38  H    0.193075
    39  H    0.169505
    40  C   -0.416737
    41  H    0.174516
    42  H    0.180349
    43  S    0.085250
    44  C   -0.401807
    45  H    0.195563
    46  H    0.160493
    47  C   -0.459583
    48  H    0.165023
    49  H    0.165342
    50  H    0.152174
 Sum of Mulliken charges =  -0.00000
 Dipole moment (field-independent basis, Debye):
    X=              0.3718    Y=              1.2746    Z=             -0.0610  Tot=              1.3291
 Quadrupole moment (field-independent basis, Debye-Ang):
   XX=           -157.6182   YY=           -147.4274   ZZ=           -148.8908
   XY=              4.9577   XZ=              7.2290   YZ=             -3.2164
 Traceless Quadrupole moment (field-independent basis, Debye-Ang):
   XX=             -6.3060   YY=              3.8847   ZZ=              2.4213
   XY=              4.9577   XZ=              7.2290   YZ=             -3.2164
 Octapole moment (field-independent basis, Debye-Ang**2):
  XXX=             63.1104  YYY=            -18.6771  ZZZ=             -2.2662  XYY=            -18.2091
  XXY=             70.0231  XXZ=             10.4298  XZZ=             14.9632  YZZ=             17.8696
  YYZ=             20.3319  XYZ=              2.0603
 Hexadecapole moment (field-independent basis, Debye-Ang**3):
 XXXX=          -9042.6830 YYYY=          -5703.2069 ZZZZ=           -746.9456 XXXY=            -63.7522
 XXXZ=             85.8016 YYYX=            171.8831 YYYZ=            -61.0364 ZZZX=             -2.3816
 ZZZY=             -3.7492 XXYY=          -2237.9491 XXZZ=          -1492.2503 YYZZ=          -1049.9217
 XXYZ=             -5.4282 YYXZ=             17.1415 ZZXY=             14.4295
 Job cpu time:       0 days  9 hours 29 minutes 55.0 seconds.
 Normal termination of Gaussian 16 at Sat Jul  8 19:51:41 2023.
