 Copyright (c) 1988-2019, Gaussian, Inc.  All Rights Reserved.
  
 This is part of the Gaussian(R) 16 program.  It is based on
 the Gaussian(R) 09 system (copyright 2009, Gaussian, Inc.),
 the Gaussian(R) 03 system (copyright 2003, Gaussian, Inc.),
 the Gaussian(R) 98 system (copyright 1998, Gaussian, Inc.),
 the Gaussian(R) 94 system (copyright 1995, Gaussian, Inc.),
 the Gaussian 92(TM) system (copyright 1992, Gaussian, Inc.),
 the Gaussian 90(TM) system (copyright 1990, Gaussian, Inc.),
 the Gaussian 88(TM) system (copyright 1988, Gaussian, Inc.),
 the Gaussian 86(TM) system (copyright 1986, Carnegie Mellon
 University), and the Gaussian 82(TM) system (copyright 1983,
 Carnegie Mellon University). Gaussian is a federally registered
 trademark of Gaussian, Inc.
 Cite this work as:
 Gaussian 16, Revision C.01,
 M. J. Frisch, G. W. Trucks, H. B. Schlegel, G. E. Scuseria, 
 M. A. Robb, J. R. Cheeseman, G. Scalmani, V. Barone, 
 G. A. Petersson, H. Nakatsuji, X. Li, M. Caricato, A. V. Marenich, 
 J. Bloino, B. G. Janesko, R. Gomperts, B. Mennucci, H. P. Hratchian, 
 J. V. Ortiz, A. F. Izmaylov, J. L. Sonnenberg, D. Williams-Young, 
 F. Ding, F. Lipparini, F. Egidi, J. Goings, B. Peng, A. Petrone, 
 T. Henderson, D. Ranasinghe, V. G. Zakrzewski, J. Gao, N. Rega, 
 G. Zheng, W. Liang, M. Hada, M. Ehara, K. Toyota, R. Fukuda, 
 J. Hasegawa, M. Ishida, T. Nakajima, Y. Honda, O. Kitao, H. Nakai, 
 T. Vreven, K. Throssell, J. A. Montgomery, Jr., J. E. Peralta, 
 F. Ogliaro, M. J. Bearpark, J. J. Heyd, E. N. Brothers, K. N. Kudin, 
 V. N. Staroverov, T. A. Keith, R. Kobayashi, J. Normand, 
 K. Raghavachari, A. P. Rendell, J. C. Burant, S. S. Iyengar, 
 J. Tomasi, M. Cossi, J. M. Millam, M. Klene, C. Adamo, R. Cammi, 
 J. W. Ochterski, R. L. Martin, K. Morokuma, O. Farkas, 
 J. B. Foresman, and D. J. Fox, Gaussian, Inc., Wallingford CT, 2019.
 
 ******************************************
 Gaussian 16:  EM64L-G16RevC.01  3-Jul-2019
                 9-Jul-2023 
 ******************************************
 ----------------------------------------------------------------------
 #P B3LYP/6-31G(d) Integral=Ultrafine Opt=(Tight,MaxCycle=55) GFInput G
 FPrint SCF(Conver=8,XQC,MaxConventionalCycles=64,MaxCycle=128) Test
 ----------------------------------------------------------------------
 1/6=55,7=10,18=20,19=15,26=4,38=1/1,3;
 2/9=110,12=2,17=6,18=5,40=1/2;
 3/5=1,6=6,7=1,11=2,24=110,25=1,30=1,71=1,74=-5,75=-5/1,2,3;
 4//1;
 5/5=2,6=8,7=128,8=3,13=1,38=5,85=64/2,8;
 6/7=2,8=2,9=2,10=2,28=1/1;
 7//1,2,3,16;
 1/6=55,7=10,18=20,19=15,26=4/3(2);
 2/9=110/2;
 99//99;
 2/9=110/2;
 3/5=1,6=6,7=1,11=2,25=1,30=1,71=1,74=-5,75=-5/1,2,3;
 4/5=5,16=3,69=1/1;
 5/5=2,6=8,7=128,8=3,13=1,38=5,85=64/2,8;
 7//1,2,3,16;
 1/6=55,7=10,18=20,19=15,26=4/3(-5);
 2/9=110/2;
 6/7=2,8=2,9=2,10=2,19=2,28=1/1;
 99/9=1/99;
 ----------------------------------------------------------
 Optimization step - Input generated by PyRED DVE-DMDS-OPLS
 ----------------------------------------------------------
 Symbolic Z-matrix:
 Charge =  0 Multiplicity = 1
 C                    -7.842    -0.116    -0.849 
 H                    -8.148     0.934    -0.869 
 H                    -7.232    -0.311    -1.735 
 H                    -8.748    -0.727    -0.913 
 C                    -7.067    -0.459     0.414 
 H                    -7.677    -0.258     1.308 
 H                    -6.815    -1.524     0.42 
 O                    -5.829     0.221     0.521 
 C                    -5.938     1.579     0.9 
 H                    -6.502     1.653     1.844 
 H                    -6.468     2.172     0.142 
 C                    -4.552     2.165     1.103 
 H                    -4.645     3.08      1.696 
 H                    -3.955     1.448     1.683 
 O                    -3.899     2.559    -0.084 
 C                    -3.424     1.507    -0.909 
 H                    -3.286     1.936    -1.905 
 H                    -4.16      0.703    -0.983 
 C                    -2.089     0.957    -0.413 
 H                    -2.149     0.696     0.652 
 H                    -1.308     1.714    -0.521 
 O                    -1.7      -0.163    -1.188 
 C                    -2.222    -1.4      -0.728 
 H                    -2.33     -2.041    -1.607 
 H                    -3.219    -1.251    -0.289 
 C                    -1.318    -2.077     0.296 
 H                    -1.851    -2.928     0.733 
 H                    -1.096    -1.392     1.122 
 S                     0.223    -2.799    -0.355 
 C                     1.214    -1.317    -0.739 
 H                     1.999    -1.667    -1.416 
 H                     0.583    -0.62     -1.293 
 C                     1.827    -0.617     0.472 
 H                     1.064    -0.426     1.231 
 H                     2.215     0.362     0.171 
 S                     3.15     -1.54      1.322 
 C                     4.566    -1.173     0.235 
 H                     4.258    -1.271    -0.81 
 H                     5.3      -1.96      0.424 
 C                     5.187     0.195     0.493 
 H                     4.439     0.983     0.365 
 H                     5.558     0.245     1.521 
 S                     6.574     0.459    -0.665 
 C                     7.274     2.004     0.001 
 H                     7.505     1.855     1.06 
 H                     8.23      2.12     -0.519 
 C                     6.408     3.24     -0.202 
 H                     6.194     3.398    -1.262 
 H                     5.453     3.154     0.326 
 H                     6.918     4.129     0.183 
 
 ITRead=  0  0  0  0  0  0  0  0  0  0  0  0  0  0  0  0  0  0  0  0
 ITRead=  0  0  0  0  0  0  0  0  0  0  0  0  0  0  0  0  0  0  0  0
 ITRead=  0  0  0  0  0  0  0  0  0  0
 MicOpt= -1 -1 -1 -1 -1 -1 -1 -1 -1 -1 -1 -1 -1 -1 -1 -1 -1 -1 -1 -1
 MicOpt= -1 -1 -1 -1 -1 -1 -1 -1 -1 -1 -1 -1 -1 -1 -1 -1 -1 -1 -1 -1
 MicOpt= -1 -1 -1 -1 -1 -1 -1 -1 -1 -1
 NAtoms=     50 NQM=       50 NQMF=       0 NMMI=      0 NMMIF=      0
                NMic=       0 NMicF=      0.
                          Input orientation:                          
 ---------------------------------------------------------------------
 Center     Atomic      Atomic             Coordinates (Angstroms)
 Number     Number       Type             X           Y           Z
 ---------------------------------------------------------------------
      1          6           0       -7.842000   -0.116000   -0.849000
      2          1           0       -8.148000    0.934000   -0.869000
      3          1           0       -7.232000   -0.311000   -1.735000
      4          1           0       -8.748000   -0.727000   -0.913000
      5          6           0       -7.067000   -0.459000    0.414000
      6          1           0       -7.677000   -0.258000    1.308000
      7          1           0       -6.815000   -1.524000    0.420000
      8          8           0       -5.829000    0.221000    0.521000
      9          6           0       -5.938000    1.579000    0.900000
     10          1           0       -6.502000    1.653000    1.844000
     11          1           0       -6.468000    2.172000    0.142000
     12          6           0       -4.552000    2.165000    1.103000
     13          1           0       -4.645000    3.080000    1.696000
     14          1           0       -3.955000    1.448000    1.683000
     15          8           0       -3.899000    2.559000   -0.084000
     16          6           0       -3.424000    1.507000   -0.909000
     17          1           0       -3.286000    1.936000   -1.905000
     18          1           0       -4.160000    0.703000   -0.983000
     19          6           0       -2.089000    0.957000   -0.413000
     20          1           0       -2.149000    0.696000    0.652000
     21          1           0       -1.308000    1.714000   -0.521000
     22          8           0       -1.700000   -0.163000   -1.188000
     23          6           0       -2.222000   -1.400000   -0.728000
     24          1           0       -2.330000   -2.041000   -1.607000
     25          1           0       -3.219000   -1.251000   -0.289000
     26          6           0       -1.318000   -2.077000    0.296000
     27          1           0       -1.851000   -2.928000    0.733000
     28          1           0       -1.096000   -1.392000    1.122000
     29         16           0        0.223000   -2.799000   -0.355000
     30          6           0        1.214000   -1.317000   -0.739000
     31          1           0        1.999000   -1.667000   -1.416000
     32          1           0        0.583000   -0.620000   -1.293000
     33          6           0        1.827000   -0.617000    0.472000
     34          1           0        1.064000   -0.426000    1.231000
     35          1           0        2.215000    0.362000    0.171000
     36         16           0        3.150000   -1.540000    1.322000
     37          6           0        4.566000   -1.173000    0.235000
     38          1           0        4.258000   -1.271000   -0.810000
     39          1           0        5.300000   -1.960000    0.424000
     40          6           0        5.187000    0.195000    0.493000
     41          1           0        4.439000    0.983000    0.365000
     42          1           0        5.558000    0.245000    1.521000
     43         16           0        6.574000    0.459000   -0.665000
     44          6           0        7.274000    2.004000    0.001000
     45          1           0        7.505000    1.855000    1.060000
     46          1           0        8.230000    2.120000   -0.519000
     47          6           0        6.408000    3.240000   -0.202000
     48          1           0        6.194000    3.398000   -1.262000
     49          1           0        5.453000    3.154000    0.326000
     50          1           0        6.918000    4.129000    0.183000
 ---------------------------------------------------------------------
 Stoichiometry    C14H30O3S3
 Framework group  C1[X(C14H30O3S3)]
                         Standard orientation:                         
 ---------------------------------------------------------------------
 Center     Atomic      Atomic             Coordinates (Angstroms)
 Number     Number       Type             X           Y           Z
 ---------------------------------------------------------------------
      1          6           0       -7.841996   -0.115845   -0.849145
      2          1           0       -8.147983    0.934159   -0.869145
      3          1           0       -7.231999   -0.310853   -1.735145
      4          1           0       -8.748004   -0.726833   -0.913145
      5          6           0       -7.067001   -0.458855    0.413855
      6          1           0       -7.676998   -0.257847    1.307855
      7          1           0       -6.815014   -1.523858    0.419855
      8          8           0       -5.828992    0.221129    0.520855
      9          6           0       -5.937974    1.579130    0.899855
     10          1           0       -6.501973    1.653138    1.843855
     11          1           0       -6.467967    2.172137    0.141855
     12          6           0       -4.551967    2.165112    1.102855
     13          1           0       -4.644955    3.080114    1.695855
     14          1           0       -3.954976    1.448105    1.682855
     15          8           0       -3.898962    2.559104   -0.084145
     16          6           0       -3.423975    1.507098   -0.909145
     17          1           0       -3.285970    1.936096   -1.905145
     18          1           0       -4.159986    0.703107   -0.983145
     19          6           0       -2.088982    0.957081   -0.413145
     20          1           0       -2.148986    0.696081    0.651855
     21          1           0       -1.307973    1.714071   -0.521145
     22          8           0       -1.699997   -0.162924   -1.188145
     23          6           0       -2.222013   -1.399918   -0.728145
     24          1           0       -2.330021   -2.040916   -1.607145
     25          1           0       -3.219011   -1.250905   -0.289145
     26          6           0       -1.318021   -2.076929    0.295855
     27          1           0       -1.851032   -2.927922    0.732855
     28          1           0       -1.096013   -1.391932    1.121855
     29         16           0        0.222969   -2.798949   -0.355145
     30          6           0        1.213988   -1.316962   -0.739145
     31          1           0        1.998984   -1.666972   -1.416145
     32          1           0        0.582997   -0.619954   -1.293145
     33          6           0        1.826997   -0.616970    0.471855
     34          1           0        1.064000   -0.425960    1.230855
     35          1           0        2.215010    0.362025    0.170855
     36         16           0        3.149986   -1.539987    1.321855
     37          6           0        4.565990   -1.173005    0.234855
     38          1           0        4.257989   -1.271001   -0.810145
     39          1           0        5.299980   -1.960015    0.423855
     40          6           0        5.187008    0.194987    0.492855
     41          1           0        4.439018    0.982996    0.364855
     42          1           0        5.558009    0.244982    1.520855
     43         16           0        6.574011    0.458969   -0.665145
     44          6           0        7.274031    2.003960    0.000855
     45          1           0        7.505029    1.854957    1.059855
     46          1           0        8.230033    2.119948   -0.519145
     47          6           0        6.408047    3.239971   -0.202145
     48          1           0        6.194049    3.397974   -1.262145
     49          1           0        5.453046    3.153983    0.325855
     50          1           0        6.918059    4.128965    0.182855
 ---------------------------------------------------------------------
 Standard basis: 6-31G(d) (6D, 7F)
   372 basis functions,   752 primitive gaussians,   372 cartesian basis functions
    93 alpha electrons       93 beta electrons
 Requested convergence on RMS density matrix=1.00D-08 within  64 cycles.
 Requested convergence on MAX density matrix=1.00D-06.
 Requested convergence on             energy=1.00D-06.
 SCF Done:  E(RB3LYP) =  -1971.74865740     A.U. after   13 cycles
            NFock= 13  Conv=0.46D-08     -V/T= 2.0056
 Mulliken charges:
     1  C   -0.461498
     2  H    0.153910
     3  H    0.160625
     4  H    0.147984
     5  C   -0.017120
     6  H    0.122074
     7  H    0.146269
     8  O   -0.468826
     9  C   -0.031626
    10  H    0.119601
    11  H    0.139675
    12  C   -0.046268
    13  H    0.147529
    14  H    0.132101
    15  O   -0.472820
    16  C   -0.057149
    17  H    0.149233
    18  H    0.165139
    19  C   -0.059093
    20  H    0.125915
    21  H    0.149266
    22  O   -0.466283
    23  C   -0.034510
    24  H    0.161976
    25  H    0.143926
    26  C   -0.436128
    27  H    0.174137
    28  H    0.168729
    29  S    0.100658
    30  C   -0.422619
    31  H    0.176651
    32  H    0.209996
    33  C   -0.417590
    34  H    0.177648
    35  H    0.169655
    36  S    0.113325
    37  C   -0.440698
    38  H    0.183061
    39  H    0.193981
    40  C   -0.392709
    41  H    0.171703
    42  H    0.177493
    43  S    0.080018
    44  C   -0.408679
    45  H    0.168424
    46  H    0.175838
    47  C   -0.437956
    48  H    0.163568
    49  H    0.152109
    50  H    0.149356
 Sum of Mulliken charges =  -0.00000
 Dipole moment (field-independent basis, Debye):
    X=             -3.8117    Y=              2.6730    Z=              1.4717  Tot=              4.8826
 Quadrupole moment (field-independent basis, Debye-Ang):
   XX=           -120.5912   YY=           -154.0616   ZZ=           -150.3210
   XY=             15.0592   XZ=             -2.4325   YZ=              3.8876
 Traceless Quadrupole moment (field-independent basis, Debye-Ang):
   XX=             21.0667   YY=            -12.4037   ZZ=             -8.6630
   XY=             15.0592   XZ=             -2.4325   YZ=              3.8876
 Octapole moment (field-independent basis, Debye-Ang**2):
  XXX=           -231.5204  YYY=             29.6935  ZZZ=             -2.3564  XYY=             -4.2747
  XXY=             61.7564  XXZ=             52.0710  XZZ=            -33.7472  YZZ=             13.4344
  YYZ=              3.2297  XYZ=             -1.9179
 Hexadecapole moment (field-independent basis, Debye-Ang**3):
 XXXX=         -18006.4365 YYYY=          -2825.1641 ZZZZ=           -744.1700 XXXY=            482.4444
 XXXZ=            104.7839 YYYX=            104.3198 YYYZ=             12.2831 ZZZX=            -18.7211
 ZZZY=              7.7127 XXYY=          -3514.3914 XXZZ=          -3422.8898 YYZZ=           -566.2003
 XXYZ=             91.2045 YYXZ=            -53.8534 ZZXY=            -27.4865
 Step number   1 out of a maximum of   55
     Eigenvalues ---    0.00230   0.00230   0.00230   0.00230   0.00230
     Eigenvalues ---    0.00230   0.00406   0.00413   0.00442   0.00444
     Eigenvalues ---    0.00465   0.00488   0.00522   0.01437   0.01443
     Eigenvalues ---    0.01473   0.01474   0.01505   0.01548   0.04215
     Eigenvalues ---    0.04299   0.04371   0.04386   0.04526   0.04705
     Eigenvalues ---    0.04753   0.04864   0.04911   0.05031   0.05040
     Eigenvalues ---    0.05256   0.05538   0.05544   0.05610   0.05610
     Eigenvalues ---    0.05648   0.05652   0.05675   0.05723   0.05738
     Eigenvalues ---    0.05795   0.05825   0.05831   0.05877   0.05892
     Eigenvalues ---    0.06053   0.06103   0.10967   0.11240   0.11496
     Eigenvalues ---    0.11558   0.11596   0.11694   0.11754   0.11772
     Eigenvalues ---    0.11784   0.11817   0.11855   0.11888   0.13601
     Eigenvalues ---    0.13763   0.13838   0.13927   0.13934   0.13986
     Eigenvalues ---    0.14034   0.14047   0.14069   0.14076   0.14132
     Eigenvalues ---    0.14136   0.16000   0.16000   0.16000   0.16000
     Eigenvalues ---    0.16000   0.16000   0.21993   0.21997   0.22011
     Eigenvalues ---    0.22020   0.22029   0.22029   0.22048   0.22049
     Eigenvalues ---    0.22057   0.22071   0.22073   0.22102   0.24168
     Eigenvalues ---    0.24336   0.24357   0.24425   0.24440   0.24456
     Eigenvalues ---    0.25000   0.25000   0.25000   0.25000   0.25000
     Eigenvalues ---    0.25000   0.29685   0.29732   0.29937   0.29952
     Eigenvalues ---    0.30100   0.30270   0.30519   0.33447   0.33595
     Eigenvalues ---    0.33736   0.33828   0.33839   0.33887   0.34151
     Eigenvalues ---    0.34212   0.34229   0.34261   0.34281   0.34284
     Eigenvalues ---    0.34305   0.34306   0.34319   0.34343   0.34344
     Eigenvalues ---    0.34350   0.34355   0.34370   0.34372   0.34440
     Eigenvalues ---    0.34444   0.34445   0.34464   0.34467   0.34483
     Eigenvalues ---    0.34510   0.34524   0.34665   0.42574   0.42644
     Eigenvalues ---    0.42991   0.42999   0.43361   0.43862
 Maximum Force            0.006709     0.000015     NO 
 RMS     Force            0.001793     0.000010     NO 
 Maximum Displacement     0.741308     0.000060     NO 
 RMS     Displacement     0.220658     0.000040     NO 
                          Input orientation:                          
 ---------------------------------------------------------------------
 Center     Atomic      Atomic             Coordinates (Angstroms)
 Number     Number       Type             X           Y           Z
 ---------------------------------------------------------------------
      1          6           0       -8.177626   -0.184755   -0.724531
      2          1           0       -8.473555    0.865628   -0.816606
      3          1           0       -7.597614   -0.455670   -1.613184
      4          1           0       -9.093682   -0.786974   -0.715823
      5          6           0       -7.364954   -0.444529    0.543171
      6          1           0       -7.949267   -0.171959    1.437984
      7          1           0       -7.127484   -1.511148    0.621069
      8          8           0       -6.107333    0.222043    0.571757
      9          6           0       -6.171807    1.611166    0.864463
     10          1           0       -6.710993    1.760434    1.816964
     11          1           0       -6.710772    2.169546    0.084668
     12          6           0       -4.763642    2.186680    1.000645
     13          1           0       -4.837317    3.135619    1.543706
     14          1           0       -4.162172    1.499327    1.615089
     15          8           0       -4.120905    2.517993   -0.220209
     16          6           0       -3.616620    1.435787   -1.001351
     17          1           0       -3.516107    1.822922   -2.020444
     18          1           0       -4.321720    0.599390   -1.026640
     19          6           0       -2.239870    0.960224   -0.515309
     20          1           0       -2.262350    0.739056    0.561923
     21          1           0       -1.499728    1.752777   -0.667367
     22          8           0       -1.799690   -0.168801   -1.263744
     23          6           0       -2.222769   -1.431024   -0.751971
     24          1           0       -2.325595   -2.098684   -1.613544
     25          1           0       -3.212595   -1.336235   -0.278345
     26          6           0       -1.242135   -2.040053    0.256931
     27          1           0       -1.724019   -2.902058    0.733886
     28          1           0       -1.022779   -1.327561    1.061562
     29         16           0        0.314880   -2.733964   -0.425642
     30          6           0        1.327389   -1.240592   -0.769170
     31          1           0        2.090011   -1.575750   -1.480003
     32          1           0        0.696350   -0.510398   -1.281935
     33          6           0        1.986833   -0.594955    0.456562
     34          1           0        1.246269   -0.420567    1.243654
     35          1           0        2.381880    0.391465    0.182992
     36         16           0        3.326167   -1.569846    1.249049
     37          6           0        4.750124   -1.166716    0.163397
     38          1           0        4.430853   -1.198745   -0.884511
     39          1           0        5.465964   -1.983360    0.299584
     40          6           0        5.413573    0.172670    0.493890
     41          1           0        4.685391    0.986901    0.419684
     42          1           0        5.793567    0.153555    1.521157
     43         16           0        6.809441    0.472757   -0.666282
     44          6           0        7.570142    1.968703    0.077917
     45          1           0        7.788308    1.762891    1.132762
     46          1           0        8.535630    2.065319   -0.430846
     47          6           0        6.760904    3.257540   -0.073878
     48          1           0        6.563278    3.474714   -1.128415
     49          1           0        5.797862    3.195163    0.444071
     50          1           0        7.310283    4.105072    0.355214
 ---------------------------------------------------------------------
 Stoichiometry    C14H30O3S3
 Framework group  C1[X(C14H30O3S3)]
                         Standard orientation:                         
 ---------------------------------------------------------------------
 Center     Atomic      Atomic             Coordinates (Angstroms)
 Number     Number       Type             X           Y           Z
 ---------------------------------------------------------------------
      1          6           0       -8.195575   -0.205504   -0.696604
      2          1           0       -8.492860    0.843319   -0.801241
      3          1           0       -7.615931   -0.486531   -1.582353
      4          1           0       -9.110887   -0.808681   -0.679822
      5          6           0       -7.381591   -0.448818    0.573520
      6          1           0       -7.965534   -0.166066    1.465411
      7          1           0       -7.142757   -1.514119    0.664225
      8          8           0       -6.124763    0.219578    0.592971
      9          6           0       -6.190704    1.612086    0.868771
     10          1           0       -6.729324    1.772302    1.819813
     11          1           0       -6.730963    2.160264    0.082658
     12          6           0       -4.783137    2.190924    0.996800
     13          1           0       -4.857544    3.146324    1.528311
     14          1           0       -4.180345    1.511843    1.619097
     15          8           0       -4.141764    2.508107   -0.228517
     16          6           0       -3.636771    1.417069   -0.996810
     17          1           0       -3.537531    1.791872   -2.020628
     18          1           0       -4.340869    0.579572   -1.011336
     19          6           0       -2.259060    0.949136   -0.506108
     20          1           0       -2.280424    0.741092    0.573758
     21          1           0       -1.520007    1.740673   -0.668409
     22          8           0       -1.818089   -0.188395   -1.241076
     23          6           0       -2.239223   -1.444797   -0.713615
     24          1           0       -2.341911   -2.123036   -1.566902
     25          1           0       -3.228792   -1.345441   -0.240387
     26          6           0       -1.257054   -2.040290    0.301852
     27          1           0       -1.737510   -2.897000    0.789666
     28          1           0       -1.037936   -1.317777    1.097561
     29         16           0        0.300271   -2.740585   -0.373456
     30          6           0        1.310685   -1.250286   -0.735975
     31          1           0        2.073157   -1.593162   -1.443279
     32          1           0        0.678352   -0.527163   -1.257098
     33          6           0        1.970302   -0.588954    0.481267
     34          1           0        1.230144   -0.405880    1.266767
     35          1           0        2.363929    0.394536    0.195375
     36         16           0        3.311448   -1.552486    1.284508
     37          6           0        4.734058   -1.160898    0.192883
     38          1           0        4.414003   -1.206087   -0.854301
     39          1           0        5.451002   -1.974952    0.338443
     40          6           0        5.396130    0.183222    0.506492
     41          1           0        4.666896    0.995604    0.422948
     42          1           0        5.776954    0.177093    1.533611
     43         16           0        6.790719    0.470833   -0.658370
     44          6           0        7.550176    1.976662    0.066928
     45          1           0        7.769422    1.783991    1.124029
     46          1           0        8.515146    2.068238   -0.443748
     47          6           0        6.739245    3.262571   -0.099921
     48          1           0        6.540526    3.466632   -1.156869
     49          1           0        5.776687    3.205346    0.419521
     50          1           0        7.287925    4.115936    0.318367
 ---------------------------------------------------------------------
 Standard basis: 6-31G(d) (6D, 7F)
   372 basis functions,   752 primitive gaussians,   372 cartesian basis functions
    93 alpha electrons       93 beta electrons
 Requested convergence on RMS density matrix=1.00D-08 within  64 cycles.
 Requested convergence on MAX density matrix=1.00D-06.
 Requested convergence on             energy=1.00D-06.
 SCF Done:  E(RB3LYP) =  -1971.74943305     A.U. after   11 cycles
            NFock= 11  Conv=0.53D-08     -V/T= 2.0058
 Step number   2 out of a maximum of   55
     Eigenvalues ---    0.00229   0.00230   0.00230   0.00230   0.00230
     Eigenvalues ---    0.00263   0.00406   0.00411   0.00444   0.00450
     Eigenvalues ---    0.00465   0.00488   0.00527   0.01439   0.01442
     Eigenvalues ---    0.01473   0.01477   0.01506   0.01568   0.04192
     Eigenvalues ---    0.04254   0.04326   0.04341   0.04489   0.04682
     Eigenvalues ---    0.04707   0.04779   0.04890   0.04988   0.05004
     Eigenvalues ---    0.05220   0.05521   0.05523   0.05608   0.05618
     Eigenvalues ---    0.05646   0.05650   0.05675   0.05718   0.05758
     Eigenvalues ---    0.05808   0.05832   0.05854   0.05903   0.05948
     Eigenvalues ---    0.06090   0.06174   0.10990   0.11284   0.11549
     Eigenvalues ---    0.11581   0.11641   0.11757   0.11783   0.11816
     Eigenvalues ---    0.11826   0.11895   0.11930   0.11932   0.13620
     Eigenvalues ---    0.13789   0.13882   0.13954   0.13968   0.14005
     Eigenvalues ---    0.14062   0.14075   0.14095   0.14104   0.14188
     Eigenvalues ---    0.14196   0.15991   0.16000   0.16000   0.16000
     Eigenvalues ---    0.16000   0.16011   0.19597   0.21997   0.22001
     Eigenvalues ---    0.22012   0.22030   0.22031   0.22041   0.22055
     Eigenvalues ---    0.22062   0.22067   0.22085   0.22144   0.23110
     Eigenvalues ---    0.24218   0.24345   0.24386   0.24432   0.24459
     Eigenvalues ---    0.24985   0.25000   0.25000   0.25000   0.25000
     Eigenvalues ---    0.28248   0.29701   0.29798   0.29939   0.30056
     Eigenvalues ---    0.30217   0.30374   0.33344   0.33544   0.33688
     Eigenvalues ---    0.33776   0.33829   0.33873   0.33976   0.34157
     Eigenvalues ---    0.34217   0.34223   0.34253   0.34276   0.34283
     Eigenvalues ---    0.34306   0.34311   0.34314   0.34337   0.34346
     Eigenvalues ---    0.34350   0.34360   0.34365   0.34378   0.34417
     Eigenvalues ---    0.34441   0.34445   0.34458   0.34466   0.34480
     Eigenvalues ---    0.34506   0.34620   0.35846   0.42566   0.42796
     Eigenvalues ---    0.42994   0.43231   0.43450   0.45582
 Maximum Force            0.006675     0.000015     NO 
 RMS     Force            0.000954     0.000010     NO 
 Maximum Displacement     0.999007     0.000060     NO 
 RMS     Displacement     0.328578     0.000040     NO 
                          Input orientation:                          
 ---------------------------------------------------------------------
 Center     Atomic      Atomic             Coordinates (Angstroms)
 Number     Number       Type             X           Y           Z
 ---------------------------------------------------------------------
      1          6           0       -7.921569    0.157475   -1.084865
      2          1           0       -8.162526    1.225697   -1.048707
      3          1           0       -7.270738   -0.017662   -1.948969
      4          1           0       -8.859191   -0.388908   -1.244475
      5          6           0       -7.245682   -0.324356    0.200296
      6          1           0       -7.902186   -0.148221    1.069664
      7          1           0       -7.059836   -1.402711    0.143271
      8          8           0       -5.968258    0.261905    0.437529
      9          6           0       -6.006338    1.599308    0.921738
     10          1           0       -6.623070    1.648277    1.837831
     11          1           0       -6.446029    2.287734    0.183989
     12          6           0       -4.591080    2.069319    1.254410
     13          1           0       -4.664879    2.954643    1.896849
     14          1           0       -4.086035    1.278175    1.830829
     15          8           0       -3.822089    2.485535    0.135321
     16          6           0       -3.321908    1.449021   -0.710155
     17          1           0       -3.109508    1.923419   -1.674118
     18          1           0       -4.076404    0.671278   -0.874012
     19          6           0       -2.025425    0.831735   -0.160915
     20          1           0       -2.162953    0.500953    0.879892
     21          1           0       -1.228346    1.583387   -0.160760
     22          8           0       -1.584656   -0.241245   -0.990719
     23          6           0       -2.132293   -1.518162   -0.661453
     24          1           0       -2.187764   -2.082162   -1.598686
     25          1           0       -3.156533   -1.409425   -0.269463
     26          6           0       -1.287000   -2.291979    0.357858
     27          1           0       -1.840866   -3.183211    0.678745
     28          1           0       -1.122150   -1.687004    1.258130
     29         16           0        0.313943   -2.956867   -0.257848
     30          6           0        1.249215   -1.427369   -0.676338
     31          1           0        2.038884   -1.760488   -1.358259
     32          1           0        0.584079   -0.765306   -1.239150
     33          6           0        1.851838   -0.674258    0.518493
     34          1           0        1.090586   -0.494070    1.285095
     35          1           0        2.201617    0.313453    0.190709
     36         16           0        3.229665   -1.530166    1.390044
     37          6           0        4.644590   -1.155609    0.274071
     38          1           0        4.340611   -1.319702   -0.766610
     39          1           0        5.406530   -1.907723    0.504020
     40          6           0        5.216978    0.252592    0.464655
     41          1           0        4.440961    1.006553    0.294974
     42          1           0        5.582796    0.368640    1.491018
     43         16           0        6.613560    0.514152   -0.713212
     44          6           0        7.263859    2.135716   -0.132138
     45          1           0        7.500392    2.054355    0.936325
     46          1           0        8.217285    2.248758   -0.660437
     47          6           0        6.357860    3.339428   -0.404802
     48          1           0        6.141251    3.433329   -1.474258
     49          1           0        5.403852    3.258078    0.127586
     50          1           0        6.844955    4.264688   -0.068995
 ---------------------------------------------------------------------
 Stoichiometry    C14H30O3S3
 Framework group  C1[X(C14H30O3S3)]
                         Standard orientation:                         
 ---------------------------------------------------------------------
 Center     Atomic      Atomic             Coordinates (Angstroms)
 Number     Number       Type             X           Y           Z
 ---------------------------------------------------------------------
      1          6           0       -7.937151    0.181204   -1.136872
      2          1           0       -8.179263    1.248488   -1.084401
      3          1           0       -7.282857    0.020620   -2.001187
      4          1           0       -8.873634   -0.363367   -1.308874
      5          6           0       -7.265719   -0.320708    0.142928
      6          1           0       -7.925708   -0.159216    1.012502
      7          1           0       -7.078628   -1.397835    0.069219
      8          8           0       -5.989771    0.262787    0.394491
      9          6           0       -6.030976    1.592164    0.900072
     10          1           0       -6.651250    1.625788    1.814464
     11          1           0       -6.468502    2.292017    0.171850
     12          6           0       -4.617449    2.058005    1.245712
     13          1           0       -4.694546    2.932777    1.902069
     14          1           0       -4.113855    1.258110    1.811220
     15          8           0       -3.844585    2.492919    0.136444
     16          6           0       -3.340189    1.470636   -0.723726
     17          1           0       -3.124561    1.960723   -1.679085
     18          1           0       -4.093312    0.694966   -0.903007
     19          6           0       -2.045226    0.845720   -0.179552
     20          1           0       -2.186413    0.498057    0.855246
     21          1           0       -1.248870    1.597982   -0.164208
     22          8           0       -1.600266   -0.213330   -1.024869
     23          6           0       -2.147939   -1.495884   -0.718358
     24          1           0       -2.199291   -2.044730   -1.664778
     25          1           0       -3.173772   -1.394404   -0.328595
     26          6           0       -1.305809   -2.285301    0.291565
     27          1           0       -1.860047   -3.182092    0.595899
     28          1           0       -1.144977   -1.694792    1.202110
     29         16           0        0.298109   -2.938735   -0.328647
     30          6           0        1.233513   -1.401846   -0.718806
     31          1           0        2.026099   -1.723209   -1.402981
     32          1           0        0.569901   -0.731377   -1.273406
     33          6           0        1.830848   -0.667585    0.490327
     34          1           0        1.066502   -0.500475    1.256812
     35          1           0        2.180935    0.325600    0.179871
     36         16           0        3.206151   -1.536222    1.353228
     37          6           0        4.624972   -1.142436    0.248881
     38          1           0        4.325127   -1.289979   -0.795472
     39          1           0        5.386745   -1.897485    0.469581
     40          6           0        5.195284    0.263015    0.464362
     41          1           0        4.419202    1.018925    0.303897
     42          1           0        5.557067    0.362805    1.493860
     43         16           0        6.596106    0.544802   -0.703765
     44          6           0        7.242633    2.157353   -0.094105
     45          1           0        7.475159    2.058965    0.973805
     46          1           0        8.197962    2.279760   -0.616849
     47          6           0        6.336534    3.364501   -0.350778
     48          1           0        6.123923    3.475461   -1.419403
     49          1           0        5.380578    3.273716    0.176565
     50          1           0        6.821460    4.284654    0.001784
 ---------------------------------------------------------------------
 Standard basis: 6-31G(d) (6D, 7F)
   372 basis functions,   752 primitive gaussians,   372 cartesian basis functions
    93 alpha electrons       93 beta electrons
 Requested convergence on RMS density matrix=1.00D-08 within  64 cycles.
 Requested convergence on MAX density matrix=1.00D-06.
 Requested convergence on             energy=1.00D-06.
 SCF Done:  E(RB3LYP) =  -1971.74940813     A.U. after   11 cycles
            NFock= 11  Conv=0.92D-08     -V/T= 2.0058
 Step number   3 out of a maximum of   55
     Eigenvalues ---    0.00228   0.00230   0.00230   0.00230   0.00230
     Eigenvalues ---    0.00391   0.00400   0.00408   0.00444   0.00465
     Eigenvalues ---    0.00488   0.00502   0.00671   0.01435   0.01440
     Eigenvalues ---    0.01473   0.01480   0.01504   0.01566   0.04265
     Eigenvalues ---    0.04328   0.04335   0.04496   0.04507   0.04708
     Eigenvalues ---    0.04745   0.04892   0.05006   0.05017   0.05101
     Eigenvalues ---    0.05302   0.05501   0.05523   0.05548   0.05603
     Eigenvalues ---    0.05618   0.05643   0.05663   0.05724   0.05728
     Eigenvalues ---    0.05802   0.05817   0.05859   0.05890   0.05939
     Eigenvalues ---    0.06059   0.06149   0.10946   0.11171   0.11452
     Eigenvalues ---    0.11544   0.11631   0.11738   0.11754   0.11826
     Eigenvalues ---    0.11840   0.11843   0.11874   0.11928   0.13338
     Eigenvalues ---    0.13613   0.13831   0.13886   0.13952   0.13958
     Eigenvalues ---    0.14062   0.14081   0.14093   0.14101   0.14146
     Eigenvalues ---    0.14159   0.15489   0.16000   0.16000   0.16000
     Eigenvalues ---    0.16000   0.16007   0.16394   0.21998   0.22004
     Eigenvalues ---    0.22012   0.22033   0.22037   0.22042   0.22057
     Eigenvalues ---    0.22065   0.22071   0.22114   0.23003   0.23101
     Eigenvalues ---    0.24216   0.24345   0.24386   0.24432   0.24484
     Eigenvalues ---    0.24988   0.25000   0.25000   0.25000   0.26953
     Eigenvalues ---    0.29674   0.29758   0.29877   0.30039   0.30209
     Eigenvalues ---    0.30364   0.32297   0.33471   0.33619   0.33753
     Eigenvalues ---    0.33828   0.33843   0.33929   0.34048   0.34168
     Eigenvalues ---    0.34218   0.34239   0.34264   0.34280   0.34285
     Eigenvalues ---    0.34306   0.34313   0.34324   0.34345   0.34346
     Eigenvalues ---    0.34357   0.34365   0.34370   0.34414   0.34441
     Eigenvalues ---    0.34443   0.34457   0.34466   0.34480   0.34501
     Eigenvalues ---    0.34518   0.35607   0.37278   0.42607   0.42775
     Eigenvalues ---    0.42994   0.43229   0.43625   0.45455
 Maximum Force            0.006988     0.000015     NO 
 RMS     Force            0.000874     0.000010     NO 
 Maximum Displacement     0.589040     0.000060     NO 
 RMS     Displacement     0.194039     0.000040     NO 
                          Input orientation:                          
 ---------------------------------------------------------------------
 Center     Atomic      Atomic             Coordinates (Angstroms)
 Number     Number       Type             X           Y           Z
 ---------------------------------------------------------------------
      1          6           0       -8.050323   -0.046761   -0.882703
      2          1           0       -8.336803    1.010532   -0.887771
      3          1           0       -7.447352   -0.242706   -1.776102
      4          1           0       -8.969651   -0.640646   -0.950833
      5          6           0       -7.274935   -0.425729    0.378910
      6          1           0       -7.882602   -0.228204    1.278090
      7          1           0       -7.041911   -1.496070    0.368006
      8          8           0       -6.015474    0.228565    0.498698
      9          6           0       -6.091467    1.587526    0.909348
     10          1           0       -6.649428    1.660851    1.860236
     11          1           0       -6.610931    2.209507    0.164944
     12          6           0       -4.683933    2.138599    1.119123
     13          1           0       -4.757614    3.058252    1.710785
     14          1           0       -4.104989    1.407251    1.704109
     15          8           0       -4.012640    2.515218   -0.072975
     16          6           0       -3.521273    1.444820   -0.878119
     17          1           0       -3.395561    1.856435   -1.884831
     18          1           0       -4.246752    0.625666   -0.932987
     19          6           0       -2.165612    0.928004   -0.375129
     20          1           0       -2.223890    0.657818    0.689929
     21          1           0       -1.408594    1.713437   -0.472466
     22          8           0       -1.725639   -0.174976   -1.162860
     23          6           0       -2.194168   -1.447474   -0.719528
     24          1           0       -2.281617   -2.075616   -1.612116
     25          1           0       -3.196306   -1.350553   -0.272317
     26          6           0       -1.259426   -2.114775    0.295170
     27          1           0       -1.766646   -2.990264    0.718743
     28          1           0       -1.052708   -1.438076    1.133343
     29         16           0        0.312210   -2.800038   -0.370736
     30          6           0        1.296745   -1.288552   -0.732751
     31          1           0        2.076045   -1.623068   -1.425596
     32          1           0        0.654893   -0.583843   -1.268547
     33          6           0        1.920008   -0.602682    0.489258
     34          1           0        1.163482   -0.425196    1.260634
     35          1           0        2.306745    0.382566    0.199177
     36         16           0        3.261588   -1.539995    1.330162
     37          6           0        4.689925   -1.171613    0.231682
     38          1           0        4.378568   -1.269566   -0.814655
     39          1           0        5.418060   -1.966262    0.423060
     40          6           0        5.320118    0.198393    0.492683
     41          1           0        4.578164    0.992662    0.360302
     42          1           0        5.690330    0.247325    1.522478
     43         16           0        6.726499    0.456668   -0.672168
     44          6           0        7.441741    2.016785   -0.009547
     45          1           0        7.658898    1.875506    1.056235
     46          1           0        8.405768    2.109192   -0.521795
     47          6           0        6.594072    3.269567   -0.237265
     48          1           0        6.396831    3.421239   -1.303497
     49          1           0        5.630445    3.206077    0.279718
     50          1           0        7.117112    4.155200    0.146470
 ---------------------------------------------------------------------
 Stoichiometry    C14H30O3S3
 Framework group  C1[X(C14H30O3S3)]
                         Standard orientation:                         
 ---------------------------------------------------------------------
 Center     Atomic      Atomic             Coordinates (Angstroms)
 Number     Number       Type             X           Y           Z
 ---------------------------------------------------------------------
      1          6           0       -8.066112   -0.060696   -0.884791
      2          1           0       -8.354557    0.996055   -0.891284
      3          1           0       -7.462501   -0.256647   -1.777757
      4          1           0       -8.984312   -0.656376   -0.952453
      5          6           0       -7.290410   -0.436626    0.377537
      6          1           0       -7.898722   -0.239097    1.276280
      7          1           0       -7.055392   -1.506545    0.368057
      8          8           0       -6.032205    0.220161    0.496885
      9          6           0       -6.110854    1.579496    0.905794
     10          1           0       -6.669244    1.652984    1.856417
     11          1           0       -6.631244    2.199568    0.160445
     12          6           0       -4.704412    2.133452    1.115304
     13          1           0       -4.779988    3.053712    1.705781
     14          1           0       -4.124289    1.403921    1.701392
     15          8           0       -4.033453    2.509813   -0.077063
     16          6           0       -3.539846    1.439314   -0.880703
     17          1           0       -3.414589    1.849891   -1.887895
     18          1           0       -4.263783    0.618744   -0.934758
     19          6           0       -2.183382    0.925658   -0.376643
     20          1           0       -2.241486    0.656709    0.688737
     21          1           0       -1.427796    1.712375   -0.474741
     22          8           0       -1.741114   -0.177495   -1.162845
     23          6           0       -2.207411   -1.450302   -0.718049
     24          1           0       -2.293416   -2.079733   -1.609869
     25          1           0       -3.209867   -1.354681   -0.271269
     26          6           0       -1.271744   -2.114580    0.297778
     27          1           0       -1.777465   -2.990476    0.722302
     28          1           0       -1.066544   -1.436439    1.135159
     29         16           0        0.301371   -2.797758   -0.366779
     30          6           0        1.283203   -1.284901   -0.730401
     31          1           0        2.063338   -1.618841   -1.422584
     32          1           0        0.640207   -0.582065   -1.267285
     33          6           0        1.904812   -0.596330    0.490931
     34          1           0        1.147718   -0.419277    1.261850
     35          1           0        2.289804    0.389269    0.199724
     36         16           0        3.247873   -1.530081    1.333431
     37          6           0        4.675862   -1.160431    0.234924
     38          1           0        4.365011   -1.260284   -0.811383
     39          1           0        5.405414   -1.953481    0.427530
     40          6           0        5.303424    0.211075    0.494387
     41          1           0        4.560034    1.003794    0.360775
     42          1           0        5.673226    0.261996    1.524234
     43         16           0        6.709682    0.470494   -0.670357
     44          6           0        7.421816    2.032776   -0.009489
     45          1           0        7.638905    1.893247    1.056538
     46          1           0        8.385828    2.126329   -0.521557
     47          6           0        6.571888    3.283689   -0.239050
     48          1           0        6.374695    3.433646   -1.305534
     49          1           0        5.608221    3.219059    0.277716
     50          1           0        7.093160    4.170778    0.143726
 ---------------------------------------------------------------------
 Standard basis: 6-31G(d) (6D, 7F)
   372 basis functions,   752 primitive gaussians,   372 cartesian basis functions
    93 alpha electrons       93 beta electrons
 Requested convergence on RMS density matrix=1.00D-08 within  64 cycles.
 Requested convergence on MAX density matrix=1.00D-06.
 Requested convergence on             energy=1.00D-06.
 SCF Done:  E(RB3LYP) =  -1971.74987094     A.U. after   11 cycles
            NFock= 11  Conv=0.66D-08     -V/T= 2.0058
 Step number   4 out of a maximum of   55
     Eigenvalues ---    0.00229   0.00230   0.00230   0.00230   0.00234
     Eigenvalues ---    0.00386   0.00395   0.00407   0.00444   0.00465
     Eigenvalues ---    0.00488   0.00549   0.00697   0.01403   0.01440
     Eigenvalues ---    0.01473   0.01475   0.01496   0.01544   0.04277
     Eigenvalues ---    0.04342   0.04347   0.04513   0.04611   0.04725
     Eigenvalues ---    0.04825   0.04977   0.05030   0.05035   0.05207
     Eigenvalues ---    0.05259   0.05526   0.05529   0.05553   0.05597
     Eigenvalues ---    0.05623   0.05640   0.05669   0.05725   0.05732
     Eigenvalues ---    0.05794   0.05803   0.05847   0.05888   0.05939
     Eigenvalues ---    0.06095   0.06162   0.10954   0.11265   0.11520
     Eigenvalues ---    0.11544   0.11626   0.11743   0.11777   0.11817
     Eigenvalues ---    0.11826   0.11855   0.11867   0.11916   0.13598
     Eigenvalues ---    0.13785   0.13844   0.13870   0.13944   0.14017
     Eigenvalues ---    0.14066   0.14074   0.14085   0.14092   0.14141
     Eigenvalues ---    0.14188   0.15925   0.16000   0.16000   0.16000
     Eigenvalues ---    0.16000   0.16002   0.20289   0.22000   0.22005
     Eigenvalues ---    0.22017   0.22034   0.22041   0.22049   0.22057
     Eigenvalues ---    0.22070   0.22086   0.22622   0.23096   0.23173
     Eigenvalues ---    0.24226   0.24345   0.24385   0.24433   0.24485
     Eigenvalues ---    0.24997   0.25000   0.25000   0.25205   0.29593
     Eigenvalues ---    0.29727   0.29770   0.29924   0.30020   0.30204
     Eigenvalues ---    0.30519   0.32844   0.33459   0.33608   0.33740
     Eigenvalues ---    0.33834   0.33849   0.33908   0.34128   0.34209
     Eigenvalues ---    0.34222   0.34263   0.34278   0.34281   0.34285
     Eigenvalues ---    0.34306   0.34310   0.34324   0.34346   0.34352
     Eigenvalues ---    0.34360   0.34370   0.34371   0.34402   0.34442
     Eigenvalues ---    0.34444   0.34456   0.34466   0.34478   0.34502
     Eigenvalues ---    0.34588   0.35550   0.39838   0.42643   0.42881
     Eigenvalues ---    0.43041   0.43243   0.43514   0.46755
 Maximum Force            0.002363     0.000015     NO 
 RMS     Force            0.000357     0.000010     NO 
 Maximum Displacement     0.178107     0.000060     NO 
 RMS     Displacement     0.051974     0.000040     NO 
                          Input orientation:                          
 ---------------------------------------------------------------------
 Center     Atomic      Atomic             Coordinates (Angstroms)
 Number     Number       Type             X           Y           Z
 ---------------------------------------------------------------------
      1          6           0       -8.106947    0.010750   -0.848162
      2          1           0       -8.356609    1.076868   -0.869188
      3          1           0       -7.519572   -0.221662   -1.742799
      4          1           0       -9.046438   -0.552255   -0.896841
      5          6           0       -7.333674   -0.371899    0.412453
      6          1           0       -7.925183   -0.137744    1.313029
      7          1           0       -7.136161   -1.449143    0.418291
      8          8           0       -6.052565    0.242519    0.508354
      9          6           0       -6.082479    1.609816    0.894589
     10          1           0       -6.627631    1.713006    1.849623
     11          1           0       -6.591862    2.234119    0.145777
     12          6           0       -4.658050    2.122574    1.081723
     13          1           0       -4.701953    3.050797    1.662298
     14          1           0       -4.091926    1.384151    1.669468
     15          8           0       -3.989596    2.472064   -0.120423
     16          6           0       -3.507416    1.385027   -0.908690
     17          1           0       -3.388546    1.775663   -1.924259
     18          1           0       -4.233880    0.566719   -0.939868
     19          6           0       -2.148864    0.879879   -0.406203
     20          1           0       -2.201787    0.619708    0.661242
     21          1           0       -1.395084    1.666267   -0.515860
     22          8           0       -1.710462   -0.230496   -1.183295
     23          6           0       -2.177997   -1.496450   -0.722911
     24          1           0       -2.265030   -2.136239   -1.606818
     25          1           0       -3.179249   -1.394134   -0.275654
     26          6           0       -1.240620   -2.146084    0.298447
     27          1           0       -1.740233   -3.020213    0.732953
     28          1           0       -1.034932   -1.457313    1.126545
     29         16           0        0.333267   -2.826298   -0.364373
     30          6           0        1.303019   -1.307120   -0.730269
     31          1           0        2.073692   -1.632122   -1.436767
     32          1           0        0.647451   -0.603260   -1.249855
     33          6           0        1.937846   -0.626968    0.486972
     34          1           0        1.191720   -0.461461    1.270524
     35          1           0        2.315022    0.362189    0.199259
     36         16           0        3.296152   -1.562243    1.301696
     37          6           0        4.709786   -1.157548    0.197649
     38          1           0        4.387119   -1.230807   -0.846776
     39          1           0        5.443879   -1.952112    0.362589
     40          6           0        5.332425    0.208362    0.487723
     41          1           0        4.585772    1.001469    0.379669
     42          1           0        5.712689    0.234487    1.514259
     43         16           0        6.726344    0.503007   -0.682988
     44          6           0        7.431783    2.053720    0.010088
     45          1           0        7.652776    1.890679    1.071433
     46          1           0        8.392592    2.164310   -0.504014
     47          6           0        6.572051    3.301758   -0.188532
     48          1           0        6.370447    3.473980   -1.250505
     49          1           0        5.610937    3.217279    0.329775
     50          1           0        7.087977    4.183401    0.212626
 ---------------------------------------------------------------------
 Stoichiometry    C14H30O3S3
 Framework group  C1[X(C14H30O3S3)]
                         Standard orientation:                         
 ---------------------------------------------------------------------
 Center     Atomic      Atomic             Coordinates (Angstroms)
 Number     Number       Type             X           Y           Z
 ---------------------------------------------------------------------
      1          6           0       -8.127862    0.006561   -0.842807
      2          1           0       -8.378625    1.072370   -0.866218
      3          1           0       -7.540221   -0.227239   -1.736907
      4          1           0       -9.066769   -0.557523   -0.890255
      5          6           0       -7.354231   -0.372474    0.418680
      6          1           0       -7.946009   -0.136923    1.318715
      7          1           0       -7.155604   -1.449498    0.426926
      8          8           0       -6.073761    0.243481    0.513245
      9          6           0       -6.105101    1.611605    0.896428
     10          1           0       -6.650388    1.716361    1.851214
     11          1           0       -6.615107    2.233708    0.146211
     12          6           0       -4.681208    2.126252    1.082457
     13          1           0       -4.726089    3.055722    1.660958
     14          1           0       -4.114339    1.389728    1.671863
     15          8           0       -4.013081    2.473750   -0.120448
     16          6           0       -3.529753    1.385456   -0.906275
     17          1           0       -3.411257    1.773949   -1.922709
     18          1           0       -4.255369    0.566330   -0.935647
     19          6           0       -2.170694    0.882836   -0.402624
     20          1           0       -2.223380    0.624993    0.665397
     21          1           0       -1.417725    1.669757   -0.514015
     22          8           0       -1.731121   -0.228815   -1.177226
     23          6           0       -2.197360   -1.494222   -0.714031
     24          1           0       -2.283705   -2.136071   -1.596510
     25          1           0       -3.198731   -1.391944   -0.267031
     26          6           0       -1.259342   -2.140605    0.308799
     27          1           0       -1.758064   -3.014280    0.745241
     28          1           0       -1.054391   -1.449777    1.135365
     29         16           0        0.315268   -2.820668   -0.352458
     30          6           0        1.283458   -1.301308   -0.721715
     31          1           0        2.054489   -1.627088   -1.427466
     32          1           0        0.627178   -0.599288   -1.242889
     33          6           0        1.917546   -0.617786    0.494022
     34          1           0        1.171225   -0.451303    1.277183
     35          1           0        2.293707    0.371116    0.204113
     36         16           0        3.276794   -1.549835    1.310868
     37          6           0        4.690042   -1.146142    0.205960
     38          1           0        4.367482   -1.222065   -0.838308
     39          1           0        5.424951   -1.939577    0.372692
     40          6           0        5.311259    0.221055    0.493003
     41          1           0        4.563789    1.013146    0.383159
     42          1           0        5.691465    0.249863    1.519488
     43         16           0        6.704907    0.514529   -0.678324
     44          6           0        7.408721    2.067514    0.011309
     45          1           0        7.629851    1.907069    1.073022
     46          1           0        8.369431    2.177950   -0.503012
     47          6           0        6.547704    3.314215   -0.190118
     48          1           0        6.345954    3.483859   -1.252478
     49          1           0        5.586663    3.229898    0.328350
     50          1           0        7.062706    4.197284    0.209086
 ---------------------------------------------------------------------
 Standard basis: 6-31G(d) (6D, 7F)
   372 basis functions,   752 primitive gaussians,   372 cartesian basis functions
    93 alpha electrons       93 beta electrons
 Requested convergence on RMS density matrix=1.00D-08 within  64 cycles.
 Requested convergence on MAX density matrix=1.00D-06.
 Requested convergence on             energy=1.00D-06.
 SCF Done:  E(RB3LYP) =  -1971.74993772     A.U. after   10 cycles
            NFock= 10  Conv=0.49D-08     -V/T= 2.0058
 Step number   5 out of a maximum of   55
     Eigenvalues ---    0.00227   0.00230   0.00230   0.00230   0.00242
     Eigenvalues ---    0.00338   0.00392   0.00408   0.00443   0.00464
     Eigenvalues ---    0.00488   0.00556   0.00687   0.01136   0.01442
     Eigenvalues ---    0.01473   0.01478   0.01504   0.01556   0.04287
     Eigenvalues ---    0.04335   0.04359   0.04528   0.04624   0.04736
     Eigenvalues ---    0.04905   0.05033   0.05047   0.05075   0.05184
     Eigenvalues ---    0.05509   0.05530   0.05535   0.05590   0.05604
     Eigenvalues ---    0.05632   0.05674   0.05714   0.05735   0.05775
     Eigenvalues ---    0.05801   0.05810   0.05883   0.05919   0.06055
     Eigenvalues ---    0.06154   0.06188   0.10938   0.11311   0.11507
     Eigenvalues ---    0.11550   0.11624   0.11728   0.11768   0.11813
     Eigenvalues ---    0.11835   0.11848   0.11887   0.11911   0.13592
     Eigenvalues ---    0.13721   0.13789   0.13868   0.13936   0.14023
     Eigenvalues ---    0.14057   0.14078   0.14083   0.14129   0.14169
     Eigenvalues ---    0.14301   0.15994   0.15999   0.16000   0.16000
     Eigenvalues ---    0.16000   0.16039   0.20131   0.21838   0.22003
     Eigenvalues ---    0.22017   0.22029   0.22036   0.22048   0.22063
     Eigenvalues ---    0.22064   0.22125   0.22872   0.23101   0.23464
     Eigenvalues ---    0.24219   0.24345   0.24379   0.24432   0.24486
     Eigenvalues ---    0.24932   0.24998   0.25000   0.27080   0.29584
     Eigenvalues ---    0.29700   0.29804   0.29899   0.30023   0.30200
     Eigenvalues ---    0.31539   0.32432   0.33479   0.33625   0.33745
     Eigenvalues ---    0.33824   0.33841   0.33915   0.34122   0.34150
     Eigenvalues ---    0.34219   0.34253   0.34268   0.34281   0.34287
     Eigenvalues ---    0.34298   0.34306   0.34320   0.34346   0.34351
     Eigenvalues ---    0.34361   0.34369   0.34371   0.34409   0.34429
     Eigenvalues ---    0.34443   0.34448   0.34462   0.34480   0.34487
     Eigenvalues ---    0.34511   0.36848   0.38762   0.42703   0.42843
     Eigenvalues ---    0.43130   0.43337   0.44901   0.47135
 Maximum Force            0.000659     0.000015     NO 
 RMS     Force            0.000136     0.000010     NO 
 Maximum Displacement     0.250096     0.000060     NO 
 RMS     Displacement     0.058140     0.000040     NO 
                          Input orientation:                          
 ---------------------------------------------------------------------
 Center     Atomic      Atomic             Coordinates (Angstroms)
 Number     Number       Type             X           Y           Z
 ---------------------------------------------------------------------
      1          6           0       -8.128664    0.114662   -0.897595
      2          1           0       -8.347340    1.187581   -0.902422
      3          1           0       -7.536741   -0.118731   -1.788742
      4          1           0       -9.083173   -0.419910   -0.967964
      5          6           0       -7.382629   -0.311950    0.364985
      6          1           0       -7.978134   -0.077127    1.262481
      7          1           0       -7.216034   -1.394270    0.353297
      8          8           0       -6.085620    0.263531    0.487585
      9          6           0       -6.080117    1.623095    0.900910
     10          1           0       -6.628331    1.722815    1.854401
     11          1           0       -6.566240    2.275741    0.161291
     12          6           0       -4.643685    2.091724    1.105220
     13          1           0       -4.664150    3.013763    1.696887
     14          1           0       -4.103673    1.329646    1.686593
     15          8           0       -3.958060    2.433032   -0.089740
     16          6           0       -3.483524    1.338704   -0.873247
     17          1           0       -3.362219    1.722596   -1.890937
     18          1           0       -4.215922    0.525914   -0.899395
     19          6           0       -2.127343    0.830009   -0.370124
     20          1           0       -2.181916    0.564764    0.695834
     21          1           0       -1.374667    1.617787   -0.474781
     22          8           0       -1.685485   -0.276261   -1.151853
     23          6           0       -2.147854   -1.546350   -0.697344
     24          1           0       -2.233689   -2.181376   -1.584521
     25          1           0       -3.148924   -1.450289   -0.248616
     26          6           0       -1.206246   -2.198280    0.317936
     27          1           0       -1.699648   -3.077646    0.748509
     28          1           0       -1.000562   -1.513496    1.149022
     29         16           0        0.369603   -2.863528   -0.355294
     30          6           0        1.323373   -1.332933   -0.715883
     31          1           0        2.094666   -1.644392   -1.427539
     32          1           0        0.656744   -0.634361   -1.228244
     33          6           0        1.955035   -0.655146    0.503329
     34          1           0        1.210623   -0.503760    1.291152
     35          1           0        2.321308    0.339630    0.221739
     36         16           0        3.327440   -1.581550    1.304757
     37          6           0        4.729783   -1.157101    0.193041
     38          1           0        4.402014   -1.236465   -0.849031
     39          1           0        5.476739   -1.939843    0.355336
     40          6           0        5.331444    0.218170    0.478421
     41          1           0        4.572673    0.999440    0.370720
     42          1           0        5.715868    0.252591    1.502876
     43         16           0        6.716556    0.532960   -0.698181
     44          6           0        7.394355    2.100535   -0.014642
     45          1           0        7.621071    1.945873    1.046448
     46          1           0        8.351139    2.227678   -0.532102
     47          6           0        6.509261    3.329606   -0.216396
     48          1           0        6.301917    3.493128   -1.278460
     49          1           0        5.551338    3.227482    0.304401
     50          1           0        7.007637    4.223309    0.179880
 ---------------------------------------------------------------------
 Stoichiometry    C14H30O3S3
 Framework group  C1[X(C14H30O3S3)]
                         Standard orientation:                         
 ---------------------------------------------------------------------
 Center     Atomic      Atomic             Coordinates (Angstroms)
 Number     Number       Type             X           Y           Z
 ---------------------------------------------------------------------
      1          6           0       -8.155304    0.106425   -0.897682
      2          1           0       -8.376607    1.178808   -0.901974
      3          1           0       -7.562365   -0.124980   -1.788671
      4          1           0       -9.108465   -0.430441   -0.968851
      5          6           0       -7.408859   -0.319117    0.365016
      6          1           0       -8.005387   -0.086293    1.262354
      7          1           0       -7.239606   -1.401018    0.352762
      8          8           0       -6.113326    0.259466    0.488613
      9          6           0       -6.111361    1.618791    0.902757
     10          1           0       -6.660296    1.716594    1.856032
     11          1           0       -6.598712    2.270689    0.163285
     12          6           0       -4.676184    2.090815    1.108070
     13          1           0       -4.699205    3.012445    1.700280
     14          1           0       -4.134598    1.329714    1.689256
     15          8           0       -3.990799    2.434521   -0.086340
     16          6           0       -3.513191    1.341831   -0.870266
     17          1           0       -3.392318    1.726630   -1.887664
     18          1           0       -4.243582    0.527264   -0.897269
     19          6           0       -2.156020    0.836157   -0.366767
     20          1           0       -2.210476    0.570139    0.699004
     21          1           0       -1.405224    1.625841   -0.470573
     22          8           0       -1.711061   -0.268556   -1.148938
     23          6           0       -2.170543   -1.540048   -0.695423
     24          1           0       -2.254377   -2.174748   -1.583025
     25          1           0       -3.172070   -1.446709   -0.247141
     26          6           0       -1.227849   -2.190279    0.319938
     27          1           0       -1.719310   -3.071109    0.749735
     28          1           0       -1.024260   -1.505492    1.151538
     29         16           0        0.349963   -2.851258   -0.352899
     30          6           0        1.300159   -1.318115   -0.712091
     31          1           0        2.072569   -1.627255   -1.423546
     32          1           0        0.632077   -0.620869   -1.224367
     33          6           0        1.929548   -0.639515    0.507846
     34          1           0        1.184373   -0.490428    1.295385
     35          1           0        2.293523    0.356325    0.227036
     36         16           0        3.303817   -1.563036    1.309406
     37          6           0        4.705673   -1.134483    0.198650
     38          1           0        4.378621   -1.214023   -0.843634
     39          1           0        5.454463   -1.915489    0.360851
     40          6           0        5.303818    0.242087    0.485157
     41          1           0        4.543190    1.021559    0.377544
     42          1           0        5.687644    0.276833    1.509826
     43         16           0        6.688744    0.560977   -0.690559
     44          6           0        7.362357    2.129797   -0.005739
     45          1           0        7.588919    1.975053    1.055372
     46          1           0        8.319085    2.259596   -0.522642
     47          6           0        6.474355    3.356817   -0.207200
     48          1           0        6.267142    3.520469   -1.269269
     49          1           0        5.516424    3.252032    0.313054
     50          1           0        6.970341    4.251500    0.189863
 ---------------------------------------------------------------------
 Standard basis: 6-31G(d) (6D, 7F)
   372 basis functions,   752 primitive gaussians,   372 cartesian basis functions
    93 alpha electrons       93 beta electrons
 Requested convergence on RMS density matrix=1.00D-08 within  64 cycles.
 Requested convergence on MAX density matrix=1.00D-06.
 Requested convergence on             energy=1.00D-06.
 SCF Done:  E(RB3LYP) =  -1971.74997164     A.U. after   10 cycles
            NFock= 10  Conv=0.45D-08     -V/T= 2.0058
 Step number   6 out of a maximum of   55
     Eigenvalues ---    0.00127   0.00230   0.00230   0.00233   0.00235
     Eigenvalues ---    0.00281   0.00392   0.00408   0.00444   0.00465
     Eigenvalues ---    0.00488   0.00516   0.00686   0.00779   0.01442
     Eigenvalues ---    0.01472   0.01474   0.01508   0.01558   0.04298
     Eigenvalues ---    0.04366   0.04407   0.04558   0.04662   0.04734
     Eigenvalues ---    0.04914   0.05026   0.05051   0.05094   0.05289
     Eigenvalues ---    0.05531   0.05537   0.05584   0.05599   0.05626
     Eigenvalues ---    0.05672   0.05678   0.05734   0.05769   0.05801
     Eigenvalues ---    0.05806   0.05855   0.05871   0.05954   0.06074
     Eigenvalues ---    0.06160   0.06333   0.10955   0.11306   0.11507
     Eigenvalues ---    0.11555   0.11625   0.11710   0.11778   0.11815
     Eigenvalues ---    0.11817   0.11846   0.11871   0.11914   0.13522
     Eigenvalues ---    0.13635   0.13790   0.13878   0.13931   0.14012
     Eigenvalues ---    0.14052   0.14065   0.14089   0.14094   0.14165
     Eigenvalues ---    0.14418   0.15992   0.16000   0.16000   0.16000
     Eigenvalues ---    0.16009   0.16041   0.20639   0.21503   0.22005
     Eigenvalues ---    0.22029   0.22032   0.22048   0.22060   0.22063
     Eigenvalues ---    0.22105   0.22377   0.22971   0.23156   0.23552
     Eigenvalues ---    0.24237   0.24349   0.24401   0.24432   0.24486
     Eigenvalues ---    0.24982   0.25000   0.25194   0.27120   0.29683
     Eigenvalues ---    0.29748   0.29801   0.29945   0.30050   0.30263
     Eigenvalues ---    0.31502   0.33429   0.33527   0.33617   0.33759
     Eigenvalues ---    0.33836   0.33877   0.33983   0.34131   0.34213
     Eigenvalues ---    0.34231   0.34265   0.34280   0.34285   0.34295
     Eigenvalues ---    0.34305   0.34316   0.34338   0.34346   0.34351
     Eigenvalues ---    0.34362   0.34370   0.34380   0.34419   0.34441
     Eigenvalues ---    0.34443   0.34459   0.34472   0.34481   0.34507
     Eigenvalues ---    0.36026   0.36788   0.42664   0.42838   0.42940
     Eigenvalues ---    0.43241   0.44082   0.45861   0.53463
 Maximum Force            0.000516     0.000015     NO 
 RMS     Force            0.000105     0.000010     NO 
 Maximum Displacement     0.498439     0.000060     NO 
 RMS     Displacement     0.108729     0.000040     NO 
                          Input orientation:                          
 ---------------------------------------------------------------------
 Center     Atomic      Atomic             Coordinates (Angstroms)
 Number     Number       Type             X           Y           Z
 ---------------------------------------------------------------------
      1          6           0       -8.193944    0.316038   -0.978589
      2          1           0       -8.345963    1.399981   -0.957370
      3          1           0       -7.598307    0.070447   -1.863633
      4          1           0       -9.177702   -0.156147   -1.082734
      5          6           0       -7.502586   -0.189300    0.285581
      6          1           0       -8.101001    0.056979    1.177632
      7          1           0       -7.401509   -1.278892    0.245836
      8          8           0       -6.175537    0.302212    0.449537
      9          6           0       -6.095742    1.645323    0.906089
     10          1           0       -6.644834    1.746639    1.858711
     11          1           0       -6.536456    2.347174    0.183925
     12          6           0       -4.637129    2.023187    1.131602
     13          1           0       -4.607457    2.935053    1.738530
     14          1           0       -4.147791    1.220500    1.702064
     15          8           0       -3.925143    2.338843   -0.055545
     16          6           0       -3.463693    1.224477   -0.819799
     17          1           0       -3.346387    1.583856   -1.846672
     18          1           0       -4.202134    0.417361   -0.821878
     19          6           0       -2.105702    0.725266   -0.315891
     20          1           0       -2.157994    0.457887    0.749489
     21          1           0       -1.361781    1.520955   -0.419735
     22          8           0       -1.651587   -0.375768   -1.099333
     23          6           0       -2.094270   -1.652839   -0.644337
     24          1           0       -2.175298   -2.287191   -1.532041
     25          1           0       -3.094609   -1.571471   -0.191474
     26          6           0       -1.138184   -2.292663    0.363916
     27          1           0       -1.613159   -3.181031    0.795991
     28          1           0       -0.935337   -1.606079    1.193727
     29         16           0        0.444149   -2.926808   -0.325408
     30          6           0        1.361147   -1.372797   -0.684856
     31          1           0        2.126913   -1.658322   -1.412757
     32          1           0        0.668410   -0.685948   -1.177759
     33          6           0        1.996834   -0.697254    0.531822
     34          1           0        1.263251   -0.572765    1.334044
     35          1           0        2.338815    0.307886    0.257828
     36         16           0        3.403067   -1.604172    1.297932
     37          6           0        4.775382   -1.138188    0.163430
     38          1           0        4.426755   -1.211231   -0.871818
     39          1           0        5.540133   -1.907762    0.301864
     40          6           0        5.353340    0.244269    0.454969
     41          1           0        4.578970    1.012067    0.367072
     42          1           0        5.756261    0.275656    1.471913
     43         16           0        6.712387    0.600459   -0.742271
     44          6           0        7.361799    2.180737   -0.057330
     45          1           0        7.604809    2.023422    0.999290
     46          1           0        8.308115    2.334236   -0.586244
     47          6           0        6.443409    3.387204   -0.240212
     48          1           0        6.220026    3.552510   -1.298487
     49          1           0        5.494659    3.256215    0.290475
     50          1           0        6.922603    4.290788    0.156905
 ---------------------------------------------------------------------
 Stoichiometry    C14H30O3S3
 Framework group  C1[X(C14H30O3S3)]
                         Standard orientation:                         
 ---------------------------------------------------------------------
 Center     Atomic      Atomic             Coordinates (Angstroms)
 Number     Number       Type             X           Y           Z
 ---------------------------------------------------------------------
      1          6           0       -8.232128    0.309511   -0.983855
      2          1           0       -8.388672    1.392607   -0.954042
      3          1           0       -7.634287    0.073590   -1.870042
      4          1           0       -9.213776   -0.165880   -1.093188
      5          6           0       -7.540379   -0.203219    0.277120
      6          1           0       -8.141010    0.033322    1.170317
      7          1           0       -7.434726   -1.292024    0.228667
      8          8           0       -6.215602    0.292433    0.446893
      9          6           0       -6.141997    1.632108    0.914448
     10          1           0       -6.692785    1.723405    1.867104
     11          1           0       -6.584649    2.337975    0.197401
     12          6           0       -4.685269    2.014161    1.145033
     13          1           0       -4.660198    2.921180    1.759387
     14          1           0       -4.193371    1.208897    1.709630
     15          8           0       -3.973004    2.342401   -0.038529
     16          6           0       -3.505906    1.236202   -0.811173
     17          1           0       -3.388712    1.604398   -1.834930
     18          1           0       -4.240987    0.426080   -0.820825
     19          6           0       -2.146533    0.738538   -0.309464
     20          1           0       -2.199147    0.462294    0.753636
     21          1           0       -1.405782    1.538118   -0.405817
     22          8           0       -1.686800   -0.354202   -1.101196
     23          6           0       -2.124789   -1.636751   -0.657198
     24          1           0       -2.201990   -2.264198   -1.550137
     25          1           0       -3.126065   -1.563208   -0.205069
     26          6           0       -1.167413   -2.280786    0.347141
     27          1           0       -1.639277   -3.174594    0.771331
     28          1           0       -0.968533   -1.600135    1.182780
     29         16           0        0.418464   -2.902751   -0.345129
     30          6           0        1.329487   -1.342088   -0.690680
[...]
     18          1           0       -4.226896    0.133177   -0.627845
     19          6           0       -2.111937    0.499461   -0.222926
     20          1           0       -2.127330    0.244644    0.847677
     21          1           0       -1.401245    1.321896   -0.353900
     22          8           0       -1.639721   -0.591534   -1.007793
     23          6           0       -2.003119   -1.881387   -0.523904
     24          1           0       -2.075468   -2.532867   -1.400377
     25          1           0       -2.995177   -1.845220   -0.046243
     26          6           0       -0.991938   -2.459937    0.469687
     27          1           0       -1.417183   -3.362606    0.924268
     28          1           0       -0.806186   -1.753848    1.287751
     29         16           0        0.601812   -3.033545   -0.243476
     30          6           0        1.449168   -1.451860   -0.647278
     31          1           0        2.214903   -1.723003   -1.381216
     32          1           0        0.726170   -0.800269   -1.145095
     33          6           0        2.078723   -0.724843    0.545137
     34          1           0        1.351937   -0.608313    1.355209
     35          1           0        2.375898    0.287101    0.243286
     36         16           0        3.527914   -1.560717    1.309220
     37          6           0        4.866585   -1.068476    0.148731
     38          1           0        4.508277   -1.171074   -0.881410
     39          1           0        5.659678   -1.809533    0.286766
     40          6           0        5.405451    0.338478    0.406993
     41          1           0        4.602419    1.077942    0.327553
     42          1           0        5.825598    0.397618    1.416378
     43         16           0        6.726029    0.719857   -0.821997
     44          6           0        7.364572    2.311349   -0.157337
     45          1           0        7.645656    2.161397    0.891560
     46          1           0        8.291170    2.483416   -0.715395
     47          6           0        6.419646    3.502825   -0.310107
     48          1           0        6.157607    3.663181   -1.360617
     49          1           0        5.491228    3.357273    0.252267
     50          1           0        6.896445    4.415276    0.069892
 ---------------------------------------------------------------------
 Stoichiometry    C14H30O3S3
 Framework group  C1[X(C14H30O3S3)]
                         Standard orientation:                         
 ---------------------------------------------------------------------
 Center     Atomic      Atomic             Coordinates (Angstroms)
 Number     Number       Type             X           Y           Z
 ---------------------------------------------------------------------
      1          6           0       -8.332128    0.812885   -1.184437
      2          1           0       -8.330932    1.899434   -1.047717
      3          1           0       -7.704028    0.576398   -2.049588
      4          1           0       -9.360462    0.506755   -1.409929
      5          6           0       -7.826303    0.078792    0.056021
      6          1           0       -8.458475    0.312382    0.928512
      7          1           0       -7.874928   -1.003648   -0.104521
      8          8           0       -6.463034    0.351065    0.362712
      9          6           0       -6.238854    1.595902    1.004546
     10          1           0       -6.784806    1.629676    1.964579
     11          1           0       -6.585192    2.439078    0.389063
     12          6           0       -4.748746    1.765314    1.269746
     13          1           0       -4.613454    2.603599    1.963456
     14          1           0       -4.363928    0.857158    1.757388
     15          8           0       -4.002431    2.092456    0.107882
     16          6           0       -3.557356    0.985655   -0.673763
     17          1           0       -3.493233    1.334834   -1.709592
     18          1           0       -4.279391    0.163108   -0.640235
     19          6           0       -2.167672    0.527827   -0.217391
     20          1           0       -2.185034    0.240253    0.844852
     21          1           0       -1.460951    1.357579   -0.320800
     22          8           0       -1.687240   -0.536136   -1.033750
     23          6           0       -2.045288   -1.842083   -0.590772
     24          1           0       -2.111459   -2.466774   -1.487014
     25          1           0       -3.039001   -1.825736   -0.115468
     26          6           0       -1.034139   -2.445527    0.387932
     27          1           0       -1.455995   -3.363902    0.813270
     28          1           0       -0.854675   -1.763875    1.227834
     29         16           0        0.564838   -2.988707   -0.337256
     30          6           0        1.405038   -1.391001   -0.689670
     31          1           0        2.174473   -1.635539   -1.429063
     32          1           0        0.680139   -0.728239   -1.169658
     33          6           0        2.027023   -0.697587    0.526496
     34          1           0        1.297119   -0.609717    1.337380
     35          1           0        2.319759    0.324664    0.256744
     36         16           0        3.478252   -1.548918    1.269351
     37          6           0        4.817885   -1.014387    0.128854
     38          1           0        4.463325   -1.087242   -0.905109
     39          1           0        5.614468   -1.755184    0.246720
     40          6           0        5.348474    0.386782    0.431833
     41          1           0        4.541779    1.124140    0.372453
     42          1           0        5.765168    0.417158    1.443921
     43         16           0        6.670816    0.812508   -0.780587
     44          6           0        7.298839    2.386195   -0.065426
     45          1           0        7.577459    2.205645    0.979298
     46          1           0        8.226238    2.580102   -0.614927
     47          6           0        6.348083    3.576854   -0.184725
     48          1           0        6.088457    3.767951   -1.230682
     49          1           0        5.418710    3.409306    0.369896
     50          1           0        6.818851    4.479705    0.224589
 ---------------------------------------------------------------------
 Standard basis: 6-31G(d) (6D, 7F)
   372 basis functions,   752 primitive gaussians,   372 cartesian basis functions
    93 alpha electrons       93 beta electrons
 Requested convergence on RMS density matrix=1.00D-08 within  64 cycles.
 Requested convergence on MAX density matrix=1.00D-06.
 Requested convergence on             energy=1.00D-06.
 SCF Done:  E(RB3LYP) =  -1971.75016122     A.U. after    3 cycles
            NFock=  3  Conv=0.56D-08     -V/T= 2.0058
 Step number  28 out of a maximum of   55
     Eigenvalues ---    0.00211   0.00227   0.00241   0.00332   0.00379
     Eigenvalues ---    0.00413   0.00446   0.00453   0.00457   0.00505
     Eigenvalues ---    0.00551   0.00570   0.00589   0.00646   0.00747
     Eigenvalues ---    0.00825   0.01183   0.01437   0.01529   0.04439
     Eigenvalues ---    0.04590   0.04644   0.04733   0.04760   0.04885
     Eigenvalues ---    0.05030   0.05060   0.05133   0.05202   0.05338
     Eigenvalues ---    0.05516   0.05560   0.05566   0.05589   0.05627
     Eigenvalues ---    0.05670   0.05698   0.05719   0.05723   0.05795
     Eigenvalues ---    0.05817   0.05872   0.05931   0.05978   0.06106
     Eigenvalues ---    0.06196   0.06485   0.10355   0.11257   0.11298
     Eigenvalues ---    0.11456   0.11534   0.11682   0.11753   0.11784
     Eigenvalues ---    0.11811   0.11884   0.11917   0.12053   0.13157
     Eigenvalues ---    0.13602   0.13714   0.13780   0.13913   0.14039
     Eigenvalues ---    0.14065   0.14105   0.14115   0.14143   0.14202
     Eigenvalues ---    0.14487   0.15902   0.15951   0.15992   0.16004
     Eigenvalues ---    0.16014   0.16032   0.19235   0.20177   0.21228
     Eigenvalues ---    0.21724   0.21906   0.22185   0.22366   0.22409
     Eigenvalues ---    0.22572   0.22991   0.23322   0.23496   0.24238
     Eigenvalues ---    0.24309   0.24418   0.24479   0.24546   0.24842
     Eigenvalues ---    0.25599   0.26124   0.26501   0.27640   0.29693
     Eigenvalues ---    0.29920   0.29934   0.29989   0.30213   0.30395
     Eigenvalues ---    0.31687   0.33482   0.33565   0.33631   0.33740
     Eigenvalues ---    0.33819   0.33866   0.34023   0.34180   0.34192
     Eigenvalues ---    0.34274   0.34275   0.34293   0.34297   0.34310
     Eigenvalues ---    0.34331   0.34337   0.34347   0.34363   0.34382
     Eigenvalues ---    0.34394   0.34416   0.34424   0.34436   0.34449
     Eigenvalues ---    0.34493   0.34508   0.34524   0.34569   0.34650
     Eigenvalues ---    0.35552   0.36868   0.40440   0.41816   0.42727
     Eigenvalues ---    0.43045   0.43339   0.46402   0.49077
 Maximum Force            0.000000     0.000015     YES
 RMS     Force            0.000000     0.000010     YES
 Maximum Displacement     0.000030     0.000060     YES
 RMS     Displacement     0.000009     0.000040     YES
 Optimization completed.
    -- Stationary point found.
                          Input orientation:                          
 ---------------------------------------------------------------------
 Center     Atomic      Atomic             Coordinates (Angstroms)
 Number     Number       Type             X           Y           Z
 ---------------------------------------------------------------------
      1          6           0       -8.277947    0.787483   -1.179122
      2          1           0       -8.270645    1.877687   -1.075759
      3          1           0       -7.653914    0.521287   -2.038566
      4          1           0       -9.308592    0.480054   -1.391939
      5          6           0       -7.771908    0.089044    0.081668
      6          1           0       -8.400004    0.352592    0.948550
      7          1           0       -7.826694   -0.997531   -0.045485
      8          8           0       -6.406245    0.363341    0.375643
      9          6           0       -6.173491    1.626040    0.978339
     10          1           0       -6.716124    1.692092    1.938576
     11          1           0       -6.517439    2.451802    0.338391
     12          6           0       -4.681662    1.795584    1.233600
     13          1           0       -4.539742    2.653987    1.900879
     14          1           0       -4.299991    0.900756    1.747641
     15          8           0       -3.937450    2.083031    0.059949
     16          6           0       -3.500699    0.950469   -0.688797
     17          1           0       -3.438139    1.267422   -1.735032
     18          1           0       -4.226896    0.133177   -0.627845
     19          6           0       -2.111937    0.499461   -0.222926
     20          1           0       -2.127330    0.244644    0.847677
     21          1           0       -1.401245    1.321896   -0.353900
     22          8           0       -1.639721   -0.591534   -1.007793
     23          6           0       -2.003119   -1.881387   -0.523904
     24          1           0       -2.075468   -2.532867   -1.400377
     25          1           0       -2.995177   -1.845220   -0.046243
     26          6           0       -0.991938   -2.459937    0.469687
     27          1           0       -1.417183   -3.362606    0.924268
     28          1           0       -0.806186   -1.753848    1.287751
     29         16           0        0.601812   -3.033545   -0.243476
     30          6           0        1.449168   -1.451860   -0.647278
     31          1           0        2.214903   -1.723003   -1.381216
     32          1           0        0.726170   -0.800269   -1.145095
     33          6           0        2.078723   -0.724843    0.545137
     34          1           0        1.351937   -0.608313    1.355209
     35          1           0        2.375898    0.287101    0.243286
     36         16           0        3.527914   -1.560717    1.309220
     37          6           0        4.866585   -1.068476    0.148731
     38          1           0        4.508277   -1.171074   -0.881410
     39          1           0        5.659678   -1.809533    0.286766
     40          6           0        5.405451    0.338478    0.406993
     41          1           0        4.602419    1.077942    0.327553
     42          1           0        5.825598    0.397618    1.416378
     43         16           0        6.726029    0.719857   -0.821997
     44          6           0        7.364572    2.311349   -0.157337
     45          1           0        7.645656    2.161397    0.891560
     46          1           0        8.291170    2.483416   -0.715395
     47          6           0        6.419646    3.502825   -0.310107
     48          1           0        6.157607    3.663181   -1.360617
     49          1           0        5.491228    3.357273    0.252267
     50          1           0        6.896445    4.415276    0.069892
 ---------------------------------------------------------------------
 Stoichiometry    C14H30O3S3
 Framework group  C1[X(C14H30O3S3)]
                         Standard orientation:                         
 ---------------------------------------------------------------------
 Center     Atomic      Atomic             Coordinates (Angstroms)
 Number     Number       Type             X           Y           Z
 ---------------------------------------------------------------------
      1          6           0       -8.332128    0.812885   -1.184437
      2          1           0       -8.330932    1.899434   -1.047717
      3          1           0       -7.704028    0.576398   -2.049588
      4          1           0       -9.360462    0.506755   -1.409929
      5          6           0       -7.826303    0.078792    0.056021
      6          1           0       -8.458475    0.312382    0.928512
      7          1           0       -7.874928   -1.003648   -0.104521
      8          8           0       -6.463034    0.351065    0.362712
      9          6           0       -6.238854    1.595902    1.004546
     10          1           0       -6.784806    1.629676    1.964579
     11          1           0       -6.585192    2.439078    0.389063
     12          6           0       -4.748746    1.765314    1.269746
     13          1           0       -4.613454    2.603599    1.963456
     14          1           0       -4.363928    0.857158    1.757388
     15          8           0       -4.002431    2.092456    0.107882
     16          6           0       -3.557356    0.985655   -0.673763
     17          1           0       -3.493233    1.334834   -1.709592
     18          1           0       -4.279391    0.163108   -0.640235
     19          6           0       -2.167672    0.527827   -0.217391
     20          1           0       -2.185034    0.240253    0.844852
     21          1           0       -1.460951    1.357579   -0.320800
     22          8           0       -1.687240   -0.536136   -1.033750
     23          6           0       -2.045288   -1.842083   -0.590772
     24          1           0       -2.111459   -2.466774   -1.487014
     25          1           0       -3.039001   -1.825736   -0.115468
     26          6           0       -1.034139   -2.445527    0.387932
     27          1           0       -1.455995   -3.363902    0.813270
     28          1           0       -0.854675   -1.763875    1.227834
     29         16           0        0.564838   -2.988707   -0.337256
     30          6           0        1.405038   -1.391001   -0.689670
     31          1           0        2.174473   -1.635539   -1.429063
     32          1           0        0.680139   -0.728239   -1.169658
     33          6           0        2.027023   -0.697587    0.526496
     34          1           0        1.297119   -0.609717    1.337380
     35          1           0        2.319759    0.324664    0.256744
     36         16           0        3.478252   -1.548918    1.269351
     37          6           0        4.817885   -1.014387    0.128854
     38          1           0        4.463325   -1.087242   -0.905109
     39          1           0        5.614468   -1.755184    0.246720
     40          6           0        5.348474    0.386782    0.431833
     41          1           0        4.541779    1.124140    0.372453
     42          1           0        5.765168    0.417158    1.443921
     43         16           0        6.670816    0.812508   -0.780587
     44          6           0        7.298839    2.386195   -0.065426
     45          1           0        7.577459    2.205645    0.979298
     46          1           0        8.226238    2.580102   -0.614927
     47          6           0        6.348083    3.576854   -0.184725
     48          1           0        6.088457    3.767951   -1.230682
     49          1           0        5.418710    3.409306    0.369896
     50          1           0        6.818851    4.479705    0.224589
 ---------------------------------------------------------------------
 Mulliken charges:
     1  C   -0.458298
     2  H    0.153066
     3  H    0.160534
     4  H    0.145727
     5  C   -0.016078
     6  H    0.121034
     7  H    0.146064
     8  O   -0.471718
     9  C   -0.019955
    10  H    0.114878
    11  H    0.137431
    12  C   -0.047496
    13  H    0.145059
    14  H    0.131559
    15  O   -0.475431
    16  C   -0.057315
    17  H    0.151010
    18  H    0.162593
    19  C   -0.053359
    20  H    0.122790
    21  H    0.150942
    22  O   -0.467836
    23  C   -0.025098
    24  H    0.165008
    25  H    0.132586
    26  C   -0.435168
    27  H    0.174598
    28  H    0.169371
    29  S    0.097575
    30  C   -0.421057
    31  H    0.177921
    32  H    0.208582
    33  C   -0.414303
    34  H    0.178131
    35  H    0.170146
    36  S    0.107660
    37  C   -0.437878
    38  H    0.183252
    39  H    0.194218
    40  C   -0.390475
    41  H    0.171947
    42  H    0.178093
    43  S    0.073552
    44  C   -0.407372
    45  H    0.168620
    46  H    0.176217
    47  C   -0.436474
    48  H    0.163651
    49  H    0.152236
    50  H    0.149260
 Sum of Mulliken charges =  -0.00000
 Dipole moment (field-independent basis, Debye):
    X=             -3.8682    Y=              2.7930    Z=              1.6618  Tot=              5.0522
 Quadrupole moment (field-independent basis, Debye-Ang):
   XX=           -123.0608   YY=           -152.2122   ZZ=           -149.7173
   XY=             14.2501   XZ=             -1.7041   YZ=              3.5679
 Traceless Quadrupole moment (field-independent basis, Debye-Ang):
   XX=             18.6026   YY=            -10.5488   ZZ=             -8.0539
   XY=             14.2501   XZ=             -1.7041   YZ=              3.5679
 Octapole moment (field-independent basis, Debye-Ang**2):
  XXX=           -261.1010  YYY=             37.6937  ZZZ=             -0.4354  XYY=             -8.7739
  XXY=             83.7102  XXZ=             45.6082  XZZ=            -39.5228  YZZ=             11.3800
  YYZ=              3.2632  XYZ=              1.5121
 Hexadecapole moment (field-independent basis, Debye-Ang**3):
 XXXX=         -19498.2733 YYYY=          -3029.1481 ZZZZ=           -749.3326 XXXY=            343.3227
 XXXZ=            207.7746 YYYX=            149.7785 YYYZ=              3.1342 ZZZX=            -24.0193
 ZZZY=             13.4245 XXYY=          -3800.0752 XXZZ=          -3717.4148 YYZZ=           -612.5891
 XXYZ=            121.1650 YYXZ=            -48.6693 ZZXY=            -23.8223
 Job cpu time:       0 days  6 hours 46 minutes 13.2 seconds.
 Normal termination of Gaussian 16 at Sun Jul  9 06:55:54 2023.
