 Copyright (c) 1988-2019, Gaussian, Inc.  All Rights Reserved.
  
 This is part of the Gaussian(R) 16 program.  It is based on
 the Gaussian(R) 09 system (copyright 2009, Gaussian, Inc.),
 the Gaussian(R) 03 system (copyright 2003, Gaussian, Inc.),
 the Gaussian(R) 98 system (copyright 1998, Gaussian, Inc.),
 the Gaussian(R) 94 system (copyright 1995, Gaussian, Inc.),
 the Gaussian 92(TM) system (copyright 1992, Gaussian, Inc.),
 the Gaussian 90(TM) system (copyright 1990, Gaussian, Inc.),
 the Gaussian 88(TM) system (copyright 1988, Gaussian, Inc.),
 the Gaussian 86(TM) system (copyright 1986, Carnegie Mellon
 University), and the Gaussian 82(TM) system (copyright 1983,
 Carnegie Mellon University). Gaussian is a federally registered
 trademark of Gaussian, Inc.
 Cite this work as:
 Gaussian 16, Revision C.01,
 M. J. Frisch, G. W. Trucks, H. B. Schlegel, G. E. Scuseria, 
 M. A. Robb, J. R. Cheeseman, G. Scalmani, V. Barone, 
 G. A. Petersson, H. Nakatsuji, X. Li, M. Caricato, A. V. Marenich, 
 J. Bloino, B. G. Janesko, R. Gomperts, B. Mennucci, H. P. Hratchian, 
 J. V. Ortiz, A. F. Izmaylov, J. L. Sonnenberg, D. Williams-Young, 
 F. Ding, F. Lipparini, F. Egidi, J. Goings, B. Peng, A. Petrone, 
 T. Henderson, D. Ranasinghe, V. G. Zakrzewski, J. Gao, N. Rega, 
 G. Zheng, W. Liang, M. Hada, M. Ehara, K. Toyota, R. Fukuda, 
 J. Hasegawa, M. Ishida, T. Nakajima, Y. Honda, O. Kitao, H. Nakai, 
 T. Vreven, K. Throssell, J. A. Montgomery, Jr., J. E. Peralta, 
 F. Ogliaro, M. J. Bearpark, J. J. Heyd, E. N. Brothers, K. N. Kudin, 
 V. N. Staroverov, T. A. Keith, R. Kobayashi, J. Normand, 
 K. Raghavachari, A. P. Rendell, J. C. Burant, S. S. Iyengar, 
 J. Tomasi, M. Cossi, J. M. Millam, M. Klene, C. Adamo, R. Cammi, 
 J. W. Ochterski, R. L. Martin, K. Morokuma, O. Farkas, 
 J. B. Foresman, and D. J. Fox, Gaussian, Inc., Wallingford CT, 2019.
 
 ******************************************
 Gaussian 16:  EM64L-G16RevC.01  3-Jul-2019
                 9-Jul-2023 
 ******************************************
 ----------------------------------------------------------------------
 #P B3LYP/6-31G(d) Integral=Ultrafine Opt=(Tight,MaxCycle=55) GFInput G
 FPrint SCF(Conver=8,XQC,MaxConventionalCycles=64,MaxCycle=128) Test
 ----------------------------------------------------------------------
 1/6=55,7=10,18=20,19=15,26=4,38=1/1,3;
 2/9=110,12=2,17=6,18=5,40=1/2;
 3/5=1,6=6,7=1,11=2,24=110,25=1,30=1,71=1,74=-5,75=-5/1,2,3;
 4//1;
 5/5=2,6=8,7=128,8=3,13=1,38=5,85=64/2,8;
 6/7=2,8=2,9=2,10=2,28=1/1;
 7//1,2,3,16;
 1/6=55,7=10,18=20,19=15,26=4/3(2);
 2/9=110/2;
 99//99;
 2/9=110/2;
 3/5=1,6=6,7=1,11=2,25=1,30=1,71=1,74=-5,75=-5/1,2,3;
 4/5=5,16=3,69=1/1;
 5/5=2,6=8,7=128,8=3,13=1,38=5,85=64/2,8;
 7//1,2,3,16;
 1/6=55,7=10,18=20,19=15,26=4/3(-5);
 2/9=110/2;
 6/7=2,8=2,9=2,10=2,19=2,28=1/1;
 99/9=1/99;
 ----------------------------------------------------------
 Optimization step - Input generated by PyRED DVE-DMDS-OPLS
 ----------------------------------------------------------
 Symbolic Z-matrix:
 Charge =  0 Multiplicity = 1
 C                     10.561    1.765     1.05 
 H                     10.726    2.829     1.244 
 H                     10.585    1.229     2.003 
 H                     11.379    1.392     0.428 
 C                     9.232     1.55      0.356 
 H                     8.411     1.936     0.978 
 H                     9.201     2.096    -0.6 
 O                     9.082     0.164     0.119 
 C                     7.906    -0.19     -0.571 
 H                     8.1      -1.143    -1.07 
 H                     7.659     0.551    -1.345 
 C                     6.723    -0.357     0.371 
 H                     6.958    -1.125     1.124 
 H                     6.513     0.581     0.909 
 O                     5.613    -0.736    -0.408 
 C                     4.445    -0.95      0.344 
 H                     4.151    -0.032     0.88 
 H                     4.595    -1.737     1.098 
 C                     3.348    -1.373    -0.62 
 H                     3.635    -2.305    -1.113 
 H                     3.228    -0.607    -1.397 
 O                     2.14     -1.611     0.074 
 C                     1.276    -0.497     0.17 
 H                     1.837     0.442     0.268 
 H                     0.696    -0.63      1.088 
 C                     0.344    -0.422    -1.036 
 H                    -0.18     -1.373    -1.159 
 H                     0.919    -0.254    -1.951 
 S                    -0.844     0.955    -0.936 
 C                    -2.118     0.248     0.166 
 H                    -1.647    -0.23      1.027 
 H                    -2.674     1.109     0.545 
 C                    -3.052    -0.726    -0.543 
 H                    -2.495    -1.586    -0.922 
 H                    -3.521    -0.248    -1.407 
 S                    -4.326    -1.434     0.555 
 C                    -5.508    -0.049     0.683 
 H                    -4.973     0.883     0.881 
 H                    -6.107    -0.259     1.573 
 C                    -6.403     0.098    -0.544 
 H                    -5.797     0.276    -1.435 
 H                    -6.966    -0.823    -0.723 
 S                    -7.572     1.498    -0.429 
 C                    -9.104     0.668     0.112 
 H                    -9.865     1.451     0.044 
 H                    -9.367    -0.094    -0.629 
 C                    -9.078     0.077     1.514 
 H                    -8.366    -0.75      1.589 
 H                    -8.802     0.832     2.255 
 H                    -10.066   -0.318     1.776 
 
 ITRead=  0  0  0  0  0  0  0  0  0  0  0  0  0  0  0  0  0  0  0  0
 ITRead=  0  0  0  0  0  0  0  0  0  0  0  0  0  0  0  0  0  0  0  0
 ITRead=  0  0  0  0  0  0  0  0  0  0
 MicOpt= -1 -1 -1 -1 -1 -1 -1 -1 -1 -1 -1 -1 -1 -1 -1 -1 -1 -1 -1 -1
 MicOpt= -1 -1 -1 -1 -1 -1 -1 -1 -1 -1 -1 -1 -1 -1 -1 -1 -1 -1 -1 -1
 MicOpt= -1 -1 -1 -1 -1 -1 -1 -1 -1 -1
 NAtoms=     50 NQM=       50 NQMF=       0 NMMI=      0 NMMIF=      0
                NMic=       0 NMicF=      0.
                          Input orientation:                          
 ---------------------------------------------------------------------
 Center     Atomic      Atomic             Coordinates (Angstroms)
 Number     Number       Type             X           Y           Z
 ---------------------------------------------------------------------
      1          6           0       10.561000    1.765000    1.050000
      2          1           0       10.726000    2.829000    1.244000
      3          1           0       10.585000    1.229000    2.003000
      4          1           0       11.379000    1.392000    0.428000
      5          6           0        9.232000    1.550000    0.356000
      6          1           0        8.411000    1.936000    0.978000
      7          1           0        9.201000    2.096000   -0.600000
      8          8           0        9.082000    0.164000    0.119000
      9          6           0        7.906000   -0.190000   -0.571000
     10          1           0        8.100000   -1.143000   -1.070000
     11          1           0        7.659000    0.551000   -1.345000
     12          6           0        6.723000   -0.357000    0.371000
     13          1           0        6.958000   -1.125000    1.124000
     14          1           0        6.513000    0.581000    0.909000
     15          8           0        5.613000   -0.736000   -0.408000
     16          6           0        4.445000   -0.950000    0.344000
     17          1           0        4.151000   -0.032000    0.880000
     18          1           0        4.595000   -1.737000    1.098000
     19          6           0        3.348000   -1.373000   -0.620000
     20          1           0        3.635000   -2.305000   -1.113000
     21          1           0        3.228000   -0.607000   -1.397000
     22          8           0        2.140000   -1.611000    0.074000
     23          6           0        1.276000   -0.497000    0.170000
     24          1           0        1.837000    0.442000    0.268000
     25          1           0        0.696000   -0.630000    1.088000
     26          6           0        0.344000   -0.422000   -1.036000
     27          1           0       -0.180000   -1.373000   -1.159000
     28          1           0        0.919000   -0.254000   -1.951000
     29         16           0       -0.844000    0.955000   -0.936000
     30          6           0       -2.118000    0.248000    0.166000
     31          1           0       -1.647000   -0.230000    1.027000
     32          1           0       -2.674000    1.109000    0.545000
     33          6           0       -3.052000   -0.726000   -0.543000
     34          1           0       -2.495000   -1.586000   -0.922000
     35          1           0       -3.521000   -0.248000   -1.407000
     36         16           0       -4.326000   -1.434000    0.555000
     37          6           0       -5.508000   -0.049000    0.683000
     38          1           0       -4.973000    0.883000    0.881000
     39          1           0       -6.107000   -0.259000    1.573000
     40          6           0       -6.403000    0.098000   -0.544000
     41          1           0       -5.797000    0.276000   -1.435000
     42          1           0       -6.966000   -0.823000   -0.723000
     43         16           0       -7.572000    1.498000   -0.429000
     44          6           0       -9.104000    0.668000    0.112000
     45          1           0       -9.865000    1.451000    0.044000
     46          1           0       -9.367000   -0.094000   -0.629000
     47          6           0       -9.078000    0.077000    1.514000
     48          1           0       -8.366000   -0.750000    1.589000
     49          1           0       -8.802000    0.832000    2.255000
     50          1           0      -10.066000   -0.318000    1.776000
 ---------------------------------------------------------------------
 Stoichiometry    C14H30O3S3
 Framework group  C1[X(C14H30O3S3)]
                         Standard orientation:                         
 ---------------------------------------------------------------------
 Center     Atomic      Atomic             Coordinates (Angstroms)
 Number     Number       Type             X           Y           Z
 ---------------------------------------------------------------------
      1          6           0       10.560979    1.765219    1.049646
      2          1           0       10.725989    2.829262    1.243403
      3          1           0       10.584974    1.229437    2.002768
      4          1           0       11.378976    1.392070    0.427731
      5          6           0        9.231977    1.550074    0.355695
      6          1           0        8.410981    1.936224    0.977606
      7          1           0        9.200982    2.095856   -0.600430
      8          8           0        9.081964    0.164021    0.119011
      9          6           0        7.905961   -0.190125   -0.570908
     10          1           0        8.099951   -1.143241   -1.069690
     11          1           0        7.658968    0.550700   -1.345077
     12          6           0        6.722959   -0.356899    0.371130
     13          1           0        6.957952   -1.124729    1.124306
     14          1           0        6.512968    0.581226    0.908916
     15          8           0        5.612955   -0.736066   -0.407783
     16          6           0        4.444953   -0.949883    0.344266
     17          1           0        4.150962   -0.031758    0.880056
     18          1           0        4.594946   -1.736712    1.098445
     19          6           0        3.347949   -1.373093   -0.619638
     20          1           0        3.634940   -2.305208   -1.112425
     21          1           0        3.227957   -0.607269   -1.396813
     22          8           0        2.139947   -1.610923    0.074416
     23          6           0        1.275958   -0.496893    0.170162
     24          1           0        1.836967    0.442124    0.267947
     25          1           0        0.695956   -0.629677    1.088192
     26          6           0        0.343958   -0.422159   -1.035855
     27          1           0       -0.180051   -1.373182   -1.158638
     28          1           0        0.918960   -0.254374   -1.950894
     29         16           0       -0.844028    0.954875   -0.936170
     30          6           0       -2.118035    0.248139    0.165992
     31          1           0       -1.647040   -0.229669    1.027101
     32          1           0       -2.674027    1.109231    0.544795
     33          6           0       -3.052045   -0.726014   -0.542786
     34          1           0       -2.495053   -1.586106   -0.921589
     35          1           0       -3.521040   -0.248207   -1.406895
     36         16           0       -4.326051   -1.433751    0.555376
     37          6           0       -5.508038   -0.048711    0.683059
     38          1           0       -4.973029    0.883329    0.880846
     39          1           0       -6.107040   -0.258502    1.573107
     40          6           0       -6.403037    0.098018   -0.543974
     41          1           0       -5.797035    0.275808   -1.435015
     42          1           0       -6.966045   -0.823018   -0.722764
     43         16           0       -7.572023    1.498055   -0.429294
     44          6           0       -9.104031    0.668193    0.111895
     45          1           0       -9.865024    1.451185    0.043717
     46          1           0       -9.367039   -0.093973   -0.628931
     47          6           0       -9.078037    0.077513    1.514030
     48          1           0       -8.366045   -0.749476    1.589219
     49          1           0       -8.802030    0.832680    2.254858
     50          1           0      -10.066041   -0.317417    1.776121
 ---------------------------------------------------------------------
 Standard basis: 6-31G(d) (6D, 7F)
   372 basis functions,   752 primitive gaussians,   372 cartesian basis functions
    93 alpha electrons       93 beta electrons
 Requested convergence on RMS density matrix=1.00D-08 within  64 cycles.
 Requested convergence on MAX density matrix=1.00D-06.
 Requested convergence on             energy=1.00D-06.
 SCF Done:  E(RB3LYP) =  -1971.75316819     A.U. after   13 cycles
            NFock= 13  Conv=0.34D-08     -V/T= 2.0056
 Mulliken charges:
     1  C   -0.452274
     2  H    0.142907
     3  H    0.157774
     4  H    0.159599
     5  C   -0.013431
     6  H    0.120465
     7  H    0.121910
     8  O   -0.469345
     9  C   -0.037158
    10  H    0.153559
    11  H    0.129454
    12  C   -0.022547
    13  H    0.132239
    14  H    0.121165
    15  O   -0.482471
    16  C   -0.015704
    17  H    0.120709
    18  H    0.133166
    19  C   -0.053059
    20  H    0.157393
    21  H    0.134932
    22  O   -0.470673
    23  C   -0.027309
    24  H    0.140576
    25  H    0.151153
    26  C   -0.436608
    27  H    0.180410
    28  H    0.180317
    29  S    0.088514
    30  C   -0.418206
    31  H    0.188467
    32  H    0.183364
    33  C   -0.416893
    34  H    0.183981
    35  H    0.186205
    36  S    0.086175
    37  C   -0.414619
    38  H    0.182995
    39  H    0.187209
    40  C   -0.415699
    41  H    0.182634
    42  H    0.182165
    43  S    0.085281
    44  C   -0.408661
    45  H    0.178445
    46  H    0.171212
    47  C   -0.439040
    48  H    0.153562
    49  H    0.163924
    50  H    0.151838
 Sum of Mulliken charges =  -0.00000
 Dipole moment (field-independent basis, Debye):
    X=             -0.8843    Y=              0.4121    Z=              0.7185  Tot=              1.2116
 Quadrupole moment (field-independent basis, Debye-Ang):
   XX=           -134.5234   YY=           -154.6312   ZZ=           -148.1110
   XY=             15.1742   XZ=             -2.8629   YZ=              4.9621
 Traceless Quadrupole moment (field-independent basis, Debye-Ang):
   XX=             11.2318   YY=             -8.8760   ZZ=             -2.3558
   XY=             15.1742   XZ=             -2.8629   YZ=              4.9621
 Octapole moment (field-independent basis, Debye-Ang**2):
  XXX=           -240.9764  YYY=             -6.1331  ZZZ=              0.5812  XYY=             72.2661
  XXY=             46.1260  XXZ=             57.5166  XZZ=             32.6487  YZZ=             -6.2379
  YYZ=             -0.6692  XYZ=            -11.2007
 Hexadecapole moment (field-independent basis, Debye-Ang**3):
 XXXX=         -32161.8186 YYYY=          -1181.6537 ZZZZ=           -684.2521 XXXY=           1136.6742
 XXXZ=           -355.5792 YYYX=              5.4126 YYYZ=             17.5701 ZZZX=            -23.1026
 ZZZY=             11.2430 XXYY=          -5855.4899 XXZZ=          -5762.0623 YYZZ=           -311.2834
 XXYZ=            134.1762 YYXZ=             -8.1889 ZZXY=              6.4921
 Step number   1 out of a maximum of   55
     Eigenvalues ---    0.00230   0.00230   0.00230   0.00230   0.00230
     Eigenvalues ---    0.00230   0.00422   0.00424   0.00444   0.00479
     Eigenvalues ---    0.00483   0.00496   0.00572   0.01505   0.01515
     Eigenvalues ---    0.01519   0.01577   0.01585   0.01619   0.04280
     Eigenvalues ---    0.04500   0.04514   0.04520   0.04538   0.04559
     Eigenvalues ---    0.04969   0.04990   0.05102   0.05392   0.05423
     Eigenvalues ---    0.05426   0.05529   0.05604   0.05654   0.05658
     Eigenvalues ---    0.05660   0.05666   0.05679   0.05722   0.05739
     Eigenvalues ---    0.05784   0.05859   0.05960   0.05966   0.05990
     Eigenvalues ---    0.05996   0.06015   0.11125   0.11139   0.11210
     Eigenvalues ---    0.11439   0.11472   0.11552   0.11556   0.11562
     Eigenvalues ---    0.11564   0.11567   0.11601   0.11893   0.13630
     Eigenvalues ---    0.13644   0.13671   0.13851   0.13889   0.13905
     Eigenvalues ---    0.13923   0.13933   0.13938   0.13939   0.13951
     Eigenvalues ---    0.14113   0.16000   0.16000   0.16000   0.16000
     Eigenvalues ---    0.16000   0.16000   0.21944   0.21947   0.21951
     Eigenvalues ---    0.21996   0.22003   0.22006   0.22007   0.22013
     Eigenvalues ---    0.22014   0.22022   0.22039   0.22052   0.24064
     Eigenvalues ---    0.24112   0.24221   0.24256   0.24282   0.24501
     Eigenvalues ---    0.25000   0.25000   0.25000   0.25000   0.25000
     Eigenvalues ---    0.25000   0.29796   0.29812   0.29949   0.30204
     Eigenvalues ---    0.30229   0.30328   0.30890   0.33360   0.33513
     Eigenvalues ---    0.33531   0.33579   0.33663   0.33686   0.33724
     Eigenvalues ---    0.33882   0.33941   0.34149   0.34248   0.34333
     Eigenvalues ---    0.34348   0.34355   0.34356   0.34372   0.34394
     Eigenvalues ---    0.34394   0.34435   0.34443   0.34450   0.34453
     Eigenvalues ---    0.34458   0.34497   0.34497   0.34499   0.34500
     Eigenvalues ---    0.34529   0.34565   0.34625   0.43362   0.43479
     Eigenvalues ---    0.43525   0.44211   0.44313   0.44716
 Maximum Force            0.006528     0.000015     NO 
 RMS     Force            0.001694     0.000010     NO 
 Maximum Displacement     0.496246     0.000060     NO 
 RMS     Displacement     0.102365     0.000040     NO 
                          Input orientation:                          
 ---------------------------------------------------------------------
 Center     Atomic      Atomic             Coordinates (Angstroms)
 Number     Number       Type             X           Y           Z
 ---------------------------------------------------------------------
      1          6           0       10.716784    1.739823    1.031971
      2          1           0       10.899092    2.802266    1.227564
      3          1           0       10.742816    1.201786    1.985216
      4          1           0       11.526254    1.357045    0.402007
      5          6           0        9.373679    1.545529    0.346315
      6          1           0        8.564145    1.946529    0.977583
      7          1           0        9.342488    2.099107   -0.607615
      8          8           0        9.195036    0.157006    0.103598
      9          6           0        8.003882   -0.184692   -0.581009
     10          1           0        8.188523   -1.138700   -1.086466
     11          1           0        7.757075    0.559456   -1.354420
     12          6           0        6.815487   -0.350811    0.368267
     13          1           0        7.051185   -1.122358    1.119330
     14          1           0        6.614443    0.586830    0.913588
     15          8           0        5.692194   -0.722151   -0.407786
     16          6           0        4.517556   -0.934716    0.347982
     17          1           0        4.229379   -0.017711    0.891197
     18          1           0        4.664242   -1.726602    1.100552
     19          6           0        3.406399   -1.349141   -0.616164
     20          1           0        3.688964   -2.281444   -1.116307
     21          1           0        3.288791   -0.580367   -1.393290
     22          8           0        2.192504   -1.592813    0.080644
     23          6           0        1.312493   -0.482058    0.184947
     24          1           0        1.862507    0.464592    0.284795
     25          1           0        0.743656   -0.626123    1.109912
     26          6           0        0.359554   -0.408350   -1.014696
     27          1           0       -0.155837   -1.366071   -1.140374
     28          1           0        0.922708   -0.228177   -1.936569
     29         16           0       -0.852314    0.964343   -0.900211
     30          6           0       -2.145734    0.237026    0.187651
     31          1           0       -1.681614   -0.266282    1.041066
     32          1           0       -2.691853    1.097533    0.586682
     33          6           0       -3.097830   -0.712137   -0.546236
     34          1           0       -2.550336   -1.571960   -0.944905
     35          1           0       -3.559259   -0.209595   -1.401909
     36         16           0       -4.391965   -1.440748    0.537833
     37          6           0       -5.599523   -0.060524    0.678829
     38          1           0       -5.073071    0.878923    0.874976
     39          1           0       -6.183716   -0.280885    1.576410
     40          6           0       -6.517940    0.079695   -0.540686
     41          1           0       -5.923917    0.267337   -1.440487
     42          1           0       -7.072643   -0.847728   -0.717125
     43         16           0       -7.709443    1.478293   -0.416255
     44          6           0       -9.263171    0.638700    0.093047
     45          1           0      -10.027921    1.413835   -0.029429
     46          1           0       -9.491226   -0.145889   -0.637967
     47          6           0       -9.299896    0.085298    1.517512
     48          1           0       -8.587719   -0.735819    1.651737
     49          1           0       -9.064602    0.863871    2.250275
     50          1           0      -10.298305   -0.309970    1.744421
 ---------------------------------------------------------------------
 Stoichiometry    C14H30O3S3
 Framework group  C1[X(C14H30O3S3)]
                         Standard orientation:                         
 ---------------------------------------------------------------------
 Center     Atomic      Atomic             Coordinates (Angstroms)
 Number     Number       Type             X           Y           Z
 ---------------------------------------------------------------------
      1          6           0       10.724777    1.733271    1.037018
      2          1           0       10.907623    2.795534    1.233083
      3          1           0       10.749872    1.194898    1.990098
      4          1           0       11.534407    1.350200    0.407437
      5          6           0        9.381985    1.540043    0.350448
      6          1           0        8.572302    1.941336    0.981339
      7          1           0        9.351742    2.093961   -0.603315
      8          8           0        9.202631    0.151713    0.107151
      9          6           0        8.011697   -0.189013   -0.578323
     10          1           0        8.196064   -1.142966   -1.083983
     11          1           0        7.765843    0.555548   -1.351639
     12          6           0        6.822599   -0.354710    0.370147
     13          1           0        7.057342   -1.126656    1.121098
     14          1           0        6.621795    0.582873    0.915655
     15          8           0        5.699566   -0.725089   -0.406741
     16          6           0        4.524319   -0.937176    0.348213
     17          1           0        4.236369   -0.020174    0.891554
     18          1           0        4.670035   -1.729406    1.100610
     19          6           0        3.413513   -1.350586   -0.616773
     20          1           0        3.695814   -2.282897   -1.117052
     21          1           0        3.296875   -0.581477   -1.393715
     22          8           0        2.199026   -1.593735    0.079186
     23          6           0        1.319641   -0.482467    0.183305
     24          1           0        1.870181    0.463807    0.283819
     25          1           0        0.750130   -0.626489    1.107862
     26          6           0        0.367507   -0.407763   -1.016915
     27          1           0       -0.148401   -1.365121   -1.143240
     28          1           0        0.931356   -0.227631   -1.938371
     29         16           0       -0.843578    0.965646   -0.902734
     30          6           0       -2.138138    0.238769    0.184067
     31          1           0       -1.674871   -0.265114    1.037605
     32          1           0       -2.683973    1.099483    0.583041
     33          6           0       -3.090361   -0.709554   -0.550741
     34          1           0       -2.543151   -1.569584   -0.949354
     35          1           0       -3.550936   -0.206437   -1.406536
     36         16           0       -4.385634   -1.437722    0.532265
     37          6           0       -5.592421   -0.056793    0.672961
     38          1           0       -5.065509    0.882259    0.869757
     39          1           0       -6.177318   -0.277092    1.570100
     40          6           0       -6.509980    0.084407   -0.547086
     41          1           0       -5.915272    0.271981   -1.446449
     42          1           0       -7.065149   -0.842612   -0.724187
     43         16           0       -7.700690    1.483705   -0.422938
     44          6           0       -9.255262    0.644909    0.085100
     45          1           0      -10.019452    1.420561   -0.037598
     46          1           0       -9.483344   -0.139292   -0.646322
     47          6           0       -9.293233    0.091052    1.509356
     48          1           0       -8.581652   -0.730553    1.643755
     49          1           0       -9.057916    0.869232    2.242529
     50          1           0      -10.292030   -0.303671    1.735501
 ---------------------------------------------------------------------
 Standard basis: 6-31G(d) (6D, 7F)
   372 basis functions,   752 primitive gaussians,   372 cartesian basis functions
    93 alpha electrons       93 beta electrons
 Requested convergence on RMS density matrix=1.00D-08 within  64 cycles.
 Requested convergence on MAX density matrix=1.00D-06.
 Requested convergence on             energy=1.00D-06.
 SCF Done:  E(RB3LYP) =  -1971.75416947     A.U. after   10 cycles
            NFock= 10  Conv=0.51D-08     -V/T= 2.0058
 Step number   2 out of a maximum of   55
     Eigenvalues ---    0.00228   0.00230   0.00230   0.00230   0.00230
     Eigenvalues ---    0.00252   0.00422   0.00424   0.00444   0.00479
     Eigenvalues ---    0.00483   0.00496   0.00572   0.01505   0.01516
     Eigenvalues ---    0.01521   0.01578   0.01585   0.01619   0.04225
     Eigenvalues ---    0.04464   0.04476   0.04489   0.04507   0.04531
     Eigenvalues ---    0.04920   0.04946   0.05057   0.05359   0.05387
     Eigenvalues ---    0.05389   0.05513   0.05619   0.05646   0.05652
     Eigenvalues ---    0.05660   0.05673   0.05676   0.05722   0.05735
     Eigenvalues ---    0.05764   0.05870   0.05973   0.05986   0.06000
     Eigenvalues ---    0.06017   0.06115   0.11149   0.11161   0.11223
     Eigenvalues ---    0.11472   0.11499   0.11577   0.11594   0.11601
     Eigenvalues ---    0.11603   0.11609   0.11640   0.11942   0.13654
     Eigenvalues ---    0.13668   0.13691   0.13878   0.13918   0.13933
     Eigenvalues ---    0.13947   0.13957   0.13959   0.13962   0.13979
     Eigenvalues ---    0.14153   0.15976   0.16000   0.16000   0.16000
     Eigenvalues ---    0.16000   0.16014   0.20307   0.21941   0.21948
     Eigenvalues ---    0.21973   0.21997   0.22004   0.22006   0.22010
     Eigenvalues ---    0.22016   0.22017   0.22038   0.22049   0.23158
     Eigenvalues ---    0.24086   0.24153   0.24238   0.24278   0.24456
     Eigenvalues ---    0.24996   0.25000   0.25000   0.25000   0.25000
     Eigenvalues ---    0.27191   0.29794   0.29890   0.30059   0.30214
     Eigenvalues ---    0.30294   0.30812   0.32354   0.33374   0.33516
     Eigenvalues ---    0.33549   0.33599   0.33675   0.33702   0.33786
     Eigenvalues ---    0.33900   0.33982   0.34152   0.34263   0.34320
     Eigenvalues ---    0.34350   0.34351   0.34355   0.34371   0.34394
     Eigenvalues ---    0.34401   0.34435   0.34438   0.34447   0.34454
     Eigenvalues ---    0.34474   0.34496   0.34498   0.34500   0.34524
     Eigenvalues ---    0.34557   0.34605   0.34846   0.43192   0.43453
     Eigenvalues ---    0.43555   0.44254   0.44451   0.44641
 Maximum Force            0.002407     0.000015     NO 
 RMS     Force            0.000456     0.000010     NO 
 Maximum Displacement     0.641594     0.000060     NO 
 RMS     Displacement     0.132028     0.000040     NO 
                          Input orientation:                          
 ---------------------------------------------------------------------
 Center     Atomic      Atomic             Coordinates (Angstroms)
 Number     Number       Type             X           Y           Z
 ---------------------------------------------------------------------
      1          6           0       10.618046    1.765199    1.134907
      2          1           0       10.784127    2.829547    1.335771
      3          1           0       10.631019    1.225490    2.087697
      4          1           0       11.443853    1.392696    0.519690
      5          6           0        9.289873    1.560414    0.422691
      6          1           0        8.463516    1.950452    1.039409
      7          1           0        9.271447    2.115467   -0.530887
      8          8           0        9.131768    0.169109    0.174177
      9          6           0        7.957062   -0.178339   -0.537053
     10          1           0        8.158143   -1.131659   -1.038088
     11          1           0        7.722679    0.565765   -1.314449
     12          6           0        6.751499   -0.348426    0.391000
     13          1           0        6.975206   -1.118927    1.146768
     14          1           0        6.535402    0.589468    0.930477
     15          8           0        5.646967   -0.725545   -0.410889
     16          6           0        4.458699   -0.942213    0.324690
     17          1           0        4.155706   -0.025613    0.860454
     18          1           0        4.594334   -1.733654    1.080015
     19          6           0        3.370824   -1.362191   -0.664301
     20          1           0        3.666821   -2.293310   -1.159667
     21          1           0        3.262975   -0.592250   -1.441903
     22          8           0        2.145046   -1.612741    0.010995
     23          6           0        1.261905   -0.501199    0.100072
     24          1           0        1.810464    0.445029    0.211211
     25          1           0        0.673703   -0.647892    1.012701
     26          6           0        0.336494   -0.428650   -1.121380
     27          1           0       -0.179775   -1.384986   -1.256537
     28          1           0        0.917210   -0.246897   -2.032307
     29         16           0       -0.878429    0.947479   -1.029469
     30          6           0       -2.163442    0.238023    0.085339
     31          1           0       -1.690432   -0.216786    0.961290
     32          1           0       -2.731698    1.103149    0.442273
     33          6           0       -3.085240   -0.765715   -0.613979
     34          1           0       -2.515702   -1.630387   -0.970219
     35          1           0       -3.555644   -0.311885   -1.491849
     36         16           0       -4.371114   -1.476582    0.497471
     37          6           0       -5.583278   -0.092975    0.612113
     38          1           0       -5.057196    0.846736    0.809442
     39          1           0       -6.181869   -0.310084    1.501453
     40          6           0       -6.478794    0.036599   -0.624934
     41          1           0       -5.873088    0.217884   -1.518795
     42          1           0       -7.033991   -0.890959   -0.798311
     43         16           0       -7.674200    1.438654   -0.523616
     44          6           0       -9.155055    0.637747    0.220690
     45          1           0       -9.937642    1.398295    0.118941
     46          1           0       -9.448248   -0.206323   -0.414557
     47          6           0       -9.021974    0.204509    1.681276
     48          1           0       -8.279591   -0.592504    1.801113
     49          1           0       -8.725085    1.045126    2.316894
     50          1           0       -9.981302   -0.183143    2.048169
 ---------------------------------------------------------------------
 Stoichiometry    C14H30O3S3
 Framework group  C1[X(C14H30O3S3)]
                         Standard orientation:                         
 ---------------------------------------------------------------------
 Center     Atomic      Atomic             Coordinates (Angstroms)
 Number     Number       Type             X           Y           Z
 ---------------------------------------------------------------------
      1          6           0       10.636216    1.821597    1.014100
      2          1           0       10.804613    2.895780    1.150260
      3          1           0       10.651464    1.339958    1.997488
      4          1           0       11.459425    1.411435    0.419707
      5          6           0        9.305402    1.576812    0.319658
      6          1           0        8.481676    2.004568    0.914499
      7          1           0        9.284724    2.073730   -0.665420
      8          8           0        9.144316    0.173390    0.155512
      9          6           0        7.966750   -0.214013   -0.529878
     10          1           0        8.164705   -1.196007   -0.973489
     11          1           0        7.730986    0.482556   -1.349742
     12          6           0        6.763966   -0.326044    0.410522
     13          1           0        6.988941   -1.050241    1.210413
     14          1           0        6.551097    0.642882    0.893478
     15          8           0        5.656229   -0.748621   -0.363807
     16          6           0        4.470038   -0.918718    0.387204
     17          1           0        4.170228    0.028882    0.868006
     18          1           0        4.606907   -1.663690    1.188188
     19          6           0        3.378280   -1.395325   -0.571372
     20          1           0        3.671202   -2.354983   -1.010957
     21          1           0        3.269088   -0.673199   -1.393392
     22          8           0        2.154328   -1.602790    0.121615
     23          6           0        1.273217   -0.486362    0.146688
     24          1           0        1.823612    0.463864    0.199155
     25          1           0        0.687775   -0.577047    1.068331
     26          6           0        0.343930   -0.485549   -1.073975
     27          1           0       -0.174268   -1.447361   -1.149913
     28          1           0        0.921947   -0.359752   -1.995998
     29         16           0       -0.868538    0.895743   -1.060885
     30          6           0       -2.151003    0.256650    0.098523
     31          1           0       -1.675840   -0.145655    0.998663
     32          1           0       -2.716739    1.142613    0.404747
     33          6           0       -3.076647   -0.785591   -0.536429
     34          1           0       -2.509627   -1.671060   -0.841990
     35          1           0       -3.549212   -0.384382   -1.438433
     36         16           0       -4.359986   -1.426292    0.619715
     37          6           0       -5.569609   -0.036178    0.655039
     38          1           0       -5.041420    0.912749    0.794002
     39          1           0       -6.165626   -0.198530    1.557690
     40          6           0       -6.468963    0.020571   -0.584706
     41          1           0       -5.865903    0.146879   -1.489744
     42          1           0       -7.026171   -0.914738   -0.700396
     43         16           0       -7.661843    1.428270   -0.563842
     44          6           0       -9.141503    0.676022    0.231838
     45          1           0       -9.923233    1.430473    0.087154
     46          1           0       -9.438089   -0.204097   -0.350726
     47          6           0       -9.004322    0.330895    1.715342
     48          1           0       -8.262794   -0.458800    1.880394
     49          1           0       -8.704045    1.207584    2.298472
     50          1           0       -9.963048   -0.032382    2.107857
 ---------------------------------------------------------------------
 Standard basis: 6-31G(d) (6D, 7F)
   372 basis functions,   752 primitive gaussians,   372 cartesian basis functions
    93 alpha electrons       93 beta electrons
 Requested convergence on RMS density matrix=1.00D-08 within  64 cycles.
 Requested convergence on MAX density matrix=1.00D-06.
 Requested convergence on             energy=1.00D-06.
 SCF Done:  E(RB3LYP) =  -1971.75409330     A.U. after   11 cycles
            NFock= 11  Conv=0.54D-08     -V/T= 2.0058
 Step number   3 out of a maximum of   55
     Eigenvalues ---    0.00215   0.00230   0.00230   0.00230   0.00235
     Eigenvalues ---    0.00422   0.00424   0.00444   0.00464   0.00482
     Eigenvalues ---    0.00496   0.00572   0.00789   0.01503   0.01516
     Eigenvalues ---    0.01521   0.01575   0.01585   0.01619   0.04274
     Eigenvalues ---    0.04458   0.04504   0.04521   0.04538   0.04728
     Eigenvalues ---    0.04948   0.04973   0.05081   0.05105   0.05376
     Eigenvalues ---    0.05417   0.05419   0.05544   0.05632   0.05640
     Eigenvalues ---    0.05646   0.05668   0.05688   0.05703   0.05750
     Eigenvalues ---    0.05760   0.05846   0.05970   0.05980   0.05990
     Eigenvalues ---    0.05995   0.06021   0.10702   0.11126   0.11175
     Eigenvalues ---    0.11214   0.11465   0.11539   0.11581   0.11584
     Eigenvalues ---    0.11586   0.11604   0.11627   0.11885   0.13500
     Eigenvalues ---    0.13645   0.13649   0.13685   0.13874   0.13908
     Eigenvalues ---    0.13920   0.13932   0.13941   0.13955   0.14039
     Eigenvalues ---    0.14146   0.14568   0.16000   0.16000   0.16000
     Eigenvalues ---    0.16006   0.16014   0.16315   0.21940   0.21946
     Eigenvalues ---    0.21973   0.22001   0.22006   0.22007   0.22012
     Eigenvalues ---    0.22016   0.22029   0.22043   0.22854   0.23285
     Eigenvalues ---    0.24085   0.24153   0.24238   0.24302   0.24460
     Eigenvalues ---    0.24995   0.25000   0.25000   0.25000   0.26431
     Eigenvalues ---    0.29597   0.29853   0.30036   0.30209   0.30288
     Eigenvalues ---    0.30758   0.30973   0.32464   0.33375   0.33519
     Eigenvalues ---    0.33551   0.33600   0.33674   0.33705   0.33803
     Eigenvalues ---    0.33902   0.33999   0.34155   0.34263   0.34334
     Eigenvalues ---    0.34350   0.34355   0.34371   0.34394   0.34399
     Eigenvalues ---    0.34406   0.34437   0.34444   0.34454   0.34472
     Eigenvalues ---    0.34495   0.34497   0.34499   0.34522   0.34556
     Eigenvalues ---    0.34606   0.34757   0.36193   0.42361   0.43422
     Eigenvalues ---    0.43534   0.44129   0.44311   0.44597
 Maximum Force            0.004437     0.000015     NO 
 RMS     Force            0.000559     0.000010     NO 
 Maximum Displacement     0.476219     0.000060     NO 
 RMS     Displacement     0.084048     0.000040     NO 
                          Input orientation:                          
 ---------------------------------------------------------------------
 Center     Atomic      Atomic             Coordinates (Angstroms)
 Number     Number       Type             X           Y           Z
 ---------------------------------------------------------------------
      1          6           0       10.634950    1.768739    1.090645
      2          1           0       10.796904    2.832774    1.296616
      3          1           0       10.659845    1.222992    2.039726
      4          1           0       11.456500    1.404722    0.464764
      5          6           0        9.300950    1.562317    0.390226
      6          1           0        8.478433    1.943159    1.017640
      7          1           0        9.270291    2.122835   -0.559704
      8          8           0        9.148508    0.171318    0.134540
      9          6           0        7.968685   -0.174974   -0.569095
     10          1           0        8.168132   -1.124985   -1.076858
     11          1           0        7.725740    0.573503   -1.339444
     12          6           0        6.772844   -0.352464    0.369881
     13          1           0        7.004744   -1.126932    1.118866
     14          1           0        6.559497    0.582248    0.915725
     15          8           0        5.662521   -0.727550   -0.425524
     16          6           0        4.482035   -0.950089    0.321560
     17          1           0        4.182863   -0.036637    0.864478
     18          1           0        4.626634   -1.745614    1.070705
     19          6           0        3.386719   -1.366424   -0.660392
     20          1           0        3.679051   -2.294269   -1.163913
     21          1           0        3.269084   -0.591589   -1.431544
     22          8           0        2.168295   -1.622988    0.026360
     23          6           0        1.287407   -0.510430    0.130683
     24          1           0        1.838875    0.433929    0.241943
     25          1           0        0.707036   -0.662730    1.047292
     26          6           0        0.353098   -0.430652   -1.082941
     27          1           0       -0.167743   -1.384374   -1.218501
     28          1           0        0.925876   -0.243892   -1.997810
     29         16           0       -0.857572    0.949417   -0.973407
     30          6           0       -2.137362    0.233695    0.145297
     31          1           0       -1.658785   -0.232060    1.012347
     32          1           0       -2.698413    1.098504    0.514072
     33          6           0       -3.067547   -0.758338   -0.558294
     34          1           0       -2.505504   -1.622920   -0.926323
     35          1           0       -3.543712   -0.293444   -1.427117
     36         16           0       -4.348562   -1.474916    0.557142
     37          6           0       -5.551249   -0.083276    0.694933
     38          1           0       -5.016329    0.849889    0.898885
     39          1           0       -6.144385   -0.308355    1.585420
     40          6           0       -6.450821    0.064915   -0.536606
     41          1           0       -5.846018    0.253715   -1.429443
     42          1           0       -7.014812   -0.855370   -0.719883
     43         16           0       -7.632423    1.479469   -0.422709
     44          6           0       -9.185847    0.656950    0.129576
     45          1           0       -9.949584    1.427930   -0.023356
     46          1           0       -9.412116   -0.157917   -0.567937
     47          6           0       -9.212469    0.164950    1.577263
     48          1           0       -8.495601   -0.646701    1.742683
     49          1           0       -8.977089    0.975853    2.274207
     50          1           0      -10.209574   -0.222935    1.823330
 ---------------------------------------------------------------------
 Stoichiometry    C14H30O3S3
 Framework group  C1[X(C14H30O3S3)]
                         Standard orientation:                         
 ---------------------------------------------------------------------
 Center     Atomic      Atomic             Coordinates (Angstroms)
 Number     Number       Type             X           Y           Z
 ---------------------------------------------------------------------
      1          6           0       10.637647    1.806290    1.035205
      2          1           0       10.800259    2.877132    1.201572
      3          1           0       10.661560    1.296194    2.003938
      4          1           0       11.459312    1.418666    0.423817
      5          6           0        9.303924    1.574918    0.342094
      6          1           0        8.481304    1.979413    0.954387
      7          1           0        9.274259    2.099747   -0.628041
      8          8           0        9.150615    0.175482    0.138210
      9          6           0        7.970967   -0.195894   -0.552815
     10          1           0        8.170026   -1.164270   -1.024775
     11          1           0        7.729045    0.523594   -1.350618
     12          6           0        6.774422   -0.337492    0.391348
     13          1           0        7.005293   -1.083740    1.168760
     14          1           0        6.561429    0.617022    0.901922
     15          8           0        5.664310   -0.741104   -0.390270
     16          6           0        4.483203   -0.934867    0.363818
     17          1           0        4.184371   -0.001646    0.872204
     18          1           0        4.626758   -1.702089    1.142118
     19          6           0        3.388182   -1.386647   -0.602673
     20          1           0        3.680138   -2.332781   -1.071158
     21          1           0        3.271589   -0.640938   -1.402177
     22          8           0        2.169149   -1.616628    0.092366
     23          6           0        1.289018   -0.500332    0.154685
     24          1           0        1.841112    0.447118    0.231105
     25          1           0        0.707974   -0.618029    1.075953
     26          6           0        0.355510   -0.465071   -1.061663
     27          1           0       -0.165951   -1.422802   -1.161998
     28          1           0        0.928985   -0.312867   -1.982478
     29         16           0       -0.854210    0.918980   -1.004295
     30          6           0       -2.135211    0.246264    0.139432
     31          1           0       -1.657507   -0.187269    1.023506
     32          1           0       -2.695851    1.124587    0.475436
     33          6           0       -3.065695   -0.770582   -0.527379
     34          1           0       -2.504065   -1.648651   -0.862646
     35          1           0       -3.540987   -0.337977   -1.413192
     36         16           0       -4.347921   -1.444273    0.613112
     37          6           0       -5.549667   -0.047615    0.698293
     38          1           0       -5.014184    0.892107    0.867747
     39          1           0       -6.143513   -0.239004    1.596154
     40          6           0       -6.448376    0.055321   -0.538479
     41          1           0       -5.842887    0.210359   -1.437332
     42          1           0       -7.012932   -0.870740   -0.687769
     43         16           0       -7.629005    1.473974   -0.478014
     44          6           0       -9.183371    0.673668    0.103481
     45          1           0       -9.946447    1.438973   -0.078500
     46          1           0       -9.409814   -0.166410   -0.563393
     47          6           0       -9.211242    0.235859    1.568444
     48          1           0       -8.495072   -0.569590    1.764388
     49          1           0       -8.975691    1.071949    2.234904
     50          1           0      -10.208783   -0.141897    1.828127
 ---------------------------------------------------------------------
 Standard basis: 6-31G(d) (6D, 7F)
   372 basis functions,   752 primitive gaussians,   372 cartesian basis functions
    93 alpha electrons       93 beta electrons
 Requested convergence on RMS density matrix=1.00D-08 within  64 cycles.
 Requested convergence on MAX density matrix=1.00D-06.
 Requested convergence on             energy=1.00D-06.
 SCF Done:  E(RB3LYP) =  -1971.75429318     A.U. after   10 cycles
            NFock= 10  Conv=0.80D-08     -V/T= 2.0058
 Step number   4 out of a maximum of   55
     Eigenvalues ---    0.00228   0.00230   0.00230   0.00231   0.00293
     Eigenvalues ---    0.00422   0.00424   0.00444   0.00467   0.00483
     Eigenvalues ---    0.00496   0.00572   0.00862   0.01500   0.01515
     Eigenvalues ---    0.01519   0.01578   0.01585   0.01618   0.04182
     Eigenvalues ---    0.04342   0.04516   0.04529   0.04546   0.04827
     Eigenvalues ---    0.04964   0.05013   0.05109   0.05111   0.05385
     Eigenvalues ---    0.05431   0.05435   0.05547   0.05624   0.05633
     Eigenvalues ---    0.05639   0.05680   0.05686   0.05724   0.05756
     Eigenvalues ---    0.05763   0.05842   0.05966   0.05974   0.05986
     Eigenvalues ---    0.06012   0.06017   0.11106   0.11116   0.11174
     Eigenvalues ---    0.11217   0.11457   0.11532   0.11576   0.11577
     Eigenvalues ---    0.11596   0.11609   0.11619   0.11923   0.13625
     Eigenvalues ---    0.13638   0.13676   0.13851   0.13863   0.13900
     Eigenvalues ---    0.13913   0.13927   0.13934   0.13977   0.14056
     Eigenvalues ---    0.14154   0.15838   0.16000   0.16000   0.16001
     Eigenvalues ---    0.16014   0.16044   0.18390   0.21941   0.21947
     Eigenvalues ---    0.21976   0.22001   0.22007   0.22008   0.22016
     Eigenvalues ---    0.22018   0.22040   0.22095   0.23261   0.23377
     Eigenvalues ---    0.24100   0.24153   0.24243   0.24325   0.24460
     Eigenvalues ---    0.24995   0.25000   0.25000   0.25044   0.27786
     Eigenvalues ---    0.29640   0.29853   0.30036   0.30232   0.30289
     Eigenvalues ---    0.30754   0.31368   0.32565   0.33371   0.33522
     Eigenvalues ---    0.33551   0.33593   0.33672   0.33710   0.33789
     Eigenvalues ---    0.33894   0.33978   0.34155   0.34256   0.34333
     Eigenvalues ---    0.34351   0.34358   0.34368   0.34394   0.34401
     Eigenvalues ---    0.34407   0.34438   0.34445   0.34455   0.34472
     Eigenvalues ---    0.34497   0.34498   0.34501   0.34524   0.34555
     Eigenvalues ---    0.34613   0.35674   0.36487   0.43003   0.43433
     Eigenvalues ---    0.43544   0.44206   0.44370   0.44594
 Maximum Force            0.001183     0.000015     NO 
 RMS     Force            0.000263     0.000010     NO 
 Maximum Displacement     0.118188     0.000060     NO 
 RMS     Displacement     0.032189     0.000040     NO 
                          Input orientation:                          
 ---------------------------------------------------------------------
 Center     Atomic      Atomic             Coordinates (Angstroms)
 Number     Number       Type             X           Y           Z
 ---------------------------------------------------------------------
      1          6           0       10.648592    1.778527    1.064226
      2          1           0       10.809896    2.842713    1.269055
      3          1           0       10.681700    1.232714    2.012742
      4          1           0       11.465690    1.416312    0.432029
      5          6           0        9.310561    1.568352    0.374290
      6          1           0        8.492060    1.946671    1.007700
      7          1           0        9.271366    2.127956   -0.575432
      8          8           0        9.159730    0.177468    0.119829
      9          6           0        7.976235   -0.171686   -0.575585
     10          1           0        8.174412   -1.120822   -1.084583
     11          1           0        7.726508    0.576414   -1.343657
     12          6           0        6.787437   -0.353119    0.369867
     13          1           0        7.025612   -1.127950    1.116059
     14          1           0        6.574842    0.580190    0.917589
     15          8           0        5.672811   -0.729832   -0.418007
     16          6           0        4.498210   -0.955646    0.336575
     17          1           0        4.201919   -0.043386    0.882441
     18          1           0        4.649903   -1.751726    1.083087
     19          6           0        3.396940   -1.372206   -0.636976
     20          1           0        3.687250   -2.298755   -1.143040
     21          1           0        3.272538   -0.596841   -1.406008
     22          8           0        2.183875   -1.631035    0.057568
     23          6           0        1.303680   -0.519286    0.169116
     24          1           0        1.855630    0.424666    0.278638
     25          1           0        0.729214   -0.673901    1.088592
     26          6           0        0.362594   -0.437845   -1.037595
     27          1           0       -0.158806   -1.390846   -1.172274
     28          1           0        0.930258   -0.248606   -1.954684
     29         16           0       -0.845766    0.942234   -0.919745
     30          6           0       -2.142915    0.208726    0.165401
     31          1           0       -1.677918   -0.294602    1.018064
     32          1           0       -2.691425    1.069629    0.559947
     33          6           0       -3.084434   -0.740871   -0.577661
     34          1           0       -2.534925   -1.601399   -0.971706
     35          1           0       -3.547392   -0.238224   -1.432055
     36         16           0       -4.382569   -1.475426    0.504123
     37          6           0       -5.580200   -0.082109    0.656414
     38          1           0       -5.042721    0.848015    0.864960
     39          1           0       -6.169779   -0.313327    1.547492
     40          6           0       -6.484805    0.075975   -0.568549
     41          1           0       -5.885068    0.271000   -1.462821
     42          1           0       -7.051806   -0.841513   -0.755300
     43         16           0       -7.662608    1.490643   -0.438603
     44          6           0       -9.207376    0.667611    0.132714
     45          1           0       -9.971552    1.442117    0.004069
     46          1           0       -9.448549   -0.137987   -0.570086
     47          6           0       -9.206016    0.158391    1.573544
     48          1           0       -8.488660   -0.657164    1.713832
     49          1           0       -8.953230    0.959877    2.274849
     50          1           0      -10.198942   -0.229090    1.835553
 ---------------------------------------------------------------------
 Stoichiometry    C14H30O3S3
 Framework group  C1[X(C14H30O3S3)]
                         Standard orientation:                         
 ---------------------------------------------------------------------
 Center     Atomic      Atomic             Coordinates (Angstroms)
 Number     Number       Type             X           Y           Z
 ---------------------------------------------------------------------
      1          6           0       10.654855    1.813605    1.004410
      2          1           0       10.816845    2.884170    1.172090
      3          1           0       10.687822    1.301076    1.971321
      4          1           0       11.471608    1.429131    0.385042
      5          6           0        9.316560    1.580392    0.322436
      6          1           0        8.498415    1.981003    0.942456
      7          1           0        9.277515    2.106665   -0.646160
      8          8           0        9.164836    0.181595    0.116508
      9          6           0        7.980991   -0.190798   -0.566137
     10          1           0        8.178491   -1.157176   -1.041866
     11          1           0        7.731565    0.530301   -1.359707
     12          6           0        6.792271   -0.338526    0.385262
     13          1           0        7.030125   -1.087093    1.157897
     14          1           0        6.580351    0.613391    0.900246
     15          8           0        5.677260   -0.741717   -0.388840
     16          6           0        4.502673   -0.940443    0.373345
     17          1           0        4.207044   -0.009577    0.887219
     18          1           0        4.654032   -1.710183    1.147053
     19          6           0        3.400956   -1.389922   -0.584941
     20          1           0        3.690604   -2.333681   -1.058540
     21          1           0        3.276872   -0.641684   -1.380441
     22          8           0        2.187874   -1.623705    0.118397
     23          6           0        1.308374   -0.508211    0.191385
     24          1           0        1.860919    0.438639    0.267927
     25          1           0        0.733998   -0.630416    1.115782
     26          6           0        0.367098   -0.468194   -1.017261
     27          1           0       -0.154906   -1.424981   -1.118635
     28          1           0        0.934694   -0.311299   -1.940475
     29         16           0       -0.840402    0.915888   -0.947245
     30          6           0       -2.137779    0.221342    0.162976
     31          1           0       -1.672918   -0.252324    1.032539
     32          1           0       -2.685689    1.095777    0.527452
     33          6           0       -3.080021   -0.752935   -0.546457
     34          1           0       -2.531112   -1.626979   -0.910446
     35          1           0       -3.542845   -0.280012   -1.417727
     36         16           0       -4.378386   -1.448644    0.560440
     37          6           0       -5.575142   -0.050142    0.664415
     38          1           0       -5.037058    0.886341    0.840403
     39          1           0       -6.164684   -0.249881    1.563097
     40          6           0       -6.479895    0.065817   -0.565143
     41          1           0       -5.880217    0.229268   -1.465761
     42          1           0       -7.047489   -0.857261   -0.719784
     43         16           0       -7.656815    1.484868   -0.484246
     44          6           0       -9.201967    0.683141    0.115613
     45          1           0       -9.965699    1.453175   -0.039745
     46          1           0       -9.443768   -0.146254   -0.558714
     47          6           0       -9.200629    0.224318    1.573274
     48          1           0       -8.483739   -0.586307    1.741702
     49          1           0       -8.947218    1.049545    2.246246
     50          1           0      -10.193737   -0.153212    1.848771
 ---------------------------------------------------------------------
 Standard basis: 6-31G(d) (6D, 7F)
   372 basis functions,   752 primitive gaussians,   372 cartesian basis functions
    93 alpha electrons       93 beta electrons
 Requested convergence on RMS density matrix=1.00D-08 within  64 cycles.
 Requested convergence on MAX density matrix=1.00D-06.
 Requested convergence on             energy=1.00D-06.
 SCF Done:  E(RB3LYP) =  -1971.75433374     A.U. after   10 cycles
            NFock= 10  Conv=0.39D-08     -V/T= 2.0058
 Step number   5 out of a maximum of   55
     Eigenvalues ---    0.00230   0.00230   0.00230   0.00234   0.00404
     Eigenvalues ---    0.00422   0.00426   0.00444   0.00464   0.00483
     Eigenvalues ---    0.00496   0.00572   0.00853   0.01496   0.01515
     Eigenvalues ---    0.01520   0.01579   0.01585   0.01617   0.04196
     Eigenvalues ---    0.04514   0.04523   0.04544   0.04611   0.04959
     Eigenvalues ---    0.04999   0.05094   0.05111   0.05377   0.05405
     Eigenvalues ---    0.05429   0.05455   0.05545   0.05631   0.05637
     Eigenvalues ---    0.05643   0.05678   0.05690   0.05720   0.05754
     Eigenvalues ---    0.05766   0.05875   0.05961   0.05971   0.05990
     Eigenvalues ---    0.06010   0.06023   0.11120   0.11131   0.11205
     Eigenvalues ---    0.11278   0.11457   0.11527   0.11578   0.11580
     Eigenvalues ---    0.11594   0.11605   0.11620   0.11919   0.13627
     Eigenvalues ---    0.13640   0.13676   0.13844   0.13894   0.13909
     Eigenvalues ---    0.13926   0.13927   0.13945   0.14040   0.14077
     Eigenvalues ---    0.14131   0.15916   0.15973   0.16000   0.16001
     Eigenvalues ---    0.16003   0.16014   0.19008   0.21285   0.21942
     Eigenvalues ---    0.21949   0.21989   0.22003   0.22009   0.22014
     Eigenvalues ---    0.22019   0.22042   0.22138   0.23225   0.23396
     Eigenvalues ---    0.24087   0.24142   0.24232   0.24297   0.24462
     Eigenvalues ---    0.24908   0.25000   0.25000   0.25358   0.27781
     Eigenvalues ---    0.28895   0.29736   0.29860   0.30208   0.30276
     Eigenvalues ---    0.30571   0.31116   0.31643   0.33348   0.33494
     Eigenvalues ---    0.33526   0.33567   0.33638   0.33679   0.33717
     Eigenvalues ---    0.33865   0.33928   0.34143   0.34226   0.34296
     Eigenvalues ---    0.34343   0.34353   0.34370   0.34392   0.34401
     Eigenvalues ---    0.34403   0.34419   0.34439   0.34446   0.34457
     Eigenvalues ---    0.34481   0.34498   0.34503   0.34508   0.34552
     Eigenvalues ---    0.34610   0.34616   0.35839   0.43312   0.43499
     Eigenvalues ---    0.43812   0.44253   0.44592   0.45640
 Maximum Force            0.000394     0.000015     NO 
 RMS     Force            0.000094     0.000010     NO 
 Maximum Displacement     0.068511     0.000060     NO 
 RMS     Displacement     0.017245     0.000040     NO 
                          Input orientation:                          
 ---------------------------------------------------------------------
 Center     Atomic      Atomic             Coordinates (Angstroms)
 Number     Number       Type             X           Y           Z
 ---------------------------------------------------------------------
      1          6           0       10.642515    1.770522    1.076420
      2          1           0       10.806412    2.834450    1.280155
      3          1           0       10.671525    1.226073    2.025745
      4          1           0       11.460225    1.405066    0.447099
      5          6           0        9.306150    1.562186    0.383181
      6          1           0        8.487007    1.943656    1.013541
      7          1           0        9.271053    2.120092   -0.567537
      8          8           0        9.152152    0.171478    0.130483
      9          6           0        7.970441   -0.176659   -0.568470
     10          1           0        8.168597   -1.126885   -1.075105
     11          1           0        7.725250    0.570498   -1.338744
     12          6           0        6.777353   -0.354926    0.371542
     13          1           0        7.010901   -1.129294    1.119517
     14          1           0        6.563892    0.579155    0.917279
     15          8           0        5.664868   -0.730592   -0.419716
     16          6           0        4.486634   -0.953414    0.329941
     17          1           0        4.190663   -0.040108    0.873997
     18          1           0        4.633920   -1.749062    1.077538
     19          6           0        3.387794   -1.368280   -0.646519
     20          1           0        3.678213   -2.295867   -1.150199
     21          1           0        3.268275   -0.593833   -1.417025
     22          8           0        2.171180   -1.623760    0.043073
     23          6           0        1.292238   -0.510611    0.150237
     24          1           0        1.845138    0.432420    0.261692
     25          1           0        0.713806   -0.663511    1.067400
     26          6           0        0.355602   -0.427986   -1.059188
     27          1           0       -0.167415   -1.379786   -1.194342
     28          1           0        0.926423   -0.241008   -1.974612
     29         16           0       -0.851041    0.953249   -0.944278
     30          6           0       -2.139397    0.229184    0.156862
     31          1           0       -1.667305   -0.258348    1.014511
     32          1           0       -2.692101    1.091842    0.541203
     33          6           0       -3.076775   -0.737439   -0.567949
     34          1           0       -2.522733   -1.599504   -0.951724
     35          1           0       -3.546809   -0.250789   -1.427545
     36         16           0       -4.365729   -1.463473    0.529750
     37          6           0       -5.571039   -0.075542    0.665599
     38          1           0       -5.038532    0.859185    0.864936
     39          1           0       -6.161340   -0.299644    1.557958
     40          6           0       -6.473249    0.064792   -0.562576
     41          1           0       -5.872315    0.252704   -1.457336
     42          1           0       -7.035435   -0.857224   -0.740807
     43         16           0       -7.658054    1.474526   -0.451479
     44          6           0       -9.196874    0.651902    0.134635
     45          1           0       -9.964602    1.422413    0.004384
     46          1           0       -9.439140   -0.159886   -0.560470
     47          6           0       -9.185471    0.154030    1.578961
     48          1           0       -8.465232   -0.658501    1.720978
     49          1           0       -8.930174    0.961482    2.272316
     50          1           0      -10.175470   -0.233971    1.850687
 ---------------------------------------------------------------------
 Stoichiometry    C14H30O3S3
 Framework group  C1[X(C14H30O3S3)]
                         Standard orientation:                         
 ---------------------------------------------------------------------
 Center     Atomic      Atomic             Coordinates (Angstroms)
 Number     Number       Type             X           Y           Z
 ---------------------------------------------------------------------
      1          6           0       10.648961    1.800201    1.023678
      2          1           0       10.813687    2.869780    1.194495
      3          1           0       10.677920    1.285227    1.989311
      4          1           0       11.466188    1.414947    0.405640
      5          6           0        9.312202    1.571577    0.337629
      6          1           0        8.493554    1.972871    0.956213
      7          1           0        9.277166    2.099964   -0.629809
      8          8           0        9.157126    0.173859    0.127933
      9          6           0        7.974920   -0.194786   -0.559574
     10          1           0        8.172221   -1.160308   -1.036770
     11          1           0        7.729987    0.528470   -1.352412
     12          6           0        6.782039   -0.343157    0.385878
     13          1           0        7.015301   -1.094291    1.157270
     14          1           0        6.569435    0.607441    0.902660
     15          8           0        5.669007   -0.742212   -0.393065
     16          6           0        4.490880   -0.940990    0.363491
     17          1           0        4.195752   -0.011148    0.879259
     18          1           0        4.637865   -1.713342    1.135189
     19          6           0        3.391399   -1.384939   -0.599364
     20          1           0        3.680980   -2.327808   -1.074334
     21          1           0        3.272158   -0.634503   -1.393316
     22          8           0        2.174849   -1.618181    0.098173
     23          6           0        1.296737   -0.501626    0.171296
     24          1           0        1.850346    0.443991    0.253471
     25          1           0        0.718520   -0.625789    1.092925
     26          6           0        0.359731   -0.455612   -1.039789
     27          1           0       -0.164011   -1.410745   -1.145391
     28          1           0        0.930360   -0.297328   -1.960727
     29         16           0       -0.845889    0.929378   -0.967071
     30          6           0       -2.134369    0.240499    0.156274
     31          1           0       -1.662320   -0.220729    1.028374
     32          1           0       -2.686323    1.114983    0.514049
     33          6           0       -3.072692   -0.747311   -0.538112
     34          1           0       -2.519399   -1.621187   -0.895339
     35          1           0       -3.542683   -0.287027   -1.412131
     36         16           0       -4.361772   -1.438264    0.581855
     37          6           0       -5.566047   -0.045938    0.675295
     38          1           0       -5.032804    0.894100    0.845573
     39          1           0       -6.156191   -0.242025    1.574329
     40          6           0       -6.468592    0.057156   -0.556319
     41          1           0       -5.867842    0.216988   -1.456642
     42          1           0       -7.031496   -0.869506   -0.705883
     43         16           0       -7.652355    1.470497   -0.488298
     44          6           0       -9.191552    0.667425    0.123384
     45          1           0       -9.958777    1.434113   -0.030280
     46          1           0       -9.434640   -0.165211   -0.546309
     47          6           0       -9.179991    0.214263    1.582354
     48          1           0       -8.460279   -0.594028    1.749089
     49          1           0       -8.923873    1.042501    2.250428
     50          1           0      -10.170169   -0.164470    1.866230
 ---------------------------------------------------------------------
 Standard basis: 6-31G(d) (6D, 7F)
   372 basis functions,   752 primitive gaussians,   372 cartesian basis functions
    93 alpha electrons       93 beta electrons
 Requested convergence on RMS density matrix=1.00D-08 within  64 cycles.
 Requested convergence on MAX density matrix=1.00D-06.
 Requested convergence on             energy=1.00D-06.
 SCF Done:  E(RB3LYP) =  -1971.75434129     A.U. after    9 cycles
            NFock=  9  Conv=0.51D-08     -V/T= 2.0058
 Step number   6 out of a maximum of   55
     Eigenvalues ---    0.00230   0.00230   0.00231   0.00260   0.00414
     Eigenvalues ---    0.00423   0.00439   0.00444   0.00460   0.00482
     Eigenvalues ---    0.00496   0.00572   0.00796   0.01481   0.01515
     Eigenvalues ---    0.01519   0.01581   0.01586   0.01612   0.04233
     Eigenvalues ---    0.04513   0.04537   0.04547   0.04652   0.04950
     Eigenvalues ---    0.04993   0.05099   0.05113   0.05381   0.05411
     Eigenvalues ---    0.05422   0.05440   0.05545   0.05629   0.05631
     Eigenvalues ---    0.05640   0.05673   0.05690   0.05722   0.05750
     Eigenvalues ---    0.05771   0.05879   0.05958   0.05971   0.05991
     Eigenvalues ---    0.06009   0.06041   0.11097   0.11138   0.11201
     Eigenvalues ---    0.11256   0.11469   0.11520   0.11575   0.11579
     Eigenvalues ---    0.11595   0.11616   0.11645   0.11917   0.13630
     Eigenvalues ---    0.13644   0.13680   0.13863   0.13881   0.13913
     Eigenvalues ---    0.13924   0.13926   0.13996   0.14006   0.14070
     Eigenvalues ---    0.14154   0.15852   0.15993   0.16000   0.16001
     Eigenvalues ---    0.16014   0.16045   0.18968   0.21573   0.21943
     Eigenvalues ---    0.21951   0.21996   0.22003   0.22013   0.22017
     Eigenvalues ---    0.22037   0.22094   0.22984   0.23318   0.23538
     Eigenvalues ---    0.24025   0.24173   0.24216   0.24268   0.24462
     Eigenvalues ---    0.24847   0.25000   0.25083   0.25775   0.28122
     Eigenvalues ---    0.29465   0.29673   0.29864   0.30236   0.30339
     Eigenvalues ---    0.30418   0.30950   0.31339   0.33373   0.33524
     Eigenvalues ---    0.33550   0.33597   0.33671   0.33709   0.33778
     Eigenvalues ---    0.33885   0.33964   0.34148   0.34261   0.34329
     Eigenvalues ---    0.34339   0.34355   0.34370   0.34396   0.34404
     Eigenvalues ---    0.34407   0.34438   0.34445   0.34453   0.34476
     Eigenvalues ---    0.34494   0.34500   0.34505   0.34551   0.34560
     Eigenvalues ---    0.34609   0.34818   0.36423   0.43214   0.43531
     Eigenvalues ---    0.43648   0.44236   0.44596   0.44819
 Maximum Force            0.000226     0.000015     NO 
 RMS     Force            0.000038     0.000010     NO 
 Maximum Displacement     0.047771     0.000060     NO 
 RMS     Displacement     0.012858     0.000040     NO 
                          Input orientation:                          
 ---------------------------------------------------------------------
 Center     Atomic      Atomic             Coordinates (Angstroms)
 Number     Number       Type             X           Y           Z
 ---------------------------------------------------------------------
      1          6           0       10.638734    1.781612    1.074820
      2          1           0       10.800173    2.846122    1.277475
      3          1           0       10.669803    1.238118    2.024668
      4          1           0       11.456977    1.417586    0.445289
      5          6           0        9.302307    1.569525    0.382701
      6          1           0        8.482647    1.949653    1.013290
      7          1           0        9.265181    2.126513   -0.568530
      8          8           0        9.151560    0.178177    0.131533
      9          6           0        7.970533   -0.173373   -0.566749
     10          1           0        8.170604   -1.123944   -1.072106
     11          1           0        7.723707    0.572200   -1.338098
     12          6           0        6.778104   -0.352403    0.374008
     13          1           0        7.013355   -1.125165    1.123177
     14          1           0        6.563005    0.582131    0.918449
     15          8           0        5.666321   -0.731464   -0.416605
     16          6           0        4.488691   -0.955491    0.333621
     17          1           0        4.191101   -0.042111    0.876767
     18          1           0        4.637515   -1.750046    1.082155
     19          6           0        3.390607   -1.373503   -0.642430
     20          1           0        3.682608   -2.301107   -1.145298
     21          1           0        3.269485   -0.600057   -1.413757
     22          8           0        2.174635   -1.630574    0.047651
     23          6           0        1.293888   -0.518760    0.154561
     24          1           0        1.845357    0.425162    0.265876
     25          1           0        0.715923   -0.672395    1.071949
     26          6           0        0.356988   -0.437740   -1.054925
     27          1           0       -0.164342   -1.390491   -1.190302
     28          1           0        0.927501   -0.249782   -1.970384
     29         16           0       -0.852055    0.941516   -0.940210
     30          6           0       -2.145358    0.211203    0.151228
     31          1           0       -1.676962   -0.283003    1.007133
     32          1           0       -2.698236    1.071848    0.539931
     33          6           0       -3.081814   -0.748886   -0.583657
     34          1           0       -2.527994   -1.609139   -0.971901
     35          1           0       -3.548145   -0.255318   -1.441363
     36         16           0       -4.376137   -1.480027    0.504470
     37          6           0       -5.572983   -0.086213    0.655532
     38          1           0       -5.034476    0.843209    0.863691
     39          1           0       -6.163734   -0.315478    1.546322
     40          6           0       -6.475597    0.072014   -0.570289
     41          1           0       -5.874465    0.264941   -1.463919
     42          1           0       -7.043605   -0.844749   -0.757126
     43         16           0       -7.651678    1.487846   -0.443909
     44          6           0       -9.191949    0.670182    0.145446
     45          1           0       -9.956381    1.445142    0.022127
     46          1           0       -9.441609   -0.137239   -0.552195
     47          6           0       -9.176586    0.165722    1.587555
     48          1           0       -8.459889   -0.651166    1.722717
     49          1           0       -8.914039    0.968723    2.283434
     50          1           0      -10.167276   -0.218519    1.862175
 ---------------------------------------------------------------------
 Stoichiometry    C14H30O3S3
 Framework group  C1[X(C14H30O3S3)]
                         Standard orientation:                         
 ---------------------------------------------------------------------
 Center     Atomic      Atomic             Coordinates (Angstroms)
 Number     Number       Type             X           Y           Z
 ---------------------------------------------------------------------
      1          6           0       10.645668    1.821478    1.004232
      2          1           0       10.807997    2.893098    1.164209
      3          1           0       10.676833    1.316258    1.974976
      4          1           0       11.463314    1.432026    0.389311
      5          6           0        9.308724    1.582978    0.321778
      6          1           0        8.489674    1.988563    0.937115
      7          1           0        9.271510    2.101630   -0.650884
      8          8           0        9.156821    0.182838    0.126350
      9          6           0        7.975171   -0.195376   -0.556779
     10          1           0        8.174278   -1.165489   -1.023938
     11          1           0        7.728491    0.519041   -1.357117
     12          6           0        6.783102   -0.335859    0.390954
     13          1           0        7.018177   -1.078319    1.170219
     14          1           0        6.568976    0.619799    0.897813
     15          8           0        5.670628   -0.745295   -0.383370
     16          6           0        4.493225   -0.938346    0.375772
     17          1           0        4.196591   -0.003815    0.882220
     18          1           0        4.641856   -1.702541    1.155312
     19          6           0        3.394324   -1.394105   -0.582298
     20          1           0        3.685379   -2.341240   -1.047931
     21          1           0        3.273368   -0.651932   -1.383786
     22          8           0        2.178524   -1.622543    0.118082
     23          6           0        1.298651   -0.506684    0.181018
     24          1           0        1.850873    0.440507    0.254343
     25          1           0        0.721053   -0.623188    1.104087
     26          6           0        0.361179   -0.473237   -1.030274
     27          1           0       -0.160922   -1.430232   -1.127304
     28          1           0        0.931351   -0.322354   -1.952779
     29         16           0       -0.846788    0.910410   -0.970038
     30          6           0       -2.140057    0.225166    0.150284
[...]
     18          1           0        4.637316   -1.752466    1.081947
     19          6           0        3.390412   -1.374191   -0.642315
     20          1           0        3.682106   -2.301525   -1.145883
     21          1           0        3.269555   -0.600159   -1.413128
     22          8           0        2.174358   -1.631579    0.047420
     23          6           0        1.294813   -0.519073    0.157039
     24          1           0        1.847289    0.423977    0.270874
     25          1           0        0.716589   -0.674388    1.073999
     26          6           0        0.358058   -0.433855   -1.052271
     27          1           0       -0.164501   -1.385609   -1.190071
     28          1           0        0.928687   -0.244309   -1.967333
     29         16           0       -0.849485    0.946377   -0.933406
     30          6           0       -2.143087    0.213641    0.156128
     31          1           0       -1.674541   -0.284236    1.009852
     32          1           0       -2.694793    1.073364    0.548512
     33          6           0       -3.080948   -0.742752   -0.581787
     34          1           0       -2.528108   -1.602011   -0.973632
     35          1           0       -3.547338   -0.245634   -1.437434
     36         16           0       -4.375421   -1.476738    0.504328
     37          6           0       -5.575853   -0.085615    0.652311
     38          1           0       -5.039797    0.845386    0.859796
     39          1           0       -6.166959   -0.315049    1.542821
     40          6           0       -6.477407    0.068751   -0.574808
     41          1           0       -5.875520    0.261669   -1.467978
     42          1           0       -7.042957   -0.849668   -0.761169
     43         16           0       -7.656711    1.482116   -0.453255
     44          6           0       -9.193956    0.663933    0.142996
     45          1           0       -9.960651    1.436085    0.015999
     46          1           0       -9.442416   -0.148276   -0.549540
     47          6           0       -9.175671    0.168069    1.588079
     48          1           0       -8.457633   -0.647011    1.727059
     49          1           0       -8.913199    0.975559    2.278787
     50          1           0      -10.165397   -0.215907    1.866553
 ---------------------------------------------------------------------
 Stoichiometry    C14H30O3S3
 Framework group  C1[X(C14H30O3S3)]
                         Standard orientation:                         
 ---------------------------------------------------------------------
 Center     Atomic      Atomic             Coordinates (Angstroms)
 Number     Number       Type             X           Y           Z
 ---------------------------------------------------------------------
      1          6           0       10.648871    1.818134    1.000987
      2          1           0       10.809708    2.889029    1.167219
      3          1           0       10.688805    1.306277    1.967940
      4          1           0       11.462756    1.435055    0.377123
      5          6           0        9.307264    1.580930    0.327252
      6          1           0        8.492098    1.980871    0.951403
      7          1           0        9.261449    2.105622   -0.641819
      8          8           0        9.157023    0.181725    0.124220
      9          6           0        7.974671   -0.194758   -0.558464
     10          1           0        8.173434   -1.163828   -1.027936
     11          1           0        7.727410    0.521477   -1.357066
     12          6           0        6.783073   -0.337532    0.389562
     13          1           0        7.018944   -1.081090    1.167576
     14          1           0        6.568293    0.617110    0.898073
     15          8           0        5.670709   -0.746472   -0.385157
     16          6           0        4.493473   -0.941072    0.373817
     17          1           0        4.197462   -0.007801    0.882971
     18          1           0        4.641966   -1.707478    1.151244
     19          6           0        3.394168   -1.393741   -0.585279
     20          1           0        3.684820   -2.339690   -1.053592
     21          1           0        3.273366   -0.649332   -1.384746
     22          8           0        2.178392   -1.623903    0.114496
     23          6           0        1.299760   -0.507362    0.182521
     24          1           0        1.853023    0.438889    0.260232
     25          1           0        0.722046   -0.627424    1.105080
     26          6           0        0.362242   -0.467231   -1.028533
     27          1           0       -0.161127   -1.423111   -1.129884
     28          1           0        0.932388   -0.312885   -1.950485
     29         16           0       -0.844181    0.917448   -0.961185
     30          6           0       -2.137588    0.227464    0.156140
     31          1           0       -1.668833   -0.238120    1.027782
     32          1           0       -2.688379    1.101847    0.516076
     33          6           0       -3.076673   -0.755433   -0.544448
     34          1           0       -2.524747   -1.629332   -0.903864
     35          1           0       -3.543273   -0.290681   -1.417985
     36         16           0       -4.370954   -1.446794    0.569507
     37          6           0       -5.570238   -0.050135    0.665536
     38          1           0       -5.033341    0.887632    0.837297
     39          1           0       -6.160908   -0.245253    1.564476
     40          6           0       -6.472515    0.058393   -0.565954
     41          1           0       -5.871094    0.216913   -1.466177
     42          1           0       -7.038883   -0.865978   -0.717062
     43         16           0       -7.650672    1.476262   -0.497191
     44          6           0       -9.188124    0.682419    0.130596
     45          1           0       -9.954325    1.449810   -0.025022
     46          1           0       -9.437668   -0.155216   -0.530551
     47          6           0       -9.169224    0.241570    1.593393
     48          1           0       -8.451705   -0.568226    1.762642
     49          1           0       -8.905673    1.074410    2.252883
     50          1           0      -10.159048   -0.130826    1.886844
 ---------------------------------------------------------------------
 Standard basis: 6-31G(d) (6D, 7F)
   372 basis functions,   752 primitive gaussians,   372 cartesian basis functions
    93 alpha electrons       93 beta electrons
 Requested convergence on RMS density matrix=1.00D-08 within  64 cycles.
 Requested convergence on MAX density matrix=1.00D-06.
 Requested convergence on             energy=1.00D-06.
 SCF Done:  E(RB3LYP) =  -1971.75434238     A.U. after    4 cycles
            NFock=  4  Conv=0.38D-08     -V/T= 2.0058
 Step number  22 out of a maximum of   55
     Eigenvalues ---    0.00148   0.00237   0.00310   0.00356   0.00394
     Eigenvalues ---    0.00425   0.00438   0.00442   0.00494   0.00508
     Eigenvalues ---    0.00564   0.00597   0.00647   0.00665   0.00722
     Eigenvalues ---    0.01419   0.01517   0.01566   0.01589   0.04331
     Eigenvalues ---    0.04607   0.04823   0.04850   0.04930   0.04994
     Eigenvalues ---    0.05036   0.05116   0.05173   0.05357   0.05400
     Eigenvalues ---    0.05459   0.05473   0.05577   0.05582   0.05646
     Eigenvalues ---    0.05663   0.05684   0.05711   0.05732   0.05748
     Eigenvalues ---    0.05771   0.05882   0.05960   0.05981   0.06004
     Eigenvalues ---    0.06023   0.06124   0.10523   0.11134   0.11184
     Eigenvalues ---    0.11228   0.11435   0.11517   0.11582   0.11597
     Eigenvalues ---    0.11644   0.11659   0.11742   0.11943   0.13510
     Eigenvalues ---    0.13586   0.13629   0.13686   0.13725   0.13881
     Eigenvalues ---    0.13952   0.13997   0.14020   0.14122   0.14239
     Eigenvalues ---    0.14348   0.15974   0.15992   0.15999   0.16007
     Eigenvalues ---    0.16051   0.16174   0.18437   0.19625   0.20919
     Eigenvalues ---    0.21417   0.21942   0.22059   0.22249   0.22642
     Eigenvalues ---    0.22668   0.22741   0.22918   0.23411   0.23730
     Eigenvalues ---    0.23867   0.24186   0.24220   0.24289   0.24588
     Eigenvalues ---    0.24988   0.25539   0.26635   0.27368   0.28158
     Eigenvalues ---    0.29584   0.29780   0.30082   0.30310   0.30411
     Eigenvalues ---    0.30759   0.30908   0.31230   0.33376   0.33543
     Eigenvalues ---    0.33565   0.33603   0.33671   0.33715   0.33729
     Eigenvalues ---    0.33891   0.33957   0.34174   0.34253   0.34348
     Eigenvalues ---    0.34363   0.34378   0.34389   0.34402   0.34409
     Eigenvalues ---    0.34433   0.34459   0.34481   0.34487   0.34504
     Eigenvalues ---    0.34513   0.34573   0.34582   0.34623   0.34717
     Eigenvalues ---    0.34776   0.34908   0.35835   0.43211   0.43355
     Eigenvalues ---    0.43973   0.44356   0.44608   0.46711
 Maximum Force            0.000000     0.000015     YES
 RMS     Force            0.000000     0.000010     YES
 Maximum Displacement     0.000038     0.000060     YES
 RMS     Displacement     0.000009     0.000040     YES
 Optimization completed.
    -- Stationary point found.
                          Input orientation:                          
 ---------------------------------------------------------------------
 Center     Atomic      Atomic             Coordinates (Angstroms)
 Number     Number       Type             X           Y           Z
 ---------------------------------------------------------------------
      1          6           0       10.641576    1.780823    1.069294
      2          1           0       10.801471    2.844783    1.276034
      3          1           0       10.681275    1.232778    2.016216
      4          1           0       11.456166    1.422234    0.431939
      5          6           0        9.300595    1.568270    0.386150
      6          1           0        8.484710    1.943697    1.024428
      7          1           0        9.255007    2.129217   -0.562406
      8          8           0        9.151575    0.177636    0.130223
      9          6           0        7.969963   -0.173637   -0.567025
     10          1           0        8.169787   -1.124101   -1.072689
     11          1           0        7.722668    0.572114   -1.338126
     12          6           0        6.777856   -0.353074    0.374106
     13          1           0        7.013796   -1.125357    1.123592
     14          1           0        6.562001    0.581484    0.918224
     15          8           0        5.666318   -0.733246   -0.416291
     16          6           0        4.488737   -0.957307    0.333972
     17          1           0        4.191667   -0.044191    0.877869
     18          1           0        4.637316   -1.752466    1.081947
     19          6           0        3.390412   -1.374191   -0.642315
     20          1           0        3.682106   -2.301525   -1.145883
     21          1           0        3.269555   -0.600159   -1.413128
     22          8           0        2.174358   -1.631579    0.047420
     23          6           0        1.294813   -0.519073    0.157039
     24          1           0        1.847289    0.423977    0.270874
     25          1           0        0.716589   -0.674388    1.073999
     26          6           0        0.358058   -0.433855   -1.052271
     27          1           0       -0.164501   -1.385609   -1.190071
     28          1           0        0.928687   -0.244309   -1.967333
     29         16           0       -0.849485    0.946377   -0.933406
     30          6           0       -2.143087    0.213641    0.156128
     31          1           0       -1.674541   -0.284236    1.009852
     32          1           0       -2.694793    1.073364    0.548512
     33          6           0       -3.080948   -0.742752   -0.581787
     34          1           0       -2.528108   -1.602011   -0.973632
     35          1           0       -3.547338   -0.245634   -1.437434
     36         16           0       -4.375421   -1.476738    0.504328
     37          6           0       -5.575853   -0.085615    0.652311
     38          1           0       -5.039797    0.845386    0.859796
     39          1           0       -6.166959   -0.315049    1.542821
     40          6           0       -6.477407    0.068751   -0.574808
     41          1           0       -5.875520    0.261669   -1.467978
     42          1           0       -7.042957   -0.849668   -0.761169
     43         16           0       -7.656711    1.482116   -0.453255
     44          6           0       -9.193956    0.663933    0.142996
     45          1           0       -9.960651    1.436085    0.015999
     46          1           0       -9.442416   -0.148276   -0.549540
     47          6           0       -9.175671    0.168069    1.588079
     48          1           0       -8.457633   -0.647011    1.727059
     49          1           0       -8.913199    0.975559    2.278787
     50          1           0      -10.165397   -0.215907    1.866553
 ---------------------------------------------------------------------
 Stoichiometry    C14H30O3S3
 Framework group  C1[X(C14H30O3S3)]
                         Standard orientation:                         
 ---------------------------------------------------------------------
 Center     Atomic      Atomic             Coordinates (Angstroms)
 Number     Number       Type             X           Y           Z
 ---------------------------------------------------------------------
      1          6           0       10.648871    1.818134    1.000987
      2          1           0       10.809708    2.889029    1.167219
      3          1           0       10.688805    1.306277    1.967940
      4          1           0       11.462756    1.435055    0.377123
      5          6           0        9.307264    1.580930    0.327252
      6          1           0        8.492098    1.980871    0.951403
      7          1           0        9.261449    2.105622   -0.641819
      8          8           0        9.157023    0.181725    0.124220
      9          6           0        7.974671   -0.194758   -0.558464
     10          1           0        8.173434   -1.163828   -1.027936
     11          1           0        7.727410    0.521477   -1.357066
     12          6           0        6.783073   -0.337532    0.389562
     13          1           0        7.018944   -1.081090    1.167576
     14          1           0        6.568293    0.617110    0.898073
     15          8           0        5.670709   -0.746472   -0.385157
     16          6           0        4.493473   -0.941072    0.373817
     17          1           0        4.197462   -0.007801    0.882971
     18          1           0        4.641966   -1.707478    1.151244
     19          6           0        3.394168   -1.393741   -0.585279
     20          1           0        3.684820   -2.339690   -1.053592
     21          1           0        3.273366   -0.649332   -1.384746
     22          8           0        2.178392   -1.623903    0.114496
     23          6           0        1.299760   -0.507362    0.182521
     24          1           0        1.853023    0.438889    0.260232
     25          1           0        0.722046   -0.627424    1.105080
     26          6           0        0.362242   -0.467231   -1.028533
     27          1           0       -0.161127   -1.423111   -1.129884
     28          1           0        0.932388   -0.312885   -1.950485
     29         16           0       -0.844181    0.917448   -0.961185
     30          6           0       -2.137588    0.227464    0.156140
     31          1           0       -1.668833   -0.238120    1.027782
     32          1           0       -2.688379    1.101847    0.516076
     33          6           0       -3.076673   -0.755433   -0.544448
     34          1           0       -2.524747   -1.629332   -0.903864
     35          1           0       -3.543273   -0.290681   -1.417985
     36         16           0       -4.370954   -1.446794    0.569507
     37          6           0       -5.570238   -0.050135    0.665536
     38          1           0       -5.033341    0.887632    0.837297
     39          1           0       -6.160908   -0.245253    1.564476
     40          6           0       -6.472515    0.058393   -0.565954
     41          1           0       -5.871094    0.216913   -1.466177
     42          1           0       -7.038883   -0.865978   -0.717062
     43         16           0       -7.650672    1.476262   -0.497191
     44          6           0       -9.188124    0.682419    0.130596
     45          1           0       -9.954325    1.449810   -0.025022
     46          1           0       -9.437668   -0.155216   -0.530551
     47          6           0       -9.169224    0.241570    1.593393
     48          1           0       -8.451705   -0.568226    1.762642
     49          1           0       -8.905673    1.074410    2.252883
     50          1           0      -10.159048   -0.130826    1.886844
 ---------------------------------------------------------------------
 Mulliken charges:
     1  C   -0.452020
     2  H    0.142965
     3  H    0.158133
     4  H    0.159725
     5  C   -0.013461
     6  H    0.121159
     7  H    0.122564
     8  O   -0.472726
     9  C   -0.036771
    10  H    0.154245
    11  H    0.130467
    12  C   -0.023417
    13  H    0.133306
    14  H    0.121858
    15  O   -0.486315
    16  C   -0.016612
    17  H    0.121689
    18  H    0.134269
    19  C   -0.052195
    20  H    0.157952
    21  H    0.135925
    22  O   -0.474683
    23  C   -0.025878
    24  H    0.141637
    25  H    0.151726
    26  C   -0.434396
    27  H    0.180673
    28  H    0.180444
    29  S    0.082214
    30  C   -0.415025
    31  H    0.188382
    32  H    0.183433
    33  C   -0.413747
    34  H    0.183963
    35  H    0.186444
    36  S    0.079458
    37  C   -0.412074
    38  H    0.183439
    39  H    0.187162
    40  C   -0.411869
    41  H    0.182537
    42  H    0.182213
    43  S    0.079337
    44  C   -0.407541
    45  H    0.178508
    46  H    0.171165
    47  C   -0.437056
    48  H    0.153087
    49  H    0.164232
    50  H    0.151477
 Sum of Mulliken charges =  -0.00000
 Dipole moment (field-independent basis, Debye):
    X=             -0.9027    Y=              0.5012    Z=              0.7796  Tot=              1.2937
 Quadrupole moment (field-independent basis, Debye-Ang):
   XX=           -134.5160   YY=           -154.3482   ZZ=           -148.3370
   XY=             15.3251   XZ=             -3.7213   YZ=              5.1297
 Traceless Quadrupole moment (field-independent basis, Debye-Ang):
   XX=             11.2177   YY=             -8.6144   ZZ=             -2.6033
   XY=             15.3251   XZ=             -3.7213   YZ=              5.1297
 Octapole moment (field-independent basis, Debye-Ang**2):
  XXX=           -245.2977  YYY=             -5.2807  ZZZ=              1.2705  XYY=             72.3771
  XXY=             52.2150  XXZ=             62.7736  XZZ=             34.0801  YZZ=             -6.1568
  YYZ=             -0.7321  XYZ=            -12.3378
 Hexadecapole moment (field-independent basis, Debye-Ang**3):
 XXXX=         -32759.4146 YYYY=          -1195.4615 ZZZZ=           -700.5746 XXXY=           1163.8143
 XXXZ=           -428.4831 YYYX=              5.5161 YYYZ=             17.5938 ZZZX=            -24.1167
 ZZZY=             11.0070 XXYY=          -5947.7764 XXZZ=          -5879.4299 YYZZ=           -315.7408
 XXYZ=            140.9935 YYXZ=             -7.9438 ZZXY=              6.3268
 Job cpu time:       0 days  4 hours 11 minutes 43.6 seconds.
 Normal termination of Gaussian 16 at Sun Jul  9 00:38:59 2023.
