 Copyright (c) 1988-2019, Gaussian, Inc.  All Rights Reserved.
  
 This is part of the Gaussian(R) 16 program.  It is based on
 the Gaussian(R) 09 system (copyright 2009, Gaussian, Inc.),
 the Gaussian(R) 03 system (copyright 2003, Gaussian, Inc.),
 the Gaussian(R) 98 system (copyright 1998, Gaussian, Inc.),
 the Gaussian(R) 94 system (copyright 1995, Gaussian, Inc.),
 the Gaussian 92(TM) system (copyright 1992, Gaussian, Inc.),
 the Gaussian 90(TM) system (copyright 1990, Gaussian, Inc.),
 the Gaussian 88(TM) system (copyright 1988, Gaussian, Inc.),
 the Gaussian 86(TM) system (copyright 1986, Carnegie Mellon
 University), and the Gaussian 82(TM) system (copyright 1983,
 Carnegie Mellon University). Gaussian is a federally registered
 trademark of Gaussian, Inc.
 Cite this work as:
 Gaussian 16, Revision C.01,
 M. J. Frisch, G. W. Trucks, H. B. Schlegel, G. E. Scuseria, 
 M. A. Robb, J. R. Cheeseman, G. Scalmani, V. Barone, 
 G. A. Petersson, H. Nakatsuji, X. Li, M. Caricato, A. V. Marenich, 
 J. Bloino, B. G. Janesko, R. Gomperts, B. Mennucci, H. P. Hratchian, 
 J. V. Ortiz, A. F. Izmaylov, J. L. Sonnenberg, D. Williams-Young, 
 F. Ding, F. Lipparini, F. Egidi, J. Goings, B. Peng, A. Petrone, 
 T. Henderson, D. Ranasinghe, V. G. Zakrzewski, J. Gao, N. Rega, 
 G. Zheng, W. Liang, M. Hada, M. Ehara, K. Toyota, R. Fukuda, 
 J. Hasegawa, M. Ishida, T. Nakajima, Y. Honda, O. Kitao, H. Nakai, 
 T. Vreven, K. Throssell, J. A. Montgomery, Jr., J. E. Peralta, 
 F. Ogliaro, M. J. Bearpark, J. J. Heyd, E. N. Brothers, K. N. Kudin, 
 V. N. Staroverov, T. A. Keith, R. Kobayashi, J. Normand, 
 K. Raghavachari, A. P. Rendell, J. C. Burant, S. S. Iyengar, 
 J. Tomasi, M. Cossi, J. M. Millam, M. Klene, C. Adamo, R. Cammi, 
 J. W. Ochterski, R. L. Martin, K. Morokuma, O. Farkas, 
 J. B. Foresman, and D. J. Fox, Gaussian, Inc., Wallingford CT, 2019.
 
 ******************************************
 Gaussian 16:  EM64L-G16RevC.01  3-Jul-2019
                 8-Jul-2023 
 ******************************************
 ----------------------------------------------------------------------
 #P B3LYP/6-31G(d) Integral=Ultrafine Opt=(Tight,MaxCycle=55) GFInput G
 FPrint SCF(Conver=8,XQC,MaxConventionalCycles=64,MaxCycle=128) Test
 ----------------------------------------------------------------------
 1/6=55,7=10,18=20,19=15,26=4,38=1/1,3;
 2/9=110,12=2,17=6,18=5,40=1/2;
 3/5=1,6=6,7=1,11=2,24=110,25=1,30=1,71=1,74=-5,75=-5/1,2,3;
 4//1;
 5/5=2,6=8,7=128,8=3,13=1,38=5,85=64/2,8;
 6/7=2,8=2,9=2,10=2,28=1/1;
 7//1,2,3,16;
 1/6=55,7=10,18=20,19=15,26=4/3(2);
 2/9=110/2;
 99//99;
 2/9=110/2;
 3/5=1,6=6,7=1,11=2,25=1,30=1,71=1,74=-5,75=-5/1,2,3;
 4/5=5,16=3,69=1/1;
 5/5=2,6=8,7=128,8=3,13=1,38=5,85=64/2,8;
 7//1,2,3,16;
 1/6=55,7=10,18=20,19=15,26=4/3(-5);
 2/9=110/2;
 6/7=2,8=2,9=2,10=2,19=2,28=1/1;
 99/9=1/99;
 ----------------------------------------------------------
 Optimization step - Input generated by PyRED DVE-DMDS-OPLS
 ----------------------------------------------------------
 Symbolic Z-matrix:
 Charge =  0 Multiplicity = 1
 C                     10.701   -1.198     0.784 
 H                     10.295   -1.767     1.625 
 H                     11.154   -1.903     0.082 
 H                     11.479   -0.528     1.16 
 C                     9.603    -0.409     0.102 
 H                     9.156     0.309     0.806 
 H                     10.009    0.172    -0.741 
 O                     8.636    -1.326    -0.371 
 C                     7.58     -0.743    -1.099 
 H                     7.163    -1.524    -1.74 
 H                     7.94      0.068    -1.747 
 C                     6.479    -0.216    -0.188 
 H                     6.125    -1.035     0.454 
 H                     6.859     0.581     0.469 
 O                     5.459     0.286    -1.023 
 C                     4.398     0.924    -0.349 
 H                     3.923     1.584    -1.081 
 H                     4.771     1.551     0.474 
 C                     3.38     -0.077     0.195 
 H                     3.852    -0.732     0.934 
 H                     3.013    -0.709    -0.626 
 O                     2.315     0.568     0.86 
 C                     1.28      1.023     0.014 
 H                     0.885     0.187    -0.584 
 H                     1.632     1.79     -0.689 
 C                     0.196     1.605     0.904 
 H                     0.594     2.462     1.453 
 H                    -0.113     0.865     1.647 
 S                    -1.242     2.215    -0.028 
 C                    -2.16      0.665    -0.326 
 H                    -2.84      0.893    -1.151 
 H                    -1.479    -0.112    -0.682 
 C                    -2.935     0.181     0.894 
 H                    -3.617     0.958     1.248 
 H                    -2.253    -0.039     1.719 
 S                    -3.841    -1.376     0.608 
 C                    -5.256    -0.803    -0.392 
 H                    -5.67     -1.715    -0.831 
 H                    -4.908    -0.184    -1.223 
 C                    -6.317    -0.067     0.418 
 H                    -6.665    -0.687     1.248 
 H                    -5.903     0.845     0.856 
 S                    -7.731     0.501    -0.583 
 C                    -8.622    -1.061    -0.895 
 H                    -9.361    -0.799    -1.657 
 H                    -7.943    -1.784    -1.356 
 C                    -9.309    -1.655     0.328 
 H                    -10.018   -0.944     0.76 
 H                    -9.856    -2.563     0.051 
 H                    -8.59     -1.929     1.104 
 
 ITRead=  0  0  0  0  0  0  0  0  0  0  0  0  0  0  0  0  0  0  0  0
 ITRead=  0  0  0  0  0  0  0  0  0  0  0  0  0  0  0  0  0  0  0  0
 ITRead=  0  0  0  0  0  0  0  0  0  0
 MicOpt= -1 -1 -1 -1 -1 -1 -1 -1 -1 -1 -1 -1 -1 -1 -1 -1 -1 -1 -1 -1
 MicOpt= -1 -1 -1 -1 -1 -1 -1 -1 -1 -1 -1 -1 -1 -1 -1 -1 -1 -1 -1 -1
 MicOpt= -1 -1 -1 -1 -1 -1 -1 -1 -1 -1
 NAtoms=     50 NQM=       50 NQMF=       0 NMMI=      0 NMMIF=      0
                NMic=       0 NMicF=      0.
                          Input orientation:                          
 ---------------------------------------------------------------------
 Center     Atomic      Atomic             Coordinates (Angstroms)
 Number     Number       Type             X           Y           Z
 ---------------------------------------------------------------------
      1          6           0       10.701000   -1.198000    0.784000
      2          1           0       10.295000   -1.767000    1.625000
      3          1           0       11.154000   -1.903000    0.082000
      4          1           0       11.479000   -0.528000    1.160000
      5          6           0        9.603000   -0.409000    0.102000
      6          1           0        9.156000    0.309000    0.806000
      7          1           0       10.009000    0.172000   -0.741000
      8          8           0        8.636000   -1.326000   -0.371000
      9          6           0        7.580000   -0.743000   -1.099000
     10          1           0        7.163000   -1.524000   -1.740000
     11          1           0        7.940000    0.068000   -1.747000
     12          6           0        6.479000   -0.216000   -0.188000
     13          1           0        6.125000   -1.035000    0.454000
     14          1           0        6.859000    0.581000    0.469000
     15          8           0        5.459000    0.286000   -1.023000
     16          6           0        4.398000    0.924000   -0.349000
     17          1           0        3.923000    1.584000   -1.081000
     18          1           0        4.771000    1.551000    0.474000
     19          6           0        3.380000   -0.077000    0.195000
     20          1           0        3.852000   -0.732000    0.934000
     21          1           0        3.013000   -0.709000   -0.626000
     22          8           0        2.315000    0.568000    0.860000
     23          6           0        1.280000    1.023000    0.014000
     24          1           0        0.885000    0.187000   -0.584000
     25          1           0        1.632000    1.790000   -0.689000
     26          6           0        0.196000    1.605000    0.904000
     27          1           0        0.594000    2.462000    1.453000
     28          1           0       -0.113000    0.865000    1.647000
     29         16           0       -1.242000    2.215000   -0.028000
     30          6           0       -2.160000    0.665000   -0.326000
     31          1           0       -2.840000    0.893000   -1.151000
     32          1           0       -1.479000   -0.112000   -0.682000
     33          6           0       -2.935000    0.181000    0.894000
     34          1           0       -3.617000    0.958000    1.248000
     35          1           0       -2.253000   -0.039000    1.719000
     36         16           0       -3.841000   -1.376000    0.608000
     37          6           0       -5.256000   -0.803000   -0.392000
     38          1           0       -5.670000   -1.715000   -0.831000
     39          1           0       -4.908000   -0.184000   -1.223000
     40          6           0       -6.317000   -0.067000    0.418000
     41          1           0       -6.665000   -0.687000    1.248000
     42          1           0       -5.903000    0.845000    0.856000
     43         16           0       -7.731000    0.501000   -0.583000
     44          6           0       -8.622000   -1.061000   -0.895000
     45          1           0       -9.361000   -0.799000   -1.657000
     46          1           0       -7.943000   -1.784000   -1.356000
     47          6           0       -9.309000   -1.655000    0.328000
     48          1           0      -10.018000   -0.944000    0.760000
     49          1           0       -9.856000   -2.563000    0.051000
     50          1           0       -8.590000   -1.929000    1.104000
 ---------------------------------------------------------------------
 Stoichiometry    C14H30O3S3
 Framework group  C1[X(C14H30O3S3)]
                         Standard orientation:                         
 ---------------------------------------------------------------------
 Center     Atomic      Atomic             Coordinates (Angstroms)
 Number     Number       Type             X           Y           Z
 ---------------------------------------------------------------------
      1          6           0      -10.700991   -1.198113   -0.783989
      2          1           0      -10.294982   -1.767107   -1.624989
      3          1           0      -11.153980   -1.903121   -0.081989
      4          1           0      -11.479002   -0.528126   -1.159989
      5          6           0       -9.603004   -0.409096   -0.101989
      6          1           0       -9.156016    0.308911   -0.805989
      7          1           0      -10.009014    0.171898    0.741011
      8          8           0       -8.635989   -1.326080    0.371011
      9          6           0       -7.579999   -0.743063    1.099011
     10          1           0       -7.162986   -1.524056    1.740011
     11          1           0       -7.940012    0.067931    1.747011
     12          6           0       -6.479007   -0.216045    0.188011
     13          1           0       -6.124994   -1.035040   -0.453989
     14          1           0       -6.859020    0.580949   -0.468989
     15          8           0       -5.459015    0.285971    1.023011
     16          6           0       -4.398026    0.923988    0.349011
     17          1           0       -3.923036    1.583996    1.081011
     18          1           0       -4.771036    1.550982   -0.473989
     19          6           0       -3.380010   -0.076995   -0.194989
     20          1           0       -3.851999   -0.732003   -0.933989
     21          1           0       -3.012999   -0.708989    0.626011
     22          8           0       -2.315020    0.568022   -0.859989
     23          6           0       -1.280027    1.023038   -0.013989
     24          1           0       -0.885014    0.187045    0.584011
     25          1           0       -1.632040    1.790033    0.689011
     26          6           0       -0.196037    1.605056   -0.903989
     27          1           0       -0.594050    2.462050   -1.452989
     28          1           0        0.112975    0.865061   -1.646989
     29         16           0        1.241954    2.215079    0.028011
     30          6           0        2.159979    0.665094    0.326011
     31          1           0        2.839975    0.893105    1.151011
     32          1           0        1.478991   -0.111917    0.682011
     33          6           0        2.934986    0.181106   -0.893989
     34          1           0        3.616974    0.958117   -1.247989
     35          1           0        2.252990   -0.038905   -1.718989
     36         16           0        3.841011   -1.375879   -0.607989
     37          6           0        5.256002   -0.802856    0.392011
     38          1           0        5.670017   -1.714849    0.831011
     39          1           0        4.907992   -0.183862    1.223011
     40          6           0        6.316990   -0.066839   -0.417989
     41          1           0        6.665000   -0.686833   -1.247989
     42          1           0        5.902976    0.845154   -0.855989
     43         16           0        7.730981    0.501184    0.583011
     44          6           0        8.622006   -1.060802    0.895011
     45          1           0        9.361002   -0.798790    1.657011
     46          1           0        7.943018   -1.783813    1.356011
     47          6           0        9.309016   -1.654791   -0.327989
     48          1           0       10.018004   -0.943779   -0.759989
     49          1           0        9.856031   -2.562782   -0.050989
     50          1           0        8.590020   -1.928802   -1.103989
 ---------------------------------------------------------------------
 Standard basis: 6-31G(d) (6D, 7F)
   372 basis functions,   752 primitive gaussians,   372 cartesian basis functions
    93 alpha electrons       93 beta electrons
 Requested convergence on RMS density matrix=1.00D-08 within  64 cycles.
 Requested convergence on MAX density matrix=1.00D-06.
 Requested convergence on             energy=1.00D-06.
 SCF Done:  E(RB3LYP) =  -1971.75322982     A.U. after   13 cycles
            NFock= 13  Conv=0.38D-08     -V/T= 2.0056
 Mulliken charges:
     1  C   -0.452165
     2  H    0.157721
     3  H    0.159502
     4  H    0.143002
     5  C   -0.013410
     6  H    0.120373
     7  H    0.121834
     8  O   -0.469317
     9  C   -0.035608
    10  H    0.153730
    11  H    0.130488
    12  C   -0.034534
    13  H    0.134010
    14  H    0.123293
    15  O   -0.476328
    16  C   -0.037927
    17  H    0.146825
    18  H    0.130875
    19  C   -0.042414
    20  H    0.148378
    21  H    0.133068
    22  O   -0.475913
    23  C   -0.009511
    24  H    0.128743
    25  H    0.139966
    26  C   -0.439734
    27  H    0.188522
    28  H    0.180658
    29  S    0.093113
    30  C   -0.419158
    31  H    0.183717
    32  H    0.187863
    33  C   -0.416851
    34  H    0.186527
    35  H    0.184034
    36  S    0.088666
    37  C   -0.417730
    38  H    0.181445
    39  H    0.185405
    40  C   -0.416381
    41  H    0.187012
    42  H    0.181719
    43  S    0.088240
    44  C   -0.413000
    45  H    0.179107
    46  H    0.168932
    47  C   -0.437920
    48  H    0.165836
    49  H    0.150490
    50  H    0.154809
 Sum of Mulliken charges =  -0.00000
 Dipole moment (field-independent basis, Debye):
    X=             -0.2243    Y=             -0.5624    Z=             -0.3234  Tot=              0.6865
 Quadrupole moment (field-independent basis, Debye-Ang):
   XX=           -131.6629   YY=           -154.7120   ZZ=           -149.3841
   XY=            -20.8254   XZ=              6.4778   YZ=             -3.3960
 Traceless Quadrupole moment (field-independent basis, Debye-Ang):
   XX=             13.5901   YY=             -9.4590   ZZ=             -4.1311
   XY=            -20.8254   XZ=              6.4778   YZ=             -3.3960
 Octapole moment (field-independent basis, Debye-Ang**2):
  XXX=            -80.0295  YYY=             -6.3874  ZZZ=              0.8431  XYY=            -15.3127
  XXY=            -34.1973  XXZ=            -15.4276  XZZ=            -15.7909  YZZ=             -3.2328
  YYZ=              0.9382  XYZ=            -17.5210
 Hexadecapole moment (field-independent basis, Debye-Ang**3):
 XXXX=         -30741.9529 YYYY=          -1378.9102 ZZZZ=           -597.6814 XXXY=          -1600.5147
 XXXZ=            481.5379 YYYX=            -49.6241 YYYZ=            -20.0664 ZZZX=            -17.9203
 ZZZY=            -11.1958 XXYY=          -5935.6223 XXZZ=          -5651.2247 YYZZ=           -323.1522
 XXYZ=            -97.3150 YYXZ=             16.1278 ZZXY=             18.2734
 Step number   1 out of a maximum of   55
     Eigenvalues ---    0.00230   0.00230   0.00230   0.00230   0.00230
     Eigenvalues ---    0.00230   0.00398   0.00444   0.00445   0.00457
     Eigenvalues ---    0.00460   0.00521   0.00576   0.01505   0.01532
     Eigenvalues ---    0.01539   0.01552   0.01564   0.01574   0.04363
     Eigenvalues ---    0.04481   0.04500   0.04500   0.04533   0.04615
     Eigenvalues ---    0.04900   0.04922   0.04940   0.05394   0.05464
     Eigenvalues ---    0.05471   0.05521   0.05624   0.05653   0.05656
     Eigenvalues ---    0.05661   0.05663   0.05672   0.05744   0.05792
     Eigenvalues ---    0.05835   0.05847   0.05847   0.05967   0.05991
     Eigenvalues ---    0.05998   0.06000   0.11022   0.11075   0.11209
     Eigenvalues ---    0.11442   0.11561   0.11576   0.11586   0.11603
     Eigenvalues ---    0.11607   0.11633   0.11668   0.11753   0.13579
     Eigenvalues ---    0.13604   0.13670   0.13909   0.13926   0.13938
     Eigenvalues ---    0.13945   0.13946   0.13956   0.13959   0.13960
     Eigenvalues ---    0.14038   0.16000   0.16000   0.16000   0.16000
     Eigenvalues ---    0.16000   0.16000   0.21935   0.21942   0.21942
     Eigenvalues ---    0.22003   0.22003   0.22004   0.22007   0.22010
     Eigenvalues ---    0.22025   0.22032   0.22037   0.22058   0.24176
     Eigenvalues ---    0.24234   0.24244   0.24316   0.24372   0.24679
     Eigenvalues ---    0.25000   0.25000   0.25000   0.25000   0.25000
     Eigenvalues ---    0.25000   0.29625   0.29955   0.29963   0.30048
     Eigenvalues ---    0.30069   0.30510   0.30918   0.33530   0.33556
     Eigenvalues ---    0.33619   0.33634   0.33703   0.33771   0.33775
     Eigenvalues ---    0.33822   0.33864   0.34170   0.34298   0.34343
     Eigenvalues ---    0.34383   0.34404   0.34405   0.34421   0.34429
     Eigenvalues ---    0.34443   0.34448   0.34449   0.34451   0.34459
     Eigenvalues ---    0.34459   0.34464   0.34481   0.34489   0.34490
     Eigenvalues ---    0.34491   0.34493   0.34494   0.43360   0.43676
     Eigenvalues ---    0.43759   0.43917   0.44062   0.44176
 Maximum Force            0.006736     0.000015     NO 
 RMS     Force            0.001691     0.000010     NO 
 Maximum Displacement     0.420806     0.000060     NO 
 RMS     Displacement     0.098983     0.000040     NO 
                          Input orientation:                          
 ---------------------------------------------------------------------
 Center     Atomic      Atomic             Coordinates (Angstroms)
 Number     Number       Type             X           Y           Z
 ---------------------------------------------------------------------
      1          6           0       10.838500   -1.191698    0.789030
      2          1           0       10.436296   -1.772622    1.625495
      3          1           0       11.294139   -1.888347    0.077950
      4          1           0       11.617890   -0.524220    1.172775
      5          6           0        9.734277   -0.392553    0.115196
      6          1           0        9.291001    0.319143    0.830572
      7          1           0       10.141325    0.202259   -0.720214
      8          8           0        8.759735   -1.304364   -0.372437
      9          6           0        7.695042   -0.716286   -1.096436
     10          1           0        7.286165   -1.494961   -1.749170
     11          1           0        8.050050    0.104708   -1.738662
     12          6           0        6.578248   -0.205249   -0.182602
     13          1           0        6.230802   -1.034403    0.452256
     14          1           0        6.949896    0.588498    0.486217
     15          8           0        5.549948    0.299936   -1.017954
     16          6           0        4.471717    0.927698   -0.344994
     17          1           0        4.003261    1.592844   -1.078777
     18          1           0        4.830788    1.552398    0.488149
     19          6           0        3.440596   -0.081984    0.182517
     20          1           0        3.904837   -0.742157    0.923115
     21          1           0        3.086427   -0.712107   -0.648214
     22          8           0        2.357676    0.552663    0.845782
     23          6           0        1.315234    1.009314   -0.001937
     24          1           0        0.929841    0.175173   -0.611416
     25          1           0        1.660689    1.787391   -0.698621
     26          6           0        0.215374    1.576217    0.891872
     27          1           0        0.603494    2.432935    1.451504
     28          1           0       -0.090428    0.827588    1.629764
     29         16           0       -1.235850    2.191568   -0.041778
     30          6           0       -2.181269    0.641683   -0.337185
     31          1           0       -2.845975    0.875936   -1.174630
     32          1           0       -1.508334   -0.150427   -0.679506
     33          6           0       -2.988494    0.176850    0.878726
     34          1           0       -3.662011    0.969069    1.219864
     35          1           0       -2.322140   -0.050051    1.716981
     36         16           0       -3.923485   -1.380178    0.596379
     37          6           0       -5.356498   -0.800157   -0.399460
     38          1           0       -5.761795   -1.712340   -0.848715
     39          1           0       -5.015603   -0.168946   -1.225977
     40          6           0       -6.431949   -0.081314    0.420696
     41          1           0       -6.772652   -0.712918    1.246733
     42          1           0       -6.026791    0.831385    0.869113
     43         16           0       -7.863685    0.493826   -0.575554
     44          6           0       -8.789680   -1.065922   -0.875381
     45          1           0       -9.512977   -0.797534   -1.653058
     46          1           0       -8.120399   -1.810892   -1.320177
     47          6           0       -9.512728   -1.634254    0.346437
     48          1           0      -10.214667   -0.903796    0.760574
     49          1           0      -10.075159   -2.535092    0.070077
     50          1           0       -8.812681   -1.916311    1.140081
 ---------------------------------------------------------------------
 Stoichiometry    C14H30O3S3
 Framework group  C1[X(C14H30O3S3)]
                         Standard orientation:                         
 ---------------------------------------------------------------------
 Center     Atomic      Atomic             Coordinates (Angstroms)
 Number     Number       Type             X           Y           Z
 ---------------------------------------------------------------------
      1          6           0      -10.843472   -1.214489   -0.779244
      2          1           0      -10.440277   -1.803763   -1.609368
      3          1           0      -11.298129   -1.904144   -0.060757
      4          1           0      -11.623838   -0.552376   -1.170232
      5          6           0       -9.740556   -0.406447   -0.113935
      6          1           0       -9.298285    0.298189   -0.836882
      7          1           0      -10.148616    0.196696    0.714984
      8          8           0       -8.764677   -1.311462    0.383584
      9          6           0       -7.700974   -0.713995    1.101323
     10          1           0       -7.290983   -1.484973    1.762441
     11          1           0       -8.057317    0.113317    1.734641
     12          6           0       -6.584854   -0.211109    0.182159
     13          1           0       -6.236061   -1.046513   -0.443703
     14          1           0       -6.957637    0.574824   -0.495201
     15          8           0       -5.557430    0.304611    1.012133
     16          6           0       -4.480081    0.926749    0.332569
     17          1           0       -4.012733    1.600470    1.059201
     18          1           0       -4.840009    1.541895   -0.507286
     19          6           0       -3.447351   -0.086969   -0.183938
     20          1           0       -3.910490   -0.755785   -0.917438
     21          1           0       -3.092317   -0.707572    0.653562
     22          8           0       -2.365324    0.542164   -0.853882
     23          6           0       -1.323685    1.009508   -0.011017
     24          1           0       -0.937088    0.182566    0.607443
     25          1           0       -1.670416    1.794507    0.677217
     26          6           0       -0.224588    1.568446   -0.910761
     27          1           0       -0.613952    2.418496   -1.479621
     28          1           0        0.082450    0.812390   -1.640522
     29         16           0        1.225579    2.196034    0.016364
     30          6           0        2.173336    0.650869    0.328531
     31          1           0        2.837582    0.895139    1.163476
     32          1           0        1.501574   -0.138543    0.679286
     33          6           0        2.981420    0.174216   -0.882223
     34          1           0        3.653762    0.963751   -1.231797
     35          1           0        2.315515   -0.062714   -1.718057
     36         16           0        3.918761   -1.378248   -0.583039
     37          6           0        5.350764   -0.785347    0.406649
     38          1           0        5.757403   -1.692020    0.865737
     39          1           0        5.008802   -0.145801    1.226290
     40          6           0        6.425211   -0.073723   -0.421083
     41          1           0        6.766980   -0.713656   -1.240240
     42          1           0        6.018708    0.833475   -0.879338
     43         16           0        7.855943    0.514300    0.569069
     44          6           0        8.784291   -1.040709    0.885760
     45          1           0        9.507083   -0.762860    1.660579
     46          1           0        8.116099   -1.781876    1.338477
     47          6           0        9.508357   -1.621048   -0.329796
     48          1           0       10.209225   -0.894013   -0.751697
     49          1           0       10.072134   -2.517996   -0.043700
     50          1           0        8.808838   -1.912702   -1.120432
 ---------------------------------------------------------------------
 Standard basis: 6-31G(d) (6D, 7F)
   372 basis functions,   752 primitive gaussians,   372 cartesian basis functions
    93 alpha electrons       93 beta electrons
 Requested convergence on RMS density matrix=1.00D-08 within  64 cycles.
 Requested convergence on MAX density matrix=1.00D-06.
 Requested convergence on             energy=1.00D-06.
 SCF Done:  E(RB3LYP) =  -1971.75424074     A.U. after   10 cycles
            NFock= 10  Conv=0.50D-08     -V/T= 2.0058
 Step number   2 out of a maximum of   55
     Eigenvalues ---    0.00230   0.00230   0.00230   0.00230   0.00230
     Eigenvalues ---    0.00241   0.00398   0.00444   0.00445   0.00457
     Eigenvalues ---    0.00460   0.00521   0.00576   0.01505   0.01532
     Eigenvalues ---    0.01540   0.01552   0.01566   0.01575   0.04318
     Eigenvalues ---    0.04442   0.04455   0.04472   0.04509   0.04583
     Eigenvalues ---    0.04851   0.04870   0.04895   0.05362   0.05437
     Eigenvalues ---    0.05438   0.05508   0.05632   0.05650   0.05653
     Eigenvalues ---    0.05658   0.05664   0.05678   0.05736   0.05767
     Eigenvalues ---    0.05828   0.05850   0.05876   0.05986   0.05997
     Eigenvalues ---    0.06007   0.06094   0.11042   0.11087   0.11222
     Eigenvalues ---    0.11462   0.11588   0.11609   0.11625   0.11638
     Eigenvalues ---    0.11649   0.11683   0.11711   0.11791   0.13600
     Eigenvalues ---    0.13623   0.13692   0.13931   0.13949   0.13967
     Eigenvalues ---    0.13972   0.13974   0.13981   0.13985   0.13992
     Eigenvalues ---    0.14070   0.15976   0.16000   0.16000   0.16000
     Eigenvalues ---    0.16000   0.16019   0.20455   0.21936   0.21940
     Eigenvalues ---    0.21972   0.22004   0.22005   0.22006   0.22015
     Eigenvalues ---    0.22021   0.22030   0.22037   0.22052   0.23097
     Eigenvalues ---    0.24192   0.24238   0.24287   0.24353   0.24621
     Eigenvalues ---    0.24997   0.25000   0.25000   0.25000   0.25000
     Eigenvalues ---    0.27166   0.29685   0.29959   0.30015   0.30056
     Eigenvalues ---    0.30392   0.30833   0.32405   0.33541   0.33571
     Eigenvalues ---    0.33625   0.33650   0.33724   0.33772   0.33800
     Eigenvalues ---    0.33853   0.33967   0.34182   0.34301   0.34349
     Eigenvalues ---    0.34389   0.34403   0.34407   0.34424   0.34433
     Eigenvalues ---    0.34443   0.34446   0.34449   0.34450   0.34459
     Eigenvalues ---    0.34461   0.34475   0.34477   0.34483   0.34489
     Eigenvalues ---    0.34492   0.34494   0.34802   0.43302   0.43589
     Eigenvalues ---    0.43773   0.43871   0.44083   0.44596
 Maximum Force            0.002023     0.000015     NO 
 RMS     Force            0.000431     0.000010     NO 
 Maximum Displacement     0.323822     0.000060     NO 
 RMS     Displacement     0.076525     0.000040     NO 
                          Input orientation:                          
 ---------------------------------------------------------------------
 Center     Atomic      Atomic             Coordinates (Angstroms)
 Number     Number       Type             X           Y           Z
 ---------------------------------------------------------------------
      1          6           0       10.762192   -1.216457    0.779525
      2          1           0       10.362945   -1.778725    1.630153
      3          1           0       11.210912   -1.928643    0.079271
      4          1           0       11.546131   -0.543535    1.144532
      5          6           0        9.657981   -0.424314    0.097464
      6          1           0        9.220970    0.302415    0.801585
      7          1           0       10.061727    0.151368   -0.752787
      8          8           0        8.677216   -1.343585   -0.365073
      9          6           0        7.613660   -0.760660   -1.095146
     10          1           0        7.192876   -1.549859   -1.727508
     11          1           0        7.972475    0.043644   -1.756242
     12          6           0        6.512351   -0.219188   -0.180171
     13          1           0        6.160291   -1.030764    0.474523
     14          1           0        6.898492    0.585453    0.467238
     15          8           0        5.483107    0.277944   -1.020537
     16          6           0        4.420460    0.932321   -0.347064
     17          1           0        3.947841    1.584049   -1.090222
     18          1           0        4.797739    1.570488    0.467457
     19          6           0        3.391723   -0.060161    0.216584
     20          1           0        3.860048   -0.706949    0.966346
     21          1           0        3.019176   -0.703667   -0.595581
     22          8           0        2.324173    0.600960    0.880316
     23          6           0        1.280555    1.050455    0.028888
     24          1           0        0.880518    0.208287   -0.559712
     25          1           0        1.629643    1.811301   -0.684930
     26          6           0        0.196182    1.646046    0.922711
     27          1           0        0.595478    2.509403    1.464155
     28          1           0       -0.115949    0.913085    1.673711
     29         16           0       -1.254957    2.260582   -0.015962
     30          6           0       -2.174070    0.698902   -0.345185
     31          1           0       -2.864981    0.948306   -1.156859
     32          1           0       -1.490070   -0.063668   -0.730051
     33          6           0       -2.936164    0.175994    0.875531
     34          1           0       -3.620884    0.938617    1.259317
     35          1           0       -2.243965   -0.066438    1.688435
     36         16           0       -3.844759   -1.393054    0.558377
     37          6           0       -5.285789   -0.809851   -0.428782
     38          1           0       -5.698373   -1.722156   -0.871514
     39          1           0       -4.946916   -0.180597   -1.257662
     40          6           0       -6.346900   -0.083639    0.402623
     41          1           0       -6.684070   -0.712424    1.232401
     42          1           0       -5.934997    0.830244    0.842971
     43         16           0       -7.788313    0.490868   -0.584273
     44          6           0       -8.700530   -1.079125   -0.886494
     45          1           0       -9.450733   -0.806498   -1.636990
     46          1           0       -8.030646   -1.803550   -1.363468
     47          6           0       -9.373037   -1.679611    0.348345
     48          1           0      -10.074354   -0.968979    0.796843
     49          1           0       -9.927080   -2.586361    0.073858
     50          1           0       -8.641322   -1.960276    1.114053
 ---------------------------------------------------------------------
 Stoichiometry    C14H30O3S3
 Framework group  C1[X(C14H30O3S3)]
                         Standard orientation:                         
 ---------------------------------------------------------------------
 Center     Atomic      Atomic             Coordinates (Angstroms)
 Number     Number       Type             X           Y           Z
 ---------------------------------------------------------------------
      1          6           0      -10.765803   -1.210249   -0.787721
      2          1           0      -10.367189   -1.761614   -1.645751
      3          1           0      -11.213792   -1.931339   -0.096165
      4          1           0      -11.550178   -0.532903   -1.143496
      5          6           0       -9.661147   -0.426604   -0.096624
      6          1           0       -9.224874    0.309075   -0.791852
      7          1           0      -10.064263    0.138178    0.761202
      8          8           0       -8.679819   -1.351477    0.353380
      9          6           0       -7.615739   -0.777650    1.089869
     10          1           0       -7.194268   -1.574721    1.711815
     11          1           0       -7.974127    0.018141    1.761414
     12          6           0       -6.515316   -0.224414    0.180884
     13          1           0       -6.163675   -1.027560   -0.484347
     14          1           0       -6.902160    0.588294   -0.455941
     15          8           0       -5.485438    0.262222    1.026599
     16          6           0       -4.423488    0.925285    0.360561
     17          1           0       -3.950346    1.567631    1.111513
     18          1           0       -4.801585    1.573653   -0.445481
     19          6           0       -3.395060   -0.059777   -0.216506
     20          1           0       -3.863915   -0.697099   -0.974003
     21          1           0       -3.021697   -0.713454    0.587116
     22          8           0       -2.328201    0.609908   -0.872723
     23          6           0       -1.283930    1.048773   -0.016563
     24          1           0       -0.883234    0.199288    0.560971
     25          1           0       -1.632539    1.800444    0.707141
     26          6           0       -0.200435    1.655852   -0.903697
     27          1           0       -0.600353    2.525926   -1.433811
     28          1           0        0.111180    0.932528   -1.664195
     29         16           0        1.251402    2.258717    0.041442
     30          6           0        2.171079    0.693165    0.350053
     31          1           0        2.862645    0.932392    1.164229
     32          1           0        1.487548   -0.074353    0.725810
     33          6           0        2.932214    0.185916   -0.877847
     34          1           0        3.616466    0.953473   -1.252525
     35          1           0        2.239359   -0.046324   -1.693164
     36         16           0        3.841364   -1.386852   -0.581389
     37          6           0        5.283140   -0.815934    0.411844
     38          1           0        5.696269   -1.733699    0.842622
     39          1           0        4.944868   -0.197302    1.248925
     40          6           0        6.343403   -0.079040   -0.411201
     41          1           0        6.679971   -0.697193   -1.249172
     42          1           0        5.930957    0.840272   -0.839576
     43         16           0        7.785563    0.483186    0.581658
     44          6           0        8.698322   -1.090338    0.863170
     45          1           0        9.449123   -0.827103    1.616416
     46          1           0        8.028980   -1.820878    1.331499
     47          6           0        9.369872   -1.674995   -0.379759
     48          1           0       10.070675   -0.958603   -0.819817
     49          1           0        9.924315   -2.585047   -0.117264
     50          1           0        8.637548   -1.946072   -1.148334
 ---------------------------------------------------------------------
 Standard basis: 6-31G(d) (6D, 7F)
   372 basis functions,   752 primitive gaussians,   372 cartesian basis functions
    93 alpha electrons       93 beta electrons
 Requested convergence on RMS density matrix=1.00D-08 within  64 cycles.
 Requested convergence on MAX density matrix=1.00D-06.
 Requested convergence on             energy=1.00D-06.
 SCF Done:  E(RB3LYP) =  -1971.75434993     A.U. after   10 cycles
            NFock= 10  Conv=0.43D-08     -V/T= 2.0058
 Step number   3 out of a maximum of   55
     Eigenvalues ---    0.00229   0.00230   0.00230   0.00230   0.00231
     Eigenvalues ---    0.00354   0.00398   0.00444   0.00445   0.00458
     Eigenvalues ---    0.00460   0.00521   0.00576   0.01503   0.01527
     Eigenvalues ---    0.01539   0.01551   0.01564   0.01574   0.04339
     Eigenvalues ---    0.04426   0.04481   0.04495   0.04567   0.04664
     Eigenvalues ---    0.04885   0.04901   0.04922   0.05038   0.05382
     Eigenvalues ---    0.05469   0.05481   0.05521   0.05614   0.05641
     Eigenvalues ---    0.05644   0.05649   0.05662   0.05753   0.05766
     Eigenvalues ---    0.05789   0.05839   0.05853   0.05973   0.05982
     Eigenvalues ---    0.05995   0.06011   0.11021   0.11081   0.11210
     Eigenvalues ---    0.11311   0.11529   0.11585   0.11606   0.11618
     Eigenvalues ---    0.11635   0.11663   0.11687   0.11766   0.13574
     Eigenvalues ---    0.13622   0.13678   0.13877   0.13922   0.13944
     Eigenvalues ---    0.13953   0.13956   0.13961   0.13971   0.14004
     Eigenvalues ---    0.14062   0.15920   0.16000   0.16000   0.16000
     Eigenvalues ---    0.16001   0.16022   0.18796   0.21936   0.21940
     Eigenvalues ---    0.21964   0.22006   0.22007   0.22011   0.22018
     Eigenvalues ---    0.22024   0.22038   0.22051   0.22187   0.23242
     Eigenvalues ---    0.24195   0.24239   0.24288   0.24354   0.24616
     Eigenvalues ---    0.24998   0.25000   0.25000   0.25000   0.25075
     Eigenvalues ---    0.28186   0.29689   0.29960   0.30030   0.30066
     Eigenvalues ---    0.30367   0.30795   0.31630   0.33539   0.33570
     Eigenvalues ---    0.33627   0.33657   0.33715   0.33773   0.33794
     Eigenvalues ---    0.33847   0.33926   0.34179   0.34300   0.34347
     Eigenvalues ---    0.34388   0.34406   0.34410   0.34425   0.34433
     Eigenvalues ---    0.34444   0.34449   0.34450   0.34457   0.34460
     Eigenvalues ---    0.34464   0.34477   0.34482   0.34486   0.34490
     Eigenvalues ---    0.34492   0.34497   0.35707   0.43313   0.43574
     Eigenvalues ---    0.43777   0.43869   0.44082   0.44613
 Maximum Force            0.000740     0.000015     NO 
 RMS     Force            0.000162     0.000010     NO 
 Maximum Displacement     0.237926     0.000060     NO 
 RMS     Displacement     0.059758     0.000040     NO 
                          Input orientation:                          
 ---------------------------------------------------------------------
 Center     Atomic      Atomic             Coordinates (Angstroms)
 Number     Number       Type             X           Y           Z
 ---------------------------------------------------------------------
      1          6           0       10.802582   -1.172703    0.776841
      2          1           0       10.406542   -1.750663    1.618205
      3          1           0       11.263400   -1.869641    0.069362
      4          1           0       11.575913   -0.494235    1.153908
      5          6           0        9.691786   -0.385967    0.100226
      6          1           0        9.241594    0.325233    0.811467
      7          1           0       10.091326    0.204941   -0.741141
      8          8           0        8.725251   -1.312528   -0.378277
      9          6           0        7.659199   -0.731897   -1.107029
     10          1           0        7.249782   -1.518054   -1.750110
     11          1           0        8.013002    0.083990   -1.756051
     12          6           0        6.549086   -0.213041   -0.190548
     13          1           0        6.201473   -1.035619    0.452176
     14          1           0        6.923640    0.588274    0.467177
     15          8           0        5.518835    0.283414   -1.030801
     16          6           0        4.448349    0.920143   -0.351984
     17          1           0        3.970319    1.574105   -1.089296
     18          1           0        4.818220    1.552356    0.470082
     19          6           0        3.430445   -0.089827    0.198278
     20          1           0        3.904082   -0.738925    0.942318
     21          1           0        3.065365   -0.727431   -0.621442
     22          8           0        2.354993    0.553794    0.867579
     23          6           0        1.310835    1.002667    0.015904
     24          1           0        0.923696    0.162899   -0.583879
     25          1           0        1.655655    1.776075   -0.685915
     26          6           0        0.216997    1.574633    0.912516
     27          1           0        0.604137    2.436419    1.464625
     28          1           0       -0.092170    0.829874    1.652609
     29         16           0       -1.235660    2.190260   -0.025193
     30          6           0       -2.180090    0.634154   -0.313422
     31          1           0       -2.850418    0.870243   -1.145719
     32          1           0       -1.505274   -0.155368   -0.656983
     33          6           0       -2.974899    0.174698    0.910488
     34          1           0       -3.650729    0.964169    1.252592
     35          1           0       -2.304181   -0.055274    1.744314
     36         16           0       -3.911075   -1.386925    0.632425
     37          6           0       -5.330611   -0.804645   -0.388041
     38          1           0       -5.740147   -1.720514   -0.825628
     39          1           0       -4.971685   -0.187453   -1.217180
     40          6           0       -6.400161   -0.063482    0.416797
     41          1           0       -6.757075   -0.680530    1.246752
     42          1           0       -5.992188    0.854278    0.852022
     43         16           0       -7.820547    0.506551   -0.604484
     44          6           0       -8.733608   -1.064829   -0.903426
     45          1           0       -9.448070   -0.804595   -1.691883
     46          1           0       -8.049788   -1.806321   -1.331292
     47          6           0       -9.463311   -1.624641    0.317058
     48          1           0      -10.175922   -0.895904    0.715666
     49          1           0      -10.013670   -2.533667    0.043252
     50          1           0       -8.767227   -1.890488    1.120084
 ---------------------------------------------------------------------
 Stoichiometry    C14H30O3S3
 Framework group  C1[X(C14H30O3S3)]
                         Standard orientation:                         
 ---------------------------------------------------------------------
 Center     Atomic      Atomic             Coordinates (Angstroms)
 Number     Number       Type             X           Y           Z
 ---------------------------------------------------------------------
      1          6           0      -10.806404   -1.181226   -0.775889
      2          1           0      -10.409741   -1.759770   -1.616559
      3          1           0      -11.266583   -1.877797   -0.067634
      4          1           0      -11.580376   -0.503953   -1.153791
      5          6           0       -9.696424   -0.392617   -0.100114
      6          1           0       -9.246884    0.318200   -0.812147
      7          1           0      -10.096599    0.198870    0.740544
      8          8           0       -8.729011   -1.317676    0.379522
      9          6           0       -7.663578   -0.735156    1.107671
     10          1           0       -7.253431   -1.520167    1.751687
     11          1           0       -8.018223    0.081134    1.755727
     12          6           0       -6.553915   -0.216271    0.190661
     13          1           0       -6.205452   -1.039251   -0.451089
     14          1           0       -6.929212    0.583915   -0.468013
     15          8           0       -5.524206    0.282166    1.030406
     16          6           0       -4.454301    0.919160    0.350921
     17          1           0       -3.976961    1.574444    1.087507
     18          1           0       -4.824739    1.550059   -0.471899
     19          6           0       -3.435370   -0.090446   -0.198107
     20          1           0       -3.908321   -0.740868   -0.941426
     21          1           0       -3.069718   -0.726743    0.622373
     22          8           0       -2.360507    0.553456   -0.868083
     23          6           0       -1.316845    1.004338   -0.016861
     24          1           0       -0.928922    0.165645    0.583918
     25          1           0       -1.662470    1.778218    0.684041
     26          6           0       -0.223511    1.576340   -0.914064
     27          1           0       -0.611460    2.437106   -1.467194
     28          1           0        0.086435    0.831029   -1.653275
     29         16           0        1.228480    2.194477    0.023026
     30          6           0        2.174418    0.639632    0.313114
     31          1           0        2.844460    0.877342    1.145181
     32          1           0        1.500355   -0.150154    0.657545
     33          6           0        2.969757    0.179542   -0.910212
     34          1           0        3.644834    0.969280   -1.253186
     35          1           0        2.299320   -0.052052   -1.743815
     36         16           0        3.907448   -1.380838   -0.630283
     37          6           0        5.326344   -0.795986    0.389599
     38          1           0        5.736750   -1.710946    0.828272
     39          1           0        4.966759   -0.178188    1.218001
     40          6           0        6.395219   -0.054705   -0.416027
     41          1           0        6.752793   -0.672361   -1.245245
     42          1           0        5.986374    0.862151   -0.852339
     43         16           0        7.814978    0.517903    0.604685
     44          6           0        8.729561   -1.052233    0.905503
     45          1           0        9.443717   -0.790387    1.693704
     46          1           0        8.046442   -1.793901    1.334183
     47          6           0        9.459893   -1.612740   -0.314286
     48          1           0       10.171815   -0.883766   -0.713692
     49          1           0       10.011127   -2.520909   -0.039394
     50          1           0        8.764123   -1.880199   -1.117048
 ---------------------------------------------------------------------
 Standard basis: 6-31G(d) (6D, 7F)
   372 basis functions,   752 primitive gaussians,   372 cartesian basis functions
    93 alpha electrons       93 beta electrons
 Requested convergence on RMS density matrix=1.00D-08 within  64 cycles.
 Requested convergence on MAX density matrix=1.00D-06.
 Requested convergence on             energy=1.00D-06.
 SCF Done:  E(RB3LYP) =  -1971.75436937     A.U. after   10 cycles
            NFock= 10  Conv=0.30D-08     -V/T= 2.0058
 Step number   4 out of a maximum of   55
     Eigenvalues ---    0.00228   0.00230   0.00230   0.00230   0.00238
     Eigenvalues ---    0.00398   0.00444   0.00445   0.00450   0.00460
     Eigenvalues ---    0.00474   0.00521   0.00576   0.01496   0.01520
     Eigenvalues ---    0.01540   0.01550   0.01566   0.01576   0.04104
     Eigenvalues ---    0.04412   0.04500   0.04517   0.04542   0.04575
     Eigenvalues ---    0.04900   0.04922   0.04954   0.05355   0.05390
     Eigenvalues ---    0.05480   0.05497   0.05561   0.05606   0.05635
     Eigenvalues ---    0.05637   0.05651   0.05670   0.05758   0.05768
     Eigenvalues ---    0.05781   0.05837   0.05865   0.05973   0.05991
     Eigenvalues ---    0.06005   0.06025   0.11016   0.11078   0.11206
     Eigenvalues ---    0.11300   0.11513   0.11588   0.11599   0.11616
     Eigenvalues ---    0.11629   0.11656   0.11681   0.11762   0.13578
     Eigenvalues ---    0.13620   0.13674   0.13910   0.13919   0.13937
     Eigenvalues ---    0.13948   0.13954   0.13964   0.13994   0.14048
     Eigenvalues ---    0.14172   0.15892   0.16000   0.16000   0.16000
     Eigenvalues ---    0.16008   0.16070   0.17943   0.21937   0.21941
     Eigenvalues ---    0.21978   0.22009   0.22010   0.22014   0.22020
     Eigenvalues ---    0.22039   0.22047   0.22127   0.23031   0.23257
     Eigenvalues ---    0.24198   0.24242   0.24293   0.24356   0.24632
     Eigenvalues ---    0.25000   0.25000   0.25000   0.25005   0.26223
     Eigenvalues ---    0.28935   0.29730   0.29961   0.30051   0.30280
     Eigenvalues ---    0.30323   0.30743   0.31151   0.33535   0.33575
     Eigenvalues ---    0.33628   0.33657   0.33706   0.33774   0.33787
     Eigenvalues ---    0.33838   0.33906   0.34180   0.34299   0.34346
     Eigenvalues ---    0.34393   0.34405   0.34415   0.34426   0.34433
     Eigenvalues ---    0.34444   0.34449   0.34450   0.34457   0.34461
     Eigenvalues ---    0.34468   0.34478   0.34479   0.34488   0.34489
     Eigenvalues ---    0.34493   0.34506   0.35429   0.43327   0.43605
     Eigenvalues ---    0.43775   0.43867   0.44087   0.45126
 Maximum Force            0.000518     0.000015     NO 
 RMS     Force            0.000129     0.000010     NO 
 Maximum Displacement     0.171995     0.000060     NO 
 RMS     Displacement     0.037587     0.000040     NO 
                          Input orientation:                          
 ---------------------------------------------------------------------
 Center     Atomic      Atomic             Coordinates (Angstroms)
 Number     Number       Type             X           Y           Z
 ---------------------------------------------------------------------
      1          6           0       10.792828   -1.192538    0.794683
      2          1           0       10.392226   -1.773102    1.631961
      3          1           0       11.252718   -1.887633    0.084970
      4          1           0       11.567803   -0.519159    1.177295
      5          6           0        9.686683   -0.398826    0.118933
      6          1           0        9.237313    0.310486    0.832339
      7          1           0       10.090536    0.194496   -0.718483
      8          8           0        8.717703   -1.319153   -0.366827
      9          6           0        7.655644   -0.731552   -1.096300
     10          1           0        7.245716   -1.513339   -1.744121
     11          1           0        8.014311    0.085816   -1.740483
     12          6           0        6.543478   -0.213207   -0.182380
     13          1           0        6.190897   -1.037440    0.455220
     14          1           0        6.917703    0.584028    0.480137
     15          8           0        5.517525    0.290571   -1.023801
     16          6           0        4.446407    0.928337   -0.346407
     17          1           0        3.973892    1.587039   -1.082838
     18          1           0        4.815417    1.555830    0.479456
     19          6           0        3.421832   -0.078953    0.195496
     20          1           0        3.890041   -0.732951    0.938497
     21          1           0        3.057335   -0.711653   -0.628047
     22          8           0        2.346091    0.565749    0.863857
     23          6           0        1.305948    1.022541    0.011214
     24          1           0        0.918322    0.187214   -0.594225
     25          1           0        1.655601    1.798421   -0.685172
     26          6           0        0.210628    1.593059    0.906229
     27          1           0        0.598004    2.450355    1.464882
     28          1           0       -0.104317    0.844881    1.640151
     29         16           0       -1.236489    2.216609   -0.034786
     30          6           0       -2.167957    0.659783   -0.359031
     31          1           0       -2.840111    0.908578   -1.185958
     32          1           0       -1.485737   -0.115423   -0.719715
     33          6           0       -2.957802    0.166363    0.854067
     34          1           0       -3.640571    0.941493    1.214160
     35          1           0       -2.284407   -0.076317    1.681925
     36         16           0       -3.880257   -1.397053    0.541409
     37          6           0       -5.322661   -0.800183   -0.437898
     38          1           0       -5.732340   -1.707295   -0.892832
     39          1           0       -4.983235   -0.157843   -1.255820
     40          6           0       -6.382885   -0.090356    0.405546
     41          1           0       -6.720182   -0.732048    1.224744
     42          1           0       -5.973967    0.818592    0.857651
     43         16           0       -7.826037    0.495605   -0.574332
     44          6           0       -8.756484   -1.067969   -0.860413
     45          1           0       -9.494529   -0.796546   -1.622723
     46          1           0       -8.090271   -1.807767   -1.317443
     47          6           0       -9.448920   -1.636705    0.377207
     48          1           0      -10.144900   -0.908946    0.805586
     49          1           0      -10.011985   -2.540659    0.112817
     50          1           0       -8.728560   -1.913231    1.154605
 ---------------------------------------------------------------------
 Stoichiometry    C14H30O3S3
 Framework group  C1[X(C14H30O3S3)]
                         Standard orientation:                         
 ---------------------------------------------------------------------
 Center     Atomic      Atomic             Coordinates (Angstroms)
 Number     Number       Type             X           Y           Z
 ---------------------------------------------------------------------
      1          6           0      -10.795680   -1.204854   -0.790057
      2          1           0      -10.394932   -1.787257   -1.625986
      3          1           0      -11.254361   -1.898519   -0.078166
      4          1           0      -11.571641   -0.533392   -1.174039
      5          6           0       -9.690019   -0.408057   -0.117151
      6          1           0       -9.241876    0.299804   -0.832767
      7          1           0      -10.094032    0.187101    0.718883
      8          8           0       -8.719714   -1.325964    0.370538
      9          6           0       -7.657875   -0.735181    1.097756
     10          1           0       -7.246679   -1.514732    1.747465
     11          1           0       -8.017070    0.083545    1.739918
     12          6           0       -6.546842   -0.218093    0.181748
     13          1           0       -6.193722   -1.043672   -0.453809
     14          1           0       -6.922362    0.576907   -0.482721
     15          8           0       -5.520948    0.289136    1.021165
     16          6           0       -4.450955    0.926246    0.341379
     17          1           0       -3.978736    1.587489    1.075719
     18          1           0       -4.821168    1.551063   -0.485973
     19          6           0       -3.425578   -0.081375   -0.198387
     20          1           0       -3.893500   -0.737928   -0.939312
     21          1           0       -3.059875   -0.711410    0.626663
     22          8           0       -2.350965    0.562700   -0.869161
     23          6           0       -1.310821    1.022989   -0.018402
     24          1           0       -0.921893    0.189757    0.589085
     25          1           0       -1.660924    1.800379    0.676071
     26          6           0       -0.216682    1.592283   -0.915638
     27          1           0       -0.605356    2.447613   -1.476399
     28          1           0        0.098660    0.842452   -1.647702
     29         16           0        1.230302    2.220026    0.022791
     30          6           0        2.163712    0.665138    0.350728
     31          1           0        2.836085    0.916948    1.176564
     32          1           0        1.482580   -0.109842    0.713945
     33          6           0        2.953378    0.169286   -0.861494
     34          1           0        3.635060    0.944192   -1.224120
     35          1           0        2.279757   -0.076413   -1.688277
     36         16           0        3.877776   -1.392234   -0.545120
     37          6           0        5.320099   -0.791071    0.431676
     38          1           0        5.731070   -1.696476    0.888841
     39          1           0        4.980446   -0.146876    1.248043
     40          6           0        6.379018   -0.082367   -0.414349
     41          1           0        6.716540   -0.725920   -1.231993
     42          1           0        5.968807    0.824881   -0.868691
     43         16           0        7.822102    0.507890    0.563047
     44          6           0        8.754475   -1.053853    0.852840
     45          1           0        9.492674   -0.779518    1.613957
     46          1           0        8.089369   -1.793143    1.312296
     47          6           0        9.446802   -1.625197   -0.383639
     48          1           0       10.141707   -0.897834   -0.814429
     49          1           0       10.011040   -2.527792   -0.117118
     50          1           0        8.726284   -1.904655   -1.159841
 ---------------------------------------------------------------------
 Standard basis: 6-31G(d) (6D, 7F)
   372 basis functions,   752 primitive gaussians,   372 cartesian basis functions
    93 alpha electrons       93 beta electrons
 Requested convergence on RMS density matrix=1.00D-08 within  64 cycles.
 Requested convergence on MAX density matrix=1.00D-06.
 Requested convergence on             energy=1.00D-06.
 SCF Done:  E(RB3LYP) =  -1971.75437920     A.U. after   10 cycles
            NFock= 10  Conv=0.41D-08     -V/T= 2.0058
 Step number   5 out of a maximum of   55
     Eigenvalues ---    0.00213   0.00230   0.00230   0.00230   0.00361
     Eigenvalues ---    0.00398   0.00444   0.00446   0.00458   0.00460
     Eigenvalues ---    0.00519   0.00576   0.00670   0.01474   0.01514
     Eigenvalues ---    0.01540   0.01550   0.01565   0.01576   0.03955
     Eigenvalues ---    0.04392   0.04500   0.04510   0.04574   0.04889
     Eigenvalues ---    0.04913   0.04944   0.05040   0.05387   0.05466
     Eigenvalues ---    0.05477   0.05507   0.05589   0.05632   0.05637
     Eigenvalues ---    0.05643   0.05652   0.05671   0.05755   0.05768
     Eigenvalues ---    0.05783   0.05838   0.05861   0.05973   0.05990
     Eigenvalues ---    0.06006   0.06039   0.11012   0.11092   0.11203
     Eigenvalues ---    0.11275   0.11497   0.11586   0.11601   0.11615
     Eigenvalues ---    0.11635   0.11667   0.11703   0.11761   0.13581
     Eigenvalues ---    0.13625   0.13677   0.13799   0.13912   0.13936
     Eigenvalues ---    0.13949   0.13960   0.13974   0.13996   0.14046
     Eigenvalues ---    0.14055   0.15943   0.16000   0.16000   0.16001
     Eigenvalues ---    0.16009   0.16053   0.17355   0.21939   0.21946
     Eigenvalues ---    0.21959   0.22010   0.22011   0.22012   0.22040
     Eigenvalues ---    0.22045   0.22078   0.22242   0.22892   0.23280
     Eigenvalues ---    0.24208   0.24240   0.24299   0.24364   0.24631
     Eigenvalues ---    0.24985   0.25000   0.25000   0.25092   0.25688
     Eigenvalues ---    0.28523   0.29569   0.29739   0.29962   0.30060
     Eigenvalues ---    0.30346   0.30599   0.31255   0.33523   0.33580
     Eigenvalues ---    0.33614   0.33631   0.33686   0.33752   0.33774
     Eigenvalues ---    0.33817   0.33860   0.34184   0.34301   0.34343
     Eigenvalues ---    0.34368   0.34401   0.34409   0.34422   0.34431
     Eigenvalues ---    0.34434   0.34447   0.34449   0.34452   0.34458
     Eigenvalues ---    0.34466   0.34469   0.34487   0.34489   0.34492
     Eigenvalues ---    0.34493   0.34526   0.34677   0.43309   0.43510
     Eigenvalues ---    0.43768   0.43867   0.44075   0.44684
 Maximum Force            0.000248     0.000015     NO 
 RMS     Force            0.000052     0.000010     NO 
 Maximum Displacement     0.110159     0.000060     NO 
 RMS     Displacement     0.025014     0.000040     NO 
                          Input orientation:                          
 ---------------------------------------------------------------------
 Center     Atomic      Atomic             Coordinates (Angstroms)
 Number     Number       Type             X           Y           Z
 ---------------------------------------------------------------------
      1          6           0       10.791072   -1.197658    0.775660
      2          1           0       10.394296   -1.769959    1.620388
      3          1           0       11.244790   -1.900058    0.069223
      4          1           0       11.570112   -0.523078    1.147649
      5          6           0        9.682540   -0.407397    0.099844
      6          1           0        9.239439    0.309300    0.809728
      7          1           0       10.082546    0.177578   -0.745219
      8          8           0        8.708238   -1.329399   -0.371810
      9          6           0        7.642981   -0.746232   -1.100232
     10          1           0        7.227609   -1.533005   -1.738428
     11          1           0        7.999545    0.064275   -1.754102
     12          6           0        6.536943   -0.217160   -0.185138
     13          1           0        6.186586   -1.034726    0.462140
     14          1           0        6.916316    0.585454    0.467809
     15          8           0        5.506968    0.280802   -1.025092
     16          6           0        4.440702    0.927226   -0.348194
     17          1           0        3.965823    1.579911   -1.088419
     18          1           0        4.815377    1.562016    0.469468
     19          6           0        3.416478   -0.071999    0.208794
     20          1           0        3.886998   -0.719702    0.955824
     21          1           0        3.046588   -0.712154   -0.606490
     22          8           0        2.345241    0.581304    0.876066
     23          6           0        1.301307    1.031975    0.024758
     24          1           0        0.909465    0.191772   -0.571132
     25          1           0        1.648605    1.800764   -0.680535
     26          6           0        0.211043    1.612451    0.919347
     27          1           0        0.602308    2.474183    1.468322
     28          1           0       -0.101486    0.871555    1.661571
     29         16           0       -1.239701    2.228251   -0.020887
     30          6           0       -2.170315    0.668344   -0.332041
     31          1           0       -2.843490    0.909326   -1.160425
     32          1           0       -1.487541   -0.108898   -0.687121
     33          6           0       -2.958447    0.183766    0.885516
     34          1           0       -3.642236    0.960757    1.239403
     35          1           0       -2.284287   -0.050549    1.715106
     36         16           0       -3.879338   -1.382968    0.585623
     37          6           0       -5.311832   -0.798643   -0.415431
     38          1           0       -5.714099   -1.710422   -0.867606
     39          1           0       -4.964380   -0.162526   -1.234791
     40          6           0       -6.383653   -0.084474    0.409222
     41          1           0       -6.728600   -0.719934    1.229995
     42          1           0       -5.982687    0.829451    0.858292
     43         16           0       -7.817343    0.487143   -0.592649
     44          6           0       -8.730135   -1.084817   -0.888627
     45          1           0       -9.454497   -0.823849   -1.667465
     46          1           0       -8.049132   -1.822045   -1.327570
     47          6           0       -9.443504   -1.651654    0.337874
     48          1           0      -10.153819   -0.926887    0.747293
     49          1           0       -9.994022   -2.561628    0.067803
     50          1           0       -8.737369   -1.917787    1.131687
 ---------------------------------------------------------------------
 Stoichiometry    C14H30O3S3
 Framework group  C1[X(C14H30O3S3)]
                         Standard orientation:                         
 ---------------------------------------------------------------------
 Center     Atomic      Atomic             Coordinates (Angstroms)
 Number     Number       Type             X           Y           Z
 ---------------------------------------------------------------------
      1          6           0      -10.794362   -1.199564   -0.783403
      2          1           0      -10.397433   -1.763932   -1.633380
      3          1           0      -11.247167   -1.908658   -0.083094
      4          1           0      -11.574150   -0.522371   -1.149022
      5          6           0       -9.686245   -0.414402   -0.100994
      6          1           0       -9.244070    0.309009   -0.804616
      7          1           0      -10.086414    0.162633    0.749433
      8          8           0       -8.710935   -1.339726    0.361992
      9          6           0       -7.645889   -0.762160    1.095169
     10          1           0       -7.229560   -1.554245    1.726129
     11          1           0       -8.002894    0.042148    1.756411
     12          6           0       -6.540698   -0.223943    0.184395
     13          1           0       -6.189891   -1.035374   -0.470316
     14          1           0       -6.921049    0.584146   -0.461188
     15          8           0       -5.510813    0.267393    1.028351
     16          6           0       -4.445398    0.920791    0.356831
     17          1           0       -3.970786    1.567246    1.102673
     18          1           0       -4.820972    1.562541   -0.454965
     19          6           0       -3.420526   -0.072504   -0.209495
     20          1           0       -3.890787   -0.713911   -0.962099
     21          1           0       -3.049733   -0.719601    0.599876
     22          8           0       -2.350143    0.587691   -0.871331
     23          6           0       -1.306252    1.031648   -0.016450
     24          1           0       -0.913423    0.186494    0.571737
     25          1           0       -1.653933    1.793788    0.695836
     26          6           0       -0.216871    1.621070   -0.906253
     27          1           0       -0.609123    2.487334   -1.447335
     28          1           0        0.096001    0.887122   -1.655206
     29         16           0        1.233721    2.229714    0.038862
     30          6           0        2.165837    0.667908    0.335664
     31          1           0        2.839144    0.902063    1.165897
     32          1           0        1.483896   -0.113083    0.684052
     33          6           0        2.953889    0.194942   -0.886502
     34          1           0        3.636847    0.975673   -1.233701
     35          1           0        2.279591   -0.032536   -1.717881
     36         16           0        3.876284   -1.373598   -0.601018
     37          6           0        5.308678   -0.796988    0.404641
     38          1           0        5.711936   -1.712421    0.848474
     39          1           0        4.961008   -0.168536    1.229802
     40          6           0        6.379528   -0.074522   -0.414026
     41          1           0        6.724692   -0.702306   -1.240594
     42          1           0        5.977570    0.843031   -0.854735
     43         16           0        7.813131    0.489375    0.592335
     44          6           0        8.727429   -1.084363    0.873862
     45          1           0        9.451885   -0.829736    1.654709
     46          1           0        8.047258   -1.826092    1.306468
     47          6           0        9.440787   -1.639571   -0.357954
     48          1           0       10.150293   -0.910542   -0.761160
     49          1           0        9.992218   -2.551439   -0.096262
     50          1           0        8.734556   -1.899215   -1.153828
 ---------------------------------------------------------------------
 Standard basis: 6-31G(d) (6D, 7F)
   372 basis functions,   752 primitive gaussians,   372 cartesian basis functions
    93 alpha electrons       93 beta electrons
 Requested convergence on RMS density matrix=1.00D-08 within  64 cycles.
 Requested convergence on MAX density matrix=1.00D-06.
 Requested convergence on             energy=1.00D-06.
 SCF Done:  E(RB3LYP) =  -1971.75438548     A.U. after    9 cycles
            NFock=  9  Conv=0.54D-08     -V/T= 2.0058
 Step number   6 out of a maximum of   55
     Eigenvalues ---    0.00223   0.00230   0.00230   0.00272   0.00395
     Eigenvalues ---    0.00408   0.00444   0.00451   0.00460   0.00463
     Eigenvalues ---    0.00522   0.00576   0.00778   0.01446   0.01512
     Eigenvalues ---    0.01540   0.01550   0.01566   0.01579   0.04181
     Eigenvalues ---    0.04424   0.04510   0.04551   0.04799   0.04899
     Eigenvalues ---    0.04923   0.04946   0.05024   0.05259   0.05385
     Eigenvalues ---    0.05473   0.05496   0.05528   0.05613   0.05633
     Eigenvalues ---    0.05639   0.05650   0.05664   0.05753   0.05767
     Eigenvalues ---    0.05780   0.05839   0.05870   0.05974   0.05991
     Eigenvalues ---    0.06008   0.06033   0.10990   0.11071   0.11200
     Eigenvalues ---    0.11277   0.11495   0.11585   0.11600   0.11614
     Eigenvalues ---    0.11642   0.11661   0.11678   0.11766   0.13251
     Eigenvalues ---    0.13586   0.13663   0.13678   0.13910   0.13939
     Eigenvalues ---    0.13955   0.13969   0.13974   0.14022   0.14035
     Eigenvalues ---    0.14051   0.15913   0.15995   0.16000   0.16001
     Eigenvalues ---    0.16006   0.16040   0.18241   0.21333   0.21943
     Eigenvalues ---    0.21972   0.21989   0.22010   0.22013   0.22034
     Eigenvalues ---    0.22041   0.22077   0.22892   0.23075   0.23308
     Eigenvalues ---    0.24163   0.24221   0.24303   0.24368   0.24439
     Eigenvalues ---    0.24676   0.25000   0.25003   0.25125   0.25886
     Eigenvalues ---    0.28849   0.29735   0.29953   0.29982   0.30226
     Eigenvalues ---    0.30367   0.30700   0.31277   0.33538   0.33578
     Eigenvalues ---    0.33628   0.33660   0.33717   0.33774   0.33799
     Eigenvalues ---    0.33846   0.33926   0.34180   0.34301   0.34346
     Eigenvalues ---    0.34394   0.34403   0.34417   0.34422   0.34432
     Eigenvalues ---    0.34445   0.34446   0.34452   0.34456   0.34460
     Eigenvalues ---    0.34468   0.34480   0.34487   0.34489   0.34492
     Eigenvalues ---    0.34518   0.34539   0.35632   0.43358   0.43582
     Eigenvalues ---    0.43822   0.43874   0.44093   0.46151
 Maximum Force            0.000111     0.000015     NO 
 RMS     Force            0.000027     0.000010     NO 
 Maximum Displacement     0.039989     0.000060     NO 
 RMS     Displacement     0.013523     0.000040     NO 
                          Input orientation:                          
 ---------------------------------------------------------------------
 Center     Atomic      Atomic             Coordinates (Angstroms)
 Number     Number       Type             X           Y           Z
 ---------------------------------------------------------------------
      1          6           0       10.794496   -1.194499    0.785083
      2          1           0       10.395792   -1.774195    1.623859
      3          1           0       11.252171   -1.890546    0.074904
      4          1           0       11.570884   -0.521455    1.165230
      5          6           0        9.686858   -0.401166    0.111378
      6          1           0        9.239838    0.309225    0.825155
      7          1           0       10.088768    0.191165   -0.727657
      8          8           0        8.716075   -1.321319   -0.370873
      9          6           0        7.652544   -0.734961   -1.099118
     10          1           0        7.240970   -1.517965   -1.744406
     11          1           0        8.010194    0.080653   -1.746024
     12          6           0        6.542195   -0.214190   -0.184540
     13          1           0        6.191118   -1.036815    0.455940
     14          1           0        6.917590    0.584662    0.475315
     15          8           0        5.514311    0.287420   -1.024805
     16          6           0        4.444529    0.927779   -0.347829
     17          1           0        3.971199    1.584242   -1.085750
     18          1           0        4.815258    1.558371    0.474894
     19          6           0        3.420149   -0.076469    0.199590
     20          1           0        3.889149   -0.728024    0.944276
     21          1           0        3.054159   -0.712381   -0.620782
     22          8           0        2.345467    0.570785    0.867056
     23          6           0        1.303643    1.025332    0.015232
     24          1           0        0.916076    0.188573   -0.588288
     25          1           0        1.651866    1.799894   -0.683272
     26          6           0        0.208571    1.597011    0.909621
     27          1           0        0.595946    2.455664    1.466127
     28          1           0       -0.105058    0.850393    1.645654
     29         16           0       -1.239991    2.216125   -0.031571
     30          6           0       -2.173608    0.658270   -0.344005
     31          1           0       -2.847687    0.901274   -1.171063
     32          1           0       -1.492504   -0.119278   -0.701592
     33          6           0       -2.960469    0.172547    0.873921
     34          1           0       -3.642527    0.949875    1.230433
     35          1           0       -2.285300   -0.063962    1.702064
     36         16           0       -3.884704   -1.391902    0.572490
     37          6           0       -5.320215   -0.801872   -0.420822
     38          1           0       -5.729161   -1.711580   -0.871191
     39          1           0       -4.974265   -0.167357   -1.242049
     40          6           0       -6.384207   -0.082630    0.409527
     41          1           0       -6.727559   -0.716347    1.232314
     42          1           0       -5.976503    0.829316    0.856561
     43         16           0       -7.821098    0.494583   -0.584539
     44          6           0       -8.740493   -1.074226   -0.876096
     45          1           0       -9.468636   -0.811325   -1.650738
     46          1           0       -8.064153   -1.813265   -1.319207
     47          6           0       -9.448256   -1.639383    0.354469
     48          1           0      -10.154498   -0.912892    0.767851
     49          1           0      -10.002592   -2.548101    0.087895
     50          1           0       -8.738331   -1.907055    1.144379
 ---------------------------------------------------------------------
 Stoichiometry    C14H30O3S3
 Framework group  C1[X(C14H30O3S3)]
                         Standard orientation:                         
 ---------------------------------------------------------------------
 Center     Atomic      Atomic             Coordinates (Angstroms)
 Number     Number       Type             X           Y           Z
 ---------------------------------------------------------------------
      1          6           0      -10.797810   -1.203567   -0.783949
      2          1           0      -10.398863   -1.782900   -1.622861
      3          1           0      -11.254517   -1.900041   -0.073565
      4          1           0      -11.575013   -0.531305   -1.163815
      5          6           0       -9.690692   -0.409115   -0.110709
      6          1           0       -9.244655    0.301691   -0.824688
      7          1           0      -10.092857    0.182849    0.728463
      8          8           0       -8.718810   -1.328291    0.371193
      9          6           0       -7.655573   -0.740855    1.098999
     10          1           0       -7.242972   -1.523428    1.744153
     11          1           0       -8.013774    0.074429    1.746015
     12          6           0       -6.546099   -0.219020    0.183965
     13          1           0       -6.194461   -1.041321   -0.456624
     14          1           0       -6.922544    0.579436   -0.475771
     15          8           0       -5.518381    0.283636    1.023807
     16          6           0       -4.449499    0.925028    0.346387
     17          1           0       -3.976528    1.581986    1.084097
     18          1           0       -4.821175    1.555223   -0.476213
     19          6           0       -3.424342   -0.078227   -0.201398
     20          1           0       -3.892991   -0.730273   -0.945877
     21          1           0       -3.057401   -0.713747    0.618852
     22          8           0       -2.350563    0.570065   -0.869312
     23          6           0       -1.308855    1.025673   -0.017914
     24          1           0       -0.920223    0.189319    0.585484
     25          1           0       -1.657568    1.799915    0.680699
     26          6           0       -0.214700    1.598400   -0.912755
     27          1           0       -0.603143    2.456650   -1.469140
     28          1           0        0.099378    0.852067   -1.648884
     29         16           0        1.233620    2.218981    0.027845
     30          6           0        2.168899    0.662061    0.339968
[...]
     19          6           0        3.418617   -0.068695    0.211762
     20          1           0        3.891510   -0.709952    0.962914
     21          1           0        3.046695   -0.716009   -0.597088
     22          8           0        2.348950    0.588972    0.876717
     23          6           0        1.305601    1.039342    0.024657
     24          1           0        0.918994    0.200445   -0.576580
     25          1           0        1.651572    1.813059   -0.675974
     26          6           0        0.210259    1.611020    0.918889
     27          1           0        0.596936    2.470903    1.474052
     28          1           0       -0.102030    0.865087    1.656242
     29         16           0       -1.239446    2.227005   -0.022544
     30          6           0       -2.168201    0.666677   -0.336969
     31          1           0       -2.840254    0.907522   -1.166339
     32          1           0       -1.484086   -0.109463   -0.692029
     33          6           0       -2.957922    0.179633    0.878731
     34          1           0       -3.642740    0.955686    1.232870
     35          1           0       -2.284847   -0.055070    1.709127
     36         16           0       -3.877901   -1.386845    0.574892
     37          6           0       -5.312636   -0.799128   -0.420908
     38          1           0       -5.716428   -1.708841   -0.875929
     39          1           0       -4.966680   -0.160243   -1.238806
     40          6           0       -6.382388   -0.087230    0.408593
     41          1           0       -6.725872   -0.725332    1.227998
     42          1           0       -5.979800    0.824683    0.860354
     43         16           0       -7.818330    0.487849   -0.588091
     44          6           0       -8.733383   -1.082936   -0.882644
     45          1           0       -9.459603   -0.821743   -1.659705
     46          1           0       -8.054028   -1.820600   -1.323537
     47          6           0       -9.444026   -1.649544    0.345668
     48          1           0      -10.153628   -0.924730    0.756307
     49          1           0       -9.995061   -2.559799    0.077443
     50          1           0       -8.736182   -1.915046    1.138222
 ---------------------------------------------------------------------
 Stoichiometry    C14H30O3S3
 Framework group  C1[X(C14H30O3S3)]
                         Standard orientation:                         
 ---------------------------------------------------------------------
 Center     Atomic      Atomic             Coordinates (Angstroms)
 Number     Number       Type             X           Y           Z
 ---------------------------------------------------------------------
      1          6           0      -10.793075   -1.201270   -0.786187
      2          1           0      -10.398142   -1.778303   -1.628608
      3          1           0      -11.250953   -1.899254   -0.078007
      4          1           0      -11.568471   -0.524268   -1.161350
      5          6           0       -9.681474   -0.414011   -0.111798
      6          1           0       -9.234827    0.298837   -0.823415
      7          1           0      -10.079453    0.175194    0.731360
      8          8           0       -8.711704   -1.339056    0.362911
      9          6           0       -7.647910   -0.760049    1.096381
     10          1           0       -7.234285   -1.550408    1.731343
     11          1           0       -8.005767    0.047077    1.753863
     12          6           0       -6.539335   -0.226545    0.186829
     13          1           0       -6.190125   -1.040059   -0.466275
     14          1           0       -6.915616    0.582077   -0.460564
     15          8           0       -5.509559    0.262133    1.032300
     16          6           0       -4.445360    0.920118    0.363748
     17          1           0       -3.968889    1.560247    1.113917
     18          1           0       -4.822459    1.568884   -0.441892
     19          6           0       -3.422457   -0.069041   -0.213328
     20          1           0       -3.895084   -0.704513   -0.969547
     21          1           0       -3.049636   -0.722659    0.590018
     22          8           0       -2.353641    0.595029   -0.873271
     23          6           0       -1.310349    1.039299   -0.017946
     24          1           0       -0.922756    0.195825    0.576213
     25          1           0       -1.656723    1.806914    0.689168
     26          6           0       -0.215874    1.619292   -0.907874
     27          1           0       -0.603537    2.483371   -1.455787
     28          1           0        0.096779    0.879732   -1.651466
     29         16           0        1.233663    2.228796    0.038024
     30          6           0        2.163927    0.666759    0.339226
     31          1           0        2.836101    0.901367    1.170285
     32          1           0        1.480644   -0.112885    0.688156
     33          6           0        2.953590    0.190441   -0.880754
     34          1           0        3.637577    0.969992   -1.228764
     35          1           0        2.280389   -0.038017   -1.712787
     36         16           0        3.875079   -1.377666   -0.590185
     37          6           0        5.309693   -0.796889    0.409853
     38          1           0        5.714476   -1.709957    0.857210
     39          1           0        4.963501   -0.165066    1.233119
     40          6           0        6.378480   -0.077236   -0.414184
     41          1           0        6.722199   -0.708266   -1.238950
     42          1           0        5.974902    0.838006   -0.858263
     43         16           0        7.814314    0.490896    0.586633
     44          6           0        8.730877   -1.081445    0.867883
     45          1           0        9.457178   -0.826012    1.646780
     46          1           0        8.052353   -1.823318    1.302958
     47          6           0        9.441526   -1.637291   -0.365332
     48          1           0       10.150320   -0.908491   -0.770272
     49          1           0        9.993476   -2.549233   -0.104828
     50          1           0        8.733599   -1.896890   -1.159765
 ---------------------------------------------------------------------
 Standard basis: 6-31G(d) (6D, 7F)
   372 basis functions,   752 primitive gaussians,   372 cartesian basis functions
    93 alpha electrons       93 beta electrons
 Requested convergence on RMS density matrix=1.00D-08 within  64 cycles.
 Requested convergence on MAX density matrix=1.00D-06.
 Requested convergence on             energy=1.00D-06.
 SCF Done:  E(RB3LYP) =  -1971.75438698     A.U. after    3 cycles
            NFock=  3  Conv=0.48D-08     -V/T= 2.0058
 Step number  27 out of a maximum of   55
     Eigenvalues ---    0.00062   0.00137   0.00206   0.00278   0.00302
     Eigenvalues ---    0.00422   0.00443   0.00446   0.00472   0.00497
     Eigenvalues ---    0.00568   0.00600   0.00649   0.00701   0.00759
     Eigenvalues ---    0.00846   0.01535   0.01557   0.01776   0.04698
     Eigenvalues ---    0.04772   0.04810   0.04922   0.04927   0.04975
     Eigenvalues ---    0.05022   0.05169   0.05244   0.05285   0.05394
     Eigenvalues ---    0.05514   0.05536   0.05562   0.05617   0.05660
     Eigenvalues ---    0.05677   0.05687   0.05713   0.05754   0.05759
     Eigenvalues ---    0.05792   0.05836   0.05918   0.05975   0.05994
     Eigenvalues ---    0.06027   0.06220   0.09964   0.11037   0.11157
     Eigenvalues ---    0.11233   0.11539   0.11596   0.11621   0.11652
     Eigenvalues ---    0.11676   0.11713   0.11762   0.11895   0.12757
     Eigenvalues ---    0.13563   0.13678   0.13704   0.13871   0.13968
     Eigenvalues ---    0.13974   0.13995   0.14015   0.14061   0.14118
     Eigenvalues ---    0.14179   0.15898   0.15993   0.16000   0.16020
     Eigenvalues ---    0.16062   0.16073   0.17872   0.19501   0.21450
     Eigenvalues ---    0.21735   0.21866   0.21960   0.22510   0.22634
     Eigenvalues ---    0.22776   0.22904   0.22964   0.23257   0.23799
     Eigenvalues ---    0.24125   0.24257   0.24309   0.24385   0.24640
     Eigenvalues ---    0.24976   0.25095   0.26966   0.27230   0.27952
     Eigenvalues ---    0.28385   0.29277   0.29987   0.30043   0.30351
     Eigenvalues ---    0.30512   0.30859   0.31308   0.33529   0.33603
     Eigenvalues ---    0.33638   0.33700   0.33715   0.33779   0.33794
     Eigenvalues ---    0.33856   0.33948   0.34202   0.34333   0.34392
     Eigenvalues ---    0.34412   0.34421   0.34431   0.34442   0.34454
     Eigenvalues ---    0.34457   0.34463   0.34474   0.34480   0.34495
     Eigenvalues ---    0.34523   0.34529   0.34559   0.34586   0.34617
     Eigenvalues ---    0.34650   0.34732   0.35604   0.43321   0.43474
     Eigenvalues ---    0.43810   0.43917   0.44597   0.47194
 Maximum Force            0.000000     0.000015     YES
 RMS     Force            0.000000     0.000010     YES
 Maximum Displacement     0.000351     0.000060     NO 
 RMS     Displacement     0.000080     0.000040     NO 
 Optimization completed on the basis of negligible forces.
    -- Stationary point found.
                          Input orientation:                          
 ---------------------------------------------------------------------
 Center     Atomic      Atomic             Coordinates (Angstroms)
 Number     Number       Type             X           Y           Z
 ---------------------------------------------------------------------
      1          6           0       10.790012   -1.199069    0.778252
      2          1           0       10.395259   -1.783367    1.615735
      3          1           0       11.248791   -1.890794    0.064535
      4          1           0       11.564656   -0.524492    1.159287
      5          6           0        9.677978   -0.407272    0.109918
      6          1           0        9.230415    0.299299    0.827198
      7          1           0       10.075766    0.189207   -0.728202
      8          8           0        8.709219   -1.329236   -0.372781
      9          6           0        7.645201   -0.745154   -1.101888
     10          1           0        7.232530   -1.530626   -1.743502
     11          1           0        8.002599    0.067674   -1.752560
     12          6           0        6.535791   -0.220138   -0.188423
     13          1           0        6.187048   -1.039309    0.457822
     14          1           0        6.911097    0.583461    0.465756
     15          8           0        5.505916    0.274570   -1.030257
     16          6           0        4.440868    0.926086   -0.356741
     17          1           0        3.964124    1.571946   -1.101807
     18          1           0        4.817070    1.568532    0.454364
     19          6           0        3.418617   -0.068695    0.211762
     20          1           0        3.891510   -0.709952    0.962914
     21          1           0        3.046695   -0.716009   -0.597088
     22          8           0        2.348950    0.588972    0.876717
     23          6           0        1.305601    1.039342    0.024657
     24          1           0        0.918994    0.200445   -0.576580
     25          1           0        1.651572    1.813059   -0.675974
     26          6           0        0.210259    1.611020    0.918889
     27          1           0        0.596936    2.470903    1.474052
     28          1           0       -0.102030    0.865087    1.656242
     29         16           0       -1.239446    2.227005   -0.022544
     30          6           0       -2.168201    0.666677   -0.336969
     31          1           0       -2.840254    0.907522   -1.166339
     32          1           0       -1.484086   -0.109463   -0.692029
     33          6           0       -2.957922    0.179633    0.878731
     34          1           0       -3.642740    0.955686    1.232870
     35          1           0       -2.284847   -0.055070    1.709127
     36         16           0       -3.877901   -1.386845    0.574892
     37          6           0       -5.312636   -0.799128   -0.420908
     38          1           0       -5.716428   -1.708841   -0.875929
     39          1           0       -4.966680   -0.160243   -1.238806
     40          6           0       -6.382388   -0.087230    0.408593
     41          1           0       -6.725872   -0.725332    1.227998
     42          1           0       -5.979800    0.824683    0.860354
     43         16           0       -7.818330    0.487849   -0.588091
     44          6           0       -8.733383   -1.082936   -0.882644
     45          1           0       -9.459603   -0.821743   -1.659705
     46          1           0       -8.054028   -1.820600   -1.323537
     47          6           0       -9.444026   -1.649544    0.345668
     48          1           0      -10.153628   -0.924730    0.756307
     49          1           0       -9.995061   -2.559799    0.077443
     50          1           0       -8.736182   -1.915046    1.138222
 ---------------------------------------------------------------------
 Stoichiometry    C14H30O3S3
 Framework group  C1[X(C14H30O3S3)]
                         Standard orientation:                         
 ---------------------------------------------------------------------
 Center     Atomic      Atomic             Coordinates (Angstroms)
 Number     Number       Type             X           Y           Z
 ---------------------------------------------------------------------
      1          6           0      -10.793075   -1.201270   -0.786187
      2          1           0      -10.398142   -1.778303   -1.628608
      3          1           0      -11.250953   -1.899254   -0.078007
      4          1           0      -11.568471   -0.524268   -1.161350
      5          6           0       -9.681474   -0.414011   -0.111798
      6          1           0       -9.234827    0.298837   -0.823415
      7          1           0      -10.079453    0.175194    0.731360
      8          8           0       -8.711704   -1.339056    0.362911
      9          6           0       -7.647910   -0.760049    1.096381
     10          1           0       -7.234285   -1.550408    1.731343
     11          1           0       -8.005767    0.047077    1.753863
     12          6           0       -6.539335   -0.226545    0.186829
     13          1           0       -6.190125   -1.040059   -0.466275
     14          1           0       -6.915616    0.582077   -0.460564
     15          8           0       -5.509559    0.262133    1.032300
     16          6           0       -4.445360    0.920118    0.363748
     17          1           0       -3.968889    1.560247    1.113917
     18          1           0       -4.822459    1.568884   -0.441892
     19          6           0       -3.422457   -0.069041   -0.213328
     20          1           0       -3.895084   -0.704513   -0.969547
     21          1           0       -3.049636   -0.722659    0.590018
     22          8           0       -2.353641    0.595029   -0.873271
     23          6           0       -1.310349    1.039299   -0.017946
     24          1           0       -0.922756    0.195825    0.576213
     25          1           0       -1.656723    1.806914    0.689168
     26          6           0       -0.215874    1.619292   -0.907874
     27          1           0       -0.603537    2.483371   -1.455787
     28          1           0        0.096779    0.879732   -1.651466
     29         16           0        1.233663    2.228796    0.038024
     30          6           0        2.163927    0.666759    0.339226
     31          1           0        2.836101    0.901367    1.170285
     32          1           0        1.480644   -0.112885    0.688156
     33          6           0        2.953590    0.190441   -0.880754
     34          1           0        3.637577    0.969992   -1.228764
     35          1           0        2.280389   -0.038017   -1.712787
     36         16           0        3.875079   -1.377666   -0.590185
     37          6           0        5.309693   -0.796889    0.409853
     38          1           0        5.714476   -1.709957    0.857210
     39          1           0        4.963501   -0.165066    1.233119
     40          6           0        6.378480   -0.077236   -0.414184
     41          1           0        6.722199   -0.708266   -1.238950
     42          1           0        5.974902    0.838006   -0.858263
     43         16           0        7.814314    0.490896    0.586633
     44          6           0        8.730877   -1.081445    0.867883
     45          1           0        9.457178   -0.826012    1.646780
     46          1           0        8.052353   -1.823318    1.302958
     47          6           0        9.441526   -1.637291   -0.365332
     48          1           0       10.150320   -0.908491   -0.770272
     49          1           0        9.993476   -2.549233   -0.104828
     50          1           0        8.733599   -1.896890   -1.159765
 ---------------------------------------------------------------------
 Mulliken charges:
     1  C   -0.451951
     2  H    0.158093
     3  H    0.159634
     4  H    0.142952
     5  C   -0.013411
     6  H    0.121196
     7  H    0.122520
     8  O   -0.472620
     9  C   -0.035126
    10  H    0.154498
    11  H    0.131153
    12  C   -0.034945
    13  H    0.135116
    14  H    0.123861
    15  O   -0.480234
    16  C   -0.037886
    17  H    0.147519
    18  H    0.132092
    19  C   -0.042306
    20  H    0.149119
    21  H    0.134043
    22  O   -0.479860
    23  C   -0.008854
    24  H    0.129404
    25  H    0.140872
    26  C   -0.437264
    27  H    0.188770
    28  H    0.180884
    29  S    0.086665
    30  C   -0.415623
    31  H    0.183704
    32  H    0.187899
    33  C   -0.413854
    34  H    0.186698
    35  H    0.183954
    36  S    0.081607
    37  C   -0.413956
    38  H    0.181555
    39  H    0.185461
    40  C   -0.413666
    41  H    0.186970
    42  H    0.181642
    43  S    0.082130
    44  C   -0.410990
    45  H    0.178890
    46  H    0.168997
    47  C   -0.436074
    48  H    0.165779
    49  H    0.150488
    50  H    0.154457
 Sum of Mulliken charges =  -0.00000
 Dipole moment (field-independent basis, Debye):
    X=             -0.2134    Y=             -0.5504    Z=             -0.3579  Tot=              0.6903
 Quadrupole moment (field-independent basis, Debye-Ang):
   XX=           -130.8975   YY=           -154.7244   ZZ=           -149.5092
   XY=            -21.2316   XZ=              6.3476   YZ=             -3.2294
 Traceless Quadrupole moment (field-independent basis, Debye-Ang):
   XX=             14.1462   YY=             -9.6807   ZZ=             -4.4655
   XY=            -21.2316   XZ=              6.3476   YZ=             -3.2294
 Octapole moment (field-independent basis, Debye-Ang**2):
  XXX=            -80.5571  YYY=             -6.5264  ZZZ=              0.6422  XYY=            -14.5346
  XXY=            -34.4139  XXZ=            -18.8129  XZZ=            -16.4439  YZZ=             -3.2897
  YYZ=              0.9189  XYZ=            -17.5709
 Hexadecapole moment (field-independent basis, Debye-Ang**3):
 XXXX=         -31248.3189 YYYY=          -1389.1861 ZZZZ=           -598.4547 XXXY=          -1668.5633
 XXXZ=            484.0204 YYYX=            -51.2313 YYYZ=            -20.3659 ZZZX=            -18.7733
 ZZZY=            -10.9337 XXYY=          -6049.5345 XXZZ=          -5768.5000 YYZZ=           -324.6396
 XXYZ=            -94.1144 YYXZ=             16.0207 ZZXY=             18.9588
 Job cpu time:       0 days  5 hours  1 minutes 23.5 seconds.
 Normal termination of Gaussian 16 at Sun Jul  9 00:07:18 2023.
