 Copyright (c) 1988-2019, Gaussian, Inc.  All Rights Reserved.
  
 This is part of the Gaussian(R) 16 program.  It is based on
 the Gaussian(R) 09 system (copyright 2009, Gaussian, Inc.),
 the Gaussian(R) 03 system (copyright 2003, Gaussian, Inc.),
 the Gaussian(R) 98 system (copyright 1998, Gaussian, Inc.),
 the Gaussian(R) 94 system (copyright 1995, Gaussian, Inc.),
 the Gaussian 92(TM) system (copyright 1992, Gaussian, Inc.),
 the Gaussian 90(TM) system (copyright 1990, Gaussian, Inc.),
 the Gaussian 88(TM) system (copyright 1988, Gaussian, Inc.),
 the Gaussian 86(TM) system (copyright 1986, Carnegie Mellon
 University), and the Gaussian 82(TM) system (copyright 1983,
 Carnegie Mellon University). Gaussian is a federally registered
 trademark of Gaussian, Inc.
 Cite this work as:
 Gaussian 16, Revision C.01,
 M. J. Frisch, G. W. Trucks, H. B. Schlegel, G. E. Scuseria, 
 M. A. Robb, J. R. Cheeseman, G. Scalmani, V. Barone, 
 G. A. Petersson, H. Nakatsuji, X. Li, M. Caricato, A. V. Marenich, 
 J. Bloino, B. G. Janesko, R. Gomperts, B. Mennucci, H. P. Hratchian, 
 J. V. Ortiz, A. F. Izmaylov, J. L. Sonnenberg, D. Williams-Young, 
 F. Ding, F. Lipparini, F. Egidi, J. Goings, B. Peng, A. Petrone, 
 T. Henderson, D. Ranasinghe, V. G. Zakrzewski, J. Gao, N. Rega, 
 G. Zheng, W. Liang, M. Hada, M. Ehara, K. Toyota, R. Fukuda, 
 J. Hasegawa, M. Ishida, T. Nakajima, Y. Honda, O. Kitao, H. Nakai, 
 T. Vreven, K. Throssell, J. A. Montgomery, Jr., J. E. Peralta, 
 F. Ogliaro, M. J. Bearpark, J. J. Heyd, E. N. Brothers, K. N. Kudin, 
 V. N. Staroverov, T. A. Keith, R. Kobayashi, J. Normand, 
 K. Raghavachari, A. P. Rendell, J. C. Burant, S. S. Iyengar, 
 J. Tomasi, M. Cossi, J. M. Millam, M. Klene, C. Adamo, R. Cammi, 
 J. W. Ochterski, R. L. Martin, K. Morokuma, O. Farkas, 
 J. B. Foresman, and D. J. Fox, Gaussian, Inc., Wallingford CT, 2019.
 
 ******************************************
 Gaussian 16:  EM64L-G16RevC.01  3-Jul-2019
                 8-Jul-2023 
 ******************************************
 ----------------------------------------------------------------------
 #P B3LYP/6-31G(d) Integral=Ultrafine Opt=(Tight,MaxCycle=55) GFInput G
 FPrint SCF(Conver=8,XQC,MaxConventionalCycles=64,MaxCycle=128) Test
 ----------------------------------------------------------------------
 1/6=55,7=10,18=20,19=15,26=4,38=1/1,3;
 2/9=110,12=2,17=6,18=5,40=1/2;
 3/5=1,6=6,7=1,11=2,24=110,25=1,30=1,71=1,74=-5,75=-5/1,2,3;
 4//1;
 5/5=2,6=8,7=128,8=3,13=1,38=5,85=64/2,8;
 6/7=2,8=2,9=2,10=2,28=1/1;
 7//1,2,3,16;
 1/6=55,7=10,18=20,19=15,26=4/3(2);
 2/9=110/2;
 99//99;
 2/9=110/2;
 3/5=1,6=6,7=1,11=2,25=1,30=1,71=1,74=-5,75=-5/1,2,3;
 4/5=5,16=3,69=1/1;
 5/5=2,6=8,7=128,8=3,13=1,38=5,85=64/2,8;
 7//1,2,3,16;
 1/6=55,7=10,18=20,19=15,26=4/3(-5);
 2/9=110/2;
 6/7=2,8=2,9=2,10=2,19=2,28=1/1;
 99/9=1/99;
 ----------------------------------------------------------
 Optimization step - Input generated by PyRED DVE-DMDS-OPLS
 ----------------------------------------------------------
 Symbolic Z-matrix:
 Charge =  0 Multiplicity = 1
 C                    -7.445     3.821     0.502 
 H                    -6.409     3.939     0.173 
 H                    -8.097     4.248    -0.265 
 H                    -7.582     4.382     1.431 
 C                    -7.766     2.356     0.71 
 H                    -7.12      1.935     1.494 
 H                    -8.808     2.23      1.047 
 O                    -7.575     1.689    -0.519 
 C                    -7.936     0.33     -0.513 
 H                    -8.052     0.04     -1.562 
 H                    -8.904     0.185    -0.007 
 C                    -6.906    -0.584     0.126 
 H                    -6.679    -0.263     1.155 
 H                    -7.323    -1.603     0.188 
 O                    -5.74     -0.572    -0.659 
 C                    -4.703    -1.36     -0.132 
 H                    -5.01     -2.413    -0.034 
 H                    -4.419    -1.005     0.872 
 C                    -3.529    -1.262    -1.094 
 H                    -3.242    -0.208    -1.219 
 H                    -3.836    -1.644    -2.071 
 O                    -2.432    -2.044    -0.672 
 C                    -1.586    -1.413     0.264 
 H                    -2.109    -1.187     1.203 
 H                    -1.215    -0.459    -0.142 
 C                    -0.433    -2.363     0.538 
 H                     0.054    -2.639    -0.401 
 H                    -0.815    -3.285     0.982 
 S                     0.782    -1.691     1.714 
 C                     1.782    -0.622     0.624 
 H                     1.13     -0.019    -0.012 
 H                     2.298     0.068     1.297 
 C                     2.787    -1.399    -0.221 
 H                     2.27     -2.103    -0.878 
 H                     3.452    -1.986     0.419 
 S                     3.777    -0.351    -1.335 
 C                     4.876     0.474    -0.131 
 H                     5.34     -0.291     0.499 
 H                     4.306     1.147     0.514 
 C                     5.938     1.268    -0.882 
 H                     6.503     0.62     -1.558 
 H                     5.467     2.038    -1.499 
 S                     7.08      2.166     0.216 
 C                     8.159     0.821     0.812 
 H                     8.709     1.267     1.646 
 H                     7.543     0.022     1.238 
 C                     9.126     0.273    -0.229 
 H                     8.598    -0.18     -1.073 
 H                     9.768     1.066    -0.62 
 H                     9.762    -0.501     0.214 
 
 ITRead=  0  0  0  0  0  0  0  0  0  0  0  0  0  0  0  0  0  0  0  0
 ITRead=  0  0  0  0  0  0  0  0  0  0  0  0  0  0  0  0  0  0  0  0
 ITRead=  0  0  0  0  0  0  0  0  0  0
 MicOpt= -1 -1 -1 -1 -1 -1 -1 -1 -1 -1 -1 -1 -1 -1 -1 -1 -1 -1 -1 -1
 MicOpt= -1 -1 -1 -1 -1 -1 -1 -1 -1 -1 -1 -1 -1 -1 -1 -1 -1 -1 -1 -1
 MicOpt= -1 -1 -1 -1 -1 -1 -1 -1 -1 -1
 NAtoms=     50 NQM=       50 NQMF=       0 NMMI=      0 NMMIF=      0
                NMic=       0 NMicF=      0.
                          Input orientation:                          
 ---------------------------------------------------------------------
 Center     Atomic      Atomic             Coordinates (Angstroms)
 Number     Number       Type             X           Y           Z
 ---------------------------------------------------------------------
      1          6           0       -7.445000    3.821000    0.502000
      2          1           0       -6.409000    3.939000    0.173000
      3          1           0       -8.097000    4.248000   -0.265000
      4          1           0       -7.582000    4.382000    1.431000
      5          6           0       -7.766000    2.356000    0.710000
      6          1           0       -7.120000    1.935000    1.494000
      7          1           0       -8.808000    2.230000    1.047000
      8          8           0       -7.575000    1.689000   -0.519000
      9          6           0       -7.936000    0.330000   -0.513000
     10          1           0       -8.052000    0.040000   -1.562000
     11          1           0       -8.904000    0.185000   -0.007000
     12          6           0       -6.906000   -0.584000    0.126000
     13          1           0       -6.679000   -0.263000    1.155000
     14          1           0       -7.323000   -1.603000    0.188000
     15          8           0       -5.740000   -0.572000   -0.659000
     16          6           0       -4.703000   -1.360000   -0.132000
     17          1           0       -5.010000   -2.413000   -0.034000
     18          1           0       -4.419000   -1.005000    0.872000
     19          6           0       -3.529000   -1.262000   -1.094000
     20          1           0       -3.242000   -0.208000   -1.219000
     21          1           0       -3.836000   -1.644000   -2.071000
     22          8           0       -2.432000   -2.044000   -0.672000
     23          6           0       -1.586000   -1.413000    0.264000
     24          1           0       -2.109000   -1.187000    1.203000
     25          1           0       -1.215000   -0.459000   -0.142000
     26          6           0       -0.433000   -2.363000    0.538000
     27          1           0        0.054000   -2.639000   -0.401000
     28          1           0       -0.815000   -3.285000    0.982000
     29         16           0        0.782000   -1.691000    1.714000
     30          6           0        1.782000   -0.622000    0.624000
     31          1           0        1.130000   -0.019000   -0.012000
     32          1           0        2.298000    0.068000    1.297000
     33          6           0        2.787000   -1.399000   -0.221000
     34          1           0        2.270000   -2.103000   -0.878000
     35          1           0        3.452000   -1.986000    0.419000
     36         16           0        3.777000   -0.351000   -1.335000
     37          6           0        4.876000    0.474000   -0.131000
     38          1           0        5.340000   -0.291000    0.499000
     39          1           0        4.306000    1.147000    0.514000
     40          6           0        5.938000    1.268000   -0.882000
     41          1           0        6.503000    0.620000   -1.558000
     42          1           0        5.467000    2.038000   -1.499000
     43         16           0        7.080000    2.166000    0.216000
     44          6           0        8.159000    0.821000    0.812000
     45          1           0        8.709000    1.267000    1.646000
     46          1           0        7.543000    0.022000    1.238000
     47          6           0        9.126000    0.273000   -0.229000
     48          1           0        8.598000   -0.180000   -1.073000
     49          1           0        9.768000    1.066000   -0.620000
     50          1           0        9.762000   -0.501000    0.214000
 ---------------------------------------------------------------------
 Stoichiometry    C14H30O3S3
 Framework group  C1[X(C14H30O3S3)]
                         Standard orientation:                         
 ---------------------------------------------------------------------
 Center     Atomic      Atomic             Coordinates (Angstroms)
 Number     Number       Type             X           Y           Z
 ---------------------------------------------------------------------
      1          6           0       -7.444989    3.821099    0.502027
      2          1           0       -6.408987    3.939078    0.173027
      3          1           0       -8.096980    4.248112   -0.264973
      4          1           0       -7.581978    4.382102    1.431027
      5          6           0       -7.766018    2.356105    0.710027
      6          1           0       -7.120026    1.935093    1.494027
      7          1           0       -8.808020    2.230126    1.047027
      8          8           0       -7.575031    1.689102   -0.518973
      9          6           0       -7.936058    0.330109   -0.512973
     10          1           0       -8.052064    0.040111   -1.561973
     11          1           0       -8.904061    0.185128   -0.006973
     12          6           0       -6.906076   -0.583912    0.126027
     13          1           0       -6.679070   -0.262916    1.155027
     14          1           0       -7.323096   -1.602903    0.188027
     15          8           0       -5.740076   -0.571935   -0.658973
     16          6           0       -4.703091   -1.359955   -0.131973
     17          1           0       -5.010112   -2.412949   -0.033973
     18          1           0       -4.419084   -1.004961    0.872027
     19          6           0       -3.529089   -1.261979   -1.093973
     20          1           0       -3.242069   -0.207984   -1.218973
     21          1           0       -3.836097   -1.643972   -2.070973
     22          8           0       -2.432105   -2.044000   -0.671973
     23          6           0       -1.586092   -1.413017    0.264027
     24          1           0       -2.109088   -1.187007    1.203027
     25          1           0       -1.215074   -0.459024   -0.141973
     26          6           0       -0.433111   -2.363040    0.538027
     27          1           0        0.053883   -2.639049   -0.400973
     28          1           0       -0.815130   -3.285032    0.982027
     29         16           0        0.781902   -1.691064    1.714027
     30          6           0        1.781923   -0.622084    0.624027
     31          1           0        1.129935   -0.019071   -0.011973
     32          1           0        2.297937    0.067906    1.297027
     33          6           0        2.786908   -1.399104   -0.220973
     34          1           0        2.269894   -2.103093   -0.877973
     35          1           0        3.451896   -1.986117    0.419027
     36         16           0        3.776929   -0.351123   -1.334973
     37          6           0        4.875945    0.473855   -0.130973
     38          1           0        5.339930   -0.291154    0.499027
     39          1           0        4.305958    1.146866    0.514027
     40          6           0        5.937961    1.267834   -0.881973
     41          1           0        6.502948    0.619823   -1.557973
     42          1           0        5.466976    2.037843   -1.498973
     43         16           0        7.079978    2.165811    0.216027
     44          6           0        8.158952    0.820790    0.812027
     45          1           0        8.708961    1.266779    1.646027
     46          1           0        7.542936    0.021802    1.238027
     47          6           0        9.125941    0.272771   -0.228973
     48          1           0        8.597932   -0.180219   -1.072973
     49          1           0        9.767957    1.065758   -0.619973
     50          1           0        9.761926   -0.501242    0.214027
 ---------------------------------------------------------------------
 Standard basis: 6-31G(d) (6D, 7F)
   372 basis functions,   752 primitive gaussians,   372 cartesian basis functions
    93 alpha electrons       93 beta electrons
 Requested convergence on RMS density matrix=1.00D-08 within  64 cycles.
 Requested convergence on MAX density matrix=1.00D-06.
 Requested convergence on             energy=1.00D-06.
 SCF Done:  E(RB3LYP) =  -1971.75402620     A.U. after   13 cycles
            NFock= 13  Conv=0.34D-08     -V/T= 2.0056
 Mulliken charges:
     1  C   -0.451725
     2  H    0.160695
     3  H    0.158255
     4  H    0.140998
     5  C   -0.011905
     6  H    0.120199
     7  H    0.115328
     8  O   -0.454671
     9  C   -0.032670
    10  H    0.155860
    11  H    0.115461
    12  C   -0.022399
    13  H    0.122615
    14  H    0.117340
    15  O   -0.466544
    16  C   -0.021473
    17  H    0.127507
    18  H    0.120313
    19  C   -0.040654
    20  H    0.137026
    21  H    0.156724
    22  O   -0.477368
    23  C   -0.008452
    24  H    0.137953
    25  H    0.128666
    26  C   -0.439455
    27  H    0.181037
    28  H    0.187834
    29  S    0.090439
    30  C   -0.420862
    31  H    0.188340
    32  H    0.183510
    33  C   -0.412821
    34  H    0.182804
    35  H    0.182252
    36  S    0.086808
    37  C   -0.397292
    38  H    0.169982
    39  H    0.184405
    40  C   -0.437852
    41  H    0.188216
    42  H    0.192670
    43  S    0.094562
    44  C   -0.413019
    45  H    0.178669
    46  H    0.168593
    47  C   -0.437263
    48  H    0.155311
    49  H    0.165742
    50  H    0.150310
 Sum of Mulliken charges =  -0.00000
 Dipole moment (field-independent basis, Debye):
    X=             -0.5856    Y=             -1.3167    Z=              1.8770  Tot=              2.3664
 Quadrupole moment (field-independent basis, Debye-Ang):
   XX=           -123.6992   YY=           -152.8467   ZZ=           -153.1586
   XY=             -4.7701   XZ=             -6.7427   YZ=              2.3804
 Traceless Quadrupole moment (field-independent basis, Debye-Ang):
   XX=             19.5356   YY=             -9.6118   ZZ=             -9.9238
   XY=             -4.7701   XZ=             -6.7427   YZ=              2.3804
 Octapole moment (field-independent basis, Debye-Ang**2):
  XXX=            -75.3851  YYY=             -8.7572  ZZZ=            -13.4952  XYY=            -63.4835
  XXY=            -96.8506  XXZ=            113.4593  XZZ=            -23.8744  YZZ=              5.7293
  YYZ=             -0.1313  XYZ=            -20.2955
 Hexadecapole moment (field-independent basis, Debye-Ang**3):
 XXXX=         -25366.0602 YYYY=          -2612.0092 ZZZZ=           -869.2443 XXXY=           -307.1475
 XXXZ=           -137.3152 YYYX=           -165.6690 YYYZ=              4.2874 ZZZX=             64.7417
 ZZZY=             20.5419 XXYY=          -5311.9067 XXZZ=          -4792.5062 YYZZ=           -580.6139
 XXYZ=            130.8359 YYXZ=            -54.5017 ZZXY=             24.3015
 Step number   1 out of a maximum of   55
     Eigenvalues ---    0.00230   0.00230   0.00230   0.00230   0.00230
     Eigenvalues ---    0.00230   0.00426   0.00450   0.00464   0.00489
     Eigenvalues ---    0.00516   0.00527   0.00579   0.01536   0.01542
     Eigenvalues ---    0.01551   0.01611   0.01617   0.01626   0.04363
     Eigenvalues ---    0.04479   0.04518   0.04533   0.04612   0.04796
     Eigenvalues ---    0.04956   0.05059   0.05296   0.05397   0.05453
     Eigenvalues ---    0.05466   0.05534   0.05622   0.05649   0.05655
     Eigenvalues ---    0.05657   0.05681   0.05736   0.05800   0.05826
     Eigenvalues ---    0.05833   0.05981   0.05982   0.05983   0.06001
     Eigenvalues ---    0.06014   0.06035   0.10949   0.11073   0.11113
     Eigenvalues ---    0.11214   0.11278   0.11445   0.11544   0.11565
     Eigenvalues ---    0.11607   0.11614   0.11761   0.11829   0.13587
     Eigenvalues ---    0.13604   0.13619   0.13677   0.13741   0.13909
     Eigenvalues ---    0.13919   0.13938   0.13954   0.13961   0.14042
     Eigenvalues ---    0.14101   0.16000   0.16000   0.16000   0.16000
     Eigenvalues ---    0.16000   0.16000   0.21934   0.21939   0.21940
     Eigenvalues ---    0.21963   0.21999   0.22008   0.22010   0.22013
     Eigenvalues ---    0.22023   0.22024   0.22055   0.22111   0.24098
     Eigenvalues ---    0.24238   0.24284   0.24463   0.24527   0.24635
     Eigenvalues ---    0.25000   0.25000   0.25000   0.25000   0.25000
     Eigenvalues ---    0.25000   0.29824   0.29994   0.30094   0.30274
     Eigenvalues ---    0.30475   0.30551   0.30941   0.33378   0.33422
     Eigenvalues ---    0.33447   0.33478   0.33511   0.33549   0.33552
     Eigenvalues ---    0.33722   0.33737   0.33868   0.34200   0.34225
     Eigenvalues ---    0.34296   0.34324   0.34347   0.34370   0.34377
     Eigenvalues ---    0.34381   0.34392   0.34412   0.34426   0.34428
     Eigenvalues ---    0.34435   0.34446   0.34465   0.34473   0.34508
     Eigenvalues ---    0.34510   0.34543   0.34547   0.43729   0.43796
     Eigenvalues ---    0.43898   0.44617   0.44693   0.44801
 Maximum Force            0.006404     0.000015     NO 
 RMS     Force            0.001668     0.000010     NO 
 Maximum Displacement     0.432871     0.000060     NO 
 RMS     Displacement     0.105965     0.000040     NO 
                          Input orientation:                          
 ---------------------------------------------------------------------
 Center     Atomic      Atomic             Coordinates (Angstroms)
 Number     Number       Type             X           Y           Z
 ---------------------------------------------------------------------
      1          6           0       -7.621352    3.839209    0.501553
      2          1           0       -6.585340    3.976713    0.175372
      3          1           0       -8.279160    4.251033   -0.270637
      4          1           0       -7.772457    4.404721    1.427699
      5          6           0       -7.917038    2.363663    0.720542
      6          1           0       -7.265686    1.962876    1.514387
      7          1           0       -8.959159    2.222873    1.058531
      8          8           0       -7.710439    1.683143   -0.506391
      9          6           0       -8.045476    0.310063   -0.497558
     10          1           0       -8.160048    0.018881   -1.547389
     11          1           0       -9.012532    0.145814    0.009082
     12          6           0       -6.997450   -0.597102    0.140041
     13          1           0       -6.775353   -0.277732    1.172497
     14          1           0       -7.405233   -1.622305    0.202304
     15          8           0       -5.825211   -0.573624   -0.647613
     16          6           0       -4.771267   -1.354621   -0.125168
     17          1           0       -5.066260   -2.413143   -0.027523
     18          1           0       -4.487647   -1.001082    0.881119
     19          6           0       -3.591781   -1.243517   -1.093056
     20          1           0       -3.315975   -0.185479   -1.219306
     21          1           0       -3.898179   -1.625869   -2.072156
     22          8           0       -2.478709   -2.020401   -0.679964
     23          6           0       -1.617872   -1.389609    0.253917
     24          1           0       -2.130160   -1.168137    1.202159
     25          1           0       -1.255833   -0.430051   -0.151198
     26          6           0       -0.450598   -2.338360    0.514145
     27          1           0        0.028567   -2.611380   -0.431560
     28          1           0       -0.824374   -3.265495    0.959655
     29         16           0        0.783477   -1.666997    1.690469
     30          6           0        1.813499   -0.608380    0.595169
     31          1           0        1.173487   -0.012605   -0.062865
     32          1           0        2.313227    0.091801    1.271709
     33          6           0        2.843919   -1.395916   -0.220779
     34          1           0        2.342971   -2.110750   -0.881485
     35          1           0        3.496215   -1.975721    0.441263
     36         16           0        3.866598   -0.360530   -1.339538
     37          6           0        4.983919    0.467197   -0.133054
     38          1           0        5.428010   -0.299266    0.512297
     39          1           0        4.422770    1.160499    0.500273
     40          6           0        6.072674    1.233660   -0.888545
     41          1           0        6.630015    0.566498   -1.554056
     42          1           0        5.619728    2.005087   -1.520116
     43         16           0        7.232314    2.137398    0.208050
     44          6           0        8.329904    0.793257    0.814019
     45          1           0        8.859218    1.244562    1.660374
     46          1           0        7.719923   -0.017501    1.228284
     47          6           0        9.329692    0.261673   -0.213684
     48          1           0        8.827065   -0.197909   -1.071474
     49          1           0        9.969354    1.065994   -0.590100
     50          1           0        9.970042   -0.505131    0.240303
 ---------------------------------------------------------------------
 Stoichiometry    C14H30O3S3
 Framework group  C1[X(C14H30O3S3)]
                         Standard orientation:                         
 ---------------------------------------------------------------------
 Center     Atomic      Atomic             Coordinates (Angstroms)
 Number     Number       Type             X           Y           Z
 ---------------------------------------------------------------------
      1          6           0       -7.637503    3.830648    0.471520
      2          1           0       -6.601388    3.967679    0.145464
      3          1           0       -8.295202    4.236373   -0.303984
      4          1           0       -7.790425    4.401945    1.393808
      5          6           0       -7.931053    2.356090    0.699840
      6          1           0       -7.279848    1.961532    1.496921
      7          1           0       -8.973282    2.215839    1.037720
      8          8           0       -7.722155    1.667913   -0.522424
      9          6           0       -8.055010    0.294386   -0.504961
     10          1           0       -8.168079   -0.003821   -1.552982
     11          1           0       -9.022305    0.131897    0.001792
     12          6           0       -7.006172   -0.606922    0.139569
     13          1           0       -6.785606   -0.280471    1.170136
     14          1           0       -7.412381   -1.632350    0.208119
     15          8           0       -5.833192   -0.586707   -0.647073
     16          6           0       -4.778523   -1.362591   -0.118512
     17          1           0       -5.071924   -2.420924   -0.014252
     18          1           0       -4.496463   -1.002043    0.885725
     19          6           0       -3.598258   -1.255914   -1.085949
     20          1           0       -3.324013   -0.198282   -1.218828
     21          1           0       -3.903076   -1.645134   -2.062832
     22          8           0       -2.484358   -2.028305   -0.666707
     23          6           0       -1.625452   -1.390058    0.263882
     24          1           0       -2.139031   -1.163226    1.210156
     25          1           0       -1.264543   -0.432585   -0.147129
     26          6           0       -0.456926   -2.335223    0.531437
     27          1           0        0.023610   -2.613637   -0.411997
     28          1           0       -0.829664   -3.260029    0.982620
     29         16           0        0.774913   -1.654226    1.704565
     30          6           0        1.804329   -0.601128    0.603391
     31          1           0        1.164020   -0.010684   -0.059142
     32          1           0        2.302271    0.104249    1.275838
     33          6           0        2.836811   -1.392320   -0.206392
     34          1           0        2.337658   -2.112249   -0.862911
     35          1           0        3.489374   -1.966750    0.460057
     36         16           0        3.858945   -0.362617   -1.330880
     37          6           0        4.973750    0.474748   -0.128728
     38          1           0        5.418423   -0.286777    0.522045
     39          1           0        4.410869    1.171268    0.499513
     40          6           0        6.062029    1.238009   -0.888136
     41          1           0        6.621091    0.567414   -1.548734
     42          1           0        5.608479    2.004575   -1.525169
     43         16           0        7.219141    2.150736    0.203676
     44          6           0        8.318272    0.812334    0.819475
     45          1           0        8.846027    1.269997    1.663386
     46          1           0        7.709174    0.003320    1.238423
     47          6           0        9.319923    0.275659   -0.203759
     48          1           0        8.818879   -0.190312   -1.059024
     49          1           0        9.958674    1.078532   -0.584787
     50          1           0        9.961045   -0.487141    0.255849
 ---------------------------------------------------------------------
 Standard basis: 6-31G(d) (6D, 7F)
   372 basis functions,   752 primitive gaussians,   372 cartesian basis functions
    93 alpha electrons       93 beta electrons
 Requested convergence on RMS density matrix=1.00D-08 within  64 cycles.
 Requested convergence on MAX density matrix=1.00D-06.
 Requested convergence on             energy=1.00D-06.
 SCF Done:  E(RB3LYP) =  -1971.75502190     A.U. after   10 cycles
            NFock= 10  Conv=0.52D-08     -V/T= 2.0058
 Step number   2 out of a maximum of   55
     Eigenvalues ---    0.00230   0.00230   0.00230   0.00230   0.00230
     Eigenvalues ---    0.00241   0.00426   0.00450   0.00464   0.00489
     Eigenvalues ---    0.00516   0.00526   0.00579   0.01538   0.01542
     Eigenvalues ---    0.01551   0.01613   0.01617   0.01626   0.04327
     Eigenvalues ---    0.04435   0.04485   0.04508   0.04583   0.04743
     Eigenvalues ---    0.04911   0.05030   0.05255   0.05370   0.05416
     Eigenvalues ---    0.05430   0.05513   0.05629   0.05641   0.05646
     Eigenvalues ---    0.05653   0.05684   0.05734   0.05775   0.05822
     Eigenvalues ---    0.05834   0.05984   0.05993   0.06002   0.06014
     Eigenvalues ---    0.06032   0.06129   0.10973   0.11100   0.11138
     Eigenvalues ---    0.11223   0.11302   0.11462   0.11564   0.11595
     Eigenvalues ---    0.11644   0.11654   0.11794   0.11881   0.13606
     Eigenvalues ---    0.13630   0.13642   0.13695   0.13763   0.13930
     Eigenvalues ---    0.13941   0.13959   0.13977   0.13989   0.14067
     Eigenvalues ---    0.14113   0.15969   0.16000   0.16000   0.16000
     Eigenvalues ---    0.16000   0.16018   0.20356   0.21935   0.21939
     Eigenvalues ---    0.21958   0.21973   0.22002   0.22010   0.22014
     Eigenvalues ---    0.22019   0.22027   0.22045   0.22130   0.22930
     Eigenvalues ---    0.24153   0.24262   0.24383   0.24502   0.24605
     Eigenvalues ---    0.24998   0.25000   0.25000   0.25000   0.25000
     Eigenvalues ---    0.27160   0.29872   0.30040   0.30162   0.30368
     Eigenvalues ---    0.30517   0.30872   0.32522   0.33390   0.33435
     Eigenvalues ---    0.33457   0.33500   0.33523   0.33551   0.33648
     Eigenvalues ---    0.33725   0.33818   0.33945   0.34204   0.34233
     Eigenvalues ---    0.34300   0.34331   0.34352   0.34368   0.34375
     Eigenvalues ---    0.34389   0.34401   0.34416   0.34427   0.34433
     Eigenvalues ---    0.34440   0.34454   0.34470   0.34494   0.34509
     Eigenvalues ---    0.34528   0.34545   0.34969   0.43685   0.43836
     Eigenvalues ---    0.43990   0.44630   0.44757   0.44916
 Maximum Force            0.002096     0.000015     NO 
 RMS     Force            0.000425     0.000010     NO 
 Maximum Displacement     0.400860     0.000060     NO 
 RMS     Displacement     0.089853     0.000040     NO 
                          Input orientation:                          
 ---------------------------------------------------------------------
 Center     Atomic      Atomic             Coordinates (Angstroms)
 Number     Number       Type             X           Y           Z
 ---------------------------------------------------------------------
      1          6           0       -7.529916    3.841954    0.475987
      2          1           0       -6.490545    3.973315    0.157686
      3          1           0       -8.180121    4.262002   -0.298371
      4          1           0       -7.683612    4.403002    1.404608
      5          6           0       -7.838070    2.367796    0.688263
      6          1           0       -7.193799    1.957899    1.483591
      7          1           0       -8.883671    2.232850    1.017808
      8          8           0       -7.627055    1.692710   -0.541767
      9          6           0       -7.973082    0.321815   -0.534364
     10          1           0       -8.080630    0.030801   -1.584897
     11          1           0       -8.944638    0.165851   -0.033815
     12          6           0       -6.938133   -0.589551    0.117845
     13          1           0       -6.719979   -0.264582    1.149574
     14          1           0       -7.356215   -1.610500    0.182723
     15          8           0       -5.760672   -0.580678   -0.663796
     16          6           0       -4.719989   -1.369769   -0.125020
     17          1           0       -5.026631   -2.424616   -0.023656
     18          1           0       -4.439821   -1.011288    0.880490
     19          6           0       -3.533858   -1.274604   -1.086750
     20          1           0       -3.245399   -0.220339   -1.215118
     21          1           0       -3.834610   -1.661023   -2.066039
     22          8           0       -2.433567   -2.061555   -0.657630
     23          6           0       -1.581389   -1.429012    0.284521
     24          1           0       -2.105116   -1.200995    1.225073
     25          1           0       -1.206707   -0.474433   -0.120851
     26          6           0       -0.425786   -2.387026    0.561203
     27          1           0        0.067254   -2.662377   -0.376805
     28          1           0       -0.809003   -3.311196    1.005287
     29         16           0        0.796296   -1.716394    1.753862
     30          6           0        1.793233   -0.602473    0.678215
     31          1           0        1.130479    0.031844    0.081396
     32          1           0        2.326338    0.053779    1.373325
     33          6           0        2.778078   -1.354711   -0.221564
     34          1           0        2.243070   -2.023338   -0.903970
     35          1           0        3.450644   -1.977180    0.378451
     36         16           0        3.769293   -0.263282   -1.319863
     37          6           0        4.919135    0.505859   -0.099848
     38          1           0        5.384629   -0.292488    0.489475
     39          1           0        4.371912    1.161149    0.584193
     40          6           0        5.981165    1.315538   -0.847456
     41          1           0        6.522605    0.686320   -1.561439
     42          1           0        5.510571    2.120482   -1.421903
     43         16           0        7.171797    2.160703    0.266436
     44          6           0        8.257471    0.770827    0.793300
     45          1           0        8.843726    1.191729    1.617622
     46          1           0        7.641124   -0.026730    1.223288
     47          6           0        9.180573    0.227708   -0.297936
     48          1           0        8.614939   -0.196543   -1.134841
     49          1           0        9.826346    1.017841   -0.693908
     50          1           0        9.817333   -0.569092    0.107388
 ---------------------------------------------------------------------
 Stoichiometry    C14H30O3S3
 Framework group  C1[X(C14H30O3S3)]
                         Standard orientation:                         
 ---------------------------------------------------------------------
 Center     Atomic      Atomic             Coordinates (Angstroms)
 Number     Number       Type             X           Y           Z
 ---------------------------------------------------------------------
      1          6           0       -7.533294    3.833647    0.531129
      2          1           0       -6.494418    3.968917    0.212850
      3          1           0       -8.184668    4.264099   -0.236503
      4          1           0       -7.685261    4.382390    1.467357
      5          6           0       -7.841543    2.356894    0.724381
      6          1           0       -7.196065    1.936316    1.513126
      7          1           0       -8.886632    2.217893    1.053867
      8          8           0       -7.632798    1.698099   -0.514835
      9          6           0       -7.979232    0.327324   -0.525007
     10          1           0       -8.088630    0.050281   -1.579120
     11          1           0       -8.949995    0.165021   -0.024935
     12          6           0       -6.943470   -0.592893    0.113334
     13          1           0       -6.723487   -0.281680    1.148908
     14          1           0       -7.361755   -1.614494    0.165388
     15          8           0       -5.767319   -0.574004   -0.670100
     16          6           0       -4.725975   -1.370456   -0.143571
     17          1           0       -5.032770   -2.426467   -0.055671
     18          1           0       -4.444012   -1.025404    0.866125
     19          6           0       -3.541429   -1.262900   -1.105948
     20          1           0       -3.252863   -0.207109   -1.220828
     21          1           0       -3.843942   -1.636228   -2.089763
     22          8           0       -2.440662   -2.055777   -0.689139
     23          6           0       -1.586712   -1.436010    0.259873
     24          1           0       -2.108790   -1.220322    1.204242
     25          1           0       -1.212417   -0.476253   -0.133451
     26          6           0       -0.430939   -2.397933    0.521899
     27          1           0        0.060442   -2.660976   -0.420500
     28          1           0       -0.813694   -3.327795    0.954349
     29         16           0        0.793346   -1.743503    1.721281
     30          6           0        1.788820   -0.615717    0.658806
     31          1           0        1.125260    0.026637    0.071556
     32          1           0        2.323290    0.031120    1.361649
     33          6           0        2.771923   -1.356252   -0.252511
     34          1           0        2.235567   -2.015630   -0.942812
     35          1           0        3.445304   -1.986804    0.338076
     36         16           0        3.761630   -0.250653   -1.337922
     37          6           0        4.913752    0.501935   -0.109763
     38          1           0        5.379988   -0.304280    0.468152
     39          1           0        4.367877    1.148262    0.583816
     40          6           0        5.974774    1.321142   -0.848366
     41          1           0        6.514823    0.701282   -1.571529
     42          1           0        5.503464    2.133759   -1.411310
     43         16           0        7.167531    2.151142    0.274619
     44          6           0        8.253662    0.754102    0.781204
     45          1           0        8.841426    1.163883    1.610041
     46          1           0        7.637792   -0.048905    1.201626
     47          6           0        9.174766    0.225221   -0.318680
     48          1           0        8.607599   -0.187748   -1.160179
     49          1           0        9.820116    1.020346   -0.705237
     50          1           0        9.811961   -0.577058    0.074985
 ---------------------------------------------------------------------
 Standard basis: 6-31G(d) (6D, 7F)
   372 basis functions,   752 primitive gaussians,   372 cartesian basis functions
    93 alpha electrons       93 beta electrons
 Requested convergence on RMS density matrix=1.00D-08 within  64 cycles.
 Requested convergence on MAX density matrix=1.00D-06.
 Requested convergence on             energy=1.00D-06.
 SCF Done:  E(RB3LYP) =  -1971.75511307     A.U. after   10 cycles
            NFock= 10  Conv=0.57D-08     -V/T= 2.0058
 Step number   3 out of a maximum of   55
     Eigenvalues ---    0.00228   0.00230   0.00230   0.00230   0.00230
     Eigenvalues ---    0.00368   0.00425   0.00449   0.00465   0.00488
     Eigenvalues ---    0.00516   0.00528   0.00579   0.01532   0.01542
     Eigenvalues ---    0.01549   0.01612   0.01618   0.01626   0.04375
     Eigenvalues ---    0.04455   0.04468   0.04575   0.04627   0.04824
     Eigenvalues ---    0.04937   0.05040   0.05056   0.05279   0.05391
     Eigenvalues ---    0.05449   0.05478   0.05528   0.05613   0.05631
     Eigenvalues ---    0.05658   0.05666   0.05751   0.05761   0.05778
     Eigenvalues ---    0.05824   0.05968   0.05987   0.05991   0.06005
     Eigenvalues ---    0.06031   0.06036   0.10907   0.11081   0.11111
     Eigenvalues ---    0.11211   0.11270   0.11335   0.11514   0.11577
     Eigenvalues ---    0.11623   0.11632   0.11773   0.11868   0.13583
     Eigenvalues ---    0.13617   0.13618   0.13683   0.13744   0.13846
     Eigenvalues ---    0.13916   0.13941   0.13963   0.13974   0.14050
     Eigenvalues ---    0.14163   0.15879   0.16000   0.16000   0.16000
     Eigenvalues ---    0.16003   0.16026   0.18433   0.21935   0.21939
     Eigenvalues ---    0.21959   0.21974   0.22007   0.22013   0.22019
     Eigenvalues ---    0.22021   0.22045   0.22119   0.22380   0.22994
     Eigenvalues ---    0.24159   0.24262   0.24389   0.24501   0.24604
     Eigenvalues ---    0.24998   0.25000   0.25000   0.25000   0.25183
     Eigenvalues ---    0.28567   0.29864   0.30057   0.30168   0.30373
     Eigenvalues ---    0.30523   0.30853   0.31993   0.33389   0.33433
     Eigenvalues ---    0.33459   0.33507   0.33523   0.33555   0.33625
     Eigenvalues ---    0.33730   0.33795   0.33928   0.34205   0.34231
     Eigenvalues ---    0.34298   0.34331   0.34352   0.34369   0.34383
     Eigenvalues ---    0.34392   0.34406   0.34415   0.34427   0.34436
     Eigenvalues ---    0.34440   0.34460   0.34475   0.34502   0.34512
     Eigenvalues ---    0.34531   0.34545   0.35788   0.43758   0.43829
     Eigenvalues ---    0.43980   0.44655   0.44757   0.44913
 Maximum Force            0.000799     0.000015     NO 
 RMS     Force            0.000180     0.000010     NO 
 Maximum Displacement     0.199409     0.000060     NO 
 RMS     Displacement     0.042778     0.000040     NO 
                          Input orientation:                          
 ---------------------------------------------------------------------
 Center     Atomic      Atomic             Coordinates (Angstroms)
 Number     Number       Type             X           Y           Z
 ---------------------------------------------------------------------
      1          6           0       -7.561661    3.841914    0.469162
      2          1           0       -6.525611    3.973042    0.140655
      3          1           0       -8.220115    4.254621   -0.301957
      4          1           0       -7.708384    4.408597    1.395438
      5          6           0       -7.864323    2.369028    0.694589
      6          1           0       -7.211438    1.965688    1.485815
      7          1           0       -8.906473    2.233651    1.033670
      8          8           0       -7.662748    1.686756   -0.533273
      9          6           0       -8.005696    0.315070   -0.510931
     10          1           0       -8.121482    0.015609   -1.557942
     11          1           0       -8.971865    0.161359    0.000198
     12          6           0       -6.962565   -0.587346    0.139196
     13          1           0       -6.734475   -0.252184    1.165153
     14          1           0       -7.376841   -1.608702    0.216539
     15          8           0       -5.792960   -0.581769   -0.654504
     16          6           0       -4.746794   -1.365788   -0.118223
     17          1           0       -5.051101   -2.420060   -0.007963
     18          1           0       -4.459040   -0.999209    0.881851
     19          6           0       -3.570039   -1.274032   -1.090798
     20          1           0       -3.283391   -0.220442   -1.226150
     21          1           0       -3.878669   -1.666278   -2.065016
     22          8           0       -2.465456   -2.058329   -0.666832
     23          6           0       -1.608938   -1.419062    0.267328
     24          1           0       -2.126181   -1.192837    1.211511
     25          1           0       -1.243280   -0.464110   -0.144207
     26          6           0       -0.447176   -2.371341    0.533830
     27          1           0        0.040113   -2.644844   -0.407289
     28          1           0       -0.821927   -3.296016    0.983311
     29         16           0        0.780933   -1.696798    1.719487
     30          6           0        1.788360   -0.602255    0.631534
     31          1           0        1.132167    0.002191   -0.001815
     32          1           0        2.292312    0.081837    1.321137
     33          6           0        2.807978   -1.366835   -0.215317
     34          1           0        2.303529   -2.061635   -0.894292
     35          1           0        3.473226   -1.959806    0.421102
     36         16           0        3.813401   -0.291345   -1.318143
     37          6           0        4.952814    0.488050   -0.093143
     38          1           0        5.412942   -0.306366    0.505015
     39          1           0        4.398120    1.148154    0.579698
     40          6           0        6.019040    1.290850   -0.839900
     41          1           0        6.566098    0.656752   -1.544661
     42          1           0        5.553608    2.093187   -1.421623
     43         16           0        7.202463    2.143199    0.277760
     44          6           0        8.301026    0.759614    0.798512
     45          1           0        8.859770    1.174468    1.644402
     46          1           0        7.689080   -0.057679    1.195847
     47          6           0        9.258609    0.259468   -0.282544
     48          1           0        8.720462   -0.157115   -1.140878
     49          1           0        9.897300    1.070610   -0.645822
     50          1           0        9.901280   -0.533532    0.120483
 ---------------------------------------------------------------------
 Stoichiometry    C14H30O3S3
 Framework group  C1[X(C14H30O3S3)]
                         Standard orientation:                         
 ---------------------------------------------------------------------
 Center     Atomic      Atomic             Coordinates (Angstroms)
 Number     Number       Type             X           Y           Z
 ---------------------------------------------------------------------
      1          6           0       -7.567106    3.838737    0.487133
      2          1           0       -6.531505    3.971088    0.157701
      3          1           0       -8.226610    4.254345   -0.281527
      4          1           0       -7.712550    4.401937    1.415732
      5          6           0       -7.869481    2.365018    0.707438
      6          1           0       -7.215519    1.958700    1.496247
      7          1           0       -8.911167    2.228378    1.047436
      8          8           0       -7.669600    1.687362   -0.523254
      9          6           0       -8.012539    0.315606   -0.505598
     10          1           0       -8.129765    0.020083   -1.553567
     11          1           0       -8.978008    0.159985    0.006274
     12          6           0       -6.968531   -0.589258    0.139703
     13          1           0       -6.739030   -0.257956    1.166599
     14          1           0       -7.382717   -1.610893    0.213775
     15          8           0       -5.800016   -0.580710   -0.655573
     16          6           0       -4.753127   -1.366749   -0.123677
     17          1           0       -5.057299   -2.421425   -0.016963
     18          1           0       -4.463997   -1.003935    0.877373
     19          6           0       -3.577705   -1.271351   -1.097512
     20          1           0       -3.291227   -0.217263   -1.229297
     21          1           0       -3.887677   -1.659930   -2.072773
     22          8           0       -2.472554   -2.057247   -0.678011
     23          6           0       -1.614746   -1.421504    0.257369
     24          1           0       -2.130691   -1.198824    1.203104
     25          1           0       -1.249638   -0.465016   -0.151075
     26          6           0       -0.452635   -2.374790    0.518698
     27          1           0        0.033360   -2.644760   -0.424109
     28          1           0       -0.826784   -3.301143    0.965214
     29         16           0        0.777109   -1.704720    1.705197
     30          6           0        1.783061   -0.606107    0.619985
     31          1           0        1.126009    0.000722   -0.010188
     32          1           0        2.287967    0.075384    1.311462
     33          6           0        2.801505   -1.367509   -0.231130
     34          1           0        2.296115   -2.059748   -0.912020
     35          1           0        3.467615   -1.962875    0.402143
     36         16           0        3.805431   -0.287892   -1.331285
     37          6           0        4.946535    0.486881   -0.104927
     38          1           0        5.407470   -0.309781    0.489610
     39          1           0        4.392774    1.144458    0.571150
     40          6           0        6.011749    1.292471   -0.850123
     41          1           0        6.557830    0.661021   -1.558011
     42          1           0        5.545532    2.096993   -1.428188
     43         16           0        7.196715    2.140602    0.269109
     44          6           0        8.295970    0.755059    0.783152
     45          1           0        8.855879    1.166725    1.629828
     46          1           0        7.684557   -0.063716    1.178251
     47          6           0        9.252062    0.258969   -0.301088
     48          1           0        8.712733   -0.154380   -1.160243
     49          1           0        9.890268    1.071463   -0.662190
     50          1           0        9.895274   -0.535547    0.098075
 ---------------------------------------------------------------------
 Standard basis: 6-31G(d) (6D, 7F)
   372 basis functions,   752 primitive gaussians,   372 cartesian basis functions
    93 alpha electrons       93 beta electrons
 Requested convergence on RMS density matrix=1.00D-08 within  64 cycles.
 Requested convergence on MAX density matrix=1.00D-06.
 Requested convergence on             energy=1.00D-06.
 SCF Done:  E(RB3LYP) =  -1971.75514737     A.U. after    9 cycles
            NFock=  9  Conv=0.83D-08     -V/T= 2.0058
 Step number   4 out of a maximum of   55
     Eigenvalues ---    0.00220   0.00230   0.00230   0.00230   0.00241
     Eigenvalues ---    0.00422   0.00430   0.00449   0.00469   0.00489
     Eigenvalues ---    0.00515   0.00528   0.00579   0.01507   0.01541
     Eigenvalues ---    0.01543   0.01614   0.01616   0.01625   0.04272
     Eigenvalues ---    0.04387   0.04519   0.04553   0.04698   0.04860
     Eigenvalues ---    0.04965   0.05073   0.05277   0.05291   0.05399
     Eigenvalues ---    0.05463   0.05491   0.05541   0.05609   0.05631
     Eigenvalues ---    0.05658   0.05674   0.05745   0.05758   0.05781
     Eigenvalues ---    0.05818   0.05979   0.05985   0.05999   0.06009
     Eigenvalues ---    0.06027   0.06045   0.10837   0.11078   0.11119
     Eigenvalues ---    0.11208   0.11298   0.11403   0.11523   0.11578
     Eigenvalues ---    0.11624   0.11633   0.11771   0.11865   0.13575
     Eigenvalues ---    0.13608   0.13615   0.13680   0.13752   0.13904
     Eigenvalues ---    0.13920   0.13939   0.13967   0.14028   0.14095
     Eigenvalues ---    0.14360   0.15906   0.16000   0.16000   0.16000
     Eigenvalues ---    0.16012   0.16082   0.18099   0.21936   0.21941
     Eigenvalues ---    0.21961   0.21987   0.22013   0.22016   0.22022
     Eigenvalues ---    0.22034   0.22116   0.22310   0.22938   0.23069
     Eigenvalues ---    0.24163   0.24262   0.24397   0.24502   0.24623
     Eigenvalues ---    0.25000   0.25000   0.25000   0.25018   0.26252
     Eigenvalues ---    0.29349   0.29880   0.30066   0.30141   0.30360
     Eigenvalues ---    0.30545   0.30841   0.31704   0.33386   0.33429
     Eigenvalues ---    0.33454   0.33496   0.33532   0.33555   0.33581
     Eigenvalues ---    0.33731   0.33762   0.33906   0.34209   0.34226
     Eigenvalues ---    0.34295   0.34336   0.34350   0.34374   0.34380
     Eigenvalues ---    0.34393   0.34406   0.34415   0.34427   0.34439
     Eigenvalues ---    0.34441   0.34463   0.34469   0.34507   0.34516
     Eigenvalues ---    0.34532   0.34561   0.34937   0.43742   0.43831
     Eigenvalues ---    0.44108   0.44647   0.44755   0.45162
 Maximum Force            0.000541     0.000015     NO 
 RMS     Force            0.000118     0.000010     NO 
 Maximum Displacement     0.100124     0.000060     NO 
 RMS     Displacement     0.018843     0.000040     NO 
                          Input orientation:                          
 ---------------------------------------------------------------------
 Center     Atomic      Atomic             Coordinates (Angstroms)
 Number     Number       Type             X           Y           Z
 ---------------------------------------------------------------------
      1          6           0       -7.557340    3.848720    0.461321
      2          1           0       -6.520014    3.977537    0.136328
      3          1           0       -8.212302    4.260886   -0.312897
      4          1           0       -7.706460    4.417513    1.385857
      5          6           0       -7.862927    2.376742    0.687490
      6          1           0       -7.213661    1.973787    1.481533
      7          1           0       -8.906360    2.243404    1.022834
      8          8           0       -7.658265    1.691803   -0.538469
      9          6           0       -8.002740    0.320360   -0.516096
     10          1           0       -8.115895    0.020403   -1.563162
     11          1           0       -8.970582    0.168287   -0.007862
     12          6           0       -6.961995   -0.583302    0.135716
     13          1           0       -6.735705   -0.248754    1.162027
     14          1           0       -7.376834   -1.604353    0.211786
     15          8           0       -5.790264   -0.578772   -0.654897
     16          6           0       -4.746102   -1.364725   -0.117192
     17          1           0       -5.052213   -2.418506   -0.009243
     18          1           0       -4.461362   -0.999594    0.884061
     19          6           0       -3.566196   -1.273612   -1.085581
     20          1           0       -3.277524   -0.220393   -1.218573
     21          1           0       -3.873351   -1.663627   -2.061001
     22          8           0       -2.463238   -2.060226   -0.660741
     23          6           0       -1.607169   -1.424835    0.276715
     24          1           0       -2.125204   -1.202279    1.221059
     25          1           0       -1.241655   -0.468442   -0.131153
     26          6           0       -0.445450   -2.377130    0.540951
     27          1           0        0.043214   -2.646585   -0.400422
     28          1           0       -0.820315   -3.303389    0.986655
     29         16           0        0.781235   -1.706435    1.730187
     30          6           0        1.794615   -0.614508    0.645092
     31          1           0        1.140917    0.002737    0.022037
     32          1           0        2.312021    0.057558    1.336398
     33          6           0        2.797355   -1.384363   -0.215787
     34          1           0        2.279132   -2.066834   -0.896685
     35          1           0        3.460137   -1.990722    0.410117
     36         16           0        3.808764   -0.310453   -1.315056
     37          6           0        4.943320    0.469097   -0.085607
     38          1           0        5.407958   -0.326162    0.507478
     39          1           0        4.383780    1.121221    0.590701
     40          6           0        6.003925    1.283170   -0.826966
     41          1           0        6.555177    0.657456   -1.535696
     42          1           0        5.533121    2.086095   -1.403172
     43         16           0        7.182390    2.135149    0.296513
     44          6           0        8.303372    0.759629    0.790159
     45          1           0        8.856676    1.166618    1.643243
     46          1           0        7.704426   -0.074281    1.172094
     47          6           0        9.266879    0.295692   -0.301224
     48          1           0        8.734079   -0.112172   -1.166877
     49          1           0        9.892252    1.123593   -0.649105
     50          1           0        9.922380   -0.495003    0.085109
 ---------------------------------------------------------------------
 Stoichiometry    C14H30O3S3
 Framework group  C1[X(C14H30O3S3)]
                         Standard orientation:                         
 ---------------------------------------------------------------------
 Center     Atomic      Atomic             Coordinates (Angstroms)
 Number     Number       Type             X           Y           Z
 ---------------------------------------------------------------------
      1          6           0       -7.563269    3.843183    0.485734
      2          1           0       -6.526627    3.974310    0.159486
      3          1           0       -8.219917    4.258966   -0.285114
      4          1           0       -7.711004    4.407080    1.413486
      5          6           0       -7.867561    2.369867    0.704828
      6          1           0       -7.216578    1.963189    1.495560
      7          1           0       -8.910288    2.234162    1.041415
      8          8           0       -7.664777    1.691423   -0.525048
      9          6           0       -8.008396    0.319675   -0.509153
     10          1           0       -8.123324    0.025087   -1.557549
     11          1           0       -8.975200    0.164383    0.000084
     12          6           0       -6.965902   -0.586729    0.136023
     13          1           0       -6.737900   -0.257375    1.163634
     14          1           0       -7.379993   -1.608412    0.207564
     15          8           0       -5.795650   -0.577390   -0.656733
     16          6           0       -4.750022   -1.365494   -0.125058
     17          1           0       -5.055306   -2.420006   -0.022011
     18          1           0       -4.463633   -1.005392    0.877545
     19          6           0       -3.571976   -1.268646   -1.095155
     20          1           0       -3.284177   -0.214577   -1.223215
     21          1           0       -3.880717   -1.653778   -2.072013
     22          8           0       -2.467762   -2.056789   -0.676456
     23          6           0       -1.610325   -1.425755    0.262692
     24          1           0       -2.126732   -1.208414    1.209141
     25          1           0       -1.246139   -0.467038   -0.140885
     26          6           0       -0.447551   -2.378708    0.519821
     27          1           0        0.039518   -2.642980   -0.423846
     28          1           0       -0.821035   -3.307493    0.961408
     29         16           0        0.780950   -1.713454    1.710238
     30          6           0        1.791658   -0.615300    0.628943
     31          1           0        1.136434    0.004776    0.010317
     32          1           0        2.309952    0.053481    1.322764
     33          6           0        2.793249   -1.380073   -0.237784
     34          1           0        2.274163   -2.059313   -0.921251
     35          1           0        3.457555   -1.989272    0.383730
     36         16           0        3.801971   -0.299863   -1.333344
     37          6           0        4.938353    0.473980   -0.101977
     38          1           0        5.404567   -0.324065    0.486106
     39          1           0        4.379687    1.122248    0.578746
     40          6           0        5.997092    1.292529   -0.841073
     41          1           0        6.547394    0.670834   -1.554066
     42          1           0        5.524739    2.098149   -1.412227
     43         16           0        7.177142    2.139376    0.284619
     44          6           0        8.299858    0.761990    0.769033
     45          1           0        8.854509    1.164879    1.623188
     46          1           0        7.702119   -0.074252    1.147748
     47          6           0        9.261605    0.304303   -0.326534
     48          1           0        8.727435   -0.099385   -1.193299
     49          1           0        9.885837    1.134375   -0.671275
     50          1           0        9.918294   -0.487992    0.054471
 ---------------------------------------------------------------------
 Standard basis: 6-31G(d) (6D, 7F)
   372 basis functions,   752 primitive gaussians,   372 cartesian basis functions
    93 alpha electrons       93 beta electrons
 Requested convergence on RMS density matrix=1.00D-08 within  64 cycles.
 Requested convergence on MAX density matrix=1.00D-06.
 Requested convergence on             energy=1.00D-06.
 SCF Done:  E(RB3LYP) =  -1971.75515595     A.U. after    9 cycles
            NFock=  9  Conv=0.47D-08     -V/T= 2.0058
 Step number   5 out of a maximum of   55
     Eigenvalues ---    0.00198   0.00230   0.00230   0.00230   0.00352
     Eigenvalues ---    0.00425   0.00443   0.00466   0.00484   0.00515
     Eigenvalues ---    0.00527   0.00532   0.00579   0.01409   0.01541
     Eigenvalues ---    0.01543   0.01610   0.01614   0.01624   0.04170
     Eigenvalues ---    0.04436   0.04530   0.04646   0.04844   0.04948
     Eigenvalues ---    0.04979   0.05116   0.05276   0.05395   0.05401
     Eigenvalues ---    0.05459   0.05492   0.05568   0.05608   0.05642
     Eigenvalues ---    0.05658   0.05673   0.05754   0.05779   0.05798
     Eigenvalues ---    0.05826   0.05977   0.05985   0.06000   0.06013
     Eigenvalues ---    0.06025   0.06049   0.10840   0.11083   0.11107
     Eigenvalues ---    0.11210   0.11274   0.11403   0.11521   0.11575
     Eigenvalues ---    0.11626   0.11647   0.11775   0.11867   0.13554
     Eigenvalues ---    0.13611   0.13620   0.13684   0.13711   0.13756
     Eigenvalues ---    0.13915   0.13937   0.13970   0.14019   0.14047
     Eigenvalues ---    0.14157   0.15958   0.16000   0.16000   0.16002
     Eigenvalues ---    0.16014   0.16027   0.18459   0.21609   0.21939
     Eigenvalues ---    0.21942   0.21965   0.21991   0.22016   0.22022
     Eigenvalues ---    0.22039   0.22130   0.22390   0.22936   0.23055
     Eigenvalues ---    0.24163   0.24266   0.24355   0.24510   0.24583
     Eigenvalues ---    0.24872   0.25000   0.25000   0.25302   0.25562
     Eigenvalues ---    0.28763   0.29704   0.29948   0.30128   0.30359
     Eigenvalues ---    0.30476   0.30838   0.31778   0.33371   0.33424
     Eigenvalues ---    0.33444   0.33472   0.33532   0.33544   0.33616
     Eigenvalues ---    0.33723   0.33752   0.33861   0.34205   0.34234
     Eigenvalues ---    0.34275   0.34323   0.34340   0.34354   0.34375
     Eigenvalues ---    0.34386   0.34406   0.34417   0.34426   0.34440
     Eigenvalues ---    0.34448   0.34462   0.34481   0.34491   0.34513
     Eigenvalues ---    0.34526   0.34570   0.34818   0.43770   0.43810
     Eigenvalues ---    0.44111   0.44649   0.44752   0.45290
 Maximum Force            0.000216     0.000015     NO 
 RMS     Force            0.000047     0.000010     NO 
 Maximum Displacement     0.102543     0.000060     NO 
 RMS     Displacement     0.020190     0.000040     NO 
                          Input orientation:                          
 ---------------------------------------------------------------------
 Center     Atomic      Atomic             Coordinates (Angstroms)
 Number     Number       Type             X           Y           Z
 ---------------------------------------------------------------------
      1          6           0       -7.543067    3.853865    0.448896
      2          1           0       -6.504371    3.978887    0.126927
      3          1           0       -8.194236    4.266370   -0.328290
      4          1           0       -7.693361    4.425198    1.371624
      5          6           0       -7.853734    2.383296    0.676786
      6          1           0       -7.208301    1.979987    1.473639
      7          1           0       -8.898558    2.253698    1.009069
      8          8           0       -7.647352    1.695187   -0.547086
      9          6           0       -7.995355    0.324664   -0.523629
     10          1           0       -8.106667    0.023343   -1.570510
     11          1           0       -8.964929    0.175981   -0.017828
     12          6           0       -6.958412   -0.580792    0.131524
     13          1           0       -6.733589   -0.245697    1.157913
     14          1           0       -7.375736   -1.600740    0.207870
     15          8           0       -5.784817   -0.580194   -0.656266
     16          6           0       -4.743934   -1.368835   -0.116118
     17          1           0       -5.053266   -2.421676   -0.008818
     18          1           0       -4.460992   -1.004367    0.885828
     19          6           0       -3.561336   -1.281291   -1.081305
     20          1           0       -3.268856   -0.229008   -1.213219
     21          1           0       -3.867682   -1.669705   -2.057575
     22          8           0       -2.461645   -2.071583   -0.654765
     23          6           0       -1.605596   -1.440531    0.285709
     24          1           0       -2.124490   -1.220104    1.229980
     25          1           0       -1.238263   -0.483397   -0.118704
     26          6           0       -0.445502   -2.394833    0.548746
     27          1           0        0.044204   -2.661527   -0.392778
     28          1           0       -0.821986   -3.322192    0.990644
     29         16           0        0.780400   -1.728843    1.741184
     30          6           0        1.784447   -0.620584    0.664153
     31          1           0        1.125176   -0.002470    0.047988
     32          1           0        2.298399    0.048932    1.360373
     33          6           0        2.790576   -1.375723   -0.205374
     34          1           0        2.275402   -2.055926   -0.890713
     35          1           0        3.459132   -1.982849    0.413480
     36         16           0        3.791721   -0.285316   -1.297963
     37          6           0        4.938827    0.475161   -0.068327
     38          1           0        5.410338   -0.329007    0.506928
     39          1           0        4.385794    1.115521    0.624215
     40          6           0        5.990643    1.302427   -0.807036
     41          1           0        6.534598    0.689372   -1.532238
     42          1           0        5.513220    2.114588   -1.364385
     43         16           0        7.181550    2.134104    0.318501
     44          6           0        8.305601    0.748960    0.776381
     45          1           0        8.868469    1.139093    1.631021
     46          1           0        7.708895   -0.090636    1.149188
     47          6           0        9.256528    0.303436   -0.333361
     48          1           0        8.713742   -0.086858   -1.200866
     49          1           0        9.880019    1.136378   -0.672260
     50          1           0        9.914352   -0.495766    0.030846
 ---------------------------------------------------------------------
 Stoichiometry    C14H30O3S3
 Framework group  C1[X(C14H30O3S3)]
                         Standard orientation:                         
 ---------------------------------------------------------------------
 Center     Atomic      Atomic             Coordinates (Angstroms)
 Number     Number       Type             X           Y           Z
 ---------------------------------------------------------------------
      1          6           0       -7.546081    3.849139    0.498648
      2          1           0       -6.508276    3.977936    0.175300
      3          1           0       -8.199403    4.270207   -0.272112
      4          1           0       -7.693965    4.410081    1.428116
      5          6           0       -7.855924    2.376058    0.710898
      6          1           0       -7.208287    1.963964    1.501442
      7          1           0       -8.899829    2.242569    1.044525
      8          8           0       -7.652748    1.701728   -0.521153
      9          6           0       -8.000493    0.330969   -0.512102
     10          1           0       -8.114587    0.041368   -1.561987
     11          1           0       -8.968678    0.176466   -0.005385
     12          6           0       -6.961658   -0.581586    0.130074
     13          1           0       -6.734114   -0.257964    1.159540
     14          1           0       -7.378630   -1.602397    0.196123
     15          8           0       -5.790192   -0.571969   -0.660821
     16          6           0       -4.747745   -1.366428   -0.132345
     17          1           0       -5.056638   -2.420457   -0.036004
     18          1           0       -4.462151   -1.013151    0.872852
     19          6           0       -3.567768   -1.267882   -1.099677
     20          1           0       -3.275794   -0.214138   -1.220591
     21          1           0       -3.876692   -1.645395   -2.079404
     22          8           0       -2.466818   -2.062711   -0.684977
     23          6           0       -1.608324   -1.442080    0.260190
     24          1           0       -2.124699   -1.232326    1.208266
     25          1           0       -1.242219   -0.480415   -0.134472
     26          6           0       -0.447389   -2.399068    0.509398
     27          1           0        0.039812   -2.655120   -0.436370
     28          1           0       -0.822549   -3.331379    0.941900
     29         16           0        0.781632   -1.746257    1.705907
     30          6           0        1.782613   -0.625839    0.638647
     31          1           0        1.121594   -0.000979    0.031221
     32          1           0        2.298346    0.035930    1.340930
     33          6           0        2.786498   -1.371024   -0.241990
     34          1           0        2.269572   -2.043600   -0.933509
     35          1           0        3.456807   -1.984926    0.368224
     36         16           0        3.784536   -0.268282   -1.324999
     37          6           0        4.934849    0.478578   -0.090023
     38          1           0        5.408024   -0.331898    0.474919
     39          1           0        4.383596    1.111050    0.611133
     40          6           0        5.984551    1.314243   -0.822259
     41          1           0        6.526634    0.709438   -1.555743
     42          1           0        5.505511    2.132510   -1.369191
     43         16           0        7.178374    2.133472    0.309303
     44          6           0        8.303852    0.743482    0.748615
     45          1           0        8.868969    1.124119    1.606048
     46          1           0        7.708272   -0.100337    1.113607
     47          6           0        9.251843    0.310572   -0.368606
     48          1           0        8.706774   -0.070080   -1.238959
     49          1           0        9.874300    1.147362   -0.699839
     50          1           0        9.910761   -0.492544   -0.015144
 ---------------------------------------------------------------------
 Standard basis: 6-31G(d) (6D, 7F)
   372 basis functions,   752 primitive gaussians,   372 cartesian basis functions
    93 alpha electrons       93 beta electrons
 Requested convergence on RMS density matrix=1.00D-08 within  64 cycles.
 Requested convergence on MAX density matrix=1.00D-06.
 Requested convergence on             energy=1.00D-06.
 SCF Done:  E(RB3LYP) =  -1971.75516019     A.U. after    9 cycles
            NFock=  9  Conv=0.54D-08     -V/T= 2.0058
 Step number   6 out of a maximum of   55
     Eigenvalues ---    0.00118   0.00230   0.00230   0.00247   0.00355
     Eigenvalues ---    0.00418   0.00427   0.00466   0.00482   0.00515
     Eigenvalues ---    0.00528   0.00579   0.00605   0.01195   0.01543
     Eigenvalues ---    0.01545   0.01609   0.01618   0.01624   0.04264
     Eigenvalues ---    0.04448   0.04526   0.04801   0.04870   0.04936
     Eigenvalues ---    0.05060   0.05155   0.05267   0.05285   0.05394
     Eigenvalues ---    0.05456   0.05497   0.05538   0.05608   0.05656
     Eigenvalues ---    0.05668   0.05682   0.05752   0.05767   0.05789
     Eigenvalues ---    0.05824   0.05976   0.05987   0.06003   0.06023
     Eigenvalues ---    0.06037   0.06079   0.10854   0.11071   0.11125
     Eigenvalues ---    0.11212   0.11295   0.11421   0.11534   0.11599
     Eigenvalues ---    0.11628   0.11654   0.11769   0.11866   0.13470
     Eigenvalues ---    0.13588   0.13622   0.13634   0.13686   0.13769
     Eigenvalues ---    0.13913   0.13951   0.13982   0.14038   0.14066
     Eigenvalues ---    0.14390   0.15894   0.15993   0.16000   0.16000
     Eigenvalues ---    0.16010   0.16086   0.18742   0.20731   0.21940
     Eigenvalues ---    0.21942   0.21963   0.22009   0.22019   0.22031
     Eigenvalues ---    0.22111   0.22187   0.22849   0.23000   0.23664
     Eigenvalues ---    0.24065   0.24202   0.24309   0.24438   0.24538
     Eigenvalues ---    0.24671   0.25000   0.25010   0.25151   0.27197
     Eigenvalues ---    0.29331   0.29939   0.30065   0.30353   0.30416
     Eigenvalues ---    0.30840   0.31556   0.31996   0.33388   0.33434
     Eigenvalues ---    0.33466   0.33496   0.33533   0.33575   0.33634
     Eigenvalues ---    0.33729   0.33815   0.34023   0.34209   0.34235
     Eigenvalues ---    0.34284   0.34338   0.34348   0.34373   0.34381
     Eigenvalues ---    0.34389   0.34407   0.34416   0.34426   0.34440
     Eigenvalues ---    0.34450   0.34464   0.34482   0.34511   0.34522
     Eigenvalues ---    0.34557   0.34604   0.39290   0.43766   0.43820
     Eigenvalues ---    0.44424   0.44646   0.44749   0.49335
 Maximum Force            0.000243     0.000015     NO 
 RMS     Force            0.000041     0.000010     NO 
 Maximum Displacement     0.359901     0.000060     NO 
 RMS     Displacement     0.060635     0.000040     NO 
                          Input orientation:                          
 ---------------------------------------------------------------------
 Center     Atomic      Atomic             Coordinates (Angstroms)
 Number     Number       Type             X           Y           Z
 ---------------------------------------------------------------------
      1          6           0       -7.544705    3.857415    0.404719
      2          1           0       -6.503239    3.978948    0.090628
      3          1           0       -8.188634    4.264345   -0.381328
      4          1           0       -7.702234    4.436482    1.321293
      5          6           0       -7.858655    2.389038    0.641028
      6          1           0       -7.220530    1.991181    1.446246
      7          1           0       -8.906286    2.262820    0.965363
      8          8           0       -7.642699    1.691361   -0.575711
      9          6           0       -7.990519    0.320959   -0.545411
     10          1           0       -8.094834    0.012429   -1.590950
     11          1           0       -8.963496    0.175715   -0.045472
     12          6           0       -6.957419   -0.579779    0.121661
     13          1           0       -6.739192   -0.238721    1.147415
     14          1           0       -7.374192   -1.599573    0.201312
     15          8           0       -5.778855   -0.582964   -0.658576
     16          6           0       -4.741905   -1.371300   -0.110354
     17          1           0       -5.052571   -2.423789   -0.004522
     18          1           0       -4.466606   -1.006086    0.893354
     19          6           0       -3.552639   -1.285113   -1.066874
     20          1           0       -3.255981   -0.233469   -1.194324
     21          1           0       -3.854069   -1.669905   -2.046036
     22          8           0       -2.457571   -2.079697   -0.636520
     23          6           0       -1.607383   -1.457502    0.315314
     24          1           0       -2.130578   -1.252020    1.260405
     25          1           0       -1.243519   -0.493418   -0.075271
     26          6           0       -0.443737   -2.409291    0.569624
     27          1           0        0.050908   -2.660150   -0.373518
     28          1           0       -0.817412   -3.344638    0.996546
     29         16           0        0.774703   -1.755265    1.775950
     30          6           0        1.769780   -0.616857    0.722042
     31          1           0        1.104851    0.015853    0.127465
     32          1           0        2.286702    0.035132    1.432370
     33          6           0        2.770934   -1.345856   -0.174301
     34          1           0        2.252121   -2.007820   -0.874347
     35          1           0        3.445187   -1.968557    0.422227
     36         16           0        3.762866   -0.223122   -1.243025
     37          6           0        4.944244    0.473800   -0.008098
     38          1           0        5.430526   -0.358520    0.511844
     39          1           0        4.410400    1.076772    0.731233
     40          6           0        5.975546    1.339052   -0.730858
     41          1           0        6.495705    0.766969   -1.505283
     42          1           0        5.484457    2.181779   -1.227253
     43         16           0        7.204788    2.100132    0.403694
     44          6           0        8.344045    0.690131    0.728276
     45          1           0        8.937477    1.021334    1.586951
     46          1           0        7.759458   -0.173216    1.064064
     47          6           0        9.253441    0.322481   -0.442791
     48          1           0        8.678861   -0.006250   -1.315271
     49          1           0        9.866308    1.176889   -0.745326
     50          1           0        9.922152   -0.500141   -0.159605
 ---------------------------------------------------------------------
 Stoichiometry    C14H30O3S3
 Framework group  C1[X(C14H30O3S3)]
                         Standard orientation:                         
 ---------------------------------------------------------------------
 Center     Atomic      Atomic             Coordinates (Angstroms)
 Number     Number       Type             X           Y           Z
 ---------------------------------------------------------------------
      1          6           0       -7.545676    3.848179    0.515211
      2          1           0       -6.505945    3.977679    0.198567
      3          1           0       -8.193892    4.274729   -0.256786
      4          1           0       -7.698140    4.403954    1.446936
      5          6           0       -7.858398    2.374287    0.716166
      6          1           0       -7.215880    1.956323    1.507586
      7          1           0       -8.904237    2.239844    1.042965
      8          8           0       -7.649162    1.707509   -0.518934
      9          6           0       -7.996879    0.336748   -0.521264
     10          1           0       -8.106950    0.054651   -1.573658
     11          1           0       -8.967103    0.178867   -0.019809
     12          6           0       -6.960177   -0.580422    0.117216
     13          1           0       -6.736303   -0.265300    1.150024
     14          1           0       -7.376557   -1.601936    0.173433
     15          8           0       -5.785915   -0.563842   -0.669314
     16          6           0       -4.746010   -1.365650   -0.146832
     17          1           0       -5.056143   -2.420499   -0.065849
     18          1           0       -4.465185   -1.025819    0.864232
     19          6           0       -3.562011   -1.255283   -1.107394
     20          1           0       -3.266004   -0.200736   -1.209931
     21          1           0       -3.868832   -1.615308   -2.094270
     22          8           0       -2.464636   -2.060363   -0.703218
     23          6           0       -1.609202   -1.462274    0.259309
     24          1           0       -2.127188   -1.280717    1.212136
     25          1           0       -1.247440   -0.488623   -0.108851
     26          6           0       -0.444224   -2.420067    0.483162
     27          1           0        0.045220   -2.647037   -0.468704
     28          1           0       -0.815596   -3.365907    0.888426
     29         16           0        0.780855   -1.796537    1.698876
     30          6           0        1.770186   -0.631847    0.668538
[...]
     19          6           0       -3.562687   -1.320551   -1.063170
     20          1           0       -3.252453   -0.274420   -1.205265
     21          1           0       -3.885307   -1.710171   -2.033718
     22          8           0       -2.472744   -2.127098   -0.644131
     23          6           0       -1.612225   -1.520138    0.307783
     24          1           0       -2.120245   -1.343270    1.267114
     25          1           0       -1.263421   -0.543178   -0.064606
     26          6           0       -0.435898   -2.468122    0.517754
     27          1           0        0.045829   -2.688989   -0.439700
     28          1           0       -0.795206   -3.418327    0.924241
     29         16           0        0.794813   -1.837581    1.723903
     30          6           0        1.772718   -0.670985    0.685330
     31          1           0        1.099327   -0.032935    0.105673
     32          1           0        2.288049   -0.027415    1.404698
     33          6           0        2.776393   -1.374185   -0.229846
     34          1           0        2.260255   -2.028604   -0.939229
     35          1           0        3.459059   -2.001398    0.352657
     36         16           0        3.752224   -0.224052   -1.283219
     37          6           0        4.909165    0.489088   -0.034970
     38          1           0        5.396965   -0.336293    0.494993
     39          1           0        4.360164    1.089979    0.695296
     40          6           0        5.942260    1.361671   -0.747933
     41          1           0        6.478556    0.790771   -1.512348
     42          1           0        5.449288    2.196660   -1.255897
     43         16           0        7.145961    2.145066    0.398289
     44          6           0        8.283703    0.745671    0.769990
     45          1           0        8.860673    1.097441    1.631896
     46          1           0        7.697419   -0.113553    1.113696
     47          6           0        9.216170    0.357120   -0.376477
     48          1           0        8.659266    0.006161   -1.251878
     49          1           0        9.830870    1.207693   -0.686607
     50          1           0        9.883091   -0.455787   -0.062520
 ---------------------------------------------------------------------
 Stoichiometry    C14H30O3S3
 Framework group  C1[X(C14H30O3S3)]
                         Standard orientation:                         
 ---------------------------------------------------------------------
 Center     Atomic      Atomic             Coordinates (Angstroms)
 Number     Number       Type             X           Y           Z
 ---------------------------------------------------------------------
      1          6           0       -7.470001    3.894700    0.478338
      2          1           0       -6.434032    4.006064    0.142678
      3          1           0       -8.125891    4.313298   -0.291663
      4          1           0       -7.601355    4.470349    1.401273
      5          6           0       -7.795958    2.428694    0.714440
      6          1           0       -7.145306    2.019360    1.504093
      7          1           0       -8.837939    2.313010    1.060790
      8          8           0       -7.614033    1.735098   -0.510059
      9          6           0       -7.977069    0.368802   -0.477937
     10          1           0       -8.107210    0.065973   -1.522282
     11          1           0       -8.940761    0.232183    0.042363
     12          6           0       -6.940910   -0.546476    0.164838
     13          1           0       -6.698033   -0.211728    1.187350
     14          1           0       -7.368446   -1.561596    0.249507
     15          8           0       -5.778837   -0.560377   -0.639571
     16          6           0       -4.741063   -1.363881   -0.115867
     17          1           0       -5.060894   -2.413986   -0.011034
     18          1           0       -4.442658   -1.008375    0.884882
     19          6           0       -3.569745   -1.283904   -1.095641
     20          1           0       -3.258768   -0.235214   -1.215510
     21          1           0       -3.897759   -1.650970   -2.073148
     22          8           0       -2.478845   -2.101153   -0.700511
     23          6           0       -1.612730   -1.517068    0.260595
     24          1           0       -2.115698   -1.361381    1.226238
     25          1           0       -1.264432   -0.532350   -0.091270
     26          6           0       -0.436689   -2.471080    0.443068
     27          1           0        0.039934   -2.670763   -0.521566
     28          1           0       -0.795283   -3.429810    0.829681
     29         16           0        0.800917   -1.869667    1.657011
     30          6           0        1.775239   -0.681039    0.640283
     31          1           0        1.099847   -0.029129    0.078656
     32          1           0        2.295059   -0.054630    1.371473
     33          6           0        2.773344   -1.364559   -0.295662
     34          1           0        2.252752   -2.002038   -1.017111
     35          1           0        3.458039   -2.005711    0.269010
     36         16           0        3.745495   -0.192051   -1.327550
     37          6           0        4.909658    0.491078   -0.069271
     38          1           0        5.398952   -0.346748    0.439356
     39          1           0        4.365154    1.075933    0.677202
     40          6           0        5.940388    1.378304   -0.767430
     41          1           0        6.472057    0.824225   -1.547298
     42          1           0        5.446045    2.225244   -1.253820
     43         16           0        7.150898    2.133927    0.390209
     44          6           0        8.288534    0.724998    0.724314
     45          1           0        8.870298    1.056366    1.591069
     46          1           0        7.702780   -0.141059    1.051371
     47          6           0        9.214712    0.361389   -0.435356
     48          1           0        8.652948    0.031113   -1.315685
     49          1           0        9.829038    1.217998   -0.729186
     50          1           0        9.882062   -0.459290   -0.143296
 ---------------------------------------------------------------------
 Standard basis: 6-31G(d) (6D, 7F)
   372 basis functions,   752 primitive gaussians,   372 cartesian basis functions
    93 alpha electrons       93 beta electrons
 Requested convergence on RMS density matrix=1.00D-08 within  64 cycles.
 Requested convergence on MAX density matrix=1.00D-06.
 Requested convergence on             energy=1.00D-06.
 SCF Done:  E(RB3LYP) =  -1971.75517058     A.U. after    4 cycles
            NFock=  4  Conv=0.41D-08     -V/T= 2.0058
 Step number  30 out of a maximum of   55
     Eigenvalues ---    0.00130   0.00158   0.00249   0.00272   0.00389
     Eigenvalues ---    0.00411   0.00427   0.00474   0.00500   0.00532
     Eigenvalues ---    0.00562   0.00621   0.00639   0.00702   0.00735
     Eigenvalues ---    0.00903   0.01408   0.01552   0.01617   0.04474
     Eigenvalues ---    0.04790   0.04862   0.04924   0.04975   0.05046
     Eigenvalues ---    0.05192   0.05229   0.05366   0.05372   0.05411
     Eigenvalues ---    0.05493   0.05554   0.05578   0.05616   0.05664
     Eigenvalues ---    0.05688   0.05726   0.05751   0.05758   0.05785
     Eigenvalues ---    0.05844   0.05989   0.05990   0.06008   0.06022
     Eigenvalues ---    0.06056   0.06150   0.10556   0.10999   0.11181
     Eigenvalues ---    0.11214   0.11306   0.11407   0.11455   0.11619
     Eigenvalues ---    0.11638   0.11711   0.11733   0.11879   0.13015
     Eigenvalues ---    0.13344   0.13543   0.13683   0.13696   0.13754
     Eigenvalues ---    0.13838   0.13983   0.14003   0.14047   0.14075
     Eigenvalues ---    0.14275   0.15878   0.15977   0.15999   0.16006
     Eigenvalues ---    0.16072   0.16101   0.17712   0.19785   0.20855
     Eigenvalues ---    0.21723   0.21934   0.21966   0.22296   0.22305
     Eigenvalues ---    0.22470   0.22753   0.22952   0.22998   0.23540
     Eigenvalues ---    0.23902   0.24025   0.24149   0.24487   0.24619
     Eigenvalues ---    0.24957   0.25394   0.25738   0.26099   0.27095
     Eigenvalues ---    0.29276   0.29894   0.30075   0.30422   0.30511
     Eigenvalues ---    0.30673   0.30979   0.31577   0.33395   0.33433
     Eigenvalues ---    0.33468   0.33482   0.33563   0.33613   0.33662
     Eigenvalues ---    0.33722   0.33803   0.33972   0.34222   0.34267
     Eigenvalues ---    0.34308   0.34349   0.34376   0.34396   0.34403
     Eigenvalues ---    0.34418   0.34429   0.34437   0.34459   0.34464
     Eigenvalues ---    0.34509   0.34520   0.34532   0.34554   0.34602
     Eigenvalues ---    0.34663   0.34782   0.35067   0.43768   0.43832
     Eigenvalues ---    0.44523   0.44658   0.44770   0.45906
 Maximum Force            0.000000     0.000015     YES
 RMS     Force            0.000000     0.000010     YES
 Maximum Displacement     0.000102     0.000060     NO 
 RMS     Displacement     0.000032     0.000040     YES
 Optimization completed on the basis of negligible forces.
    -- Stationary point found.
                          Input orientation:                          
 ---------------------------------------------------------------------
 Center     Atomic      Atomic             Coordinates (Angstroms)
 Number     Number       Type             X           Y           Z
 ---------------------------------------------------------------------
      1          6           0       -7.477437    3.887012    0.373274
      2          1           0       -6.439935    3.992171    0.040358
      3          1           0       -8.129978    4.287108   -0.409306
      4          1           0       -7.614170    4.483281    1.282230
      5          6           0       -7.802702    2.426291    0.640973
      6          1           0       -7.155509    2.035896    1.442963
      7          1           0       -8.846264    2.317048    0.984644
      8          8           0       -7.613730    1.705329   -0.566535
      9          6           0       -7.975175    0.339610   -0.505210
     10          1           0       -8.099671    0.012969   -1.543046
     11          1           0       -8.941297    0.213495    0.013232
     12          6           0       -6.941094   -0.559395    0.163360
     13          1           0       -6.703794   -0.201182    1.179208
     14          1           0       -7.367751   -1.572926    0.268919
     15          8           0       -5.774970   -0.589935   -0.634704
     16          6           0       -4.738818   -1.379896   -0.087704
     17          1           0       -5.057829   -2.427796    0.039348
     18          1           0       -4.445907   -1.001348    0.906194
     19          6           0       -3.562687   -1.320551   -1.063170
     20          1           0       -3.252453   -0.274420   -1.205265
     21          1           0       -3.885307   -1.710171   -2.033718
     22          8           0       -2.472744   -2.127098   -0.644131
     23          6           0       -1.612225   -1.520138    0.307783
     24          1           0       -2.120245   -1.343270    1.267114
     25          1           0       -1.263421   -0.543178   -0.064606
     26          6           0       -0.435898   -2.468122    0.517754
     27          1           0        0.045829   -2.688989   -0.439700
     28          1           0       -0.795206   -3.418327    0.924241
     29         16           0        0.794813   -1.837581    1.723903
     30          6           0        1.772718   -0.670985    0.685330
     31          1           0        1.099327   -0.032935    0.105673
     32          1           0        2.288049   -0.027415    1.404698
     33          6           0        2.776393   -1.374185   -0.229846
     34          1           0        2.260255   -2.028604   -0.939229
     35          1           0        3.459059   -2.001398    0.352657
     36         16           0        3.752224   -0.224052   -1.283219
     37          6           0        4.909165    0.489088   -0.034970
     38          1           0        5.396965   -0.336293    0.494993
     39          1           0        4.360164    1.089979    0.695296
     40          6           0        5.942260    1.361671   -0.747933
     41          1           0        6.478556    0.790771   -1.512348
     42          1           0        5.449288    2.196660   -1.255897
     43         16           0        7.145961    2.145066    0.398289
     44          6           0        8.283703    0.745671    0.769990
     45          1           0        8.860673    1.097441    1.631896
     46          1           0        7.697419   -0.113553    1.113696
     47          6           0        9.216170    0.357120   -0.376477
     48          1           0        8.659266    0.006161   -1.251878
     49          1           0        9.830870    1.207693   -0.686607
     50          1           0        9.883091   -0.455787   -0.062520
 ---------------------------------------------------------------------
 Stoichiometry    C14H30O3S3
 Framework group  C1[X(C14H30O3S3)]
                         Standard orientation:                         
 ---------------------------------------------------------------------
 Center     Atomic      Atomic             Coordinates (Angstroms)
 Number     Number       Type             X           Y           Z
 ---------------------------------------------------------------------
      1          6           0       -7.470001    3.894700    0.478338
      2          1           0       -6.434032    4.006064    0.142678
      3          1           0       -8.125891    4.313298   -0.291663
      4          1           0       -7.601355    4.470349    1.401273
      5          6           0       -7.795958    2.428694    0.714440
      6          1           0       -7.145306    2.019360    1.504093
      7          1           0       -8.837939    2.313010    1.060790
      8          8           0       -7.614033    1.735098   -0.510059
      9          6           0       -7.977069    0.368802   -0.477937
     10          1           0       -8.107210    0.065973   -1.522282
     11          1           0       -8.940761    0.232183    0.042363
     12          6           0       -6.940910   -0.546476    0.164838
     13          1           0       -6.698033   -0.211728    1.187350
     14          1           0       -7.368446   -1.561596    0.249507
     15          8           0       -5.778837   -0.560377   -0.639571
     16          6           0       -4.741063   -1.363881   -0.115867
     17          1           0       -5.060894   -2.413986   -0.011034
     18          1           0       -4.442658   -1.008375    0.884882
     19          6           0       -3.569745   -1.283904   -1.095641
     20          1           0       -3.258768   -0.235214   -1.215510
     21          1           0       -3.897759   -1.650970   -2.073148
     22          8           0       -2.478845   -2.101153   -0.700511
     23          6           0       -1.612730   -1.517068    0.260595
     24          1           0       -2.115698   -1.361381    1.226238
     25          1           0       -1.264432   -0.532350   -0.091270
     26          6           0       -0.436689   -2.471080    0.443068
     27          1           0        0.039934   -2.670763   -0.521566
     28          1           0       -0.795283   -3.429810    0.829681
     29         16           0        0.800917   -1.869667    1.657011
     30          6           0        1.775239   -0.681039    0.640283
     31          1           0        1.099847   -0.029129    0.078656
     32          1           0        2.295059   -0.054630    1.371473
     33          6           0        2.773344   -1.364559   -0.295662
     34          1           0        2.252752   -2.002038   -1.017111
     35          1           0        3.458039   -2.005711    0.269010
     36         16           0        3.745495   -0.192051   -1.327550
     37          6           0        4.909658    0.491078   -0.069271
     38          1           0        5.398952   -0.346748    0.439356
     39          1           0        4.365154    1.075933    0.677202
     40          6           0        5.940388    1.378304   -0.767430
     41          1           0        6.472057    0.824225   -1.547298
     42          1           0        5.446045    2.225244   -1.253820
     43         16           0        7.150898    2.133927    0.390209
     44          6           0        8.288534    0.724998    0.724314
     45          1           0        8.870298    1.056366    1.591069
     46          1           0        7.702780   -0.141059    1.051371
     47          6           0        9.214712    0.361389   -0.435356
     48          1           0        8.652948    0.031113   -1.315685
     49          1           0        9.829038    1.217998   -0.729186
     50          1           0        9.882062   -0.459290   -0.143296
 ---------------------------------------------------------------------
 Mulliken charges:
     1  C   -0.451445
     2  H    0.160933
     3  H    0.158543
     4  H    0.140974
     5  C   -0.012000
     6  H    0.120621
     7  H    0.116198
     8  O   -0.458395
     9  C   -0.032439
    10  H    0.156888
    11  H    0.116158
    12  C   -0.022290
    13  H    0.123500
    14  H    0.118028
    15  O   -0.470190
    16  C   -0.023091
    17  H    0.128679
    18  H    0.121103
    19  C   -0.039739
    20  H    0.137578
    21  H    0.157829
    22  O   -0.480874
    23  C   -0.007860
    24  H    0.139168
    25  H    0.128831
    26  C   -0.436800
    27  H    0.181122
    28  H    0.188308
    29  S    0.083913
    30  C   -0.416700
    31  H    0.188164
    32  H    0.183546
    33  C   -0.410866
    34  H    0.182981
    35  H    0.182910
    36  S    0.079475
    37  C   -0.394268
    38  H    0.170791
    39  H    0.184286
    40  C   -0.435080
    41  H    0.188313
    42  H    0.192617
    43  S    0.088480
    44  C   -0.411157
    45  H    0.178661
    46  H    0.169195
    47  C   -0.435928
    48  H    0.155304
    49  H    0.165678
    50  H    0.150347
 Sum of Mulliken charges =  -0.00000
 Dipole moment (field-independent basis, Debye):
    X=             -0.5116    Y=             -1.2947    Z=              1.7351  Tot=              2.2246
 Quadrupole moment (field-independent basis, Debye-Ang):
   XX=           -122.6492   YY=           -152.9085   ZZ=           -153.4678
   XY=             -5.5949   XZ=             -9.1172   YZ=              2.4900
 Traceless Quadrupole moment (field-independent basis, Debye-Ang):
   XX=             20.3593   YY=             -9.9000   ZZ=            -10.4593
   XY=             -5.5949   XZ=             -9.1172   YZ=              2.4900
 Octapole moment (field-independent basis, Debye-Ang**2):
  XXX=            -64.5398  YYY=             -5.4158  ZZZ=            -13.3651  XYY=            -63.4492
  XXY=           -100.8481  XXZ=            102.6363  XZZ=            -26.8984  YZZ=              5.0300
  YYZ=             -1.7059  XYZ=            -23.4573
 Hexadecapole moment (field-independent basis, Debye-Ang**3):
 XXXX=         -25548.7342 YYYY=          -2731.7804 ZZZZ=           -852.0500 XXXY=           -362.7585
 XXXZ=           -276.8546 YYYX=           -168.0501 YYYZ=              4.9603 ZZZX=             64.1274
 ZZZY=             21.5699 XXYY=          -5389.7842 XXZZ=          -4874.0556 YYZZ=           -603.0798
 XXYZ=            104.2991 YYXZ=            -71.3724 ZZXY=             15.7314
 Job cpu time:       0 days  5 hours 56 minutes 35.1 seconds.
 Normal termination of Gaussian 16 at Sat Jul  8 21:21:01 2023.
