 Copyright (c) 1988-2019, Gaussian, Inc.  All Rights Reserved.
  
 This is part of the Gaussian(R) 16 program.  It is based on
 the Gaussian(R) 09 system (copyright 2009, Gaussian, Inc.),
 the Gaussian(R) 03 system (copyright 2003, Gaussian, Inc.),
 the Gaussian(R) 98 system (copyright 1998, Gaussian, Inc.),
 the Gaussian(R) 94 system (copyright 1995, Gaussian, Inc.),
 the Gaussian 92(TM) system (copyright 1992, Gaussian, Inc.),
 the Gaussian 90(TM) system (copyright 1990, Gaussian, Inc.),
 the Gaussian 88(TM) system (copyright 1988, Gaussian, Inc.),
 the Gaussian 86(TM) system (copyright 1986, Carnegie Mellon
 University), and the Gaussian 82(TM) system (copyright 1983,
 Carnegie Mellon University). Gaussian is a federally registered
 trademark of Gaussian, Inc.
 Cite this work as:
 Gaussian 16, Revision C.01,
 M. J. Frisch, G. W. Trucks, H. B. Schlegel, G. E. Scuseria, 
 M. A. Robb, J. R. Cheeseman, G. Scalmani, V. Barone, 
 G. A. Petersson, H. Nakatsuji, X. Li, M. Caricato, A. V. Marenich, 
 J. Bloino, B. G. Janesko, R. Gomperts, B. Mennucci, H. P. Hratchian, 
 J. V. Ortiz, A. F. Izmaylov, J. L. Sonnenberg, D. Williams-Young, 
 F. Ding, F. Lipparini, F. Egidi, J. Goings, B. Peng, A. Petrone, 
 T. Henderson, D. Ranasinghe, V. G. Zakrzewski, J. Gao, N. Rega, 
 G. Zheng, W. Liang, M. Hada, M. Ehara, K. Toyota, R. Fukuda, 
 J. Hasegawa, M. Ishida, T. Nakajima, Y. Honda, O. Kitao, H. Nakai, 
 T. Vreven, K. Throssell, J. A. Montgomery, Jr., J. E. Peralta, 
 F. Ogliaro, M. J. Bearpark, J. J. Heyd, E. N. Brothers, K. N. Kudin, 
 V. N. Staroverov, T. A. Keith, R. Kobayashi, J. Normand, 
 K. Raghavachari, A. P. Rendell, J. C. Burant, S. S. Iyengar, 
 J. Tomasi, M. Cossi, J. M. Millam, M. Klene, C. Adamo, R. Cammi, 
 J. W. Ochterski, R. L. Martin, K. Morokuma, O. Farkas, 
 J. B. Foresman, and D. J. Fox, Gaussian, Inc., Wallingford CT, 2019.
 
 ******************************************
 Gaussian 16:  EM64L-G16RevC.01  3-Jul-2019
                 9-Jul-2023 
 ******************************************
 ----------------------------------------------------------------------
 #P B3LYP/6-31G(d) Integral=Ultrafine SCF(Conver=8,XQC,MaxConventionalC
 ycles=64,MaxCycle=128) NoSymm Test Pop=mk IOp(6/33=2) GFInput GFPrint
 ----------------------------------------------------------------------
 1/38=1,172=1/1;
 2/12=2,15=1,17=6,18=5,40=1/2;
 3/5=1,6=6,7=1,11=2,24=110,25=1,30=1,74=-5,75=-5/1,2,3;
 4//1;
 5/5=2,6=8,7=128,8=3,13=1,38=5,85=64/2,8;
 6/7=2,8=2,9=2,10=2,15=8,20=1,28=1,33=2/1,2;
 99/5=1,9=1/99;
 -------------------------------------------------
 MEP step - Input generated by PyRED DVE-DMDS-OPLS
 -------------------------------------------------
 Symbolic Z-matrix:
 Charge =  0 Multiplicity = 1
 C                    -0.12381   4.59985  -7.56962 
 H                    -0.67706   5.38524  -7.04457 
 H                     0.71684   5.06074  -8.10008 
 H                    -0.79266   4.14363  -8.30636 
 C                     0.37814   3.55275  -6.58907 
 H                     0.94632   2.76807  -7.1148 
 H                     1.06137   4.01287  -5.8571 
 O                    -0.75184   2.97764  -5.94276 
 C                    -0.44734   1.93421  -5.03361 
 H                     0.3881    1.31622  -5.39604 
 H                    -1.33706   1.29615  -4.9872 
 C                    -0.11645   2.47502  -3.63549 
 H                     0.78901   3.08967  -3.67072 
 H                    -0.93944   3.11057  -3.27903 
 O                     0.15042   1.41828  -2.71561 
 C                    -1.01167   0.90077  -2.07575 
 H                    -1.75547   0.58086  -2.82246 
 H                    -1.47572   1.67534  -1.44604 
 C                    -0.65489  -0.30588  -1.2175 
 H                    -0.06364  -1.01411  -1.81729 
 H                    -1.59369  -0.80198  -0.94038 
 O                     0.        0.        0. 
 C                     1.42416   0.        0. 
 H                     1.80264  -0.56433  -0.86278 
 H                     1.74891  -0.51967   0.90899 
 C                     1.97801   1.42521   0. 
 H                     1.6347    1.95163   0.8965 
 H                     1.60917   1.97176  -0.87008 
 S                     3.81182   1.50205   0.0918 
 C                     4.32918   0.82205  -1.54096 
 H                     5.42107   0.79117  -1.46881 
 H                     3.9862   -0.21019  -1.65429 
 C                     3.88166   1.66706  -2.73357 
 H                     4.17949   2.71229  -2.60137 
 H                     2.79185   1.64193  -2.82579 
 S                     4.48052   1.03726  -4.3574 
 C                     6.26871   1.45919  -4.29308 
 H                     6.71959   0.86643  -5.09449 
 H                     6.68566   1.09017  -3.34782 
 C                     6.6365    2.9369   -4.4699 
 H                     6.10728   3.57339  -3.75229 
 H                     7.70656   3.04922  -4.25718 
 S                     6.40801   3.62877  -6.15661 
 C                     4.72231   4.3652   -6.05876 
 H                     3.99665   3.56875  -5.8745 
 H                     4.6977    5.06172  -5.21273 
 C                     4.41312   5.09868  -7.3633 
 H                     5.13699   5.89827  -7.55333 
 H                     4.43081   4.41358  -8.21765 
 H                     3.41522   5.54998  -7.31233 
 
 ITRead=  0  0  0  0  0  0  0  0  0  0  0  0  0  0  0  0  0  0  0  0
 ITRead=  0  0  0  0  0  0  0  0  0  0  0  0  0  0  0  0  0  0  0  0
 ITRead=  0  0  0  0  0  0  0  0  0  0
 MicOpt= -1 -1 -1 -1 -1 -1 -1 -1 -1 -1 -1 -1 -1 -1 -1 -1 -1 -1 -1 -1
 MicOpt= -1 -1 -1 -1 -1 -1 -1 -1 -1 -1 -1 -1 -1 -1 -1 -1 -1 -1 -1 -1
 MicOpt= -1 -1 -1 -1 -1 -1 -1 -1 -1 -1
 NAtoms=     50 NQM=       50 NQMF=       0 NMMI=      0 NMMIF=      0
                NMic=       0 NMicF=      0.
                          Input orientation:                          
 ---------------------------------------------------------------------
 Center     Atomic      Atomic             Coordinates (Angstroms)
 Number     Number       Type             X           Y           Z
 ---------------------------------------------------------------------
      1          6           0       -0.123812    4.599848   -7.569618
      2          1           0       -0.677060    5.385239   -7.044573
      3          1           0        0.716844    5.060743   -8.100083
      4          1           0       -0.792658    4.143626   -8.306364
      5          6           0        0.378141    3.552748   -6.589072
      6          1           0        0.946321    2.768070   -7.114801
      7          1           0        1.061373    4.012867   -5.857101
      8          8           0       -0.751838    2.977642   -5.942760
      9          6           0       -0.447343    1.934213   -5.033608
     10          1           0        0.388099    1.316215   -5.396042
     11          1           0       -1.337056    1.296147   -4.987199
     12          6           0       -0.116446    2.475017   -3.635490
     13          1           0        0.789005    3.089674   -3.670715
     14          1           0       -0.939444    3.110566   -3.279034
     15          8           0        0.150415    1.418280   -2.715606
     16          6           0       -1.011674    0.900772   -2.075752
     17          1           0       -1.755468    0.580857   -2.822459
     18          1           0       -1.475718    1.675340   -1.446040
     19          6           0       -0.654890   -0.305880   -1.217500
     20          1           0       -0.063642   -1.014114   -1.817287
     21          1           0       -1.593694   -0.801981   -0.940384
     22          8           0        0.000000    0.000000    0.000000
     23          6           0        1.424158    0.000000    0.000000
     24          1           0        1.802641   -0.564330   -0.862776
     25          1           0        1.748907   -0.519670    0.908987
     26          6           0        1.978006    1.425210    0.000000
     27          1           0        1.634700    1.951632    0.896500
     28          1           0        1.609166    1.971762   -0.870081
     29         16           0        3.811819    1.502052    0.091798
     30          6           0        4.329177    0.822054   -1.540959
     31          1           0        5.421067    0.791166   -1.468807
     32          1           0        3.986197   -0.210190   -1.654292
     33          6           0        3.881660    1.667062   -2.733574
     34          1           0        4.179491    2.712288   -2.601373
     35          1           0        2.791849    1.641934   -2.825791
     36         16           0        4.480522    1.037255   -4.357398
     37          6           0        6.268709    1.459194   -4.293079
     38          1           0        6.719595    0.866433   -5.094492
     39          1           0        6.685664    1.090169   -3.347817
     40          6           0        6.636499    2.936902   -4.469901
     41          1           0        6.107276    3.573393   -3.752293
     42          1           0        7.706558    3.049224   -4.257179
     43         16           0        6.408011    3.628771   -6.156607
     44          6           0        4.722308    4.365201   -6.058763
     45          1           0        3.996646    3.568746   -5.874502
     46          1           0        4.697702    5.061722   -5.212732
     47          6           0        4.413119    5.098685   -7.363300
     48          1           0        5.136985    5.898274   -7.553326
     49          1           0        4.430810    4.413581   -8.217651
     50          1           0        3.415222    5.549977   -7.312327
 ---------------------------------------------------------------------
 Stoichiometry    C14H30O3S3
 Framework group  C1[X(C14H30O3S3)]
 Standard basis: 6-31G(d) (6D, 7F)
   372 basis functions,   752 primitive gaussians,   372 cartesian basis functions
    93 alpha electrons       93 beta electrons
 Requested convergence on RMS density matrix=1.00D-08 within  64 cycles.
 Requested convergence on MAX density matrix=1.00D-06.
 Requested convergence on             energy=1.00D-06.
 SCF Done:  E(RB3LYP) =  -1971.75314011     A.U. after   13 cycles
            NFock= 13  Conv=0.49D-08     -V/T= 2.0058
 Mulliken charges:
     1  C   -0.456367
     2  H    0.158036
     3  H    0.146750
     4  H    0.161161
     5  C   -0.018657
     6  H    0.131279
     7  H    0.122531
     8  O   -0.471934
     9  C   -0.039909
    10  H    0.139065
    11  H    0.144722
    12  C   -0.046164
    13  H    0.145820
    14  H    0.140980
    15  O   -0.481790
    16  C   -0.030161
    17  H    0.125199
    18  H    0.141699
    19  C   -0.043744
    20  H    0.138329
    21  H    0.146757
    22  O   -0.472691
    23  C   -0.016045
    24  H    0.132135
    25  H    0.153702
    26  C   -0.438848
    27  H    0.180969
    28  H    0.195407
    29  S    0.070695
    30  C   -0.410725
    31  H    0.177243
    32  H    0.186637
    33  C   -0.436960
    34  H    0.178241
    35  H    0.205464
    36  S    0.085912
    37  C   -0.407902
    38  H    0.193076
    39  H    0.169507
    40  C   -0.416749
    41  H    0.174517
    42  H    0.180350
    43  S    0.085265
    44  C   -0.401809
    45  H    0.195562
    46  H    0.160492
    47  C   -0.459584
    48  H    0.165023
    49  H    0.165341
    50  H    0.152175
 Sum of Mulliken charges =  -0.00000
 Dipole moment (field-independent basis, Debye):
    X=             -1.2697    Y=              0.1809    Z=             -0.3487  Tot=              1.3291
 Quadrupole moment (field-independent basis, Debye-Ang):
   XX=           -152.7677   YY=           -143.9216   ZZ=           -160.6288
   XY=             -2.3988   XZ=              7.1268   YZ=             -1.3501
 Traceless Quadrupole moment (field-independent basis, Debye-Ang):
   XX=             -0.3283   YY=              8.5178   ZZ=             -8.1895
   XY=             -2.3988   XZ=              7.1268   YZ=             -1.3501
 Octapole moment (field-independent basis, Debye-Ang**2):
  XXX=          -1204.9166  YYY=           -915.6138  ZZZ=           1702.0510  XYY=           -410.7204
  XXY=           -367.2219  XXZ=            615.0775  XZZ=           -495.9386  YZZ=           -318.1598
  YYZ=            515.9699  XYZ=             17.8255
 Hexadecapole moment (field-independent basis, Debye-Ang**3):
 XXXX=         -12667.2403 YYYY=          -6167.5719 ZZZZ=         -18151.5960 XXXY=          -3364.2725
 XXXZ=           5353.1979 YYYX=          -3014.0789 YYYZ=           4694.5649 ZZZX=           5593.9296
 ZZZY=           4880.0373 XXYY=          -3470.4485 XXZZ=          -6050.5805 YYZZ=          -3888.0972
 XXYZ=           2057.6203 YYXZ=           1697.0922 ZZXY=          -1233.3572
 Merz-Kollman atomic radii used.
 Atom Element Radius
    1     6    1.50
    2     1    1.20
    3     1    1.20
    4     1    1.20
    5     6    1.50
    6     1    1.20
    7     1    1.20
    8     8    1.40
    9     6    1.50
   10     1    1.20
   11     1    1.20
   12     6    1.50
   13     1    1.20
   14     1    1.20
   15     8    1.40
   16     6    1.50
   17     1    1.20
   18     1    1.20
   19     6    1.50
   20     1    1.20
   21     1    1.20
   22     8    1.40
   23     6    1.50
   24     1    1.20
   25     1    1.20
   26     6    1.50
   27     1    1.20
   28     1    1.20
   29    16    1.75
   30     6    1.50
   31     1    1.20
   32     1    1.20
   33     6    1.50
   34     1    1.20
   35     1    1.20
   36    16    1.75
   37     6    1.50
   38     1    1.20
   39     1    1.20
   40     6    1.50
   41     1    1.20
   42     1    1.20
   43    16    1.75
   44     6    1.50
   45     1    1.20
   46     1    1.20
   47     6    1.50
   48     1    1.20
   49     1    1.20
   50     1    1.20
 Generate VDW surfaces: Layer= 4 Dens= 1 Start= 1.400 Inc= 0.200
            Electrostatic Properties Using The SCF Density.


       Atomic Center    1 is at  -0.123812  4.599848 -7.569618
       Atomic Center    2 is at  -0.677060  5.385239 -7.044573
       Atomic Center    3 is at   0.716844  5.060743 -8.100083
       Atomic Center    4 is at  -0.792658  4.143626 -8.306364
       Atomic Center    5 is at   0.378141  3.552748 -6.589072
       Atomic Center    6 is at   0.946321  2.768070 -7.114801
       Atomic Center    7 is at   1.061373  4.012867 -5.857101
       Atomic Center    8 is at  -0.751838  2.977642 -5.942760
       Atomic Center    9 is at  -0.447343  1.934213 -5.033608
       Atomic Center   10 is at   0.388099  1.316215 -5.396042
       Atomic Center   11 is at  -1.337056  1.296147 -4.987199
       Atomic Center   12 is at  -0.116446  2.475017 -3.635490
       Atomic Center   13 is at   0.789005  3.089674 -3.670715
       Atomic Center   14 is at  -0.939444  3.110566 -3.279034
       Atomic Center   15 is at   0.150415  1.418280 -2.715606
       Atomic Center   16 is at  -1.011674  0.900772 -2.075752
       Atomic Center   17 is at  -1.755468  0.580857 -2.822459
       Atomic Center   18 is at  -1.475718  1.675340 -1.446040
       Atomic Center   19 is at  -0.654890 -0.305880 -1.217500
       Atomic Center   20 is at  -0.063642 -1.014114 -1.817287
       Atomic Center   21 is at  -1.593694 -0.801981 -0.940384
       Atomic Center   22 is at   0.000000  0.000000  0.000000
       Atomic Center   23 is at   1.424158  0.000000  0.000000
       Atomic Center   24 is at   1.802641 -0.564330 -0.862776
       Atomic Center   25 is at   1.748907 -0.519670  0.908987
       Atomic Center   26 is at   1.978006  1.425210  0.000000
       Atomic Center   27 is at   1.634700  1.951632  0.896500
       Atomic Center   28 is at   1.609166  1.971762 -0.870081
       Atomic Center   29 is at   3.811819  1.502052  0.091798
       Atomic Center   30 is at   4.329177  0.822054 -1.540959
       Atomic Center   31 is at   5.421067  0.791166 -1.468807
       Atomic Center   32 is at   3.986197 -0.210190 -1.654292
       Atomic Center   33 is at   3.881660  1.667062 -2.733574
       Atomic Center   34 is at   4.179491  2.712288 -2.601373
       Atomic Center   35 is at   2.791849  1.641934 -2.825791
       Atomic Center   36 is at   4.480522  1.037255 -4.357398
       Atomic Center   37 is at   6.268709  1.459194 -4.293079
       Atomic Center   38 is at   6.719595  0.866433 -5.094492
       Atomic Center   39 is at   6.685664  1.090169 -3.347817
       Atomic Center   40 is at   6.636499  2.936902 -4.469901
       Atomic Center   41 is at   6.107276  3.573393 -3.752293
       Atomic Center   42 is at   7.706558  3.049224 -4.257179
       Atomic Center   43 is at   6.408011  3.628771 -6.156607
       Atomic Center   44 is at   4.722308  4.365201 -6.058763
       Atomic Center   45 is at   3.996646  3.568746 -5.874502
       Atomic Center   46 is at   4.697702  5.061722 -5.212732
       Atomic Center   47 is at   4.413119  5.098685 -7.363300
       Atomic Center   48 is at   5.136985  5.898274 -7.553326
       Atomic Center   49 is at   4.430810  4.413581 -8.217651
       Atomic Center   50 is at   3.415222  5.549977 -7.312327
      ESP Fit Center   51 is at   1.406137  5.583086 -6.519618
      ESP Fit Center   52 is at  -0.382633  6.399990 -8.619618
      ESP Fit Center   53 is at  -1.314777  5.974294 -8.619618
      ESP Fit Center   54 is at   1.406137  3.616610 -8.619618
      ESP Fit Center   55 is at  -0.648812  5.509175 -9.388271
      ESP Fit Center   56 is at  -0.677060  5.385239 -5.364573
      ESP Fit Center   57 is at  -0.371912  6.324388 -5.685424
      ESP Fit Center   58 is at  -1.475947  5.965665 -5.685424
      ESP Fit Center   59 is at  -1.475947  4.804813 -5.685424
      ESP Fit Center   60 is at   0.546907  6.412269 -6.525424
      ESP Fit Center   61 is at  -0.399609  6.958740 -6.525424
      ESP Fit Center   62 is at  -1.475947  6.768953 -6.525424
      ESP Fit Center   63 is at  -2.178477  5.931710 -6.525424
      ESP Fit Center   64 is at  -2.178477  4.838768 -6.525424
      ESP Fit Center   65 is at  -0.399609  6.958740 -7.563722
      ESP Fit Center   66 is at  -1.475947  6.768953 -7.563722
      ESP Fit Center   67 is at  -2.178477  5.931710 -7.563722
      ESP Fit Center   68 is at   0.994295  6.634244 -7.580934
      ESP Fit Center   69 is at   2.314619  5.060743 -8.619232
      ESP Fit Center   70 is at   1.940811  6.087773 -8.619232
      ESP Fit Center   71 is at   0.994295  6.634244 -8.619232
      ESP Fit Center   72 is at  -0.082043  6.444457 -8.619232
      ESP Fit Center   73 is at   1.940811  4.033713 -8.619232
      ESP Fit Center   74 is at   1.704323  5.060743 -9.459232
      ESP Fit Center   75 is at   1.021992  5.999892 -9.459232
      ESP Fit Center   76 is at  -0.082043  5.641169 -9.459232
      ESP Fit Center   77 is at   1.021992  4.121594 -9.459232
      ESP Fit Center   78 is at   0.716844  5.060743 -9.780083
      ESP Fit Center   79 is at  -2.294075  4.690097 -7.787215
      ESP Fit Center   80 is at  -2.294075  3.597155 -7.787215
      ESP Fit Center   81 is at  -1.591545  2.759912 -7.787215
      ESP Fit Center   82 is at  -1.591545  5.527340 -8.825513
      ESP Fit Center   83 is at  -2.294075  4.690097 -8.825513
      ESP Fit Center   84 is at  -2.294075  3.597155 -8.825513
      ESP Fit Center   85 is at  -1.591545  2.759912 -8.825513
      ESP Fit Center   86 is at  -0.515207  2.570125 -8.825513
      ESP Fit Center   87 is at   0.194821  4.143626 -9.665513
      ESP Fit Center   88 is at  -0.487510  5.082775 -9.665513
      ESP Fit Center   89 is at  -1.591545  4.724052 -9.665513
      ESP Fit Center   90 is at  -1.591545  3.563200 -9.665513
      ESP Fit Center   91 is at  -0.487510  3.204477 -9.665513
      ESP Fit Center   92 is at  -0.792658  4.143626 -9.986364
      ESP Fit Center   93 is at  -0.146859  4.462075 -4.770419
      ESP Fit Center   94 is at   1.908090  2.569510 -5.539072
      ESP Fit Center   95 is at   2.544096  2.768070 -6.595652
      ESP Fit Center   96 is at   2.170288  1.741040 -6.595652
      ESP Fit Center   97 is at   2.544096  2.768070 -7.633950
      ESP Fit Center   98 is at   0.147434  1.384356 -7.633950
      ESP Fit Center   99 is at   1.223772  1.194569 -7.633950
      ESP Fit Center  100 is at   2.170288  1.741040 -7.633950
      ESP Fit Center  101 is at   1.933800  2.768070 -8.473950
      ESP Fit Center  102 is at   0.147434  2.187644 -8.473950
      ESP Fit Center  103 is at   1.251469  1.828921 -8.473950
      ESP Fit Center  104 is at   0.946321  2.768070 -8.794801
      ESP Fit Center  105 is at   2.048852  4.012867 -4.497952
      ESP Fit Center  106 is at   1.366521  4.952016 -4.497952
      ESP Fit Center  107 is at   0.262486  4.593293 -4.497952
      ESP Fit Center  108 is at   2.285340  5.039897 -5.337952
      ESP Fit Center  109 is at   1.338824  5.586368 -5.337952
      ESP Fit Center  110 is at   0.262486  5.396581 -5.337952
      ESP Fit Center  111 is at   2.285340  2.985837 -5.337952
      ESP Fit Center  112 is at   1.338824  5.586368 -6.376250
      ESP Fit Center  113 is at  -1.276366  4.591975 -4.962760
      ESP Fit Center  114 is at  -2.125071  3.975354 -4.962760
      ESP Fit Center  115 is at  -2.449248  2.977642 -4.962760
      ESP Fit Center  116 is at  -1.731838  4.675052 -5.942760
      ESP Fit Center  117 is at  -2.449248  3.957642 -5.942760
      ESP Fit Center  118 is at  -2.711838  2.977642 -5.942760
      ESP Fit Center  119 is at  -2.125071  3.975354 -6.922760
      ESP Fit Center  120 is at  -2.449248  2.977642 -6.922760
      ESP Fit Center  121 is at  -2.125071  1.979930 -6.922760
      ESP Fit Center  122 is at  -1.276366  1.363309 -6.922760
      ESP Fit Center  123 is at  -1.241838  2.128937 -7.640170
      ESP Fit Center  124 is at  -0.706164  0.134071 -6.083608
      ESP Fit Center  125 is at  -0.972343  1.024886 -6.852261
      ESP Fit Center  126 is at   1.985874  1.316215 -4.876893
      ESP Fit Center  127 is at   0.665550 -0.257286 -4.876893
      ESP Fit Center  128 is at   1.612066  0.289185 -4.876893
      ESP Fit Center  129 is at   1.985874  1.316215 -5.915191
      ESP Fit Center  130 is at  -0.410788 -0.067499 -5.915191
      ESP Fit Center  131 is at   0.665550 -0.257286 -5.915191
      ESP Fit Center  132 is at   1.612066  0.289185 -5.915191
      ESP Fit Center  133 is at   0.693247  0.377066 -6.755191
      ESP Fit Center  134 is at  -2.838473  1.842618 -4.468050
      ESP Fit Center  135 is at  -2.838473  0.749676 -4.468050
      ESP Fit Center  136 is at  -2.135943 -0.087567 -4.468050
      ESP Fit Center  137 is at  -1.059605 -0.277354 -4.468050
      ESP Fit Center  138 is at  -2.838473  1.842618 -5.506348
      ESP Fit Center  139 is at  -2.838473  0.749676 -5.506348
      ESP Fit Center  140 is at  -2.135943 -0.087567 -5.506348
      ESP Fit Center  141 is at  -1.059605 -0.277354 -5.506348
      ESP Fit Center  142 is at  -2.135943  0.715721 -6.346348
      ESP Fit Center  143 is at  -1.031908  0.356998 -6.346348
      ESP Fit Center  144 is at   0.408554  3.384344 -1.816837
      ESP Fit Center  145 is at   1.776484  3.089674 -2.311566
      ESP Fit Center  146 is at   1.094153  4.028823 -2.311566
      ESP Fit Center  147 is at   2.012972  4.116704 -3.151566
      ESP Fit Center  148 is at   1.066456  4.663175 -3.151566
      ESP Fit Center  149 is at   2.386780  3.089674 -4.189864
      ESP Fit Center  150 is at   2.012972  4.116704 -4.189864
      ESP Fit Center  151 is at   1.066456  4.663175 -4.189864
      ESP Fit Center  152 is at  -0.634296  4.049715 -1.919885
      ESP Fit Center  153 is at  -1.738331  3.690992 -1.919885
      ESP Fit Center  154 is at  -0.661993  4.684067 -2.759885
      ESP Fit Center  155 is at  -1.738331  4.494280 -2.759885
      ESP Fit Center  156 is at  -2.440861  3.657037 -2.759885
      ESP Fit Center  157 is at  -2.440861  2.564095 -2.759885
      ESP Fit Center  158 is at  -0.661993  4.684067 -3.798183
      ESP Fit Center  159 is at  -1.738331  4.494280 -3.798183
      ESP Fit Center  160 is at  -2.440861  3.657037 -3.798183
      ESP Fit Center  161 is at  -2.440861  2.564095 -3.798183
      ESP Fit Center  162 is at   0.674943 -0.196053 -3.695606
      ESP Fit Center  163 is at   1.523648  0.420568 -3.695606
      ESP Fit Center  164 is at  -3.050652  1.403335 -2.075752
      ESP Fit Center  165 is at  -3.256885  1.127328 -2.303310
      ESP Fit Center  166 is at  -3.256885  0.034386 -2.303310
      ESP Fit Center  167 is at  -2.554355  1.964571 -3.341608
      ESP Fit Center  168 is at  -3.256885  1.127328 -3.341608
      ESP Fit Center  169 is at  -3.256885  0.034386 -3.341608
      ESP Fit Center  170 is at  -2.554355 -0.802857 -3.341608
      ESP Fit Center  171 is at  -1.478017 -0.992644 -3.341608
      ESP Fit Center  172 is at  -2.554355  0.000431 -4.181608
      ESP Fit Center  173 is at  -1.450320 -0.358292 -4.181608
      ESP Fit Center  174 is at  -1.475718  1.675340  0.233960
      ESP Fit Center  175 is at  -1.170570  2.614489 -0.086891
      ESP Fit Center  176 is at  -2.274605  2.255766 -0.086891
      ESP Fit Center  177 is at  -2.274605  1.094914 -0.086891
      ESP Fit Center  178 is at  -0.251751  2.702370 -0.926891
      ESP Fit Center  179 is at  -1.198267  3.248841 -0.926891
      ESP Fit Center  180 is at  -2.274605  3.059054 -0.926891
      ESP Fit Center  181 is at  -2.977135  2.221811 -0.926891
      ESP Fit Center  182 is at  -2.977135  1.128869 -0.926891
      ESP Fit Center  183 is at  -2.274605  3.059054 -1.965189
      ESP Fit Center  184 is at  -2.977135  2.221811 -1.965189
      ESP Fit Center  185 is at   0.100606 -1.960185 -0.167500
      ESP Fit Center  186 is at  -0.862529 -2.397828 -1.298138
      ESP Fit Center  187 is at   0.213809 -2.587615 -1.298138
      ESP Fit Center  188 is at  -0.862529 -2.397828 -2.336436
      ESP Fit Center  189 is at   0.213809 -2.587615 -2.336436
      ESP Fit Center  190 is at   1.160325 -2.041144 -2.336436
      ESP Fit Center  191 is at   0.923837 -1.014114 -3.176436
      ESP Fit Center  192 is at  -0.862529 -1.594540 -3.176436
      ESP Fit Center  193 is at   0.241506 -1.953263 -3.176436
      ESP Fit Center  194 is at  -0.063642 -1.014114 -3.497287
      ESP Fit Center  195 is at  -2.392581 -0.221555  0.418765
      ESP Fit Center  196 is at  -2.392581 -1.382407  0.418765
      ESP Fit Center  197 is at  -1.288546 -1.741130  0.418765
      ESP Fit Center  198 is at  -2.392581  0.581733 -0.421235
      ESP Fit Center  199 is at  -3.095111 -0.255510 -0.421235
      ESP Fit Center  200 is at  -3.095111 -1.348452 -0.421235
      ESP Fit Center  201 is at  -2.392581 -2.185695 -0.421235
      ESP Fit Center  202 is at  -1.316243 -2.375482 -0.421235
      ESP Fit Center  203 is at  -3.095111 -0.255510 -1.459533
      ESP Fit Center  204 is at  -3.095111 -1.348452 -1.459533
      ESP Fit Center  205 is at  -2.392581 -2.185695 -1.459533
      ESP Fit Center  206 is at  -1.316243 -2.375482 -1.459533
      ESP Fit Center  207 is at  -2.392581 -1.382407 -2.299533
      ESP Fit Center  208 is at   0.000000  0.000000  1.960000
      ESP Fit Center  209 is at   0.490000  0.848705  1.697410
      ESP Fit Center  210 is at  -0.490000  0.848705  1.697410
      ESP Fit Center  211 is at  -0.980000  0.000000  1.697410
      ESP Fit Center  212 is at  -0.490000 -0.848705  1.697410
      ESP Fit Center  213 is at  -0.524528  1.614333  0.980000
      ESP Fit Center  214 is at  -1.373233  0.997712  0.980000
      ESP Fit Center  215 is at  -1.697410  0.000000  0.980000
      ESP Fit Center  216 is at  -1.373233 -0.997712  0.980000
      ESP Fit Center  217 is at  -0.524528 -1.614333  0.980000
      ESP Fit Center  218 is at  -0.000000 -1.960000  0.000000
      ESP Fit Center  219 is at   0.679488 -1.963534  0.000000
      ESP Fit Center  220 is at   1.677285 -2.084689  0.000000
      ESP Fit Center  221 is at   3.283616 -0.975919  0.000000
      ESP Fit Center  222 is at   2.080092 -2.137831 -0.343627
      ESP Fit Center  223 is at   3.026608 -1.591360 -0.343627
      ESP Fit Center  224 is at   2.080092 -2.137831 -1.381925
      ESP Fit Center  225 is at   3.026608 -1.591360 -1.381925
      ESP Fit Center  226 is at   2.107789 -1.503479 -2.221925
      ESP Fit Center  227 is at   1.802641 -0.564330 -2.542776
      ESP Fit Center  228 is at   1.748907 -0.519670  2.588987
      ESP Fit Center  229 is at   2.736386 -0.519670  2.268136
      ESP Fit Center  230 is at   2.054055  0.419479  2.268136
      ESP Fit Center  231 is at   0.950020  0.060756  2.268136
      ESP Fit Center  232 is at   0.950020 -1.100096  2.268136
      ESP Fit Center  233 is at   2.054055 -1.458819  2.268136
      ESP Fit Center  234 is at   3.346682 -0.519670  1.428136
      ESP Fit Center  235 is at   0.950020 -1.903384  1.428136
      ESP Fit Center  236 is at   2.026358 -2.093171  1.428136
      ESP Fit Center  237 is at   2.972874 -1.546700  1.428136
      ESP Fit Center  238 is at   2.026358 -2.093171  0.389838
      ESP Fit Center  239 is at   2.972874 -1.546700  0.389838
      ESP Fit Center  240 is at   2.231133  3.509899  0.000000
      ESP Fit Center  241 is at   1.233336  3.388744  0.000000
      ESP Fit Center  242 is at   0.406133  2.817768  0.000000
      ESP Fit Center  243 is at   1.634700  1.951632  2.576500
      ESP Fit Center  244 is at   2.622179  1.951632  2.255649
      ESP Fit Center  245 is at   1.939848  2.890781  2.255649
      ESP Fit Center  246 is at   0.835813  2.532058  2.255649
      ESP Fit Center  247 is at   0.835813  1.371206  2.255649
      ESP Fit Center  248 is at   1.939848  1.012483  2.255649
      ESP Fit Center  249 is at   1.912151  3.525133  1.415649
      ESP Fit Center  250 is at   0.835813  3.335346  1.415649
      ESP Fit Center  251 is at   0.133283  2.498103  1.415649
      ESP Fit Center  252 is at   0.133283  1.405161  1.415649
      ESP Fit Center  253 is at   1.912151  3.525133  0.377351
      ESP Fit Center  254 is at   0.835813  3.335346  0.377351
      ESP Fit Center  255 is at   0.133283  2.498103  0.377351
      ESP Fit Center  256 is at   1.886617  3.545263 -0.350932
      ESP Fit Center  257 is at   0.810279  3.355476 -0.350932
      ESP Fit Center  258 is at   0.107749  2.518233 -0.350932
      ESP Fit Center  259 is at   1.886617  3.545263 -1.389230
      ESP Fit Center  260 is at   0.810279  3.355476 -1.389230
      ESP Fit Center  261 is at   3.811819  1.502052  2.541798
      ESP Fit Center  262 is at   4.874834  1.502052  2.299172
      ESP Fit Center  263 is at   4.343327  2.422650  2.299172
      ESP Fit Center  264 is at   3.280311  2.422650  2.299172
      ESP Fit Center  265 is at   2.748804  1.502052  2.299172
      ESP Fit Center  266 is at   3.280311  0.581454  2.299172
      ESP Fit Center  267 is at   4.343327  0.581454  2.299172
      ESP Fit Center  268 is at   5.727306  1.502052  1.619348
      ESP Fit Center  269 is at   5.423229  2.537643  1.619348
      ESP Fit Center  270 is at   4.607541  3.244440  1.619348
      ESP Fit Center  271 is at   3.539217  3.398042  1.619348
      ESP Fit Center  272 is at   3.539217 -0.393938  1.619348
      ESP Fit Center  273 is at   4.607541 -0.240336  1.619348
      ESP Fit Center  274 is at   5.423229  0.466461  1.619348
      ESP Fit Center  275 is at   6.200392  1.502052  0.636974
      ESP Fit Center  276 is at   5.963849  2.538415  0.636974
      ESP Fit Center  277 is at   5.301070  3.369514  0.636974
      ESP Fit Center  278 is at   4.343327  3.830739  0.636974
      ESP Fit Center  279 is at   3.280311  3.830739  0.636974
      ESP Fit Center  280 is at   4.343327 -0.826635  0.636974
      ESP Fit Center  281 is at   5.301070 -0.365410  0.636974
      ESP Fit Center  282 is at   5.963849  0.465689  0.636974
      ESP Fit Center  283 is at   5.963849  2.538415 -0.453378
      ESP Fit Center  284 is at   5.301070  3.369514 -0.453378
      ESP Fit Center  285 is at   4.343327  3.830739 -0.453378
      ESP Fit Center  286 is at   3.280311  3.830739 -0.453378
      ESP Fit Center  287 is at   5.084673 -0.832251 -0.490959
      ESP Fit Center  288 is at   5.522113  2.550320 -1.540959
      ESP Fit Center  289 is at   5.522113 -0.906212 -1.540959
      ESP Fit Center  290 is at   6.408546  0.791166 -0.109658
      ESP Fit Center  291 is at   5.726215 -0.147983 -0.109658
      ESP Fit Center  292 is at   7.018842  0.791166 -0.949658
      ESP Fit Center  293 is at   6.645034  1.818196 -0.949658
      ESP Fit Center  294 is at   5.698518 -0.782335 -0.949658
      ESP Fit Center  295 is at   6.645034 -0.235864 -0.949658
      ESP Fit Center  296 is at   5.698518 -0.782335 -1.987956
      ESP Fit Center  297 is at   6.645034 -0.235864 -1.987956
      ESP Fit Center  298 is at   4.291345 -1.149339 -0.295143
      ESP Fit Center  299 is at   3.187310 -1.593904 -1.135143
      ESP Fit Center  300 is at   4.263648 -1.783691 -1.135143
      ESP Fit Center  301 is at   5.210164 -1.237220 -1.135143
      ESP Fit Center  302 is at   3.187310 -1.593904 -2.173441
      ESP Fit Center  303 is at   4.263648 -1.783691 -2.173441
      ESP Fit Center  304 is at   5.210164 -1.237220 -2.173441
      ESP Fit Center  305 is at   3.187310 -0.790616 -3.013441
      ESP Fit Center  306 is at   4.291345 -1.149339 -3.013441
      ESP Fit Center  307 is at   2.690695  3.041508 -1.683574
      ESP Fit Center  308 is at   2.690695  3.041508 -3.783574
      ESP Fit Center  309 is at   4.484639  3.651437 -1.242224
      ESP Fit Center  310 is at   5.777266  2.712288 -2.082224
      ESP Fit Center  311 is at   5.403458  3.739318 -2.082224
      ESP Fit Center  312 is at   4.456942  4.285789 -2.082224
      ESP Fit Center  313 is at   3.380604  4.096002 -2.082224
      ESP Fit Center  314 is at   4.456942  4.285789 -3.120522
      ESP Fit Center  315 is at   3.380604  4.096002 -3.120522
      ESP Fit Center  316 is at   1.992962  3.025648 -2.306642
      ESP Fit Center  317 is at   1.992962  0.258220 -3.344940
      ESP Fit Center  318 is at   1.992962  1.061508 -4.184940
      ESP Fit Center  319 is at   5.276244 -0.705133 -2.829848
      ESP Fit Center  320 is at   2.328492  0.000892 -3.812222
      ESP Fit Center  321 is at   2.991271 -0.830207 -3.812222
      ESP Fit Center  322 is at   3.949014 -1.291432 -3.812222
      ESP Fit Center  323 is at   5.012030 -1.291432 -3.812222
      ESP Fit Center  324 is at   5.969773 -0.830207 -3.812222
      ESP Fit Center  325 is at   2.328492  2.073618 -4.902574
      ESP Fit Center  326 is at   2.091949  1.037255 -4.902574
      ESP Fit Center  327 is at   2.328492  0.000892 -4.902574
      ESP Fit Center  328 is at   2.991271 -0.830207 -4.902574
      ESP Fit Center  329 is at   3.949014 -1.291432 -4.902574
      ESP Fit Center  330 is at   5.012030 -1.291432 -4.902574
      ESP Fit Center  331 is at   5.969773 -0.830207 -4.902574
      ESP Fit Center  332 is at   2.642626  1.576910 -5.884948
      ESP Fit Center  333 is at   2.642626  0.497600 -5.884948
      ESP Fit Center  334 is at   3.226145 -0.410374 -5.884948
      ESP Fit Center  335 is at   4.207920 -0.858735 -5.884948
      ESP Fit Center  336 is at   5.276244 -0.705133 -5.884948
      ESP Fit Center  337 is at   5.543537  1.037255 -6.564772
      ESP Fit Center  338 is at   3.949014  1.957853 -6.564772
      ESP Fit Center  339 is at   3.417507  1.037255 -6.564772
      ESP Fit Center  340 is at   3.949014  0.116657 -6.564772
      ESP Fit Center  341 is at   5.012030  0.116657 -6.564772
      ESP Fit Center  342 is at   4.480522  1.037255 -6.807398
      ESP Fit Center  343 is at   8.368709  1.459194 -4.293079
      ESP Fit Center  344 is at   6.521836 -0.625495 -4.293079
      ESP Fit Center  345 is at   8.317370  0.866433 -4.575343
      ESP Fit Center  346 is at   6.997046 -0.707068 -4.575343
      ESP Fit Center  347 is at   7.943562 -0.160597 -4.575343
      ESP Fit Center  348 is at   8.317370  0.866433 -5.613641
      ESP Fit Center  349 is at   5.920708 -0.517281 -5.613641
      ESP Fit Center  350 is at   6.997046 -0.707068 -5.613641
      ESP Fit Center  351 is at   7.943562 -0.160597 -5.613641
      ESP Fit Center  352 is at   7.707074  0.866433 -6.453641
      ESP Fit Center  353 is at   5.920708  0.286007 -6.453641
      ESP Fit Center  354 is at   7.024743 -0.072716 -6.453641
      ESP Fit Center  355 is at   6.719595  0.866433 -6.774492
      ESP Fit Center  356 is at   7.673143  1.090169 -1.988668
      ESP Fit Center  357 is at   6.990812  2.029318 -1.988668
      ESP Fit Center  358 is at   6.990812  0.151020 -1.988668
      ESP Fit Center  359 is at   8.283439  1.090169 -2.828668
      ESP Fit Center  360 is at   7.909631  2.117199 -2.828668
      ESP Fit Center  361 is at   5.886777 -0.293545 -2.828668
      ESP Fit Center  362 is at   6.963115 -0.483332 -2.828668
      ESP Fit Center  363 is at   7.909631  0.063139 -2.828668
      ESP Fit Center  364 is at   6.963115 -0.483332 -3.866966
      ESP Fit Center  365 is at   7.909631  0.063139 -3.866966
      ESP Fit Center  366 is at   8.166448  1.953664 -5.519901
      ESP Fit Center  367 is at   6.107276  3.573393 -2.072293
      ESP Fit Center  368 is at   7.094755  3.573393 -2.393144
      ESP Fit Center  369 is at   6.412424  4.512542 -2.393144
      ESP Fit Center  370 is at   5.308389  4.153819 -2.393144
      ESP Fit Center  371 is at   6.412424  2.634244 -2.393144
      ESP Fit Center  372 is at   7.331243  4.600423 -3.233144
      ESP Fit Center  373 is at   6.384727  5.146894 -3.233144
      ESP Fit Center  374 is at   5.308389  4.957107 -3.233144
      ESP Fit Center  375 is at   7.706558  3.049224 -2.577179
      ESP Fit Center  376 is at   8.694037  3.049224 -2.898030
      ESP Fit Center  377 is at   8.011706  3.988373 -2.898030
      ESP Fit Center  378 is at   8.011706  2.110075 -2.898030
      ESP Fit Center  379 is at   9.304333  3.049224 -3.738030
      ESP Fit Center  380 is at   8.930525  4.076254 -3.738030
      ESP Fit Center  381 is at   7.984009  4.622725 -3.738030
      ESP Fit Center  382 is at   8.930525  2.022194 -3.738030
      ESP Fit Center  383 is at   9.304333  3.049224 -4.776328
      ESP Fit Center  384 is at   8.930525  4.076254 -4.776328
      ESP Fit Center  385 is at   8.930525  2.022194 -4.776328
      ESP Fit Center  386 is at   8.019421  4.664362 -4.629057
      ESP Fit Center  387 is at   7.203733  5.371159 -4.629057
      ESP Fit Center  388 is at   8.796584  3.628771 -5.611431
      ESP Fit Center  389 is at   8.560041  4.665134 -5.611431
      ESP Fit Center  390 is at   7.897262  5.496233 -5.611431
      ESP Fit Center  391 is at   6.939519  5.957458 -5.611431
      ESP Fit Center  392 is at   8.796584  3.628771 -6.701783
      ESP Fit Center  393 is at   8.560041  4.665134 -6.701783
      ESP Fit Center  394 is at   7.897262  5.496233 -6.701783
      ESP Fit Center  395 is at   6.939519  5.957458 -6.701783
      ESP Fit Center  396 is at   4.918760  1.761309 -6.701783
      ESP Fit Center  397 is at   5.876503  1.300084 -6.701783
      ESP Fit Center  398 is at   7.897262  1.761309 -6.701783
      ESP Fit Center  399 is at   8.560041  2.592408 -6.701783
      ESP Fit Center  400 is at   8.323498  3.628771 -7.684157
      ESP Fit Center  401 is at   8.019421  4.664362 -7.684157
      ESP Fit Center  402 is at   7.203733  5.371159 -7.684157
      ESP Fit Center  403 is at   5.153634  2.181142 -7.684157
      ESP Fit Center  404 is at   6.135409  1.732781 -7.684157
      ESP Fit Center  405 is at   7.203733  1.886383 -7.684157
      ESP Fit Center  406 is at   8.019421  2.593180 -7.684157
      ESP Fit Center  407 is at   7.471026  3.628771 -8.363981
      ESP Fit Center  408 is at   6.939519  4.549369 -8.363981
      ESP Fit Center  409 is at   5.876503  2.708173 -8.363981
      ESP Fit Center  410 is at   6.939519  2.708173 -8.363981
      ESP Fit Center  411 is at   6.408011  3.628771 -8.606607
      ESP Fit Center  412 is at   2.977323  4.877575 -5.008763
      ESP Fit Center  413 is at   5.915244  6.093467 -6.058763
      ESP Fit Center  414 is at   3.996646  3.568746 -4.194502
      ESP Fit Center  415 is at   3.197759  4.149172 -4.515353
      ESP Fit Center  416 is at   2.495229  3.022275 -5.355353
      ESP Fit Center  417 is at   2.495229  3.022275 -6.393651
      ESP Fit Center  418 is at   3.197759  2.185032 -6.393651
      ESP Fit Center  419 is at   3.197759  2.988320 -7.233651
      ESP Fit Center  420 is at   4.301794  2.629597 -7.233651
      ESP Fit Center  421 is at   4.697702  5.061722 -3.532732
      ESP Fit Center  422 is at   5.002850  6.000871 -3.853583
      ESP Fit Center  423 is at   3.898815  5.642148 -3.853583
      ESP Fit Center  424 is at   3.898815  4.481296 -3.853583
      ESP Fit Center  425 is at   5.921669  6.088752 -4.693583
      ESP Fit Center  426 is at   4.975153  6.635223 -4.693583
      ESP Fit Center  427 is at   3.898815  6.445436 -4.693583
      ESP Fit Center  428 is at   3.196285  5.608193 -4.693583
      ESP Fit Center  429 is at   5.921669  6.088752 -5.731881
      ESP Fit Center  430 is at   4.975153  6.635223 -5.731881
      ESP Fit Center  431 is at   3.898815  6.445436 -5.731881
      ESP Fit Center  432 is at   4.154298  6.898827 -6.313300
      ESP Fit Center  433 is at   2.841246  3.706127 -7.363300
      ESP Fit Center  434 is at   3.888119  6.008012 -9.181953
      ESP Fit Center  435 is at   5.442133  6.837423 -6.194177
      ESP Fit Center  436 is at   6.734760  5.898274 -7.034177
      ESP Fit Center  437 is at   6.360952  6.925304 -7.034177
      ESP Fit Center  438 is at   5.414436  7.471775 -7.034177
      ESP Fit Center  439 is at   4.338098  7.281988 -7.034177
      ESP Fit Center  440 is at   6.734760  5.898274 -8.072475
      ESP Fit Center  441 is at   6.360952  6.925304 -8.072475
      ESP Fit Center  442 is at   5.414436  7.471775 -8.072475
      ESP Fit Center  443 is at   4.338098  7.281988 -8.072475
      ESP Fit Center  444 is at   6.124464  5.898274 -8.912475
      ESP Fit Center  445 is at   5.442133  6.837423 -8.912475
      ESP Fit Center  446 is at   5.136985  5.898274 -9.233326
      ESP Fit Center  447 is at   3.631923  3.029867 -7.698502
      ESP Fit Center  448 is at   6.028585  4.413581 -8.736800
      ESP Fit Center  449 is at   2.929393  3.867110 -8.736800
      ESP Fit Center  450 is at   3.631923  3.029867 -8.736800
      ESP Fit Center  451 is at   4.708261  2.840080 -8.736800
      ESP Fit Center  452 is at   5.654777  3.386551 -8.736800
      ESP Fit Center  453 is at   5.418289  4.413581 -9.576800
      ESP Fit Center  454 is at   4.735958  5.352730 -9.576800
      ESP Fit Center  455 is at   3.631923  4.994007 -9.576800
      ESP Fit Center  456 is at   3.631923  3.833155 -9.576800
      ESP Fit Center  457 is at   4.735958  3.474432 -9.576800
      ESP Fit Center  458 is at   4.430810  4.413581 -9.897651
      ESP Fit Center  459 is at   2.616335  6.130403 -5.953178
      ESP Fit Center  460 is at   2.616335  4.969551 -5.953178
      ESP Fit Center  461 is at   3.692673  7.123478 -6.793178
      ESP Fit Center  462 is at   2.616335  6.933691 -6.793178
      ESP Fit Center  463 is at   1.913805  6.096448 -6.793178
      ESP Fit Center  464 is at   2.616335  4.166263 -6.793178
      ESP Fit Center  465 is at   3.692673  7.123478 -7.831476
      ESP Fit Center  466 is at   2.616335  6.933691 -7.831476
      ESP Fit Center  467 is at   2.616335  6.130403 -8.671476
      ESP Fit Center  468 is at   2.616335  4.969551 -8.671476
      ESP Fit Center  469 is at  -2.463639  4.599848 -7.035568
      ESP Fit Center  470 is at  -0.390851  6.457145 -9.065994
      ESP Fit Center  471 is at  -1.352590  6.017933 -9.065994
      ESP Fit Center  472 is at   0.655671  2.893019 -9.065994
      ESP Fit Center  473 is at  -0.644472  5.501658 -9.731943
      ESP Fit Center  474 is at  -0.677060  5.385239 -5.124573
      ESP Fit Center  475 is at  -0.197060  6.216623 -5.381804
      ESP Fit Center  476 is at  -1.157060  6.216623 -5.381804
      ESP Fit Center  477 is at  -1.637060  5.385239 -5.381804
      ESP Fit Center  478 is at   0.668148  6.362590 -6.084573
      ESP Fit Center  479 is at  -0.163236  6.966626 -6.084573
      ESP Fit Center  480 is at  -1.190884  6.966626 -6.084573
      ESP Fit Center  481 is at  -2.022268  6.362590 -6.084573
      ESP Fit Center  482 is at  -2.339829  5.385239 -6.084573
      ESP Fit Center  483 is at   0.282940  7.048008 -7.044573
      ESP Fit Center  484 is at  -0.677060  7.305239 -7.044573
      ESP Fit Center  485 is at  -1.637060  7.048008 -7.044573
      ESP Fit Center  486 is at  -2.339829  6.345239 -7.044573
      ESP Fit Center  487 is at  -2.597060  5.385239 -7.044573
      ESP Fit Center  488 is at  -0.163236  6.966626 -8.004573
      ESP Fit Center  489 is at  -1.190884  6.966626 -8.004573
      ESP Fit Center  490 is at  -2.022268  6.362590 -8.004573
      ESP Fit Center  491 is at   1.230668  6.642130 -7.140083
      ESP Fit Center  492 is at   1.676844  6.723512 -8.100083
      ESP Fit Center  493 is at   0.716844  6.980743 -8.100083
      ESP Fit Center  494 is at   2.379613  5.060743 -9.060083
      ESP Fit Center  495 is at   2.062052  6.038094 -9.060083
      ESP Fit Center  496 is at   1.230668  6.642130 -9.060083
      ESP Fit Center  497 is at   0.203020  6.642130 -9.060083
      ESP Fit Center  498 is at   2.062052  4.083392 -9.060083
      ESP Fit Center  499 is at   1.676844  5.060743 -9.762852
      ESP Fit Center  500 is at   1.196844  5.892127 -9.762852
      ESP Fit Center  501 is at   0.236844  5.892127 -9.762852
      ESP Fit Center  502 is at   1.196844  4.229359 -9.762852
      ESP Fit Center  503 is at   0.716844  5.060743-10.020083
      ESP Fit Center  504 is at  -2.455427  5.103626 -8.306364
      ESP Fit Center  505 is at  -2.712658  4.143626 -8.306364
      ESP Fit Center  506 is at  -2.455427  3.183626 -8.306364
      ESP Fit Center  507 is at  -1.752658  2.480857 -8.306364
      ESP Fit Center  508 is at  -0.792658  2.223626 -8.306364
      ESP Fit Center  509 is at  -2.137866  5.120977 -9.266364
      ESP Fit Center  510 is at  -2.455427  4.143626 -9.266364
      ESP Fit Center  511 is at  -2.137866  3.166275 -9.266364
      ESP Fit Center  512 is at  -1.306482  2.562239 -9.266364
      ESP Fit Center  513 is at  -0.278834  2.562239 -9.266364
      ESP Fit Center  514 is at   0.167342  4.143626 -9.969133
      ESP Fit Center  515 is at  -0.312658  4.975010 -9.969133
      ESP Fit Center  516 is at  -1.272658  4.975010 -9.969133
      ESP Fit Center  517 is at  -1.752658  4.143626 -9.969133
      ESP Fit Center  518 is at  -1.272658  3.312242 -9.969133
      ESP Fit Center  519 is at  -0.312658  3.312242 -9.969133
      ESP Fit Center  520 is at  -0.792658  4.143626-10.226364
      ESP Fit Center  521 is at  -0.850637  2.134663 -8.085448
      ESP Fit Center  522 is at   2.291529  1.790719 -6.154801
      ESP Fit Center  523 is at   1.906321  1.105301 -7.114801
      ESP Fit Center  524 is at   2.609090  1.808070 -7.114801
      ESP Fit Center  525 is at   2.609090  2.768070 -8.074801
      ESP Fit Center  526 is at   2.291529  3.745421 -8.074801
      ESP Fit Center  527 is at  -0.398887  1.790719 -8.074801
      ESP Fit Center  528 is at   0.432497  1.186683 -8.074801
      ESP Fit Center  529 is at   1.460145  1.186683 -8.074801
      ESP Fit Center  530 is at   2.291529  1.790719 -8.074801
      ESP Fit Center  531 is at   1.906321  2.768070 -8.777570
      ESP Fit Center  532 is at   0.466321  1.936686 -8.777570
      ESP Fit Center  533 is at   1.426321  1.936686 -8.777570
      ESP Fit Center  534 is at   0.946321  2.768070 -9.034801
      ESP Fit Center  535 is at   1.541373  4.844251 -4.194332
      ESP Fit Center  536 is at   2.406581  4.990218 -4.897101
      ESP Fit Center  537 is at   1.575197  5.594254 -4.897101
      ESP Fit Center  538 is at   0.547549  5.594254 -4.897101
      ESP Fit Center  539 is at   2.406581  3.035516 -4.897101
      ESP Fit Center  540 is at   2.021373  5.675636 -5.857101
      ESP Fit Center  541 is at   1.061373  5.932867 -5.857101
      ESP Fit Center  542 is at  -1.293020  4.643230 -4.546143
      ESP Fit Center  543 is at  -2.168672  4.007032 -4.546143
      ESP Fit Center  544 is at  -2.386465  4.425795 -5.444313
      ESP Fit Center  545 is at  -2.872218  3.500269 -5.444313
      ESP Fit Center  546 is at  -2.872218  2.455015 -5.444313
      ESP Fit Center  547 is at  -2.386465  4.425795 -6.441207
      ESP Fit Center  548 is at  -2.872218  3.500269 -6.441207
      ESP Fit Center  549 is at  -2.872218  2.455015 -6.441207
      ESP Fit Center  550 is at  -2.503141  2.977642 -7.339377
      ESP Fit Center  551 is at  -2.168672  1.948252 -7.339377
      ESP Fit Center  552 is at  -1.293020  1.312054 -7.339377
      ESP Fit Center  553 is at  -1.237788  2.135952 -7.960930
      ESP Fit Center  554 is at  -2.555454  2.949426 -4.499558
      ESP Fit Center  555 is at  -0.714382  0.076916 -6.529984
      ESP Fit Center  556 is at  -0.968003  1.032403 -7.195933
      ESP Fit Center  557 is at   0.901923 -0.265172 -4.436042
      ESP Fit Center  558 is at   1.733307  0.338864 -4.436042
      ESP Fit Center  559 is at   2.050868  2.276215 -5.396042
      ESP Fit Center  560 is at   0.388099 -0.603785 -5.396042
      ESP Fit Center  561 is at   1.348099 -0.346554 -5.396042
      ESP Fit Center  562 is at   2.050868  1.316215 -6.356042
      ESP Fit Center  563 is at  -0.125725 -0.265172 -6.356042
      ESP Fit Center  564 is at   0.901923 -0.265172 -6.356042
      ESP Fit Center  565 is at   1.733307  0.338864 -6.356042
      ESP Fit Center  566 is at  -0.091901  0.484831 -7.058811
      ESP Fit Center  567 is at   0.868099  0.484831 -7.058811
      ESP Fit Center  568 is at  -2.682264  2.273498 -4.027199
      ESP Fit Center  569 is at  -2.999825  2.256147 -4.987199
      ESP Fit Center  570 is at  -3.257056  1.296147 -4.987199
      ESP Fit Center  571 is at  -2.999825  0.336147 -4.987199
      ESP Fit Center  572 is at  -2.297056 -0.366622 -4.987199
      ESP Fit Center  573 is at  -1.337056 -0.623853 -4.987199
      ESP Fit Center  574 is at  -2.999825  1.296147 -5.947199
      ESP Fit Center  575 is at  -2.682264  0.318796 -5.947199
      ESP Fit Center  576 is at  -1.850880 -0.285240 -5.947199
      ESP Fit Center  577 is at  -0.823232 -0.285240 -5.947199
      ESP Fit Center  578 is at  -2.297056  1.296147 -6.649968
      ESP Fit Center  579 is at  -1.817056  0.464763 -6.649968
      ESP Fit Center  580 is at   0.404214  3.376827 -1.473165
      ESP Fit Center  581 is at   1.269005  3.921058 -2.007946
      ESP Fit Center  582 is at   2.134213  4.067025 -2.710715
      ESP Fit Center  583 is at   1.302829  4.671061 -2.710715
      ESP Fit Center  584 is at   0.275181  4.671061 -2.710715
      ESP Fit Center  585 is at   2.451774  4.049674 -3.670715
      ESP Fit Center  586 is at   1.749005  4.752443 -3.670715
      ESP Fit Center  587 is at   0.789005  5.009674 -3.670715
      ESP Fit Center  588 is at   2.451774  3.089674 -4.630715
      ESP Fit Center  589 is at  -0.459444  3.941950 -1.616265
      ESP Fit Center  590 is at  -1.419444  3.941950 -1.616265
      ESP Fit Center  591 is at  -0.425620  4.691953 -2.319034
      ESP Fit Center  592 is at  -1.453268  4.691953 -2.319034
      ESP Fit Center  593 is at  -2.284652  4.087917 -2.319034
      ESP Fit Center  594 is at  -2.602213  3.110566 -2.319034
      ESP Fit Center  595 is at  -0.939444  5.030566 -3.279034
      ESP Fit Center  596 is at  -1.899444  4.773335 -3.279034
      ESP Fit Center  597 is at  -2.602213  4.070566 -3.279034
      ESP Fit Center  598 is at  -2.859444  3.110566 -3.279034
      ESP Fit Center  599 is at  -1.453268  4.691953 -4.239034
      ESP Fit Center  600 is at  -2.284652  4.087917 -4.239034
      ESP Fit Center  601 is at  -2.602213  3.110566 -4.239034
      ESP Fit Center  602 is at   1.390977 -0.378984 -3.214053
      ESP Fit Center  603 is at   0.691597 -0.247308 -4.112223
      ESP Fit Center  604 is at   1.567249  0.388890 -4.112223
      ESP Fit Center  605 is at  -3.351501  0.900772 -1.541702
      ESP Fit Center  606 is at  -3.119785  1.915985 -2.609802
      ESP Fit Center  607 is at  -3.418237  0.580857 -1.862459
      ESP Fit Center  608 is at  -3.418237  1.540857 -2.822459
      ESP Fit Center  609 is at  -3.675468  0.580857 -2.822459
      ESP Fit Center  610 is at  -3.418237 -0.379143 -2.822459
      ESP Fit Center  611 is at  -2.715468 -1.081912 -2.822459
      ESP Fit Center  612 is at  -3.100676  1.558208 -3.782459
      ESP Fit Center  613 is at  -3.418237  0.580857 -3.782459
      ESP Fit Center  614 is at  -3.100676 -0.396494 -3.782459
      ESP Fit Center  615 is at  -2.269292 -1.000530 -3.782459
      ESP Fit Center  616 is at  -1.241644 -1.000530 -3.782459
      ESP Fit Center  617 is at  -1.475718  1.675340  0.473960
      ESP Fit Center  618 is at  -0.995718  2.506724  0.216729
      ESP Fit Center  619 is at  -1.955718  2.506724  0.216729
      ESP Fit Center  620 is at  -2.435718  1.675340  0.216729
      ESP Fit Center  621 is at  -0.961894  3.256727 -0.486040
      ESP Fit Center  622 is at  -1.989542  3.256727 -0.486040
      ESP Fit Center  623 is at  -2.820926  2.652691 -0.486040
      ESP Fit Center  624 is at  -3.138487  1.675340 -0.486040
      ESP Fit Center  625 is at  -2.820926  0.697989 -0.486040
      ESP Fit Center  626 is at  -1.475718  3.595340 -1.446040
      ESP Fit Center  627 is at  -2.435718  3.338109 -1.446040
      ESP Fit Center  628 is at  -3.138487  2.635340 -1.446040
      ESP Fit Center  629 is at  -3.395718  1.675340 -1.446040
      ESP Fit Center  630 is at  -2.820926  2.652691 -2.406040
      ESP Fit Center  631 is at  -0.921929 -2.163177  0.278876
      ESP Fit Center  632 is at  -0.134230 -2.587043 -0.683450
      ESP Fit Center  633 is at  -1.175550 -2.587043 -1.751550
      ESP Fit Center  634 is at  -1.883668 -1.723965 -2.713876
      ESP Fit Center  635 is at  -1.175550 -1.207690 -3.379825
      ESP Fit Center  636 is at   0.450182 -2.595501 -0.857287
      ESP Fit Center  637 is at  -1.023642 -2.676883 -1.817287
      ESP Fit Center  638 is at  -0.063642 -2.934114 -1.817287
      ESP Fit Center  639 is at   0.896358 -2.676883 -1.817287
      ESP Fit Center  640 is at   1.599127 -1.014114 -2.777287
      ESP Fit Center  641 is at  -1.408850 -1.991465 -2.777287
      ESP Fit Center  642 is at  -0.577466 -2.595501 -2.777287
      ESP Fit Center  643 is at   0.450182 -2.595501 -2.777287
      ESP Fit Center  644 is at   1.281566 -1.991465 -2.777287
      ESP Fit Center  645 is at   0.896358 -1.014114 -3.480056
      ESP Fit Center  646 is at  -0.543642 -1.845498 -3.480056
      ESP Fit Center  647 is at   0.416358 -1.845498 -3.480056
      ESP Fit Center  648 is at  -0.063642 -1.014114 -3.737287
      ESP Fit Center  649 is at  -2.553694 -0.801981  0.722385
      ESP Fit Center  650 is at  -2.073694 -1.633365  0.722385
      ESP Fit Center  651 is at  -2.938902  0.175370  0.019616
      ESP Fit Center  652 is at  -3.256463 -0.801981  0.019616
      ESP Fit Center  653 is at  -2.938902 -1.779332  0.019616
      ESP Fit Center  654 is at  -2.107518 -2.383368  0.019616
      ESP Fit Center  655 is at  -1.079870 -2.383368  0.019616
      ESP Fit Center  656 is at  -3.256463  0.158019 -0.940384
      ESP Fit Center  657 is at  -3.513694 -0.801981 -0.940384
      ESP Fit Center  658 is at  -3.256463 -1.761981 -0.940384
      ESP Fit Center  659 is at  -2.553694 -2.464750 -0.940384
      ESP Fit Center  660 is at  -1.593694 -2.721981 -0.940384
      ESP Fit Center  661 is at  -3.256463 -0.801981 -1.900384
      ESP Fit Center  662 is at  -2.938902 -1.779332 -1.900384
      ESP Fit Center  663 is at  -2.107518 -2.383368 -1.900384
      ESP Fit Center  664 is at   0.000000  0.000000  2.240000
      ESP Fit Center  665 is at  -0.485950  0.841690  2.018170
      ESP Fit Center  666 is at  -0.971900  0.000000  2.018170
      ESP Fit Center  667 is at  -0.485950 -0.841690  2.018170
      ESP Fit Center  668 is at  -0.541182  1.665588  1.396617
      ESP Fit Center  669 is at  -1.416834  1.029390  1.396617
      ESP Fit Center  670 is at  -1.751303  0.000000  1.396617
      ESP Fit Center  671 is at  -1.416834 -1.029390  1.396617
      ESP Fit Center  672 is at  -0.541182 -1.665588  1.396617
      ESP Fit Center  673 is at  -0.774400  2.041924  0.498447
      ESP Fit Center  674 is at  -1.634627  1.448153  0.498447
      ESP Fit Center  675 is at  -2.120380  0.522627  0.498447
      ESP Fit Center  676 is at  -0.774400 -2.041924  0.498447
      ESP Fit Center  677 is at   0.263233 -2.167916  0.498447
      ESP Fit Center  678 is at   0.903498 -2.281163  0.534050
      ESP Fit Center  679 is at   0.903498 -2.281163 -0.534050
      ESP Fit Center  680 is at   1.802641 -2.484330 -0.862776
      ESP Fit Center  681 is at   2.762641 -2.227099 -0.862776
      ESP Fit Center  682 is at   2.316465 -2.145717 -1.822776
      ESP Fit Center  683 is at   2.282641 -1.395714 -2.525545
      ESP Fit Center  684 is at   1.802641 -0.564330 -2.782776
      ESP Fit Center  685 is at   1.748907 -0.519670  2.828987
      ESP Fit Center  686 is at   2.708907 -0.519670  2.571756
      ESP Fit Center  687 is at   2.228907  0.311714  2.571756
      ESP Fit Center  688 is at   1.268907  0.311714  2.571756
      ESP Fit Center  689 is at   0.788907 -0.519670  2.571756
      ESP Fit Center  690 is at   1.268907 -1.351054  2.571756
      ESP Fit Center  691 is at   2.228907 -1.351054  2.571756
      ESP Fit Center  692 is at   0.403699 -1.497021  1.868987
      ESP Fit Center  693 is at   1.235083 -2.101057  1.868987
      ESP Fit Center  694 is at   2.262731 -2.101057  1.868987
      ESP Fit Center  695 is at   3.094115 -1.497021  1.868987
      ESP Fit Center  696 is at   0.788907 -2.182439  0.908987
      ESP Fit Center  697 is at   1.748907 -2.439670  0.908987
      ESP Fit Center  698 is at   2.708907 -2.182439  0.908987
      ESP Fit Center  699 is at   3.411676 -1.479670  0.908987
      ESP Fit Center  700 is at   1.634700  1.951632  2.816500
      ESP Fit Center  701 is at   2.114700  2.783016  2.559269
      ESP Fit Center  702 is at   1.154700  2.783016  2.559269
      ESP Fit Center  703 is at   0.674700  1.951632  2.559269
      ESP Fit Center  704 is at   1.154700  1.120248  2.559269
      ESP Fit Center  705 is at   2.114700  1.120248  2.559269
      ESP Fit Center  706 is at   2.148524  3.533019  1.856500
      ESP Fit Center  707 is at   1.120876  3.533019  1.856500
      ESP Fit Center  708 is at   0.289492  2.928983  1.856500
      ESP Fit Center  709 is at  -0.028069  1.951632  1.856500
      ESP Fit Center  710 is at   1.634700  3.871632  0.896500
      ESP Fit Center  711 is at   0.674700  3.614401  0.896500
      ESP Fit Center  712 is at  -0.028069  2.911632  0.896500
      ESP Fit Center  713 is at   1.609166  3.891762 -0.870081
      ESP Fit Center  714 is at   0.649166  3.634531 -0.870081
      ESP Fit Center  715 is at  -0.053603  2.931762 -0.870081
      ESP Fit Center  716 is at   2.122990  3.553149 -1.830081
      ESP Fit Center  717 is at   1.095342  3.553149 -1.830081
      ESP Fit Center  718 is at   3.811819  1.502052  2.891798
      ESP Fit Center  719 is at   4.883333  1.502052  2.678661
      ESP Fit Center  720 is at   4.347576  2.430010  2.678661
      ESP Fit Center  721 is at   3.276062  2.430010  2.678661
      ESP Fit Center  722 is at   2.740305  1.502052  2.678661
      ESP Fit Center  723 is at   3.276062  0.574094  2.678661
      ESP Fit Center  724 is at   4.347576  0.574094  2.678661
      ESP Fit Center  725 is at   5.791718  1.502052  2.071697
      ESP Fit Center  726 is at   5.526462  2.492001  2.071697
      ESP Fit Center  727 is at   4.801768  3.216695  2.071697
      ESP Fit Center  728 is at   3.811819  3.481951  2.071697
      ESP Fit Center  729 is at   2.821870  3.216695  2.071697
      ESP Fit Center  730 is at   3.811819 -0.477847  2.071697
      ESP Fit Center  731 is at   4.801768 -0.212591  2.071697
      ESP Fit Center  732 is at   5.526462  0.512103  2.071697
      ESP Fit Center  733 is at   6.398682  1.502052  1.163312
      ESP Fit Center  734 is at   6.175036  2.554224  1.163312
      ESP Fit Center  735 is at   5.542768  3.424466  1.163312
      ESP Fit Center  736 is at   4.611204  3.962305  1.163312
      ESP Fit Center  737 is at   3.541418  4.074744  1.163312
      ESP Fit Center  738 is at   2.518388  3.742341  1.163312
      ESP Fit Center  739 is at   4.611204 -0.958201  1.163312
      ESP Fit Center  740 is at   5.542768 -0.420362  1.163312
      ESP Fit Center  741 is at   6.175036  0.449880  1.163312
      ESP Fit Center  742 is at   6.611819  1.502052  0.091798
      ESP Fit Center  743 is at   6.422741  2.513529  0.091798
      ESP Fit Center  744 is at   5.881044  3.388400  0.091798
      ESP Fit Center  745 is at   5.059886  4.008509  0.091798
      ESP Fit Center  746 is at   4.070170  4.290108  0.091798
      ESP Fit Center  747 is at   3.045563  4.195164  0.091798
      ESP Fit Center  748 is at   4.070170 -1.286004  0.091798
      ESP Fit Center  749 is at   5.059886 -1.004405  0.091798
      ESP Fit Center  750 is at   5.881044 -0.384296  0.091798
      ESP Fit Center  751 is at   6.175036  2.554224 -0.979716
      ESP Fit Center  752 is at   5.542768  3.424466 -0.979716
      ESP Fit Center  753 is at   4.611204  3.962305 -0.979716
      ESP Fit Center  754 is at   3.541418  4.074744 -0.979716
      ESP Fit Center  755 is at   2.518388  3.742341 -0.979716
      ESP Fit Center  756 is at   5.788035 -1.007296 -2.075009
      ESP Fit Center  757 is at   7.083836  0.791166 -0.508807
      ESP Fit Center  758 is at   6.766275  1.768517 -0.508807
      ESP Fit Center  759 is at   5.934891 -0.790221 -0.508807
      ESP Fit Center  760 is at   6.766275 -0.186185 -0.508807
      ESP Fit Center  761 is at   7.341067  0.791166 -1.468807
      ESP Fit Center  762 is at   7.083836  1.751166 -1.468807
      ESP Fit Center  763 is at   6.381067  2.453935 -1.468807
      ESP Fit Center  764 is at   6.381067 -0.871603 -1.468807
      ESP Fit Center  765 is at   7.083836 -0.168834 -1.468807
      ESP Fit Center  766 is at   5.934891 -0.790221 -2.428807
      ESP Fit Center  767 is at   3.472373 -1.791577 -0.694292
      ESP Fit Center  768 is at   4.500021 -1.791577 -0.694292
      ESP Fit Center  769 is at   3.026197 -1.872959 -1.654292
      ESP Fit Center  770 is at   3.986197 -2.130190 -1.654292
      ESP Fit Center  771 is at   4.946197 -1.872959 -1.654292
      ESP Fit Center  772 is at   2.640989 -1.187541 -2.614292
      ESP Fit Center  773 is at   3.472373 -1.791577 -2.614292
      ESP Fit Center  774 is at   4.500021 -1.791577 -2.614292
      ESP Fit Center  775 is at   5.331405 -1.187541 -2.614292
      ESP Fit Center  776 is at   2.422802  3.496412 -2.199524
      ESP Fit Center  777 is at   5.842260  2.712288 -1.641373
      ESP Fit Center  778 is at   5.524699  3.689639 -1.641373
      ESP Fit Center  779 is at   4.693315  4.293675 -1.641373
      ESP Fit Center  780 is at   3.665667  4.293675 -1.641373
      ESP Fit Center  781 is at   2.834283  3.689639 -1.641373
      ESP Fit Center  782 is at   4.179491  4.632288 -2.601373
      ESP Fit Center  783 is at   3.219491  4.375057 -2.601373
      ESP Fit Center  784 is at   2.516722  3.672288 -2.601373
      ESP Fit Center  785 is at   3.665667  4.293675 -3.561373
      ESP Fit Center  786 is at   2.834283  3.689639 -3.561373
      ESP Fit Center  787 is at   2.387706 -0.483265 -3.285884
      ESP Fit Center  788 is at   3.187091 -1.203034 -3.285884
      ESP Fit Center  789 is at   4.210121 -1.535437 -3.285884
      ESP Fit Center  790 is at   5.279907 -1.422998 -3.285884
      ESP Fit Center  791 is at   6.211471 -0.885159 -3.285884
      ESP Fit Center  792 is at   2.793145  3.271703 -4.357398
      ESP Fit Center  793 is at   2.099914 -0.436755 -4.357398
      ESP Fit Center  794 is at   2.793145 -1.197193 -4.357398
      ESP Fit Center  795 is at   3.714266 -1.655857 -4.357398
      ESP Fit Center  796 is at   4.738873 -1.750801 -4.357398
      ESP Fit Center  797 is at   5.728589 -1.469202 -4.357398
      ESP Fit Center  798 is at   2.387706  2.557775 -5.428912
      ESP Fit Center  799 is at   2.387706 -0.483265 -5.428912
      ESP Fit Center  800 is at   3.187091 -1.203034 -5.428912
      ESP Fit Center  801 is at   4.210121 -1.535437 -5.428912
      ESP Fit Center  802 is at   5.279907 -1.422998 -5.428912
      ESP Fit Center  803 is at   2.765879  2.027204 -6.337297
      ESP Fit Center  804 is at   2.500623  1.037255 -6.337297
      ESP Fit Center  805 is at   2.765879  0.047306 -6.337297
      ESP Fit Center  806 is at   3.490573 -0.677388 -6.337297
      ESP Fit Center  807 is at   4.480522 -0.942644 -6.337297
      ESP Fit Center  808 is at   5.470471 -0.677388 -6.337297
      ESP Fit Center  809 is at   5.552036  1.037255 -6.944261
      ESP Fit Center  810 is at   3.944765  1.965213 -6.944261
      ESP Fit Center  811 is at   3.409008  1.037255 -6.944261
      ESP Fit Center  812 is at   3.944765  0.109297 -6.944261
      ESP Fit Center  813 is at   5.016279  0.109297 -6.944261
      ESP Fit Center  814 is at   4.480522  1.037255 -7.157398
      ESP Fit Center  815 is at   6.789369 -0.821969 -3.759029
      ESP Fit Center  816 is at   8.639595  0.866433 -5.094492
      ESP Fit Center  817 is at   6.719595 -1.053567 -5.094492
      ESP Fit Center  818 is at   7.679595 -0.796336 -5.094492
      ESP Fit Center  819 is at   8.382364 -0.093567 -5.094492
      ESP Fit Center  820 is at   8.382364  0.866433 -6.054492
      ESP Fit Center  821 is at   6.205771 -0.714954 -6.054492
      ESP Fit Center  822 is at   7.233419 -0.714954 -6.054492
      ESP Fit Center  823 is at   8.064803 -0.110918 -6.054492
      ESP Fit Center  824 is at   7.679595  0.866433 -6.757261
      ESP Fit Center  825 is at   6.239595  0.035049 -6.757261
      ESP Fit Center  826 is at   7.199595  0.035049 -6.757261
      ESP Fit Center  827 is at   6.719595  0.866433 -7.014492
      ESP Fit Center  828 is at   7.645664  1.090169 -1.685048
      ESP Fit Center  829 is at   7.165664  1.921553 -1.685048
      ESP Fit Center  830 is at   8.348433  1.090169 -2.387817
      ESP Fit Center  831 is at   8.030872  2.067520 -2.387817
      ESP Fit Center  832 is at   7.199488 -0.491218 -2.387817
      ESP Fit Center  833 is at   8.030872  0.112818 -2.387817
      ESP Fit Center  834 is at   8.605664  1.090169 -3.347817
      ESP Fit Center  835 is at   6.685664 -0.829831 -3.347817
      ESP Fit Center  836 is at   7.645664 -0.572600 -3.347817
      ESP Fit Center  837 is at   8.348433  0.130169 -3.347817
      ESP Fit Center  838 is at   7.677820  2.936902 -2.307576
      ESP Fit Center  839 is at   7.157159  5.218065 -3.935851
      ESP Fit Center  840 is at   6.107276  3.573393 -1.832293
      ESP Fit Center  841 is at   7.067276  3.573393 -2.089524
      ESP Fit Center  842 is at   6.587276  4.404777 -2.089524
      ESP Fit Center  843 is at   5.627276  4.404777 -2.089524
      ESP Fit Center  844 is at   7.452484  4.550744 -2.792293
      ESP Fit Center  845 is at   6.621100  5.154780 -2.792293
      ESP Fit Center  846 is at   5.593452  5.154780 -2.792293
      ESP Fit Center  847 is at   4.762068  4.550744 -2.792293
      ESP Fit Center  848 is at   7.067276  5.236162 -3.752293
      ESP Fit Center  849 is at   6.107276  5.493393 -3.752293
      ESP Fit Center  850 is at   8.666558  3.049224 -2.594410
      ESP Fit Center  851 is at   8.186558  3.880608 -2.594410
      ESP Fit Center  852 is at   8.186558  2.217840 -2.594410
      ESP Fit Center  853 is at   9.369327  3.049224 -3.297179
      ESP Fit Center  854 is at   9.051766  4.026575 -3.297179
      ESP Fit Center  855 is at   8.220382  4.630611 -3.297179
      ESP Fit Center  856 is at   9.051766  2.071873 -3.297179
      ESP Fit Center  857 is at   9.626558  3.049224 -4.257179
      ESP Fit Center  858 is at   9.369327  4.009224 -4.257179
      ESP Fit Center  859 is at   8.666558  4.711993 -4.257179
      ESP Fit Center  860 is at   9.369327  2.089224 -4.257179
      ESP Fit Center  861 is at   9.369327  3.049224 -5.217179
      ESP Fit Center  862 is at   9.051766  4.026575 -5.217179
      ESP Fit Center  863 is at   9.051766  2.071873 -5.217179
      ESP Fit Center  864 is at   7.397960  5.343414 -4.176708
      ESP Fit Center  865 is at   6.408011  5.608670 -4.176708
      ESP Fit Center  866 is at   8.771228  4.680943 -5.085093
      ESP Fit Center  867 is at   8.138960  5.551185 -5.085093
      ESP Fit Center  868 is at   7.207396  6.089024 -5.085093
      ESP Fit Center  869 is at   9.208011  3.628771 -6.156607
      ESP Fit Center  870 is at   9.018933  4.640248 -6.156607
      ESP Fit Center  871 is at   8.477236  5.515119 -6.156607
      ESP Fit Center  872 is at   7.656078  6.135228 -6.156607
      ESP Fit Center  873 is at   6.666362  6.416827 -6.156607
      ESP Fit Center  874 is at   8.477236  1.742423 -6.156607
      ESP Fit Center  875 is at   9.018933  2.617294 -6.156607
      ESP Fit Center  876 is at   8.994874  3.628771 -7.228121
      ESP Fit Center  877 is at   8.771228  4.680943 -7.228121
      ESP Fit Center  878 is at   8.138960  5.551185 -7.228121
      ESP Fit Center  879 is at   7.207396  6.089024 -7.228121
      ESP Fit Center  880 is at   4.315195  2.108251 -7.228121
      ESP Fit Center  881 is at   5.114580  1.388482 -7.228121
      ESP Fit Center  882 is at   6.137610  1.056079 -7.228121
      ESP Fit Center  883 is at   7.207396  1.168518 -7.228121
      ESP Fit Center  884 is at   8.138960  1.706357 -7.228121
      ESP Fit Center  885 is at   8.771228  2.576599 -7.228121
      ESP Fit Center  886 is at   8.387910  3.628771 -8.136506
      ESP Fit Center  887 is at   8.122654  4.618720 -8.136506
      ESP Fit Center  888 is at   7.397960  5.343414 -8.136506
      ESP Fit Center  889 is at   5.418062  1.914128 -8.136506
      ESP Fit Center  890 is at   6.408011  1.648872 -8.136506
      ESP Fit Center  891 is at   7.397960  1.914128 -8.136506
      ESP Fit Center  892 is at   8.122654  2.638822 -8.136506
      ESP Fit Center  893 is at   7.479525  3.628771 -8.743470
      ESP Fit Center  894 is at   6.943768  4.556729 -8.743470
      ESP Fit Center  895 is at   5.872254  2.700813 -8.743470
      ESP Fit Center  896 is at   6.943768  2.700813 -8.743470
      ESP Fit Center  897 is at   6.408011  3.628771 -8.956607
      ESP Fit Center  898 is at   2.614197  5.380414 -5.524713
      ESP Fit Center  899 is at   3.036646  3.568746 -4.211733
      ESP Fit Center  900 is at   3.482822  1.987359 -6.834502
      ESP Fit Center  901 is at   3.516646  2.737362 -7.537271
      ESP Fit Center  902 is at   4.697702  5.061722 -3.292732
      ESP Fit Center  903 is at   5.177702  5.893106 -3.549963
      ESP Fit Center  904 is at   4.217702  5.893106 -3.549963
      ESP Fit Center  905 is at   3.737702  5.061722 -3.549963
      ESP Fit Center  906 is at   6.042910  6.039073 -4.252732
      ESP Fit Center  907 is at   5.211526  6.643109 -4.252732
      ESP Fit Center  908 is at   4.183878  6.643109 -4.252732
      ESP Fit Center  909 is at   3.352494  6.039073 -4.252732
      ESP Fit Center  910 is at   3.034933  5.061722 -4.252732
      ESP Fit Center  911 is at   5.657702  6.724491 -5.212732
      ESP Fit Center  912 is at   4.697702  6.981722 -5.212732
      ESP Fit Center  913 is at   3.737702  6.724491 -5.212732
      ESP Fit Center  914 is at   3.034933  6.021722 -5.212732
      ESP Fit Center  915 is at   4.146080  6.955982 -5.866924
      ESP Fit Center  916 is at   3.892459  7.379848 -6.829250
      ESP Fit Center  917 is at   3.892459  7.379848 -7.897350
      ESP Fit Center  918 is at   4.146080  6.955982 -8.859676
      ESP Fit Center  919 is at   2.612731  4.570043 -8.859676
      ESP Fit Center  920 is at   4.933779  6.000495 -9.525625
      ESP Fit Center  921 is at   3.892459  6.000495 -9.525625
      ESP Fit Center  922 is at   5.616985  6.729658 -5.890557
      ESP Fit Center  923 is at   6.482193  6.875625 -6.593326
      ESP Fit Center  924 is at   5.650809  7.479661 -6.593326
      ESP Fit Center  925 is at   4.623161  7.479661 -6.593326
      ESP Fit Center  926 is at   6.799754  6.858274 -7.553326
      ESP Fit Center  927 is at   6.096985  7.561043 -7.553326
      ESP Fit Center  928 is at   5.136985  7.818274 -7.553326
      ESP Fit Center  929 is at   4.176985  7.561043 -7.553326
      ESP Fit Center  930 is at   6.799754  5.898274 -8.513326
      ESP Fit Center  931 is at   6.482193  6.875625 -8.513326
      ESP Fit Center  932 is at   5.650809  7.479661 -8.513326
      ESP Fit Center  933 is at   4.623161  7.479661 -8.513326
      ESP Fit Center  934 is at   6.096985  5.898274 -9.216095
      ESP Fit Center  935 is at   5.616985  6.729658 -9.216095
      ESP Fit Center  936 is at   4.656985  6.729658 -9.216095
      ESP Fit Center  937 is at   2.768041  3.453581 -8.217651
      ESP Fit Center  938 is at   3.470810  2.750812 -8.217651
      ESP Fit Center  939 is at   4.430810  2.493581 -8.217651
      ESP Fit Center  940 is at   6.093579  4.413581 -9.177651
      ESP Fit Center  941 is at   2.768041  4.413581 -9.177651
      ESP Fit Center  942 is at   3.085602  3.436230 -9.177651
      ESP Fit Center  943 is at   3.916986  2.832194 -9.177651
      ESP Fit Center  944 is at   4.944634  2.832194 -9.177651
      ESP Fit Center  945 is at   5.776018  3.436230 -9.177651
      ESP Fit Center  946 is at   5.390810  4.413581 -9.880420
      ESP Fit Center  947 is at   4.910810  5.244965 -9.880420
      ESP Fit Center  948 is at   3.950810  5.244965 -9.880420
      ESP Fit Center  949 is at   3.470810  4.413581 -9.880420
      ESP Fit Center  950 is at   3.950810  3.582197 -9.880420
      ESP Fit Center  951 is at   4.910810  3.582197 -9.880420
      ESP Fit Center  952 is at   4.430810  4.413581-10.137651
      ESP Fit Center  953 is at   2.935222  6.381361 -5.649558
      ESP Fit Center  954 is at   2.455222  5.549977 -5.649558
      ESP Fit Center  955 is at   2.901398  7.131364 -6.352327
      ESP Fit Center  956 is at   2.070014  6.527328 -6.352327
      ESP Fit Center  957 is at   3.415222  7.469977 -7.312327
      ESP Fit Center  958 is at   2.455222  7.212746 -7.312327
      ESP Fit Center  959 is at   1.752453  6.509977 -7.312327
      ESP Fit Center  960 is at   2.901398  7.131364 -8.272327
      ESP Fit Center  961 is at   2.070014  6.527328 -8.272327
      ESP Fit Center  962 is at   2.935222  6.381361 -8.975096
      ESP Fit Center  963 is at   2.455222  5.549977 -8.975096
      ESP Fit Center  964 is at   1.431468  6.550107 -6.536373
      ESP Fit Center  965 is at  -2.823812  4.599848 -7.569618
      ESP Fit Center  966 is at  -0.678885  7.031781 -8.602863
      ESP Fit Center  967 is at  -1.679092  6.550107 -8.602863
      ESP Fit Center  968 is at  -2.371256  5.682160 -8.602863
      ESP Fit Center  969 is at  -0.395518  6.489604 -9.478806
      ESP Fit Center  970 is at  -1.374064  6.042716 -9.478806
      ESP Fit Center  971 is at   0.669293  2.863189 -9.478806
      ESP Fit Center  972 is at   1.482299  3.567663 -9.478806
      ESP Fit Center  973 is at  -0.640435  5.494665-10.064093
      ESP Fit Center  974 is at   0.392811  3.705031-10.064093
      ESP Fit Center  975 is at  -0.677060  5.385239 -4.884573
      ESP Fit Center  976 is at  -0.137060  6.320546 -5.173958
      ESP Fit Center  977 is at  -1.217060  6.320546 -5.173958
      ESP Fit Center  978 is at  -1.757060  5.385239 -5.173958
      ESP Fit Center  979 is at   0.100022  7.086810 -5.964573
      ESP Fit Center  980 is at  -0.943276  7.236814 -5.964573
      ESP Fit Center  981 is at  -1.902052  6.798955 -5.964573
      ESP Fit Center  982 is at  -2.471902  5.912252 -5.964573
      ESP Fit Center  983 is at  -2.471902  4.858226 -5.964573
      ESP Fit Center  984 is at   0.549960  7.162884 -7.044573
      ESP Fit Center  985 is at  -0.416701  7.529490 -7.044573
      ESP Fit Center  986 is at  -1.443007  7.404874 -7.044573
      ESP Fit Center  987 is at  -2.293843  6.817584 -7.044573
      ESP Fit Center  988 is at  -2.774294  5.902161 -7.044573
      ESP Fit Center  989 is at  -2.774294  4.868317 -7.044573
      ESP Fit Center  990 is at  -0.943276  7.236814 -8.124573
      ESP Fit Center  991 is at  -1.902052  6.798955 -8.124573
      ESP Fit Center  992 is at  -2.471902  5.912252 -8.124573
      ESP Fit Center  993 is at   1.493926  6.762314 -7.020083
      ESP Fit Center  994 is at   0.977203  7.204994 -8.100083
      ESP Fit Center  995 is at   2.290505  6.072074 -9.180083
      ESP Fit Center  996 is at   1.493926  6.762314 -9.180083
      ESP Fit Center  997 is at   0.450628  6.912318 -9.180083
      ESP Fit Center  998 is at   2.290505  4.049412 -9.180083
      ESP Fit Center  999 is at   1.796844  5.060743 -9.970698
      ESP Fit Center 1000 is at   1.256844  5.996050 -9.970698
      ESP Fit Center 1001 is at   0.176844  5.996050 -9.970698
      ESP Fit Center 1002 is at   1.256844  4.125436 -9.970698
      ESP Fit Center 1003 is at   0.716844  5.060743-10.260083
      ESP Fit Center 1004 is at  -2.889892  4.660548 -8.306364
      ESP Fit Center 1005 is at  -2.889892  3.626704 -8.306364
      ESP Fit Center 1006 is at  -2.409441  2.711281 -8.306364
      ESP Fit Center 1007 is at  -1.558605  2.123991 -8.306364
      ESP Fit Center 1008 is at  -2.017650  5.557342 -9.386364
      ESP Fit Center 1009 is at  -2.587500  4.670639 -9.386364
      ESP Fit Center 1010 is at  -2.587500  3.616613 -9.386364
      ESP Fit Center 1011 is at  -2.017650  2.729910 -9.386364
      ESP Fit Center 1012 is at  -1.058874  2.292051 -9.386364
      ESP Fit Center 1013 is at  -0.015576  2.442055 -9.386364
      ESP Fit Center 1014 is at  -1.332658  5.078933-10.176979
      ESP Fit Center 1015 is at  -1.872658  4.143626-10.176979
      ESP Fit Center 1016 is at  -1.332658  3.208319-10.176979
      ESP Fit Center 1017 is at  -0.252658  3.208319-10.176979
      ESP Fit Center 1018 is at  -0.792658  4.143626-10.466364
      ESP Fit Center 1019 is at   2.173341  0.990425 -7.114801
      ESP Fit Center 1020 is at   2.858906  1.764268 -7.114801
      ESP Fit Center 1021 is at   2.816936  2.768070 -8.194801
      ESP Fit Center 1022 is at  -0.278671  1.354354 -8.194801
      ESP Fit Center 1023 is at   0.680105  0.916495 -8.194801
      ESP Fit Center 1024 is at   1.723403  1.066499 -8.194801
      ESP Fit Center 1025 is at   2.519982  1.756739 -8.194801
      ESP Fit Center 1026 is at   2.026321  2.768070 -8.985416
      ESP Fit Center 1027 is at   0.406321  1.832763 -8.985416
      ESP Fit Center 1028 is at   1.486321  1.832763 -8.985416
      ESP Fit Center 1029 is at   0.946321  2.768070 -9.274801
      ESP Fit Center 1030 is at   1.838455  5.714438 -4.777101
      ESP Fit Center 1031 is at   0.795157  5.864442 -4.777101
      ESP Fit Center 1032 is at   1.321732  6.157118 -5.857101
      ESP Fit Center 1033 is at  -2.283639  4.898460 -5.382007
      ESP Fit Center 1034 is at  -2.965355  4.043616 -5.382007
      ESP Fit Center 1035 is at  -3.208656  2.977642 -5.382007
      ESP Fit Center 1036 is at  -2.965355  4.043616 -6.503513
      ESP Fit Center 1037 is at  -3.208656  2.977642 -6.503513
      ESP Fit Center 1038 is at  -2.965355  1.911668 -6.503513
      ESP Fit Center 1039 is at  -2.642246  2.422568 -7.513954
      ESP Fit Center 1040 is at  -2.042055  1.488653 -7.513954
      ESP Fit Center 1041 is at  -1.032229  1.027481 -7.513954
      ESP Fit Center 1042 is at  -1.298532  2.030741 -8.213202
      ESP Fit Center 1043 is at  -0.447343 -0.765787 -5.033608
      ESP Fit Center 1044 is at  -0.719049  0.044457 -6.942796
      ESP Fit Center 1045 is at   1.165181 -0.385356 -4.316042
      ESP Fit Center 1046 is at   0.648458 -0.828036 -5.396042
      ESP Fit Center 1047 is at   1.615119 -0.461430 -5.396042
[...]
 1119 Fit       0.009720
 1120 Fit       0.008677
 1121 Fit       0.007806
 1122 Fit       0.001688
 1123 Fit       0.011030
 1124 Fit       0.007666
 1125 Fit       0.007308
 1126 Fit      -0.001164
 1127 Fit      -0.002496
 1128 Fit       0.005087
 1129 Fit       0.006789
 1130 Fit       0.007000
 1131 Fit       0.005798
 1132 Fit       0.003026
 1133 Fit       0.012370
 1134 Fit       0.011289
 1135 Fit       0.010083
 1136 Fit       0.008442
 1137 Fit       0.006794
 1138 Fit       0.014329
 1139 Fit       0.012401
 1140 Fit       0.011086
 1141 Fit      -0.014022
 1142 Fit      -0.015859
 1143 Fit      -0.018752
 1144 Fit      -0.017172
 1145 Fit      -0.015366
 1146 Fit      -0.015115
 1147 Fit      -0.014254
 1148 Fit      -0.014717
 1149 Fit      -0.013277
 1150 Fit      -0.007568
 1151 Fit      -0.004350
 1152 Fit      -0.006937
 1153 Fit      -0.000782
 1154 Fit       0.002915
 1155 Fit       0.003907
 1156 Fit       0.002605
 1157 Fit       0.006543
 1158 Fit       0.007018
 1159 Fit       0.008637
 1160 Fit       0.006910
 1161 Fit       0.001107
 1162 Fit      -0.002310
 1163 Fit      -0.005274
 1164 Fit      -0.003090
 1165 Fit      -0.002565
 1166 Fit      -0.006546
 1167 Fit      -0.002794
 1168 Fit      -0.001526
 1169 Fit      -0.006807
 1170 Fit      -0.001035
 1171 Fit      -0.000372
 1172 Fit      -0.004820
 1173 Fit      -0.001828
 1174 Fit       0.001275
 1175 Fit       0.000390
 1176 Fit      -0.002344
 1177 Fit       0.002001
 1178 Fit       0.001525
 1179 Fit       0.000878
 1180 Fit       0.000742
 1181 Fit       0.002278
 1182 Fit      -0.000510
 1183 Fit      -0.001356
 1184 Fit      -0.001405
 1185 Fit      -0.001454
 1186 Fit       0.002140
 1187 Fit       0.002189
 1188 Fit      -0.002326
 1189 Fit      -0.001179
 1190 Fit       0.002090
 1191 Fit       0.001166
 1192 Fit      -0.006374
 1193 Fit       0.001635
 1194 Fit       0.004226
 1195 Fit       0.003924
 1196 Fit      -0.010795
 1197 Fit      -0.014398
 1198 Fit      -0.011616
 1199 Fit      -0.006323
 1200 Fit      -0.004398
 1201 Fit      -0.009888
 1202 Fit      -0.014877
 1203 Fit      -0.014154
 1204 Fit      -0.013691
 1205 Fit      -0.012975
 1206 Fit      -0.009672
 1207 Fit      -0.003205
 1208 Fit      -0.013578
 1209 Fit      -0.016591
 1210 Fit      -0.015698
 1211 Fit      -0.009810
 1212 Fit      -0.011008
 1213 Fit      -0.013197
 1214 Fit      -0.014007
 1215 Fit      -0.011605
 1216 Fit      -0.005626
 1217 Fit      -0.010973
 1218 Fit      -0.014380
 1219 Fit      -0.013395
 1220 Fit      -0.010928
 1221 Fit      -0.001763
 1222 Fit      -0.004852
 1223 Fit      -0.009384
 1224 Fit      -0.012986
 1225 Fit      -0.013656
 1226 Fit      -0.010532
 1227 Fit      -0.004339
 1228 Fit      -0.007352
 1229 Fit      -0.008069
 1230 Fit      -0.005258
 1231 Fit      -0.002011
 1232 Fit       0.004054
 1233 Fit      -0.002478
 1234 Fit      -0.007581
 1235 Fit      -0.009800
 1236 Fit      -0.008140
 1237 Fit      -0.003086
 1238 Fit       0.001476
 1239 Fit       0.002299
 1240 Fit       0.008867
 1241 Fit       0.007794
 1242 Fit       0.002881
 1243 Fit       0.006654
 1244 Fit       0.014156
 1245 Fit       0.007589
 1246 Fit       0.012445
 1247 Fit       0.004738
 1248 Fit       0.005079
 1249 Fit       0.002219
 1250 Fit       0.008344
 1251 Fit       0.004718
 1252 Fit       0.003187
 1253 Fit       0.005440
 1254 Fit       0.001040
 1255 Fit      -0.002361
 1256 Fit       0.008191
 1257 Fit       0.004882
 1258 Fit       0.002356
 1259 Fit       0.001480
 1260 Fit       0.013724
 1261 Fit       0.011290
 1262 Fit       0.011858
 1263 Fit       0.014503
 1264 Fit      -0.003003
 1265 Fit      -0.002559
 1266 Fit      -0.006415
 1267 Fit      -0.010440
 1268 Fit      -0.010686
 1269 Fit      -0.005871
 1270 Fit      -0.005823
 1271 Fit      -0.010526
 1272 Fit      -0.013302
 1273 Fit      -0.012147
 1274 Fit      -0.006392
 1275 Fit      -0.008944
 1276 Fit      -0.012186
 1277 Fit      -0.012117
 1278 Fit      -0.007823
 1279 Fit      -0.004778
 1280 Fit      -0.008605
 1281 Fit      -0.011089
 1282 Fit      -0.010523
 1283 Fit      -0.006557
 1284 Fit      -0.010375
 1285 Fit      -0.011340
 1286 Fit      -0.010686
 1287 Fit      -0.014683
 1288 Fit       0.010280
 1289 Fit       0.009398
 1290 Fit       0.002150
 1291 Fit       0.006029
 1292 Fit       0.007822
 1293 Fit       0.004236
 1294 Fit       0.000041
 1295 Fit       0.003887
 1296 Fit       0.005079
 1297 Fit      -0.003723
 1298 Fit      -0.004026
 1299 Fit      -0.000168
 1300 Fit       0.015201
 1301 Fit       0.016201
 1302 Fit       0.013431
 1303 Fit       0.015411
 1304 Fit       0.010540
 1305 Fit       0.011935
 1306 Fit       0.013269
 1307 Fit       0.004281
 1308 Fit       0.008288
 1309 Fit       0.010535
 1310 Fit       0.013312
 1311 Fit       0.010219
 1312 Fit       0.011354
 1313 Fit       0.009266
 1314 Fit       0.010469
 1315 Fit       0.007850
 1316 Fit       0.010789
 1317 Fit       0.014376
 1318 Fit       0.005994
 1319 Fit       0.011432
 1320 Fit       0.009320
 1321 Fit       0.010223
 1322 Fit       0.007775
 1323 Fit       0.005536
 1324 Fit       0.012591
 1325 Fit       0.008041
 1326 Fit       0.004837
 1327 Fit       0.000172
 1328 Fit       0.010298
 1329 Fit       0.003851
 1330 Fit       0.007320
 1331 Fit      -0.007944
 1332 Fit      -0.007733
 1333 Fit      -0.001005
 1334 Fit      -0.001566
 1335 Fit      -0.008837
 1336 Fit      -0.013997
 1337 Fit      -0.014367
 1338 Fit      -0.009122
 1339 Fit       0.007628
 1340 Fit       0.004237
 1341 Fit      -0.008880
 1342 Fit      -0.013784
 1343 Fit      -0.016894
 1344 Fit      -0.015665
 1345 Fit      -0.002715
 1346 Fit      -0.004855
 1347 Fit      -0.013260
 1348 Fit      -0.015725
 1349 Fit      -0.016017
 1350 Fit      -0.011486
 1351 Fit      -0.014708
 1352 Fit      -0.017591
 1353 Fit      -0.015366
 1354 Fit      -0.012645
 1355 Fit      -0.011168
 1356 Fit      -0.011295
 1357 Fit      -0.014892
 1358 Fit      -0.014584
 1359 Fit      -0.011263
 1360 Fit      -0.015083
 1361 Fit      -0.017468
 1362 Fit      -0.016357
 1363 Fit      -0.015045
 1364 Fit      -0.013771
 1365 Fit      -0.009977
 1366 Fit      -0.011709
 1367 Fit      -0.015077
 1368 Fit      -0.009808
 1369 Fit       0.014167
 1370 Fit       0.015789
 1371 Fit       0.010782
 1372 Fit       0.011471
 1373 Fit       0.013592
 1374 Fit       0.003308
 1375 Fit       0.006703
 1376 Fit       0.009094
 1377 Fit       0.010831
 1378 Fit       0.012722
 1379 Fit       0.001078
 1380 Fit       0.006068
 1381 Fit       0.008649
 1382 Fit       0.011182
 1383 Fit       0.005888
 1384 Fit       0.003842
 1385 Fit      -0.005007
 1386 Fit       0.002627
 1387 Fit       0.004613
 1388 Fit       0.000670
 1389 Fit       0.002435
 1390 Fit      -0.005464
 1391 Fit       0.001629
 1392 Fit       0.004114
 1393 Fit      -0.004242
 1394 Fit       0.001206
 1395 Fit       0.003371
 1396 Fit       0.004012
 1397 Fit      -0.006240
 1398 Fit      -0.000839
 1399 Fit       0.002262
 1400 Fit       0.003220
 1401 Fit      -0.002054
 1402 Fit       0.001088
 1403 Fit       0.005360
 1404 Fit      -0.001850
 1405 Fit      -0.006585
 1406 Fit       0.006063
 1407 Fit       0.003621
 1408 Fit      -0.000606
 1409 Fit      -0.005603
 1410 Fit      -0.008220
 1411 Fit      -0.001053
 1412 Fit       0.000623
 1413 Fit       0.002812
 1414 Fit       0.004227
 1415 Fit       0.002936
 1416 Fit      -0.000068
 1417 Fit       0.002209
 1418 Fit       0.011330
 1419 Fit       0.007779
 1420 Fit       0.010215
 1421 Fit       0.007563
 1422 Fit       0.009946
 1423 Fit       0.005417
 1424 Fit       0.008609
 1425 Fit       0.005743
 1426 Fit       0.008641
 1427 Fit       0.007373
 1428 Fit       0.004346
 1429 Fit      -0.002644
 1430 Fit       0.002956
 1431 Fit       0.001713
 1432 Fit       0.000682
 1433 Fit       0.002633
 1434 Fit       0.001603
 1435 Fit       0.003496
 1436 Fit       0.004497
 1437 Fit       0.002357
 1438 Fit       0.003155
 1439 Fit       0.002866
 1440 Fit       0.006269
 1441 Fit       0.003172
 1442 Fit      -0.003703
 1443 Fit       0.006507
 1444 Fit       0.005005
 1445 Fit       0.002933
 1446 Fit      -0.001407
 1447 Fit       0.005426
 1448 Fit       0.004527
 1449 Fit       0.003137
 1450 Fit       0.000472
 1451 Fit      -0.004679
 1452 Fit       0.004459
 1453 Fit       0.003663
 1454 Fit       0.002533
 1455 Fit       0.000459
 1456 Fit       0.007031
 1457 Fit       0.006140
 1458 Fit       0.006565
 1459 Fit       0.005910
 1460 Fit       0.004253
 1461 Fit       0.005832
 1462 Fit       0.005177
 1463 Fit       0.004955
 1464 Fit       0.003425
 1465 Fit       0.004155
 1466 Fit       0.003788
 1467 Fit      -0.007095
 1468 Fit      -0.011186
 1469 Fit      -0.000629
 1470 Fit      -0.001634
 1471 Fit      -0.002687
 1472 Fit      -0.003247
 1473 Fit      -0.002107
 1474 Fit       0.001390
 1475 Fit       0.001252
 1476 Fit       0.001083
 1477 Fit       0.001055
 1478 Fit       0.001648
 1479 Fit       0.002844
 1480 Fit       0.002311
 1481 Fit       0.002437
 1482 Fit       0.002619
 1483 Fit       0.002923
 1484 Fit       0.002801
 1485 Fit       0.002654
 1486 Fit       0.001754
 1487 Fit      -0.001468
 1488 Fit      -0.003090
 1489 Fit       0.000399
 1490 Fit       0.002286
 1491 Fit       0.002038
 1492 Fit       0.001621
 1493 Fit       0.004718
 1494 Fit       0.002958
 1495 Fit       0.003398
 1496 Fit       0.012152
 1497 Fit       0.009648
 1498 Fit       0.010769
 1499 Fit      -0.005478
 1500 Fit      -0.008036
 1501 Fit      -0.006170
 1502 Fit      -0.011827
 1503 Fit      -0.011489
 1504 Fit      -0.007774
 1505 Fit      -0.013162
 1506 Fit      -0.011549
 1507 Fit      -0.007460
 1508 Fit      -0.009996
 1509 Fit      -0.006842
 1510 Fit      -0.002590
 1511 Fit       0.006836
 1512 Fit       0.004153
 1513 Fit      -0.001723
 1514 Fit       0.001338
 1515 Fit       0.001643
 1516 Fit       0.004672
 1517 Fit       0.001829
 1518 Fit       0.002960
 1519 Fit       0.001275
 1520 Fit      -0.001467
 1521 Fit       0.004489
 1522 Fit       0.009003
 1523 Fit      -0.004213
 1524 Fit       0.003164
 1525 Fit       0.007041
 1526 Fit       0.008726
 1527 Fit       0.008592
 1528 Fit       0.000693
 1529 Fit       0.004075
 1530 Fit       0.004733
 1531 Fit       0.005793
 1532 Fit       0.008044
 1533 Fit       0.008422
 1534 Fit       0.008594
 1535 Fit       0.012382
 1536 Fit       0.010593
 1537 Fit       0.007360
 1538 Fit       0.008165
 1539 Fit       0.007410
 1540 Fit       0.006300
 1541 Fit       0.006182
 1542 Fit       0.007148
 1543 Fit       0.009624
 1544 Fit       0.003032
 1545 Fit       0.001581
 1546 Fit       0.002137
 1547 Fit       0.005186
 1548 Fit       0.010794
 1549 Fit       0.012367
 1550 Fit       0.010635
 1551 Fit       0.011974
 1552 Fit       0.013356
 1553 Fit       0.010577
 1554 Fit       0.011364
 1555 Fit       0.012323
 1556 Fit       0.013205
 1557 Fit       0.013909
 1558 Fit       0.012095
 1559 Fit       0.012653
 1560 Fit       0.012619
 1561 Fit       0.011334
 1562 Fit      -0.004431
 1563 Fit       0.000154
 1564 Fit      -0.000588
 1565 Fit       0.002346
 1566 Fit       0.004592
 1567 Fit       0.005502
 1568 Fit       0.005800
 1569 Fit       0.006074
 1570 Fit       0.007024
 1571 Fit       0.007997
 1572 Fit       0.008114
 1573 Fit       0.008332
 1574 Fit       0.009270
 1575 Fit       0.010221
 1576 Fit       0.009899
 1577 Fit      -0.000692
 1578 Fit       0.004026
 1579 Fit       0.008191
 1580 Fit       0.011119
 1581 Fit       0.013467
 1582 Fit       0.006020
 1583 Fit       0.008054
 1584 Fit       0.007348
 1585 Fit       0.007486
 1586 Fit       0.001706
 1587 Fit       0.010929
 1588 Fit       0.008540
 1589 Fit       0.007020
 1590 Fit       0.005161
 1591 Fit       0.001159
 1592 Fit       0.009600
 1593 Fit       0.006214
 1594 Fit       0.006648
 1595 Fit      -0.003427
 1596 Fit      -0.004479
 1597 Fit       0.003620
 1598 Fit       0.004138
 1599 Fit       0.003132
 1600 Fit       0.000496
 1601 Fit       0.009107
 1602 Fit       0.008564
 1603 Fit       0.007913
 1604 Fit       0.006826
 1605 Fit       0.005279
 1606 Fit       0.011824
 1607 Fit       0.010541
 1608 Fit       0.009343
 1609 Fit       0.008197
 1610 Fit       0.013756
 1611 Fit       0.011827
 1612 Fit      -0.010949
 1613 Fit      -0.012000
 1614 Fit      -0.014344
 1615 Fit      -0.013164
 1616 Fit      -0.011095
 1617 Fit      -0.012575
 1618 Fit      -0.012373
 1619 Fit      -0.012222
 1620 Fit      -0.011996
 1621 Fit      -0.009635
 1622 Fit      -0.007255
 1623 Fit      -0.006779
 1624 Fit      -0.005450
 1625 Fit      -0.006739
 1626 Fit      -0.006784
 1627 Fit      -0.001412
 1628 Fit       0.001396
 1629 Fit      -0.001412
 1630 Fit       0.004634
 1631 Fit       0.004175
 1632 Fit       0.004001
 1633 Fit       0.006417
 1634 Fit       0.006624
 1635 Fit       0.003926
 1636 Fit      -0.002956
 1637 Fit      -0.005107
 1638 Fit      -0.003628
 1639 Fit      -0.003104
 1640 Fit      -0.005672
 1641 Fit      -0.003167
 1642 Fit      -0.002379
 1643 Fit      -0.005788
 1644 Fit      -0.001731
 1645 Fit      -0.001369
 1646 Fit      -0.004942
 1647 Fit      -0.001318
 1648 Fit       0.000129
 1649 Fit      -0.001474
 1650 Fit      -0.001192
 1651 Fit      -0.000394
 1652 Fit      -0.000451
 1653 Fit       0.000887
 1654 Fit      -0.001148
 1655 Fit      -0.002006
 1656 Fit       0.001146
 1657 Fit       0.001196
 1658 Fit      -0.002176
 1659 Fit       0.001217
 1660 Fit       0.001507
 1661 Fit      -0.001714
 1662 Fit       0.003095
 1663 Fit       0.003752
 1664 Fit       0.005868
 1665 Fit      -0.008888
 1666 Fit      -0.011435
 1667 Fit      -0.009486
 1668 Fit      -0.005861
 1669 Fit      -0.004620
 1670 Fit      -0.008113
 1671 Fit      -0.011511
 1672 Fit      -0.011592
 1673 Fit      -0.011098
 1674 Fit      -0.010260
 1675 Fit      -0.007747
 1676 Fit      -0.003367
 1677 Fit      -0.010414
 1678 Fit      -0.012716
 1679 Fit      -0.012486
 1680 Fit      -0.009093
 1681 Fit      -0.009597
 1682 Fit      -0.010600
 1683 Fit      -0.010644
 1684 Fit      -0.008594
 1685 Fit      -0.004215
 1686 Fit      -0.008716
 1687 Fit      -0.011486
 1688 Fit      -0.011251
 1689 Fit      -0.009860
 1690 Fit      -0.004015
 1691 Fit      -0.005550
 1692 Fit      -0.008018
 1693 Fit      -0.010048
 1694 Fit      -0.010412
 1695 Fit      -0.008469
 1696 Fit      -0.004367
 1697 Fit      -0.007567
 1698 Fit      -0.007881
 1699 Fit      -0.006187
 1700 Fit      -0.004331
 1701 Fit       0.003705
 1702 Fit       0.000932
 1703 Fit      -0.002730
 1704 Fit      -0.006053
 1705 Fit      -0.008074
 1706 Fit      -0.008119
 1707 Fit      -0.006001
 1708 Fit      -0.002302
 1709 Fit      -0.000531
 1710 Fit      -0.002351
 1711 Fit      -0.001438
 1712 Fit       0.009265
 1713 Fit       0.004182
 1714 Fit       0.000361
 1715 Fit      -0.002120
 1716 Fit      -0.002459
 1717 Fit      -0.000188
 1718 Fit       0.004849
 1719 Fit       0.003202
 1720 Fit       0.011003
 1721 Fit       0.011098
 1722 Fit       0.005661
 1723 Fit       0.008781
 1724 Fit       0.007454
 1725 Fit       0.002261
 1726 Fit      -0.000351
 1727 Fit       0.005857
 1728 Fit       0.003306
 1729 Fit       0.002548
 1730 Fit       0.004379
 1731 Fit       0.001796
 1732 Fit       0.001071
 1733 Fit       0.009101
 1734 Fit       0.007315
 1735 Fit       0.007286
 1736 Fit       0.013202
 1737 Fit       0.001895
 1738 Fit      -0.001782
 1739 Fit      -0.004949
 1740 Fit      -0.005129
 1741 Fit      -0.001450
 1742 Fit      -0.002688
 1743 Fit      -0.005810
 1744 Fit      -0.008418
 1745 Fit      -0.008862
 1746 Fit      -0.006493
 1747 Fit      -0.001455
 1748 Fit      -0.005755
 1749 Fit      -0.008831
 1750 Fit      -0.009869
 1751 Fit      -0.008111
 1752 Fit      -0.003351
 1753 Fit      -0.006674
 1754 Fit      -0.009087
 1755 Fit      -0.009020
 1756 Fit      -0.006120
 1757 Fit      -0.006384
 1758 Fit      -0.008588
 1759 Fit      -0.008535
 1760 Fit      -0.006490
 1761 Fit      -0.007738
 1762 Fit      -0.009253
 1763 Fit      -0.009955
 1764 Fit      -0.012354
 1765 Fit       0.004815
 1766 Fit       0.007743
 1767 Fit       0.009557
 1768 Fit       0.002378
 1769 Fit       0.005742
 1770 Fit       0.007663
 1771 Fit       0.006005
 1772 Fit       0.001970
 1773 Fit       0.004468
 1774 Fit       0.005518
 1775 Fit       0.000743
 1776 Fit      -0.001348
 1777 Fit       0.001686
 1778 Fit       0.002391
 1779 Fit      -0.005901
 1780 Fit      -0.002611
 1781 Fit       0.011734
 1782 Fit       0.012956
 1783 Fit       0.009929
 1784 Fit       0.010711
 1785 Fit       0.011582
 1786 Fit       0.005695
 1787 Fit       0.008075
 1788 Fit       0.009692
 1789 Fit       0.011757
 1790 Fit       0.011360
 1791 Fit       0.007304
 1792 Fit       0.007081
 1793 Fit       0.006950
 1794 Fit       0.008660
 1795 Fit       0.011023
 1796 Fit       0.005528
 1797 Fit       0.010093
 1798 Fit       0.008453
 1799 Fit       0.008964
 1800 Fit       0.007006
 1801 Fit       0.005669
 1802 Fit       0.011299
 1803 Fit       0.007476
 1804 Fit       0.005222
 1805 Fit       0.002503
 1806 Fit       0.009387
 1807 Fit       0.004883
 1808 Fit       0.001500
 1809 Fit       0.007212
 1810 Fit      -0.003121
 1811 Fit      -0.003041
 1812 Fit       0.001828
 1813 Fit      -0.003712
 1814 Fit      -0.008064
 1815 Fit      -0.009070
 1816 Fit      -0.006196
 1817 Fit      -0.004337
 1818 Fit      -0.008322
 1819 Fit      -0.011386
 1820 Fit      -0.012146
 1821 Fit      -0.009776
 1822 Fit      -0.004278
 1823 Fit       0.001590
 1824 Fit      -0.000857
 1825 Fit      -0.008748
 1826 Fit      -0.011469
 1827 Fit      -0.013016
 1828 Fit      -0.011851
 1829 Fit      -0.004337
 1830 Fit      -0.004980
 1831 Fit      -0.006349
 1832 Fit      -0.011303
 1833 Fit      -0.012442
 1834 Fit      -0.011963
 1835 Fit      -0.008115
 1836 Fit      -0.010338
 1837 Fit      -0.013530
 1838 Fit      -0.012745
 1839 Fit      -0.011137
 1840 Fit      -0.010187
 1841 Fit      -0.010244
 1842 Fit      -0.012018
 1843 Fit      -0.011381
 1844 Fit      -0.008656
 1845 Fit      -0.010941
 1846 Fit      -0.013230
 1847 Fit      -0.012927
 1848 Fit      -0.012253
 1849 Fit      -0.010893
 1850 Fit      -0.007990
 1851 Fit      -0.008724
 1852 Fit      -0.011611
 1853 Fit      -0.007745
 1854 Fit       0.009954
 1855 Fit       0.010290
 1856 Fit       0.012684
 1857 Fit       0.006531
 1858 Fit       0.008243
 1859 Fit       0.009825
 1860 Fit       0.011868
 1861 Fit       0.001108
 1862 Fit       0.005167
 1863 Fit       0.007487
 1864 Fit       0.009425
 1865 Fit       0.011724
 1866 Fit       0.005634
 1867 Fit       0.005200
 1868 Fit       0.004387
 1869 Fit       0.003096
 1870 Fit      -0.004166
 1871 Fit       0.002311
 1872 Fit       0.003980
 1873 Fit       0.006012
 1874 Fit       0.000621
 1875 Fit       0.002261
 1876 Fit       0.001117
 1877 Fit      -0.000589
 1878 Fit       0.002340
 1879 Fit       0.003710
 1880 Fit      -0.004045
 1881 Fit       0.000234
 1882 Fit       0.002348
 1883 Fit       0.003272
 1884 Fit      -0.005205
 1885 Fit      -0.001202
 1886 Fit       0.001371
 1887 Fit       0.002485
 1888 Fit      -0.001940
 1889 Fit       0.000519
 1890 Fit       0.002792
 1891 Fit      -0.002985
 1892 Fit      -0.005233
 1893 Fit       0.005036
 1894 Fit       0.002885
 1895 Fit      -0.000526
 1896 Fit      -0.004242
 1897 Fit      -0.006236
 1898 Fit      -0.001063
 1899 Fit       0.000517
 1900 Fit       0.002421
 1901 Fit       0.003388
 1902 Fit       0.002069
 1903 Fit      -0.000404
 1904 Fit       0.001536
 1905 Fit       0.007774
 1906 Fit       0.009631
 1907 Fit       0.006572
 1908 Fit       0.008402
 1909 Fit       0.005719
 1910 Fit       0.007789
 1911 Fit       0.004667
 1912 Fit       0.007294
 Job cpu time:       0 days  0 hours 15 minutes 46.1 seconds.
 Normal termination of Gaussian 16 at Sun Jul  9 07:27:36 2023.
