 Copyright (c) 1988-2019, Gaussian, Inc.  All Rights Reserved.
  
 This is part of the Gaussian(R) 16 program.  It is based on
 the Gaussian(R) 09 system (copyright 2009, Gaussian, Inc.),
 the Gaussian(R) 03 system (copyright 2003, Gaussian, Inc.),
 the Gaussian(R) 98 system (copyright 1998, Gaussian, Inc.),
 the Gaussian(R) 94 system (copyright 1995, Gaussian, Inc.),
 the Gaussian 92(TM) system (copyright 1992, Gaussian, Inc.),
 the Gaussian 90(TM) system (copyright 1990, Gaussian, Inc.),
 the Gaussian 88(TM) system (copyright 1988, Gaussian, Inc.),
 the Gaussian 86(TM) system (copyright 1986, Carnegie Mellon
 University), and the Gaussian 82(TM) system (copyright 1983,
 Carnegie Mellon University). Gaussian is a federally registered
 trademark of Gaussian, Inc.
 Cite this work as:
 Gaussian 16, Revision C.01,
 M. J. Frisch, G. W. Trucks, H. B. Schlegel, G. E. Scuseria, 
 M. A. Robb, J. R. Cheeseman, G. Scalmani, V. Barone, 
 G. A. Petersson, H. Nakatsuji, X. Li, M. Caricato, A. V. Marenich, 
 J. Bloino, B. G. Janesko, R. Gomperts, B. Mennucci, H. P. Hratchian, 
 J. V. Ortiz, A. F. Izmaylov, J. L. Sonnenberg, D. Williams-Young, 
 F. Ding, F. Lipparini, F. Egidi, J. Goings, B. Peng, A. Petrone, 
 T. Henderson, D. Ranasinghe, V. G. Zakrzewski, J. Gao, N. Rega, 
 G. Zheng, W. Liang, M. Hada, M. Ehara, K. Toyota, R. Fukuda, 
 J. Hasegawa, M. Ishida, T. Nakajima, Y. Honda, O. Kitao, H. Nakai, 
 T. Vreven, K. Throssell, J. A. Montgomery, Jr., J. E. Peralta, 
 F. Ogliaro, M. J. Bearpark, J. J. Heyd, E. N. Brothers, K. N. Kudin, 
 V. N. Staroverov, T. A. Keith, R. Kobayashi, J. Normand, 
 K. Raghavachari, A. P. Rendell, J. C. Burant, S. S. Iyengar, 
 J. Tomasi, M. Cossi, J. M. Millam, M. Klene, C. Adamo, R. Cammi, 
 J. W. Ochterski, R. L. Martin, K. Morokuma, O. Farkas, 
 J. B. Foresman, and D. J. Fox, Gaussian, Inc., Wallingford CT, 2019.
 
 ******************************************
 Gaussian 16:  EM64L-G16RevC.01  3-Jul-2019
                 9-Jul-2023 
 ******************************************
 ----------------------------------------------------------------------
 #P B3LYP/6-31G(d) Integral=Ultrafine SCF(Conver=8,XQC,MaxConventionalC
 ycles=64,MaxCycle=128) NoSymm Test Pop=mk IOp(6/33=2) GFInput GFPrint
 ----------------------------------------------------------------------
 1/38=1,172=1/1;
 2/12=2,15=1,17=6,18=5,40=1/2;
 3/5=1,6=6,7=1,11=2,24=110,25=1,30=1,74=-5,75=-5/1,2,3;
 4//1;
 5/5=2,6=8,7=128,8=3,13=1,38=5,85=64/2,8;
 6/7=2,8=2,9=2,10=2,15=8,20=1,28=1,33=2/1,2;
 99/5=1,9=1/99;
 -------------------------------------------------
 MEP step - Input generated by PyRED DVE-DMDS-OPLS
 -------------------------------------------------
 Symbolic Z-matrix:
 Charge =  0 Multiplicity = 1
 C                    -1.31166  -0.79981  -7.74031 
 H                    -0.32555  -0.53643  -8.13936 
 H                    -1.64312  -1.71564  -8.24402 
 H                    -2.0072    0.00705  -7.9923 
 C                    -1.26987  -1.00839  -6.22846 
 H                    -2.26486  -1.27631  -5.85706 
 H                    -0.59292  -1.83734  -5.97043 
 O                    -0.90433   0.17935  -5.52818 
 C                     0.49532   0.40222  -5.40929 
 H                     0.63131   1.48671  -5.33275 
 H                     1.02899   0.06006  -6.31025 
 C                     1.12042  -0.25635  -4.17865 
 H                     0.86204  -1.32759  -4.14321 
 H                     2.21169  -0.17896  -4.26177 
 O                     0.78348   0.37561  -2.95418 
 C                    -0.50737   0.05627  -2.43464 
 H                    -0.628    -1.03689  -2.36154 
 H                    -1.2931    0.43955  -3.09802 
 C                    -0.6626    0.68354  -1.05704 
 H                    -1.72229   0.65007  -0.7826 
 H                    -0.36461   1.73977  -1.09824 
 O                     0.        0.        0. 
 C                     1.41878   0.        0. 
 H                     1.81078  -0.55671  -0.86221 
 H                     1.69044  -0.55429   0.90467 
 C                     2.1054    1.37006   0. 
 H                     1.97418   1.85972  -0.9695 
 H                     3.18142   1.20412   0.13266 
 S                     1.52689   2.61502   1.22393 
 C                     1.61641   1.68583   2.81415 
 H                     2.40843   0.9338    2.74575 
 H                     1.9343    2.41479   3.56604 
 C                     0.28274   1.04456   3.20652 
 H                    -0.05782   0.35756   2.42798 
 H                    -0.49363   1.80916   3.31026 
 S                     0.38028   0.04828   4.75274 
 C                     0.36264   1.35732   6.04992 
 H                     1.05369   2.15728   5.76638 
 H                     0.77278   0.88531   6.94727 
 C                    -1.03722   1.90223   6.33831 
 H                    -1.50123   2.31448   5.43696 
 H                    -1.68697   1.09589   6.69036 
 S                    -1.06635   3.17224   7.67116 
 C                    -0.48987   4.67429   6.77481 
 H                    -0.22757   5.37745   7.57236 
 H                     0.43964   4.44144   6.2436 
 C                    -1.52395   5.29284   5.83488 
 H                    -1.80746   4.60329   5.03242 
 H                    -2.43294   5.56646   6.37934 
 H                    -1.11643   6.1966    5.36433 
 
 ITRead=  0  0  0  0  0  0  0  0  0  0  0  0  0  0  0  0  0  0  0  0
 ITRead=  0  0  0  0  0  0  0  0  0  0  0  0  0  0  0  0  0  0  0  0
 ITRead=  0  0  0  0  0  0  0  0  0  0
 MicOpt= -1 -1 -1 -1 -1 -1 -1 -1 -1 -1 -1 -1 -1 -1 -1 -1 -1 -1 -1 -1
 MicOpt= -1 -1 -1 -1 -1 -1 -1 -1 -1 -1 -1 -1 -1 -1 -1 -1 -1 -1 -1 -1
 MicOpt= -1 -1 -1 -1 -1 -1 -1 -1 -1 -1
 NAtoms=     50 NQM=       50 NQMF=       0 NMMI=      0 NMMIF=      0
                NMic=       0 NMicF=      0.
                          Input orientation:                          
 ---------------------------------------------------------------------
 Center     Atomic      Atomic             Coordinates (Angstroms)
 Number     Number       Type             X           Y           Z
 ---------------------------------------------------------------------
      1          6           0       -1.311661   -0.799814   -7.740306
      2          1           0       -0.325551   -0.536429   -8.139357
      3          1           0       -1.643116   -1.715640   -8.244017
      4          1           0       -2.007198    0.007048   -7.992299
      5          6           0       -1.269865   -1.008391   -6.228464
      6          1           0       -2.264860   -1.276314   -5.857061
      7          1           0       -0.592917   -1.837344   -5.970434
      8          8           0       -0.904325    0.179346   -5.528183
      9          6           0        0.495320    0.402223   -5.409293
     10          1           0        0.631312    1.486708   -5.332745
     11          1           0        1.028990    0.060059   -6.310248
     12          6           0        1.120424   -0.256352   -4.178645
     13          1           0        0.862036   -1.327587   -4.143206
     14          1           0        2.211688   -0.178964   -4.261768
     15          8           0        0.783478    0.375608   -2.954177
     16          6           0       -0.507370    0.056270   -2.434638
     17          1           0       -0.628001   -1.036893   -2.361541
     18          1           0       -1.293103    0.439548   -3.098017
     19          6           0       -0.662599    0.683536   -1.057037
     20          1           0       -1.722285    0.650066   -0.782597
     21          1           0       -0.364612    1.739772   -1.098237
     22          8           0        0.000000    0.000000    0.000000
     23          6           0        1.418782    0.000000    0.000000
     24          1           0        1.810780   -0.556710   -0.862206
     25          1           0        1.690439   -0.554288    0.904666
     26          6           0        2.105404    1.370064    0.000000
     27          1           0        1.974182    1.859721   -0.969502
     28          1           0        3.181425    1.204124    0.132659
     29         16           0        1.526891    2.615017    1.223934
     30          6           0        1.616406    1.685828    2.814154
     31          1           0        2.408430    0.933797    2.745749
     32          1           0        1.934295    2.414790    3.566041
     33          6           0        0.282742    1.044559    3.206517
     34          1           0       -0.057821    0.357555    2.427982
     35          1           0       -0.493633    1.809162    3.310261
     36         16           0        0.380281    0.048280    4.752744
     37          6           0        0.362641    1.357323    6.049917
     38          1           0        1.053692    2.157280    5.766382
     39          1           0        0.772779    0.885309    6.947265
     40          6           0       -1.037222    1.902227    6.338314
     41          1           0       -1.501233    2.314478    5.436964
     42          1           0       -1.686970    1.095888    6.690364
     43         16           0       -1.066353    3.172238    7.671162
     44          6           0       -0.489874    4.674285    6.774810
     45          1           0       -0.227571    5.377454    7.572359
     46          1           0        0.439636    4.441440    6.243604
     47          6           0       -1.523950    5.292843    5.834878
     48          1           0       -1.807460    4.603285    5.032422
     49          1           0       -2.432942    5.566463    6.379343
     50          1           0       -1.116431    6.196603    5.364328
 ---------------------------------------------------------------------
 Stoichiometry    C14H30O3S3
 Framework group  C1[X(C14H30O3S3)]
 Standard basis: 6-31G(d) (6D, 7F)
   372 basis functions,   752 primitive gaussians,   372 cartesian basis functions
    93 alpha electrons       93 beta electrons
 Requested convergence on RMS density matrix=1.00D-08 within  64 cycles.
 Requested convergence on MAX density matrix=1.00D-06.
 Requested convergence on             energy=1.00D-06.
 SCF Done:  E(RB3LYP) =  -1971.75370696     A.U. after   13 cycles
            NFock= 13  Conv=0.41D-08     -V/T= 2.0058
 Mulliken charges:
     1  C   -0.452268
     2  H    0.149640
     3  H    0.144486
     4  H    0.161922
     5  C   -0.030725
     6  H    0.148710
     7  H    0.122914
     8  O   -0.464979
     9  C   -0.043899
    10  H    0.157209
    11  H    0.121853
    12  C   -0.034036
    13  H    0.126590
    14  H    0.141242
    15  O   -0.479674
    16  C   -0.043202
    17  H    0.126951
    18  H    0.157076
    19  C   -0.046628
    20  H    0.148786
    21  H    0.150716
    22  O   -0.469284
    23  C   -0.015435
    24  H    0.150340
    25  H    0.144914
    26  C   -0.451768
    27  H    0.194327
    28  H    0.168276
    29  S    0.078066
    30  C   -0.413837
    31  H    0.180774
    32  H    0.174221
    33  C   -0.422552
    34  H    0.218092
    35  H    0.173851
    36  S    0.073164
    37  C   -0.411005
    38  H    0.172833
    39  H    0.190041
    40  C   -0.411596
    41  H    0.177415
    42  H    0.190560
    43  S    0.078970
    44  C   -0.410433
    45  H    0.177624
    46  H    0.166604
    47  C   -0.434000
    48  H    0.152283
    49  H    0.164717
    50  H    0.150155
 Sum of Mulliken charges =  -0.00000
 Dipole moment (field-independent basis, Debye):
    X=              1.0857    Y=             -0.7984    Z=             -4.9326  Tot=              5.1134
 Quadrupole moment (field-independent basis, Debye-Ang):
   XX=           -145.0280   YY=           -145.2072   ZZ=           -149.9616
   XY=              0.2701   XZ=              2.2528   YZ=             10.7256
 Traceless Quadrupole moment (field-independent basis, Debye-Ang):
   XX=              1.7043   YY=              1.5251   ZZ=             -3.2294
   XY=              0.2701   XZ=              2.2528   YZ=             10.7256
 Octapole moment (field-independent basis, Debye-Ang**2):
  XXX=            -34.3257  YYY=           -536.2204  ZZZ=           -785.2190  XYY=            -22.1946
  XXY=           -200.7333  XXZ=           -179.4401  XZZ=             43.6175  YZZ=           -233.1570
  YYZ=           -128.3451  XYZ=              7.9285
 Hexadecapole moment (field-independent basis, Debye-Ang**3):
 XXXX=          -1346.8507 YYYY=          -3977.7950 ZZZZ=         -22461.1639 XXXY=             71.9262
 XXXZ=            130.1098 YYYX=             22.8940 YYYZ=          -2818.4846 ZZZX=            438.0551
 ZZZY=          -3280.5896 XXYY=           -975.6026 XXZZ=          -3814.1596 YYZZ=          -4011.1671
 XXYZ=          -1081.6958 YYXZ=             67.8046 ZZXY=            253.2552
 Merz-Kollman atomic radii used.
 Atom Element Radius
    1     6    1.50
    2     1    1.20
    3     1    1.20
    4     1    1.20
    5     6    1.50
    6     1    1.20
    7     1    1.20
    8     8    1.40
    9     6    1.50
   10     1    1.20
   11     1    1.20
   12     6    1.50
   13     1    1.20
   14     1    1.20
   15     8    1.40
   16     6    1.50
   17     1    1.20
   18     1    1.20
   19     6    1.50
   20     1    1.20
   21     1    1.20
   22     8    1.40
   23     6    1.50
   24     1    1.20
   25     1    1.20
   26     6    1.50
   27     1    1.20
   28     1    1.20
   29    16    1.75
   30     6    1.50
   31     1    1.20
   32     1    1.20
   33     6    1.50
   34     1    1.20
   35     1    1.20
   36    16    1.75
   37     6    1.50
   38     1    1.20
   39     1    1.20
   40     6    1.50
   41     1    1.20
   42     1    1.20
   43    16    1.75
   44     6    1.50
   45     1    1.20
   46     1    1.20
   47     6    1.50
   48     1    1.20
   49     1    1.20
   50     1    1.20
 Generate VDW surfaces: Layer= 4 Dens= 1 Start= 1.400 Inc= 0.200
            Electrostatic Properties Using The SCF Density.


       Atomic Center    1 is at  -1.311661 -0.799814 -7.740306
       Atomic Center    2 is at  -0.325551 -0.536429 -8.139357
       Atomic Center    3 is at  -1.643116 -1.715640 -8.244017
       Atomic Center    4 is at  -2.007198  0.007048 -7.992299
       Atomic Center    5 is at  -1.269865 -1.008391 -6.228464
       Atomic Center    6 is at  -2.264860 -1.276314 -5.857061
       Atomic Center    7 is at  -0.592917 -1.837344 -5.970434
       Atomic Center    8 is at  -0.904325  0.179346 -5.528183
       Atomic Center    9 is at   0.495320  0.402223 -5.409293
       Atomic Center   10 is at   0.631312  1.486708 -5.332745
       Atomic Center   11 is at   1.028990  0.060059 -6.310248
       Atomic Center   12 is at   1.120424 -0.256352 -4.178645
       Atomic Center   13 is at   0.862036 -1.327587 -4.143206
       Atomic Center   14 is at   2.211688 -0.178964 -4.261768
       Atomic Center   15 is at   0.783478  0.375608 -2.954177
       Atomic Center   16 is at  -0.507370  0.056270 -2.434638
       Atomic Center   17 is at  -0.628001 -1.036893 -2.361541
       Atomic Center   18 is at  -1.293103  0.439548 -3.098017
       Atomic Center   19 is at  -0.662599  0.683536 -1.057037
       Atomic Center   20 is at  -1.722285  0.650066 -0.782597
       Atomic Center   21 is at  -0.364612  1.739772 -1.098237
       Atomic Center   22 is at   0.000000  0.000000  0.000000
       Atomic Center   23 is at   1.418782  0.000000  0.000000
       Atomic Center   24 is at   1.810780 -0.556710 -0.862206
       Atomic Center   25 is at   1.690439 -0.554288  0.904666
       Atomic Center   26 is at   2.105404  1.370064  0.000000
       Atomic Center   27 is at   1.974182  1.859721 -0.969502
       Atomic Center   28 is at   3.181425  1.204124  0.132659
       Atomic Center   29 is at   1.526891  2.615017  1.223934
       Atomic Center   30 is at   1.616406  1.685828  2.814154
       Atomic Center   31 is at   2.408430  0.933797  2.745749
       Atomic Center   32 is at   1.934295  2.414790  3.566041
       Atomic Center   33 is at   0.282742  1.044559  3.206517
       Atomic Center   34 is at  -0.057821  0.357555  2.427982
       Atomic Center   35 is at  -0.493633  1.809162  3.310261
       Atomic Center   36 is at   0.380281  0.048280  4.752744
       Atomic Center   37 is at   0.362641  1.357323  6.049917
       Atomic Center   38 is at   1.053692  2.157280  5.766382
       Atomic Center   39 is at   0.772779  0.885309  6.947265
       Atomic Center   40 is at  -1.037222  1.902227  6.338314
       Atomic Center   41 is at  -1.501233  2.314478  5.436964
       Atomic Center   42 is at  -1.686970  1.095888  6.690364
       Atomic Center   43 is at  -1.066353  3.172238  7.671162
       Atomic Center   44 is at  -0.489874  4.674285  6.774810
       Atomic Center   45 is at  -0.227571  5.377454  7.572359
       Atomic Center   46 is at   0.439636  4.441440  6.243604
       Atomic Center   47 is at  -1.523950  5.292843  5.834878
       Atomic Center   48 is at  -1.807460  4.603285  5.032422
       Atomic Center   49 is at  -2.432942  5.566463  6.379343
       Atomic Center   50 is at  -1.116431  6.196603  5.364328
      ESP Fit Center   51 is at  -3.350639 -1.302377 -7.740306
      ESP Fit Center   52 is at  -0.118725 -2.528080 -7.740306
      ESP Fit Center   53 is at  -2.361661 -0.799814 -9.558959
      ESP Fit Center   54 is at  -1.311661 -0.799814 -9.840306
      ESP Fit Center   55 is at  -0.048100  1.037072 -7.620208
      ESP Fit Center   56 is at   0.898416 -1.563459 -7.620208
      ESP Fit Center   57 is at   1.272224 -0.536429 -8.658506
      ESP Fit Center   58 is at   0.898416  0.490601 -8.658506
      ESP Fit Center   59 is at  -0.048100  1.037072 -8.658506
      ESP Fit Center   60 is at   0.898416 -1.563459 -8.658506
      ESP Fit Center   61 is at   0.661928 -0.536429 -9.498506
      ESP Fit Center   62 is at  -0.020403  0.402720 -9.498506
      ESP Fit Center   63 is at  -0.020403 -1.475578 -9.498506
      ESP Fit Center   64 is at  -0.325551 -0.536429 -9.819357
      ESP Fit Center   65 is at  -3.144533 -2.262111 -7.724868
      ESP Fit Center   66 is at  -2.442003 -3.099354 -7.724868
      ESP Fit Center   67 is at  -1.365665 -3.289141 -7.724868
      ESP Fit Center   68 is at  -0.419149 -2.742670 -7.724868
      ESP Fit Center   69 is at  -3.144533 -1.169169 -8.763166
      ESP Fit Center   70 is at  -3.144533 -2.262111 -8.763166
      ESP Fit Center   71 is at  -2.442003 -3.099354 -8.763166
      ESP Fit Center   72 is at  -1.365665 -3.289141 -8.763166
      ESP Fit Center   73 is at  -0.419149 -2.742670 -8.763166
      ESP Fit Center   74 is at  -0.655637 -1.715640 -9.603166
      ESP Fit Center   75 is at  -2.442003 -1.135214 -9.603166
      ESP Fit Center   76 is at  -2.442003 -2.296066 -9.603166
      ESP Fit Center   77 is at  -1.337968 -2.654789 -9.603166
      ESP Fit Center   78 is at  -1.643116 -1.715640 -9.924017
      ESP Fit Center   79 is at  -2.806085  0.587474 -6.633150
      ESP Fit Center   80 is at  -1.729747  1.580549 -7.473150
      ESP Fit Center   81 is at  -2.806085  1.390762 -7.473150
      ESP Fit Center   82 is at  -3.508615  0.553519 -7.473150
      ESP Fit Center   83 is at  -3.508615 -0.539423 -7.473150
      ESP Fit Center   84 is at  -1.729747  1.580549 -8.511448
      ESP Fit Center   85 is at  -2.806085  1.390762 -8.511448
      ESP Fit Center   86 is at  -3.508615  0.553519 -8.511448
      ESP Fit Center   87 is at  -3.508615 -0.539423 -8.511448
      ESP Fit Center   88 is at  -1.702050  0.946197 -9.351448
      ESP Fit Center   89 is at  -2.806085  0.587474 -9.351448
      ESP Fit Center   90 is at  -2.806085 -0.573378 -9.351448
      ESP Fit Center   91 is at  -2.007198  0.007048 -9.672299
      ESP Fit Center   92 is at  -2.841738  0.384167 -6.228464
      ESP Fit Center   93 is at  -2.014535 -2.971925 -6.228464
      ESP Fit Center   94 is at  -2.264860 -1.276314 -4.177061
      ESP Fit Center   95 is at  -3.063747 -0.695888 -4.497912
      ESP Fit Center   96 is at  -3.063747 -1.856740 -4.497912
      ESP Fit Center   97 is at  -1.959712 -2.215463 -4.497912
      ESP Fit Center   98 is at  -3.063747  0.107400 -5.337912
      ESP Fit Center   99 is at  -3.766277 -0.729843 -5.337912
      ESP Fit Center  100 is at  -3.766277 -1.822785 -5.337912
      ESP Fit Center  101 is at  -3.063747 -2.660028 -5.337912
      ESP Fit Center  102 is at  -1.987409 -2.849815 -5.337912
      ESP Fit Center  103 is at  -3.063747  0.107400 -6.376210
      ESP Fit Center  104 is at  -3.766277 -0.729843 -6.376210
      ESP Fit Center  105 is at  -3.766277 -1.822785 -6.376210
      ESP Fit Center  106 is at  -3.063747 -2.660028 -6.376210
      ESP Fit Center  107 is at  -3.063747 -1.856740 -7.216210
      ESP Fit Center  108 is at  -1.391804 -2.417770 -4.611285
      ESP Fit Center  109 is at  -0.287769 -2.776493 -4.611285
      ESP Fit Center  110 is at  -1.391804 -3.221058 -5.451285
      ESP Fit Center  111 is at  -0.315466 -3.410845 -5.451285
      ESP Fit Center  112 is at   0.631050 -2.864374 -5.451285
      ESP Fit Center  113 is at   1.004858 -1.837344 -6.489583
      ESP Fit Center  114 is at  -1.391804 -3.221058 -6.489583
      ESP Fit Center  115 is at  -0.315466 -3.410845 -6.489583
      ESP Fit Center  116 is at   0.631050 -2.864374 -6.489583
      ESP Fit Center  117 is at  -0.287769 -2.776493 -7.329583
      ESP Fit Center  118 is at  -1.428853  1.793679 -4.548183
      ESP Fit Center  119 is at  -2.277558  1.177058 -4.548183
      ESP Fit Center  120 is at  -2.601735  0.179346 -4.548183
      ESP Fit Center  121 is at  -1.884325  1.876756 -5.528183
      ESP Fit Center  122 is at  -2.601735  1.159346 -5.528183
      ESP Fit Center  123 is at  -1.428853  1.793679 -6.508183
      ESP Fit Center  124 is at  -2.277558  1.177058 -6.508183
      ESP Fit Center  125 is at  -0.414325  1.028051 -7.225593
      ESP Fit Center  126 is at   2.354778  1.378142 -5.409293
      ESP Fit Center  127 is at  -0.029680  1.311550 -7.227946
      ESP Fit Center  128 is at   0.936460  2.425857 -3.973596
      ESP Fit Center  129 is at  -0.167575  2.067134 -3.973596
      ESP Fit Center  130 is at   2.229087  1.486708 -4.813596
      ESP Fit Center  131 is at   1.855279  2.513738 -4.813596
      ESP Fit Center  132 is at   0.908763  3.060209 -4.813596
      ESP Fit Center  133 is at  -0.167575  2.870422 -4.813596
      ESP Fit Center  134 is at  -0.870105  2.033179 -4.813596
      ESP Fit Center  135 is at   1.855279  2.513738 -5.851894
      ESP Fit Center  136 is at   0.908763  3.060209 -5.851894
      ESP Fit Center  137 is at  -0.167575  2.870422 -5.851894
      ESP Fit Center  138 is at   0.936460  2.425857 -6.691894
      ESP Fit Center  139 is at  -0.167575  2.067134 -6.691894
      ESP Fit Center  140 is at   2.626765  0.060059 -6.829397
      ESP Fit Center  141 is at   2.252957  1.087089 -6.829397
      ESP Fit Center  142 is at   1.306441 -1.513442 -6.829397
      ESP Fit Center  143 is at   2.252957 -0.966971 -6.829397
      ESP Fit Center  144 is at   2.016469  0.060059 -7.669397
      ESP Fit Center  145 is at   1.334138  0.999208 -7.669397
      ESP Fit Center  146 is at   1.334138 -0.879090 -7.669397
      ESP Fit Center  147 is at   1.167184 -2.266736 -2.784057
      ESP Fit Center  148 is at   0.063149 -2.711301 -3.624057
      ESP Fit Center  149 is at   1.139487 -2.901088 -3.624057
      ESP Fit Center  150 is at   2.086003 -2.354617 -3.624057
      ESP Fit Center  151 is at   0.063149 -2.711301 -4.662355
      ESP Fit Center  152 is at   1.139487 -2.901088 -4.662355
      ESP Fit Center  153 is at   2.086003 -2.354617 -4.662355
      ESP Fit Center  154 is at   1.167184 -2.266736 -5.502355
      ESP Fit Center  155 is at   3.199167 -0.178964 -2.902619
      ESP Fit Center  156 is at   3.809463 -0.178964 -3.742619
      ESP Fit Center  157 is at   3.435655  0.848066 -3.742619
      ESP Fit Center  158 is at   2.489139  1.394537 -3.742619
      ESP Fit Center  159 is at   3.435655 -1.205994 -3.742619
      ESP Fit Center  160 is at   3.809463 -0.178964 -4.780917
      ESP Fit Center  161 is at   3.435655  0.848066 -4.780917
      ESP Fit Center  162 is at   2.489139  1.394537 -4.780917
      ESP Fit Center  163 is at   2.489139 -1.752465 -4.780917
      ESP Fit Center  164 is at   3.435655 -1.205994 -4.780917
      ESP Fit Center  165 is at   3.199167 -0.178964 -5.620917
      ESP Fit Center  166 is at   2.516836 -1.118113 -5.620917
      ESP Fit Center  167 is at   2.480888  1.355608 -2.954177
      ESP Fit Center  168 is at   1.763478  2.073018 -2.954177
      ESP Fit Center  169 is at   0.783478  2.335608 -2.954177
      ESP Fit Center  170 is at  -0.196522  2.073018 -2.954177
      ESP Fit Center  171 is at  -1.426888 -1.617319 -1.002392
      ESP Fit Center  172 is at  -0.322853 -1.976042 -1.002392
      ESP Fit Center  173 is at  -2.129418 -1.583364 -1.842392
      ESP Fit Center  174 is at  -1.426888 -2.420607 -1.842392
      ESP Fit Center  175 is at  -0.350550 -2.610394 -1.842392
      ESP Fit Center  176 is at   0.595966 -2.063923 -1.842392
      ESP Fit Center  177 is at  -2.129418 -1.583364 -2.880690
      ESP Fit Center  178 is at  -1.426888 -2.420607 -2.880690
      ESP Fit Center  179 is at  -0.350550 -2.610394 -2.880690
      ESP Fit Center  180 is at  -1.426888 -1.617319 -3.720690
      ESP Fit Center  181 is at  -2.091990  1.823262 -2.578868
      ESP Fit Center  182 is at  -2.794520  0.986019 -2.578868
      ESP Fit Center  183 is at  -2.794520 -0.106923 -2.578868
      ESP Fit Center  184 is at  -1.015652  2.013049 -3.617166
      ESP Fit Center  185 is at  -2.091990  1.823262 -3.617166
      ESP Fit Center  186 is at  -2.794520  0.986019 -3.617166
      ESP Fit Center  187 is at  -2.794520 -0.106923 -3.617166
      ESP Fit Center  188 is at  -2.091990 -0.944166 -3.617166
      ESP Fit Center  189 is at  -1.187599  1.592863  0.761616
      ESP Fit Center  190 is at  -1.853564  2.057982 -2.107037
      ESP Fit Center  191 is at  -1.722285  0.650066  0.897403
      ESP Fit Center  192 is at  -2.521172  1.230492  0.576552
      ESP Fit Center  193 is at  -2.521172  0.069640  0.576552
      ESP Fit Center  194 is at  -2.521172  2.033780 -0.263448
      ESP Fit Center  195 is at  -3.223702  1.196537 -0.263448
      ESP Fit Center  196 is at  -3.223702  0.103595 -0.263448
      ESP Fit Center  197 is at  -2.521172 -0.733648 -0.263448
      ESP Fit Center  198 is at  -2.521172  2.033780 -1.301746
      ESP Fit Center  199 is at  -3.223702  1.196537 -1.301746
      ESP Fit Center  200 is at  -3.223702  0.103595 -1.301746
      ESP Fit Center  201 is at  -2.521172 -0.733648 -1.301746
      ESP Fit Center  202 is at  -2.521172  1.230492 -2.141746
      ESP Fit Center  203 is at  -1.163499  2.320198  0.260912
      ESP Fit Center  204 is at  -0.087161  3.313273 -0.579088
      ESP Fit Center  205 is at  -1.163499  3.123486 -0.579088
      ESP Fit Center  206 is at  -0.087161  3.313273 -1.617386
      ESP Fit Center  207 is at  -1.163499  3.123486 -1.617386
      ESP Fit Center  208 is at  -0.059464  2.678921 -2.457386
      ESP Fit Center  209 is at  -1.163499  2.320198 -2.457386
      ESP Fit Center  210 is at  -1.373233  0.997712  0.980000
      ESP Fit Center  211 is at  -1.697410  0.000000  0.980000
      ESP Fit Center  212 is at  -1.373233 -0.997712  0.980000
      ESP Fit Center  213 is at  -0.524528 -1.614333  0.980000
      ESP Fit Center  214 is at  -1.697410 -0.980000  0.000000
      ESP Fit Center  215 is at  -0.980000 -1.697410  0.000000
      ESP Fit Center  216 is at  -0.000000 -1.960000  0.000000
      ESP Fit Center  217 is at   0.674112 -1.963534  0.000000
      ESP Fit Center  218 is at   1.671909 -2.084689  0.000000
      ESP Fit Center  219 is at   3.278240 -0.975919  0.000000
      ESP Fit Center  220 is at   2.088231 -2.130211 -0.343057
      ESP Fit Center  221 is at   3.034747 -1.583740 -0.343057
      ESP Fit Center  222 is at   3.408555 -0.556710 -1.381355
      ESP Fit Center  223 is at   1.011893 -1.940424 -1.381355
      ESP Fit Center  224 is at   2.088231 -2.130211 -1.381355
      ESP Fit Center  225 is at   3.034747 -1.583740 -1.381355
      ESP Fit Center  226 is at   2.798259 -0.556710 -2.221355
      ESP Fit Center  227 is at   2.115928 -1.495859 -2.221355
      ESP Fit Center  228 is at   0.891552 -1.134714  2.263815
      ESP Fit Center  229 is at   1.995587 -1.493437  2.263815
      ESP Fit Center  230 is at   3.288214 -0.554288  1.423815
      ESP Fit Center  231 is at   0.891552 -1.938002  1.423815
      ESP Fit Center  232 is at   1.967890 -2.127789  1.423815
      ESP Fit Center  233 is at   2.914406 -1.581318  1.423815
      ESP Fit Center  234 is at   1.967890 -2.127789  0.385517
      ESP Fit Center  235 is at   2.914406 -1.581318  0.385517
      ESP Fit Center  236 is at   3.635353  2.353302 -1.050000
      ESP Fit Center  237 is at   3.571957  1.859721 -1.488651
      ESP Fit Center  238 is at   3.198149  2.886751 -1.488651
      ESP Fit Center  239 is at   2.251633  3.433222 -1.488651
      ESP Fit Center  240 is at   1.175295  3.243435 -1.488651
      ESP Fit Center  241 is at   2.961661  1.859721 -2.328651
      ESP Fit Center  242 is at   2.279330  2.798870 -2.328651
      ESP Fit Center  243 is at   1.175295  2.440147 -2.328651
      ESP Fit Center  244 is at   4.168904  1.204124  1.491808
      ESP Fit Center  245 is at   3.486573  0.264975  1.491808
      ESP Fit Center  246 is at   4.779200  1.204124  0.651808
      ESP Fit Center  247 is at   4.405392  2.231154  0.651808
      ESP Fit Center  248 is at   3.458876 -0.369377  0.651808
      ESP Fit Center  249 is at   4.405392  0.177094  0.651808
      ESP Fit Center  250 is at   4.779200  1.204124 -0.386490
      ESP Fit Center  251 is at   4.405392  2.231154 -0.386490
      ESP Fit Center  252 is at   3.458876 -0.369377 -0.386490
      ESP Fit Center  253 is at   4.405392  0.177094 -0.386490
      ESP Fit Center  254 is at   4.168904  1.204124 -1.226490
      ESP Fit Center  255 is at   3.486573  0.264975 -1.226490
      ESP Fit Center  256 is at   3.138301  3.650608  2.751484
      ESP Fit Center  257 is at   2.322613  4.357405  2.751484
      ESP Fit Center  258 is at   1.254289  4.511007  2.751484
      ESP Fit Center  259 is at   0.272514  4.062646  2.751484
      ESP Fit Center  260 is at   3.915464  2.615017  1.769110
      ESP Fit Center  261 is at   3.678921  3.651380  1.769110
      ESP Fit Center  262 is at   3.016142  4.482479  1.769110
      ESP Fit Center  263 is at   2.058399  4.943704  1.769110
      ESP Fit Center  264 is at   0.995383  4.943704  1.769110
      ESP Fit Center  265 is at   0.037640  4.482479  1.769110
      ESP Fit Center  266 is at  -0.625139  3.651380  1.769110
      ESP Fit Center  267 is at  -0.861682  2.615017  1.769110
      ESP Fit Center  268 is at   3.678921  1.578654  1.769110
      ESP Fit Center  269 is at   3.915464  2.615017  0.678758
      ESP Fit Center  270 is at   3.678921  3.651380  0.678758
      ESP Fit Center  271 is at   3.016142  4.482479  0.678758
      ESP Fit Center  272 is at   2.058399  4.943704  0.678758
      ESP Fit Center  273 is at   0.995383  4.943704  0.678758
      ESP Fit Center  274 is at   0.037640  4.482479  0.678758
      ESP Fit Center  275 is at  -0.625139  3.651380  0.678758
      ESP Fit Center  276 is at  -0.861682  2.615017  0.678758
      ESP Fit Center  277 is at   3.138301  3.650608 -0.303616
      ESP Fit Center  278 is at   2.322613  4.357405 -0.303616
      ESP Fit Center  279 is at   1.254289  4.511007 -0.303616
      ESP Fit Center  280 is at   0.272514  4.062646 -0.303616
      ESP Fit Center  281 is at   0.995383  3.535615 -0.983440
      ESP Fit Center  282 is at   3.435059  1.685828  3.864154
      ESP Fit Center  283 is at   3.475864  2.661747  2.814154
      ESP Fit Center  284 is at   3.395909  0.933797  4.104898
      ESP Fit Center  285 is at   4.006205  0.933797  3.264898
      ESP Fit Center  286 is at   2.685881 -0.639704  3.264898
      ESP Fit Center  287 is at   3.632397 -0.093233  3.264898
      ESP Fit Center  288 is at   4.006205  0.933797  2.226600
      ESP Fit Center  289 is at   3.632397 -0.093233  2.226600
      ESP Fit Center  290 is at   2.921774  2.414790  4.925190
      ESP Fit Center  291 is at   2.239443  3.353939  4.925190
      ESP Fit Center  292 is at   3.532070  2.414790  4.085190
      ESP Fit Center  293 is at   3.158262  3.441820  4.085190
      ESP Fit Center  294 is at   2.211746  3.988291  4.085190
      ESP Fit Center  295 is at   1.135408  3.798504  4.085190
      ESP Fit Center  296 is at   3.158262  3.441820  3.046892
      ESP Fit Center  297 is at  -1.756236  0.541996  3.206517
      ESP Fit Center  298 is at  -1.559238 -0.188916  2.947131
      ESP Fit Center  299 is at  -1.559238  0.904026  1.908833
      ESP Fit Center  300 is at  -1.559238 -0.188916  1.908833
      ESP Fit Center  301 is at  -0.856708 -1.026159  1.908833
      ESP Fit Center  302 is at   0.219630 -1.215946  1.908833
      ESP Fit Center  303 is at  -0.216182  3.382663  3.829410
      ESP Fit Center  304 is at  -1.292520  3.192876  3.829410
      ESP Fit Center  305 is at  -1.995050  2.355633  3.829410
      ESP Fit Center  306 is at  -1.995050  1.262691  3.829410
      ESP Fit Center  307 is at  -0.216182  3.382663  2.791112
      ESP Fit Center  308 is at  -1.292520  3.192876  2.791112
      ESP Fit Center  309 is at  -1.995050  2.355633  2.791112
      ESP Fit Center  310 is at  -1.995050  1.262691  2.791112
      ESP Fit Center  311 is at  -1.292520  2.389588  1.951112
      ESP Fit Center  312 is at  -0.151227 -0.872318  6.960118
      ESP Fit Center  313 is at   0.911789 -0.872318  6.960118
      ESP Fit Center  314 is at   2.295768  0.048280  6.280294
      ESP Fit Center  315 is at  -0.874096 -1.399349  6.280294
      ESP Fit Center  316 is at   0.107679 -1.847710  6.280294
      ESP Fit Center  317 is at   1.176003 -1.694108  6.280294
      ESP Fit Center  318 is at   1.991691 -0.987311  6.280294
      ESP Fit Center  319 is at   2.768854  0.048280  5.297920
      ESP Fit Center  320 is at   2.532311  1.084643  5.297920
      ESP Fit Center  321 is at  -2.008292  0.048280  5.297920
      ESP Fit Center  322 is at  -1.771749 -0.988083  5.297920
      ESP Fit Center  323 is at  -1.108970 -1.819182  5.297920
      ESP Fit Center  324 is at  -0.151227 -2.280407  5.297920
      ESP Fit Center  325 is at   0.911789 -2.280407  5.297920
      ESP Fit Center  326 is at   1.869532 -1.819182  5.297920
      ESP Fit Center  327 is at   2.532311 -0.988083  5.297920
      ESP Fit Center  328 is at   2.768854  0.048280  4.207568
      ESP Fit Center  329 is at  -1.771749  1.084643  4.207568
      ESP Fit Center  330 is at  -2.008292  0.048280  4.207568
      ESP Fit Center  331 is at  -1.771749 -0.988083  4.207568
      ESP Fit Center  332 is at  -1.108970 -1.819182  4.207568
      ESP Fit Center  333 is at  -0.151227 -2.280407  4.207568
      ESP Fit Center  334 is at   0.911789 -2.280407  4.207568
      ESP Fit Center  335 is at   1.869532 -1.819182  4.207568
      ESP Fit Center  336 is at   2.532311 -0.988083  4.207568
      ESP Fit Center  337 is at  -1.457615 -0.491375  3.225194
      ESP Fit Center  338 is at  -0.874096 -1.399349  3.225194
      ESP Fit Center  339 is at   0.107679 -1.847710  3.225194
      ESP Fit Center  340 is at   1.176003 -1.694108  3.225194
      ESP Fit Center  341 is at   1.991691 -0.987311  3.225194
      ESP Fit Center  342 is at   2.041171  2.157280  7.125531
      ESP Fit Center  343 is at   1.358840  3.096429  7.125531
      ESP Fit Center  344 is at   2.651467  2.157280  6.285531
      ESP Fit Center  345 is at   2.277659  3.184310  6.285531
      ESP Fit Center  346 is at   2.651467  2.157280  5.247233
      ESP Fit Center  347 is at   2.277659  3.184310  5.247233
      ESP Fit Center  348 is at   0.772779  0.885309  8.627265
      ESP Fit Center  349 is at   1.760258  0.885309  8.306414
      ESP Fit Center  350 is at   1.077927  1.824458  8.306414
      ESP Fit Center  351 is at  -0.026108  0.304883  8.306414
      ESP Fit Center  352 is at   1.077927 -0.053840  8.306414
      ESP Fit Center  353 is at   2.370554  0.885309  7.466414
      ESP Fit Center  354 is at   1.996746  1.912339  7.466414
      ESP Fit Center  355 is at  -0.026108 -0.498405  7.466414
      ESP Fit Center  356 is at   1.050230 -0.688192  7.466414
      ESP Fit Center  357 is at   1.996746 -0.141721  7.466414
      ESP Fit Center  358 is at  -3.076200  2.404790  6.338314
      ESP Fit Center  359 is at  -3.002650  2.860949  5.956113
      ESP Fit Center  360 is at  -0.277266  3.341508  4.917815
      ESP Fit Center  361 is at  -3.002650  2.860949  4.917815
      ESP Fit Center  362 is at  -3.002650  1.768007  4.917815
      ESP Fit Center  363 is at  -2.300120  0.930764  4.917815
      ESP Fit Center  364 is at  -1.196085  3.253627  4.077815
      ESP Fit Center  365 is at  -2.300120  2.894904  4.077815
      ESP Fit Center  366 is at  -2.300120  1.734052  4.077815
      ESP Fit Center  367 is at  -2.485857  0.515462  8.049513
      ESP Fit Center  368 is at  -1.381822  0.156739  8.049513
      ESP Fit Center  369 is at  -3.188387  1.642359  7.209513
      ESP Fit Center  370 is at  -3.188387  0.549417  7.209513
      ESP Fit Center  371 is at  -2.485857 -0.287826  7.209513
      ESP Fit Center  372 is at  -1.409519 -0.477613  7.209513
      ESP Fit Center  373 is at  -3.188387  1.642359  6.171215
      ESP Fit Center  374 is at  -3.188387  0.549417  6.171215
      ESP Fit Center  375 is at  -2.485857 -0.287826  6.171215
      ESP Fit Center  376 is at  -2.485857  0.515462  5.331215
      ESP Fit Center  377 is at  -1.066353  3.172238 10.121162
      ESP Fit Center  378 is at  -0.003338  3.172238  9.878536
      ESP Fit Center  379 is at  -0.534845  4.092836  9.878536
      ESP Fit Center  380 is at  -1.597861  4.092836  9.878536
      ESP Fit Center  381 is at  -2.129368  3.172238  9.878536
      ESP Fit Center  382 is at  -1.597861  2.251640  9.878536
      ESP Fit Center  383 is at  -0.534845  2.251640  9.878536
      ESP Fit Center  384 is at   0.849134  3.172238  9.198712
      ESP Fit Center  385 is at   0.545057  4.207829  9.198712
      ESP Fit Center  386 is at  -0.270631  4.914626  9.198712
      ESP Fit Center  387 is at  -1.338955  5.068228  9.198712
      ESP Fit Center  388 is at  -2.320730  4.619867  9.198712
      ESP Fit Center  389 is at  -2.904249  3.711893  9.198712
      ESP Fit Center  390 is at  -2.904249  2.632583  9.198712
      ESP Fit Center  391 is at  -2.320730  1.724609  9.198712
      ESP Fit Center  392 is at  -1.338955  1.276248  9.198712
      ESP Fit Center  393 is at  -0.270631  1.429850  9.198712
      ESP Fit Center  394 is at   0.545057  2.136647  9.198712
      ESP Fit Center  395 is at   1.322220  3.172238  8.216338
      ESP Fit Center  396 is at   1.085677  4.208601  8.216338
      ESP Fit Center  397 is at  -2.555604  5.039700  8.216338
      ESP Fit Center  398 is at  -3.218383  4.208601  8.216338
      ESP Fit Center  399 is at  -3.454926  3.172238  8.216338
      ESP Fit Center  400 is at  -3.218383  2.135875  8.216338
      ESP Fit Center  401 is at  -2.555604  1.304776  8.216338
      ESP Fit Center  402 is at  -0.534845  0.843551  8.216338
      ESP Fit Center  403 is at   1.085677  2.135875  8.216338
      ESP Fit Center  404 is at   1.322220  3.172238  7.125986
      ESP Fit Center  405 is at  -3.218383  4.208601  7.125986
      ESP Fit Center  406 is at  -3.454926  3.172238  7.125986
      ESP Fit Center  407 is at  -3.218383  2.135875  7.125986
      ESP Fit Center  408 is at  -2.904249  3.711893  6.143612
      ESP Fit Center  409 is at   1.328779  4.674285  7.824810
      ESP Fit Center  410 is at  -0.227571  5.377454  9.252359
      ESP Fit Center  411 is at   0.759908  5.377454  8.931508
      ESP Fit Center  412 is at   0.077577  6.316603  8.931508
      ESP Fit Center  413 is at  -1.026458  5.957880  8.931508
      ESP Fit Center  414 is at   1.370204  5.377454  8.091508
      ESP Fit Center  415 is at   0.996396  6.404484  8.091508
      ESP Fit Center  416 is at   0.049880  6.950955  8.091508
      ESP Fit Center  417 is at  -1.026458  6.761168  8.091508
      ESP Fit Center  418 is at  -1.728988  5.923925  8.091508
      ESP Fit Center  419 is at   0.996396  6.404484  7.053210
      ESP Fit Center  420 is at   0.049880  6.950955  7.053210
      ESP Fit Center  421 is at   1.427115  4.441440  7.602753
      ESP Fit Center  422 is at   2.037411  4.441440  6.762753
      ESP Fit Center  423 is at   1.663603  5.468470  6.762753
      ESP Fit Center  424 is at   1.663603  3.414410  6.762753
      ESP Fit Center  425 is at   2.037411  4.441440  5.724455
      ESP Fit Center  426 is at   1.663603  5.468470  5.724455
      ESP Fit Center  427 is at   1.427115  4.441440  4.884455
      ESP Fit Center  428 is at   0.744784  5.380589  4.884455
      ESP Fit Center  429 is at   0.439636  4.441440  4.563604
      ESP Fit Center  430 is at  -0.768454  6.947148  6.884878
      ESP Fit Center  431 is at  -1.782771  7.092985  6.884878
      ESP Fit Center  432 is at   0.294703  5.292843  4.784878
      ESP Fit Center  433 is at  -2.714915  6.667289  4.784878
      ESP Fit Center  434 is at  -3.268935  5.805217  4.784878
      ESP Fit Center  435 is at  -0.473950  5.292843  4.016225
      ESP Fit Center  436 is at  -3.308877  4.056814  5.551571
      ESP Fit Center  437 is at  -3.308877  5.149756  4.513273
      ESP Fit Center  438 is at  -3.308877  4.056814  4.513273
      ESP Fit Center  439 is at  -2.606347  3.219571  4.513273
      ESP Fit Center  440 is at  -0.583493  3.576255  4.513273
      ESP Fit Center  441 is at  -0.819981  4.603285  3.673273
      ESP Fit Center  442 is at  -1.502312  5.542434  3.673273
      ESP Fit Center  443 is at  -2.606347  5.183711  3.673273
      ESP Fit Center  444 is at  -2.606347  4.022859  3.673273
      ESP Fit Center  445 is at  -1.502312  3.664136  3.673273
      ESP Fit Center  446 is at  -1.807460  4.603285  3.352422
      ESP Fit Center  447 is at  -2.432942  5.566463  8.059343
      ESP Fit Center  448 is at  -2.127794  6.505612  7.738492
      ESP Fit Center  449 is at  -3.231829  6.146889  7.738492
      ESP Fit Center  450 is at  -3.231829  4.986037  7.738492
      ESP Fit Center  451 is at  -2.155491  7.139964  6.898492
      ESP Fit Center  452 is at  -3.231829  6.950177  6.898492
      ESP Fit Center  453 is at  -3.934359  6.112934  6.898492
      ESP Fit Center  454 is at  -3.934359  5.019992  6.898492
      ESP Fit Center  455 is at  -3.231829  4.182749  6.898492
      ESP Fit Center  456 is at  -3.231829  6.950177  5.860194
      ESP Fit Center  457 is at  -3.934359  6.112934  5.860194
      ESP Fit Center  458 is at  -3.934359  5.019992  5.860194
      ESP Fit Center  459 is at  -0.811283  7.135752  6.723477
      ESP Fit Center  460 is at   0.107536  7.223633  5.883477
      ESP Fit Center  461 is at  -0.838980  7.770104  5.883477
      ESP Fit Center  462 is at  -1.915318  7.580317  5.883477
      ESP Fit Center  463 is at   0.481344  6.196603  4.845179
      ESP Fit Center  464 is at   0.107536  7.223633  4.845179
      ESP Fit Center  465 is at  -0.838980  7.770104  4.845179
      ESP Fit Center  466 is at  -1.915318  7.580317  4.845179
      ESP Fit Center  467 is at  -0.128952  6.196603  4.005179
      ESP Fit Center  468 is at  -0.811283  7.135752  4.005179
      ESP Fit Center  469 is at  -1.915318  6.777029  4.005179
      ESP Fit Center  470 is at  -1.116431  6.196603  3.684328
      ESP Fit Center  471 is at  -3.651488 -0.799814 -7.206256
      ESP Fit Center  472 is at  -0.791001  1.481349 -8.274356
      ESP Fit Center  473 is at   0.147197 -2.629164 -8.274356
      ESP Fit Center  474 is at  -0.791001  0.101996 -9.902631
      ESP Fit Center  475 is at  -1.832321  0.101996 -9.902631
      ESP Fit Center  476 is at  -2.352982 -0.799814 -9.902631
      ESP Fit Center  477 is at  -1.311661 -0.799814-10.140306
      ESP Fit Center  478 is at   1.594449 -0.536429 -8.139357
      ESP Fit Center  479 is at   0.634449  1.126340 -8.139357
      ESP Fit Center  480 is at  -0.325551  1.383571 -8.139357
      ESP Fit Center  481 is at   0.634449 -2.199198 -8.139357
      ESP Fit Center  482 is at   1.337218 -1.496429 -8.139357
      ESP Fit Center  483 is at   1.337218 -0.536429 -9.099357
      ESP Fit Center  484 is at   1.019657  0.440922 -9.099357
      ESP Fit Center  485 is at   0.188273  1.044958 -9.099357
      ESP Fit Center  486 is at   0.188273 -2.117816 -9.099357
      ESP Fit Center  487 is at   1.019657 -1.513780 -9.099357
      ESP Fit Center  488 is at   0.634449 -0.536429 -9.802126
      ESP Fit Center  489 is at   0.154449  0.294955 -9.802126
      ESP Fit Center  490 is at   0.154449 -1.367813 -9.802126
      ESP Fit Center  491 is at  -0.325551 -0.536429-10.059357
      ESP Fit Center  492 is at  -2.988324 -2.692991 -7.284017
      ESP Fit Center  493 is at  -2.156940 -3.297027 -7.284017
      ESP Fit Center  494 is at  -1.129292 -3.297027 -7.284017
      ESP Fit Center  495 is at  -3.563116 -1.715640 -8.244017
      ESP Fit Center  496 is at  -3.305885 -2.675640 -8.244017
      ESP Fit Center  497 is at  -2.603116 -3.378409 -8.244017
      ESP Fit Center  498 is at  -1.643116 -3.635640 -8.244017
      ESP Fit Center  499 is at  -0.683116 -3.378409 -8.244017
      ESP Fit Center  500 is at  -3.305885 -1.715640 -9.204017
      ESP Fit Center  501 is at  -2.988324 -2.692991 -9.204017
      ESP Fit Center  502 is at  -2.156940 -3.297027 -9.204017
      ESP Fit Center  503 is at  -1.129292 -3.297027 -9.204017
      ESP Fit Center  504 is at  -0.297908 -2.692991 -9.204017
      ESP Fit Center  505 is at  -0.683116 -1.715640 -9.906786
      ESP Fit Center  506 is at  -2.603116 -1.715640 -9.906786
      ESP Fit Center  507 is at  -2.123116 -2.547024 -9.906786
      ESP Fit Center  508 is at  -1.163116 -2.547024 -9.906786
      ESP Fit Center  509 is at  -1.643116 -1.715640-10.164017
      ESP Fit Center  510 is at  -2.521022  1.588435 -7.032299
      ESP Fit Center  511 is at  -3.352406  0.984399 -7.032299
      ESP Fit Center  512 is at  -3.669967  0.007048 -7.032299
      ESP Fit Center  513 is at  -1.047198  1.669817 -7.992299
      ESP Fit Center  514 is at  -2.007198  1.927048 -7.992299
      ESP Fit Center  515 is at  -2.967198  1.669817 -7.992299
      ESP Fit Center  516 is at  -3.669967  0.967048 -7.992299
      ESP Fit Center  517 is at  -3.927198  0.007048 -7.992299
      ESP Fit Center  518 is at  -1.493374  1.588435 -8.952299
      ESP Fit Center  519 is at  -2.521022  1.588435 -8.952299
      ESP Fit Center  520 is at  -3.352406  0.984399 -8.952299
      ESP Fit Center  521 is at  -3.669967  0.007048 -8.952299
      ESP Fit Center  522 is at  -1.527198  0.838432 -9.655068
      ESP Fit Center  523 is at  -2.487198  0.838432 -9.655068
      ESP Fit Center  524 is at  -2.967198  0.007048 -9.655068
      ESP Fit Center  525 is at  -2.007198  0.007048 -9.912299
      ESP Fit Center  526 is at  -1.790525 -1.910201 -4.066139
      ESP Fit Center  527 is at  -1.790525 -3.289554 -6.762514
      ESP Fit Center  528 is at  -2.264860 -1.276314 -3.937061
      ESP Fit Center  529 is at  -2.744860 -0.444930 -4.194292
      ESP Fit Center  530 is at  -3.224860 -1.276314 -4.194292
      ESP Fit Center  531 is at  -2.744860 -2.107698 -4.194292
      ESP Fit Center  532 is at  -3.610068 -0.298963 -4.897061
      ESP Fit Center  533 is at  -3.927629 -1.276314 -4.897061
      ESP Fit Center  534 is at  -3.610068 -2.253665 -4.897061
      ESP Fit Center  535 is at  -2.778684 -2.857701 -4.897061
      ESP Fit Center  536 is at  -3.224860  0.386455 -5.857061
      ESP Fit Center  537 is at  -3.927629 -0.316314 -5.857061
      ESP Fit Center  538 is at  -4.184860 -1.276314 -5.857061
      ESP Fit Center  539 is at  -3.927629 -2.236314 -5.857061
      ESP Fit Center  540 is at  -3.224860 -2.939083 -5.857061
      ESP Fit Center  541 is at  -2.264860 -3.196314 -5.857061
      ESP Fit Center  542 is at  -3.610068 -0.298963 -6.817061
      ESP Fit Center  543 is at  -3.927629 -1.276314 -6.817061
      ESP Fit Center  544 is at  -3.610068 -2.253665 -6.817061
      ESP Fit Center  545 is at  -2.778684 -2.857701 -6.817061
      ESP Fit Center  546 is at  -1.072917 -2.668728 -4.307665
      ESP Fit Center  547 is at  -1.106741 -3.418731 -5.010434
      ESP Fit Center  548 is at  -0.079093 -3.418731 -5.010434
      ESP Fit Center  549 is at  -1.552917 -3.500113 -5.970434
      ESP Fit Center  550 is at  -0.592917 -3.757344 -5.970434
      ESP Fit Center  551 is at   0.367083 -3.500113 -5.970434
      ESP Fit Center  552 is at   1.069852 -2.797344 -5.970434
      ESP Fit Center  553 is at   1.069852 -1.837344 -6.930434
      ESP Fit Center  554 is at  -1.106741 -3.418731 -6.930434
      ESP Fit Center  555 is at  -0.079093 -3.418731 -6.930434
      ESP Fit Center  556 is at   0.752291 -2.814695 -6.930434
      ESP Fit Center  557 is at  -1.678725  2.221270 -5.029736
      ESP Fit Center  558 is at  -2.538952  1.627499 -5.029736
      ESP Fit Center  559 is at  -3.024705  0.701973 -5.029736
      ESP Fit Center  560 is at  -1.678725  2.221270 -6.026630
      ESP Fit Center  561 is at  -2.538952  1.627499 -6.026630
      ESP Fit Center  562 is at  -3.024705  0.701973 -6.026630
      ESP Fit Center  563 is at  -1.445507  1.844934 -6.924800
      ESP Fit Center  564 is at   2.603431  1.417436 -5.943343
      ESP Fit Center  565 is at  -0.025340  1.304033 -7.571618
      ESP Fit Center  566 is at   1.976520  2.464059 -4.372745
      ESP Fit Center  567 is at   1.145136  3.068095 -4.372745
      ESP Fit Center  568 is at   0.117488  3.068095 -4.372745
      ESP Fit Center  569 is at  -0.713896  2.464059 -4.372745
      ESP Fit Center  570 is at   2.294081  2.446708 -5.332745
      ESP Fit Center  571 is at   1.591312  3.149477 -5.332745
      ESP Fit Center  572 is at   0.631312  3.406708 -5.332745
      ESP Fit Center  573 is at  -0.328688  3.149477 -5.332745
      ESP Fit Center  574 is at  -1.031457  2.446708 -5.332745
      ESP Fit Center  575 is at   1.976520  2.464059 -6.292745
      ESP Fit Center  576 is at   1.145136  3.068095 -6.292745
      ESP Fit Center  577 is at   0.117488  3.068095 -6.292745
      ESP Fit Center  578 is at  -0.713896  2.464059 -6.292745
      ESP Fit Center  579 is at   1.111312  2.318092 -6.995514
      ESP Fit Center  580 is at   0.151312  2.318092 -6.995514
      ESP Fit Center  581 is at   2.948990  0.060059 -6.310248
      ESP Fit Center  582 is at   2.691759  1.020059 -6.310248
      ESP Fit Center  583 is at   1.988990 -1.602710 -6.310248
      ESP Fit Center  584 is at   2.691759 -0.899941 -6.310248
      ESP Fit Center  585 is at   2.691759  0.060059 -7.270248
      ESP Fit Center  586 is at   2.374198  1.037410 -7.270248
      ESP Fit Center  587 is at   1.542814  1.641446 -7.270248
      ESP Fit Center  588 is at   1.542814 -1.521328 -7.270248
      ESP Fit Center  589 is at   2.374198 -0.917292 -7.270248
      ESP Fit Center  590 is at   1.988990  0.060059 -7.973017
      ESP Fit Center  591 is at   1.508990  0.891443 -7.973017
      ESP Fit Center  592 is at   2.698948 -1.270808 -2.682269
      ESP Fit Center  593 is at   2.579282 -2.085702 -3.644595
      ESP Fit Center  594 is at   2.579282 -2.085702 -4.712695
      ESP Fit Center  595 is at   1.899907 -1.963181 -5.675021
      ESP Fit Center  596 is at   1.342036 -2.158971 -2.480437
      ESP Fit Center  597 is at   0.348212 -2.908974 -3.183206
      ESP Fit Center  598 is at   1.375860 -2.908974 -3.183206
      ESP Fit Center  599 is at   2.207244 -2.304938 -3.183206
      ESP Fit Center  600 is at  -0.097964 -2.990356 -4.143206
      ESP Fit Center  601 is at   0.862036 -3.247587 -4.143206
      ESP Fit Center  602 is at   1.822036 -2.990356 -4.143206
      ESP Fit Center  603 is at   2.524805 -2.287587 -4.143206
      ESP Fit Center  604 is at   1.375860 -2.908974 -5.103206
      ESP Fit Center  605 is at   2.207244 -2.304938 -5.103206
      ESP Fit Center  606 is at   1.342036 -2.158971 -5.805975
      ESP Fit Center  607 is at   3.171688 -0.178964 -2.598999
      ESP Fit Center  608 is at   3.874457 -0.178964 -3.301768
      ESP Fit Center  609 is at   3.556896  0.798387 -3.301768
      ESP Fit Center  610 is at   3.556896 -1.156315 -3.301768
      ESP Fit Center  611 is at   4.131688 -0.178964 -4.261768
      ESP Fit Center  612 is at   3.874457  0.781036 -4.261768
      ESP Fit Center  613 is at   3.171688  1.483805 -4.261768
      ESP Fit Center  614 is at   3.171688 -1.841733 -4.261768
      ESP Fit Center  615 is at   3.874457 -1.138964 -4.261768
      ESP Fit Center  616 is at   3.874457 -0.178964 -5.221768
      ESP Fit Center  617 is at   3.556896  0.798387 -5.221768
      ESP Fit Center  618 is at   2.725512  1.402423 -5.221768
      ESP Fit Center  619 is at   2.725512 -1.760351 -5.221768
      ESP Fit Center  620 is at   3.556896 -1.156315 -5.221768
      ESP Fit Center  621 is at   3.171688 -0.178964 -5.924537
      ESP Fit Center  622 is at   2.691688 -1.010348 -5.924537
      ESP Fit Center  623 is at   2.967317  0.375608 -2.455730
      ESP Fit Center  624 is at   2.024040  2.172872 -3.452624
      ESP Fit Center  625 is at   1.046711  2.543524 -3.452624
      ESP Fit Center  626 is at   0.009078  2.417532 -3.452624
      ESP Fit Center  627 is at  -2.615481 -0.958943 -1.900588
      ESP Fit Center  628 is at  -1.028030  2.337433 -2.968688
      ESP Fit Center  629 is at  -2.615481 -0.958943 -2.968688
      ESP Fit Center  630 is at  -1.108001 -1.868277 -0.698772
      ESP Fit Center  631 is at  -1.973209 -2.014244 -1.401541
      ESP Fit Center  632 is at  -1.141825 -2.618280 -1.401541
      ESP Fit Center  633 is at  -0.114177 -2.618280 -1.401541
      ESP Fit Center  634 is at  -2.290770 -1.996893 -2.361541
      ESP Fit Center  635 is at  -1.588001 -2.699662 -2.361541
      ESP Fit Center  636 is at  -0.628001 -2.956893 -2.361541
      ESP Fit Center  637 is at   0.331999 -2.699662 -2.361541
      ESP Fit Center  638 is at  -1.973209 -2.014244 -3.321541
      ESP Fit Center  639 is at  -1.141825 -2.618280 -3.321541
      ESP Fit Center  640 is at  -1.293103  2.359548 -3.098017
      ESP Fit Center  641 is at  -2.253103  2.102317 -3.098017
      ESP Fit Center  642 is at  -2.955872  1.399548 -3.098017
      ESP Fit Center  643 is at  -3.213103  0.439548 -3.098017
      ESP Fit Center  644 is at  -2.955872 -0.520452 -3.098017
      ESP Fit Center  645 is at  -0.779279  2.020935 -4.058017
      ESP Fit Center  646 is at  -1.806927  2.020935 -4.058017
      ESP Fit Center  647 is at  -2.638311  1.416899 -4.058017
      ESP Fit Center  648 is at  -2.955872  0.439548 -4.058017
      ESP Fit Center  649 is at  -2.638311 -0.537803 -4.058017
      ESP Fit Center  650 is at  -1.183259  1.585346  1.105288
      ESP Fit Center  651 is at  -2.121457  2.512886 -0.522987
      ESP Fit Center  652 is at  -2.121457  2.512886 -1.591087
      ESP Fit Center  653 is at  -2.202285  1.481450  0.880172
      ESP Fit Center  654 is at  -2.682285  0.650066  0.880172
      ESP Fit Center  655 is at  -2.202285 -0.181318  0.880172
      ESP Fit Center  656 is at  -2.236109  2.231453  0.177403
      ESP Fit Center  657 is at  -3.067493  1.627417  0.177403
      ESP Fit Center  658 is at  -3.385054  0.650066  0.177403
      ESP Fit Center  659 is at  -3.067493 -0.327285  0.177403
      ESP Fit Center  660 is at  -2.236109 -0.931321  0.177403
      ESP Fit Center  661 is at  -2.682285  2.312835 -0.782597
      ESP Fit Center  662 is at  -3.385054  1.610066 -0.782597
      ESP Fit Center  663 is at  -3.642285  0.650066 -0.782597
      ESP Fit Center  664 is at  -3.385054 -0.309934 -0.782597
      ESP Fit Center  665 is at  -2.682285 -1.012703 -0.782597
      ESP Fit Center  666 is at  -3.067493  1.627417 -1.742597
      ESP Fit Center  667 is at  -3.385054  0.650066 -1.742597
      ESP Fit Center  668 is at  -3.067493 -0.327285 -1.742597
      ESP Fit Center  669 is at  -0.878436  3.321159 -0.138237
      ESP Fit Center  670 is at  -1.709820  2.717123 -0.138237
      ESP Fit Center  671 is at  -0.364612  3.659772 -1.098237
      ESP Fit Center  672 is at  -1.324612  3.402541 -1.098237
      ESP Fit Center  673 is at  -2.027381  2.699772 -1.098237
      ESP Fit Center  674 is at   0.149212  3.321159 -2.058237
      ESP Fit Center  675 is at  -0.878436  3.321159 -2.058237
      ESP Fit Center  676 is at  -1.709820  2.717123 -2.058237
      ESP Fit Center  677 is at   0.115388  2.571156 -2.761006
      ESP Fit Center  678 is at  -0.844612  2.571156 -2.761006
      ESP Fit Center  679 is at  -1.751303  0.000000  1.396617
      ESP Fit Center  680 is at  -1.416834 -1.029390  1.396617
      ESP Fit Center  681 is at  -0.541182 -1.665588  1.396617
      ESP Fit Center  682 is at  -1.634627 -1.448153  0.498447
      ESP Fit Center  683 is at  -0.774400 -2.041924  0.498447
      ESP Fit Center  684 is at   0.263233 -2.167916  0.498447
      ESP Fit Center  685 is at  -1.634627 -1.448153 -0.498447
      ESP Fit Center  686 is at  -0.774400 -2.041924 -0.498447
      ESP Fit Center  687 is at   0.263233 -2.167916 -0.498447
      ESP Fit Center  688 is at   0.898122 -2.281163  0.534050
      ESP Fit Center  689 is at   3.526893 -1.015213  0.534050
      ESP Fit Center  690 is at   0.898122 -2.281163 -0.534050
      ESP Fit Center  691 is at   3.730780 -0.556710 -0.862206
      ESP Fit Center  692 is at   0.850780 -2.219479 -0.862206
      ESP Fit Center  693 is at   1.810780 -2.476710 -0.862206
      ESP Fit Center  694 is at   2.770780 -2.219479 -0.862206
      ESP Fit Center  695 is at   3.473549 -1.516710 -0.862206
      ESP Fit Center  696 is at   3.473549 -0.556710 -1.822206
      ESP Fit Center  697 is at   1.296956 -2.138097 -1.822206
      ESP Fit Center  698 is at   2.324604 -2.138097 -1.822206
      ESP Fit Center  699 is at   3.155988 -1.534061 -1.822206
      ESP Fit Center  700 is at   2.170439 -1.385672  2.567435
      ESP Fit Center  701 is at   3.353208 -0.554288  1.864666
      ESP Fit Center  702 is at   0.345231 -1.531639  1.864666
      ESP Fit Center  703 is at   1.176615 -2.135675  1.864666
      ESP Fit Center  704 is at   2.204263 -2.135675  1.864666
      ESP Fit Center  705 is at   3.035647 -1.531639  1.864666
      ESP Fit Center  706 is at   3.610439 -0.554288  0.904666
      ESP Fit Center  707 is at   0.730439 -2.217057  0.904666
      ESP Fit Center  708 is at   1.690439 -2.474288  0.904666
      ESP Fit Center  709 is at   2.650439 -2.217057  0.904666
      ESP Fit Center  710 is at   3.353208 -1.514288  0.904666
      ESP Fit Center  711 is at   3.636951  1.859721 -1.929502
      ESP Fit Center  712 is at   3.319390  2.837072 -1.929502
      ESP Fit Center  713 is at   2.488006  3.441108 -1.929502
      ESP Fit Center  714 is at   1.460358  3.441108 -1.929502
      ESP Fit Center  715 is at   2.934182  1.859721 -2.632271
      ESP Fit Center  716 is at   2.454182  2.691105 -2.632271
      ESP Fit Center  717 is at   1.494182  2.691105 -2.632271
      ESP Fit Center  718 is at   4.141425  1.204124  1.795428
      ESP Fit Center  719 is at   4.844194  1.204124  1.092659
      ESP Fit Center  720 is at   4.526633  2.181475  1.092659
      ESP Fit Center  721 is at   3.695249 -0.377263  1.092659
      ESP Fit Center  722 is at   4.526633  0.226773  1.092659
      ESP Fit Center  723 is at   5.101425  1.204124  0.132659
      ESP Fit Center  724 is at   4.844194  2.164124  0.132659
      ESP Fit Center  725 is at   4.141425  2.866893  0.132659
      ESP Fit Center  726 is at   4.141425 -0.458645  0.132659
      ESP Fit Center  727 is at   4.844194  0.244124  0.132659
      ESP Fit Center  728 is at   4.844194  1.204124 -0.827341
      ESP Fit Center  729 is at   4.526633  2.181475 -0.827341
      ESP Fit Center  730 is at   4.526633  0.226773 -0.827341
      ESP Fit Center  731 is at   4.141425  1.204124 -1.530110
      ESP Fit Center  732 is at   2.516840  4.329660  3.203833
      ESP Fit Center  733 is at   1.526891  4.594916  3.203833
      ESP Fit Center  734 is at   0.536942  4.329660  3.203833
      ESP Fit Center  735 is at   4.113754  2.615017  2.295448
      ESP Fit Center  736 is at   3.890108  3.667189  2.295448
      ESP Fit Center  737 is at   3.257840  4.537431  2.295448
      ESP Fit Center  738 is at   2.326276  5.075270  2.295448
      ESP Fit Center  739 is at   1.256490  5.187709  2.295448
      ESP Fit Center  740 is at   0.233460  4.855306  2.295448
      ESP Fit Center  741 is at  -0.565925  4.135537  2.295448
      ESP Fit Center  742 is at   4.326891  2.615017  1.223934
      ESP Fit Center  743 is at   4.137813  3.626494  1.223934
      ESP Fit Center  744 is at   3.596116  4.501365  1.223934
      ESP Fit Center  745 is at   2.774958  5.121474  1.223934
      ESP Fit Center  746 is at   1.785242  5.403073  1.223934
      ESP Fit Center  747 is at   0.760635  5.308129  1.223934
      ESP Fit Center  748 is at  -0.160486  4.849465  1.223934
      ESP Fit Center  749 is at  -0.853717  4.089027  1.223934
      ESP Fit Center  750 is at  -1.225434  3.129516  1.223934
      ESP Fit Center  751 is at  -1.225434  2.100518  1.223934
      ESP Fit Center  752 is at   3.890108  3.667189  0.152420
      ESP Fit Center  753 is at   3.257840  4.537431  0.152420
      ESP Fit Center  754 is at   2.326276  5.075270  0.152420
      ESP Fit Center  755 is at   1.256490  5.187709  0.152420
      ESP Fit Center  756 is at   0.233460  4.855306  0.152420
      ESP Fit Center  757 is at  -0.565925  4.135537  0.152420
      ESP Fit Center  758 is at  -1.003443  3.152856  0.152420
      ESP Fit Center  759 is at   3.241534  3.604966 -0.755965
      ESP Fit Center  760 is at   2.516840  4.329660 -0.755965
      ESP Fit Center  761 is at   1.526891  4.594916 -0.755965
      ESP Fit Center  762 is at   0.536942  4.329660 -0.755965
      ESP Fit Center  763 is at   0.991134  3.542975 -1.362929
      ESP Fit Center  764 is at   3.368430  0.933797  4.408518
      ESP Fit Center  765 is at   4.071199  0.933797  3.705749
      ESP Fit Center  766 is at   2.922254 -0.647590  3.705749
      ESP Fit Center  767 is at   3.753638 -0.043554  3.705749
      ESP Fit Center  768 is at   4.328430  0.933797  2.745749
      ESP Fit Center  769 is at   4.071199  1.893797  2.745749
      ESP Fit Center  770 is at   2.408430 -0.986203  2.745749
      ESP Fit Center  771 is at   3.368430 -0.728972  2.745749
      ESP Fit Center  772 is at   4.071199 -0.026203  2.745749
      ESP Fit Center  773 is at   3.753638 -0.043554  1.785749
      ESP Fit Center  774 is at   2.894295  2.414790  5.228810
      ESP Fit Center  775 is at   3.597064  2.414790  4.526041
      ESP Fit Center  776 is at   3.279503  3.392141  4.526041
      ESP Fit Center  777 is at   2.448119  3.996177  4.526041
      ESP Fit Center  778 is at   1.420471  3.996177  4.526041
      ESP Fit Center  779 is at   3.854295  2.414790  3.566041
      ESP Fit Center  780 is at   3.597064  3.374790  3.566041
      ESP Fit Center  781 is at   2.894295  4.077559  3.566041
      ESP Fit Center  782 is at   1.934295  4.334790  3.566041
      ESP Fit Center  783 is at   0.974295  4.077559  3.566041
      ESP Fit Center  784 is at  -1.977821  0.357555  2.427982
      ESP Fit Center  785 is at  -1.720590 -0.602445  2.427982
      ESP Fit Center  786 is at  -1.017821 -1.305214  2.427982
      ESP Fit Center  787 is at  -0.057821 -1.562445  2.427982
      ESP Fit Center  788 is at  -1.403029  1.334906  1.467982
      ESP Fit Center  789 is at  -1.720590  0.357555  1.467982
      ESP Fit Center  790 is at   0.020191  3.390549  4.270261
      ESP Fit Center  791 is at  -0.493633  3.729162  3.310261
      ESP Fit Center  792 is at  -1.453633  3.471931  3.310261
      ESP Fit Center  793 is at  -2.156402  2.769162  3.310261
      ESP Fit Center  794 is at  -2.413633  1.809162  3.310261
      ESP Fit Center  795 is at  -2.156402  0.849162  3.310261
      ESP Fit Center  796 is at  -1.007457  3.390549  2.350261
      ESP Fit Center  797 is at  -1.838841  2.786513  2.350261
      ESP Fit Center  798 is at  -2.156402  1.809162  2.350261
      ESP Fit Center  799 is at  -1.453633  1.809162  1.647492
      ESP Fit Center  800 is at  -0.155476 -0.879678  7.339607
      ESP Fit Center  801 is at  -1.334362 -0.941669  6.732643
      ESP Fit Center  802 is at  -0.609668 -1.666363  6.732643
      ESP Fit Center  803 is at   0.380281 -1.931619  6.732643
      ESP Fit Center  804 is at   1.370230 -1.666363  6.732643
      ESP Fit Center  805 is at   2.094924 -0.941669  6.732643
      ESP Fit Center  806 is at   2.967144  0.048280  5.824258
      ESP Fit Center  807 is at   2.743498  1.100452  5.824258
      ESP Fit Center  808 is at  -1.712535 -1.472240  5.824258
      ESP Fit Center  809 is at  -0.913150 -2.192009  5.824258
      ESP Fit Center  810 is at   0.109880 -2.524412  5.824258
      ESP Fit Center  811 is at   1.179666 -2.411973  5.824258
      ESP Fit Center  812 is at   2.111230 -1.874134  5.824258
      ESP Fit Center  813 is at   2.743498 -1.003892  5.824258
      ESP Fit Center  814 is at   3.180281  0.048280  4.752744
      ESP Fit Center  815 is at   2.991203  1.059757  4.752744
      ESP Fit Center  816 is at  -2.372044  0.562779  4.752744
      ESP Fit Center  817 is at  -2.372044 -0.466219  4.752744
      ESP Fit Center  818 is at  -2.000327 -1.425730  4.752744
      ESP Fit Center  819 is at  -1.307096 -2.186168  4.752744
      ESP Fit Center  820 is at  -0.385975 -2.644832  4.752744
      ESP Fit Center  821 is at   0.638632 -2.739776  4.752744
      ESP Fit Center  822 is at   1.628348 -2.458177  4.752744
      ESP Fit Center  823 is at   2.449506 -1.838068  4.752744
      ESP Fit Center  824 is at   2.991203 -0.963197  4.752744
      ESP Fit Center  825 is at  -2.150053  0.586119  3.681230
      ESP Fit Center  826 is at  -2.150053 -0.489559  3.681230
      ESP Fit Center  827 is at  -1.712535 -1.472240  3.681230
      ESP Fit Center  828 is at  -0.913150 -2.192009  3.681230
      ESP Fit Center  829 is at   0.109880 -2.524412  3.681230
      ESP Fit Center  830 is at   1.179666 -2.411973  3.681230
      ESP Fit Center  831 is at   2.111230 -1.874134  3.681230
      ESP Fit Center  832 is at   2.743498 -1.003892  3.681230
      ESP Fit Center  833 is at  -0.609668 -1.666363  2.772845
      ESP Fit Center  834 is at   0.380281 -1.931619  2.772845
      ESP Fit Center  835 is at   1.370230 -1.666363  2.772845
      ESP Fit Center  836 is at   1.941165  2.371779  7.546293
      ESP Fit Center  837 is at   2.702468  1.357323  6.583967
      ESP Fit Center  838 is at   2.716461  2.157280  6.726382
      ESP Fit Center  839 is at   2.398900  3.134631  6.726382
      ESP Fit Center  840 is at   2.973692  2.157280  5.766382
      ESP Fit Center  841 is at   2.716461  3.117280  5.766382
      ESP Fit Center  842 is at   0.772779  0.885309  8.867265
      ESP Fit Center  843 is at   1.732779  0.885309  8.610034
      ESP Fit Center  844 is at   1.252779  1.716693  8.610034
      ESP Fit Center  845 is at   0.292779  0.053925  8.610034
      ESP Fit Center  846 is at   1.252779  0.053925  8.610034
      ESP Fit Center  847 is at   2.435548  0.885309  7.907265
      ESP Fit Center  848 is at   2.117987  1.862660  7.907265
      ESP Fit Center  849 is at  -0.572429 -0.092042  7.907265
      ESP Fit Center  850 is at   0.258955 -0.696078  7.907265
      ESP Fit Center  851 is at   1.286603 -0.696078  7.907265
      ESP Fit Center  852 is at   2.117987 -0.092042  7.907265
      ESP Fit Center  853 is at   2.692779  0.885309  6.947265
      ESP Fit Center  854 is at   2.435548 -0.074691  6.947265
      ESP Fit Center  855 is at  -3.377049  1.902227  5.804264
      ESP Fit Center  856 is at  -3.164002  3.274478  5.436964
      ESP Fit Center  857 is at  -3.421233  2.314478  5.436964
      ESP Fit Center  858 is at  -3.164002  2.314478  4.476964
      ESP Fit Center  859 is at  -2.846441  1.337127  4.476964
      ESP Fit Center  860 is at  -1.981233  3.145862  3.774195
      ESP Fit Center  861 is at  -2.461233  2.314478  3.774195
      ESP Fit Center  862 is at  -2.166970  0.264504  8.353133
      ESP Fit Center  863 is at  -1.206970  0.264504  8.353133
      ESP Fit Center  864 is at  -3.349739  1.095888  7.650364
      ESP Fit Center  865 is at  -3.032178  0.118537  7.650364
      ESP Fit Center  866 is at  -2.200794 -0.485499  7.650364
      ESP Fit Center  867 is at  -1.173146 -0.485499  7.650364
      ESP Fit Center  868 is at  -3.606970  1.095888  6.690364
      ESP Fit Center  869 is at  -3.349739  0.135888  6.690364
      ESP Fit Center  870 is at  -2.646970 -0.566881  6.690364
      ESP Fit Center  871 is at  -1.686970 -0.824112  6.690364
      ESP Fit Center  872 is at  -3.349739  1.095888  5.730364
      ESP Fit Center  873 is at  -3.032178  0.118537  5.730364
      ESP Fit Center  874 is at  -2.200794 -0.485499  5.730364
      ESP Fit Center  875 is at  -1.066353  3.172238 10.471162
      ESP Fit Center  876 is at   0.005161  3.172238 10.258025
      ESP Fit Center  877 is at  -0.530596  4.100196 10.258025
      ESP Fit Center  878 is at  -1.602110  4.100196 10.258025
      ESP Fit Center  879 is at  -2.137867  3.172238 10.258025
      ESP Fit Center  880 is at  -1.602110  2.244280 10.258025
      ESP Fit Center  881 is at  -0.530596  2.244280 10.258025
      ESP Fit Center  882 is at   0.913546  3.172238  9.651061
      ESP Fit Center  883 is at   0.648290  4.162187  9.651061
      ESP Fit Center  884 is at  -0.076404  4.886881  9.651061
      ESP Fit Center  885 is at  -1.066353  5.152137  9.651061
      ESP Fit Center  886 is at  -2.056302  4.886881  9.651061
      ESP Fit Center  887 is at  -2.780996  4.162187  9.651061
      ESP Fit Center  888 is at  -3.046252  3.172238  9.651061
      ESP Fit Center  889 is at  -2.780996  2.182289  9.651061
      ESP Fit Center  890 is at  -2.056302  1.457595  9.651061
      ESP Fit Center  891 is at  -1.066353  1.192339  9.651061
      ESP Fit Center  892 is at  -0.076404  1.457595  9.651061
      ESP Fit Center  893 is at   0.648290  2.182289  9.651061
      ESP Fit Center  894 is at   1.520510  3.172238  8.742676
      ESP Fit Center  895 is at   1.296864  4.224410  8.742676
      ESP Fit Center  896 is at  -2.359784  5.412527  8.742676
      ESP Fit Center  897 is at  -3.159169  4.692758  8.742676
      ESP Fit Center  898 is at  -3.596687  3.710077  8.742676
      ESP Fit Center  899 is at  -3.596687  2.634399  8.742676
      ESP Fit Center  900 is at  -3.159169  1.651718  8.742676
      ESP Fit Center  901 is at  -2.359784  0.931949  8.742676
      ESP Fit Center  902 is at  -1.336754  0.599546  8.742676
      ESP Fit Center  903 is at  -0.266968  0.711985  8.742676
      ESP Fit Center  904 is at   1.296864  2.120066  8.742676
      ESP Fit Center  905 is at   1.733647  3.172238  7.671162
      ESP Fit Center  906 is at  -3.818678  3.686737  7.671162
      ESP Fit Center  907 is at  -3.818678  2.657739  7.671162
      ESP Fit Center  908 is at  -3.446961  1.698228  7.671162
      ESP Fit Center  909 is at  -3.596687  3.710077  6.599648
      ESP Fit Center  910 is at  -3.596687  2.634399  6.599648
      ESP Fit Center  911 is at   0.968984  6.503635  6.240760
      ESP Fit Center  912 is at  -0.227571  5.377454  9.492359
      ESP Fit Center  913 is at   0.732429  5.377454  9.235128
      ESP Fit Center  914 is at   0.252429  6.208838  9.235128
      ESP Fit Center  915 is at  -0.707571  6.208838  9.235128
      ESP Fit Center  916 is at   1.435198  5.377454  8.532359
      ESP Fit Center  917 is at   1.117637  6.354805  8.532359
      ESP Fit Center  918 is at   0.286253  6.958841  8.532359
      ESP Fit Center  919 is at  -0.741395  6.958841  8.532359
      ESP Fit Center  920 is at  -1.572779  6.354805  8.532359
      ESP Fit Center  921 is at   1.692429  5.377454  7.572359
      ESP Fit Center  922 is at   1.435198  6.337454  7.572359
      ESP Fit Center  923 is at   0.732429  7.040223  7.572359
      ESP Fit Center  924 is at  -0.227571  7.297454  7.572359
      ESP Fit Center  925 is at  -1.187571  7.040223  7.572359
      ESP Fit Center  926 is at   0.286253  6.958841  6.612359
      ESP Fit Center  927 is at   2.102405  4.441440  7.203604
      ESP Fit Center  928 is at   1.784844  5.418791  7.203604
      ESP Fit Center  929 is at   1.784844  3.464089  7.203604
      ESP Fit Center  930 is at   2.359636  4.441440  6.243604
      ESP Fit Center  931 is at   2.102405  5.401440  6.243604
      ESP Fit Center  932 is at   1.399636  6.104209  6.243604
      ESP Fit Center  933 is at   2.102405  4.441440  5.283604
      ESP Fit Center  934 is at   1.784844  5.418791  5.283604
      ESP Fit Center  935 is at   0.953460  6.022827  5.283604
      ESP Fit Center  936 is at   1.399636  4.441440  4.580835
      ESP Fit Center  937 is at   0.919636  5.272824  4.580835
      ESP Fit Center  938 is at  -0.040364  3.610056  4.580835
      ESP Fit Center  939 is at   0.439636  4.441440  4.323604
      ESP Fit Center  940 is at  -1.790989  7.150140  7.331254
      ESP Fit Center  941 is at  -2.044610  7.574006  6.368928
      ESP Fit Center  942 is at  -2.982808  7.122193  5.300828
      ESP Fit Center  943 is at   0.352446  5.292843  4.338502
      ESP Fit Center  944 is at  -2.752728  6.710928  4.338502
      ESP Fit Center  945 is at  -3.324338  5.821485  4.338502
      ESP Fit Center  946 is at   0.054574  4.278387  4.338502
      ESP Fit Center  947 is at  -0.482629  5.292843  3.672553
      ESP Fit Center  948 is at  -2.044610  6.194653  3.672553
      ESP Fit Center  949 is at  -3.727460  4.603285  5.032422
      ESP Fit Center  950 is at  -3.470229  3.643285  5.032422
      ESP Fit Center  951 is at  -3.152668  5.580636  4.072422
      ESP Fit Center  952 is at  -3.470229  4.603285  4.072422
      ESP Fit Center  953 is at  -3.152668  3.625934  4.072422
      ESP Fit Center  954 is at  -0.462252  3.625934  4.072422
      ESP Fit Center  955 is at  -0.847460  4.603285  3.369653
      ESP Fit Center  956 is at  -1.327460  5.434669  3.369653
      ESP Fit Center  957 is at  -2.287460  5.434669  3.369653
      ESP Fit Center  958 is at  -2.767460  4.603285  3.369653
      ESP Fit Center  959 is at  -2.287460  3.771901  3.369653
      ESP Fit Center  960 is at  -1.327460  3.771901  3.369653
      ESP Fit Center  961 is at  -1.807460  4.603285  3.112422
      ESP Fit Center  962 is at  -2.432942  5.566463  8.299343
      ESP Fit Center  963 is at  -1.952942  6.397847  8.042112
      ESP Fit Center  964 is at  -2.912942  6.397847  8.042112
      ESP Fit Center  965 is at  -3.392942  5.566463  8.042112
      ESP Fit Center  966 is at  -1.919118  7.147850  7.339343
      ESP Fit Center  967 is at  -2.946766  7.147850  7.339343
      ESP Fit Center  968 is at  -3.778150  6.543814  7.339343
      ESP Fit Center  969 is at  -4.095711  5.566463  7.339343
      ESP Fit Center  970 is at  -3.778150  4.589112  7.339343
      ESP Fit Center  971 is at  -2.432942  7.486463  6.379343
      ESP Fit Center  972 is at  -3.392942  7.229232  6.379343
      ESP Fit Center  973 is at  -4.095711  6.526463  6.379343
      ESP Fit Center  974 is at  -4.352942  5.566463  6.379343
      ESP Fit Center  975 is at  -4.095711  4.606463  6.379343
      ESP Fit Center  976 is at  -3.778150  6.543814  5.419343
      ESP Fit Center  977 is at  -4.095711  5.566463  5.419343
      ESP Fit Center  978 is at   0.228777  7.173954  6.324328
      ESP Fit Center  979 is at  -0.602607  7.777990  6.324328
      ESP Fit Center  980 is at  -1.630255  7.777990  6.324328
      ESP Fit Center  981 is at   0.803569  6.196603  5.364328
      ESP Fit Center  982 is at   0.546338  7.156603  5.364328
      ESP Fit Center  983 is at  -0.156431  7.859372  5.364328
      ESP Fit Center  984 is at  -1.116431  8.116603  5.364328
      ESP Fit Center  985 is at  -2.076431  7.859372  5.364328
      ESP Fit Center  986 is at   0.546338  6.196603  4.404328
      ESP Fit Center  987 is at   0.228777  7.173954  4.404328
      ESP Fit Center  988 is at  -0.602607  7.777990  4.404328
      ESP Fit Center  989 is at  -1.630255  7.777990  4.404328
      ESP Fit Center  990 is at  -2.461639  7.173954  4.404328
      ESP Fit Center  991 is at  -0.156431  6.196603  3.701559
      ESP Fit Center  992 is at  -0.636431  7.027987  3.701559
      ESP Fit Center  993 is at  -1.596431  7.027987  3.701559
      ESP Fit Center  994 is at  -1.116431  6.196603  3.444328
      ESP Fit Center  995 is at  -0.278416  1.694661 -7.740306
      ESP Fit Center  996 is at  -4.011661 -0.799814 -7.740306
      ESP Fit Center  997 is at  -3.806136 -1.833059 -7.740306
      ESP Fit Center  998 is at   0.597527 -2.709002 -7.740306
      ESP Fit Center  999 is at  -0.756588  1.632119 -8.773551
      ESP Fit Center 1000 is at   0.243619 -2.750073 -8.773551
      ESP Fit Center 1001 is at  -0.795038  0.095003-10.234781
      ESP Fit Center 1002 is at  -1.828284  0.095003-10.234781
      ESP Fit Center 1003 is at  -2.344906 -0.799814-10.234781
      ESP Fit Center 1004 is at  -0.795038 -1.694631-10.234781
      ESP Fit Center 1005 is at  -1.311661 -0.799814-10.440306
      ESP Fit Center 1006 is at   0.901469  1.241216 -8.139357
      ESP Fit Center 1007 is at  -0.065192  1.607822 -8.139357
      ESP Fit Center 1008 is at   0.901469 -2.314074 -8.139357
      ESP Fit Center 1009 is at   1.587034 -1.540231 -8.139357
      ESP Fit Center 1010 is at   1.545064 -0.536429 -9.219357
      ESP Fit Center 1011 is at   1.248110  0.474902 -9.219357
      ESP Fit Center 1012 is at   0.451531  1.165142 -9.219357
      ESP Fit Center 1013 is at   0.451531 -2.238000 -9.219357
      ESP Fit Center 1014 is at   1.248110 -1.547760 -9.219357
      ESP Fit Center 1015 is at   0.754449 -0.536429-10.009972
      ESP Fit Center 1016 is at   0.214449  0.398878-10.009972
      ESP Fit Center 1017 is at   0.214449 -1.471736-10.009972
      ESP Fit Center 1018 is at  -0.325551 -0.536429-10.299357
      ESP Fit Center 1019 is at  -2.868108 -3.129356 -7.164017
      ESP Fit Center 1020 is at  -1.909332 -3.567215 -7.164017
      ESP Fit Center 1021 is at  -3.740350 -2.232562 -8.244017
      ESP Fit Center 1022 is at  -3.259899 -3.147985 -8.244017
      ESP Fit Center 1023 is at  -2.409063 -3.735275 -8.244017
      ESP Fit Center 1024 is at  -1.382757 -3.859891 -8.244017
      ESP Fit Center 1025 is at  -0.416096 -3.493285 -8.244017
      ESP Fit Center 1026 is at  -3.437958 -2.242653 -9.324017
      ESP Fit Center 1027 is at  -2.868108 -3.129356 -9.324017
      ESP Fit Center 1028 is at  -1.909332 -3.567215 -9.324017
      ESP Fit Center 1029 is at  -0.866034 -3.417211 -9.324017
      ESP Fit Center 1030 is at  -0.069455 -2.726971 -9.324017
      ESP Fit Center 1031 is at  -2.723116 -1.715640-10.114632
      ESP Fit Center 1032 is at  -2.183116 -2.650947-10.114632
      ESP Fit Center 1033 is at  -1.103116 -2.650947-10.114632
      ESP Fit Center 1034 is at  -1.643116 -1.715640-10.404017
      ESP Fit Center 1035 is at  -2.273414  1.858623 -6.912299
      ESP Fit Center 1036 is at  -3.232190  1.420764 -6.912299
      ESP Fit Center 1037 is at  -3.802040  0.534061 -6.912299
      ESP Fit Center 1038 is at  -1.746839  2.151299 -7.992299
      ESP Fit Center 1039 is at  -2.773145  2.026683 -7.992299
      ESP Fit Center 1040 is at  -3.623981  1.439393 -7.992299
      ESP Fit Center 1041 is at  -4.104432  0.523970 -7.992299
      ESP Fit Center 1042 is at  -4.104432 -0.509874 -7.992299
      ESP Fit Center 1043 is at  -1.230116  1.708619 -9.072299
      ESP Fit Center 1044 is at  -2.273414  1.858623 -9.072299
      ESP Fit Center 1045 is at  -3.232190  1.420764 -9.072299
      ESP Fit Center 1046 is at  -3.802040  0.534061 -9.072299
      ESP Fit Center 1047 is at  -3.802040 -0.519965 -9.072299
[...]
 1255 Fit      -0.016360
 1256 Fit      -0.016052
 1257 Fit      -0.013909
 1258 Fit      -0.011789
 1259 Fit      -0.010888
 1260 Fit      -0.010960
 1261 Fit      -0.010969
 1262 Fit      -0.012643
 1263 Fit      -0.016608
 1264 Fit      -0.017073
 1265 Fit      -0.015731
 1266 Fit      -0.014394
 1267 Fit      -0.014157
 1268 Fit      -0.014833
 1269 Fit      -0.015349
 1270 Fit      -0.015220
 1271 Fit      -0.008922
 1272 Fit      -0.012627
 1273 Fit      -0.013363
 1274 Fit      -0.012901
 1275 Fit      -0.012719
 1276 Fit      -0.012904
 1277 Fit      -0.003743
 1278 Fit      -0.006679
 1279 Fit      -0.007603
 1280 Fit      -0.007629
 1281 Fit       0.001611
 1282 Fit      -0.004372
 1283 Fit       0.001203
 1284 Fit      -0.001396
 1285 Fit       0.004689
 1286 Fit       0.000300
 1287 Fit       0.001460
 1288 Fit       0.004326
 1289 Fit       0.005778
 1290 Fit       0.003643
 1291 Fit       0.006081
 1292 Fit       0.009398
 1293 Fit      -0.000870
 1294 Fit      -0.000652
 1295 Fit      -0.007454
 1296 Fit      -0.011464
 1297 Fit      -0.014257
 1298 Fit       0.008050
 1299 Fit       0.004198
 1300 Fit      -0.002265
 1301 Fit      -0.003866
 1302 Fit      -0.002740
 1303 Fit      -0.006020
 1304 Fit      -0.009259
 1305 Fit      -0.009376
 1306 Fit      -0.008637
 1307 Fit      -0.006686
 1308 Fit      -0.009622
 1309 Fit      -0.011240
 1310 Fit      -0.015507
 1311 Fit      -0.015637
 1312 Fit      -0.014859
 1313 Fit      -0.014618
 1314 Fit      -0.014608
 1315 Fit      -0.013383
 1316 Fit      -0.012117
 1317 Fit      -0.004834
 1318 Fit      -0.017463
 1319 Fit      -0.019860
 1320 Fit      -0.019291
 1321 Fit      -0.017827
 1322 Fit      -0.017033
 1323 Fit      -0.017236
 1324 Fit      -0.017474
 1325 Fit      -0.016159
 1326 Fit      -0.013633
 1327 Fit      -0.018738
 1328 Fit      -0.020073
 1329 Fit      -0.018892
 1330 Fit      -0.016995
 1331 Fit      -0.015793
 1332 Fit      -0.015527
 1333 Fit      -0.015126
 1334 Fit      -0.012779
 1335 Fit      -0.012054
 1336 Fit      -0.016179
 1337 Fit      -0.016769
 1338 Fit      -0.014989
 1339 Fit      -0.012531
 1340 Fit      -0.010368
 1341 Fit      -0.007925
 1342 Fit      -0.008167
 1343 Fit      -0.001661
 1344 Fit       0.001484
 1345 Fit       0.004111
 1346 Fit       0.004094
 1347 Fit       0.008934
 1348 Fit      -0.007946
 1349 Fit      -0.003495
 1350 Fit      -0.001981
 1351 Fit      -0.001203
 1352 Fit      -0.001316
 1353 Fit      -0.003948
 1354 Fit       0.000046
 1355 Fit      -0.001175
 1356 Fit      -0.001290
 1357 Fit      -0.001099
 1358 Fit      -0.002281
 1359 Fit      -0.005709
 1360 Fit      -0.006321
 1361 Fit      -0.002219
 1362 Fit      -0.002126
 1363 Fit       0.004128
 1364 Fit       0.000545
 1365 Fit      -0.005849
 1366 Fit       0.005816
 1367 Fit      -0.002088
 1368 Fit      -0.003206
 1369 Fit      -0.001341
 1370 Fit      -0.001764
 1371 Fit      -0.000496
 1372 Fit      -0.006266
 1373 Fit      -0.002832
 1374 Fit      -0.003001
 1375 Fit      -0.006196
 1376 Fit      -0.004105
 1377 Fit      -0.009389
 1378 Fit      -0.017020
 1379 Fit      -0.017564
 1380 Fit      -0.013629
 1381 Fit      -0.014394
 1382 Fit      -0.017266
 1383 Fit      -0.016975
 1384 Fit      -0.017937
 1385 Fit      -0.017588
 1386 Fit      -0.012492
 1387 Fit      -0.006971
 1388 Fit      -0.006489
 1389 Fit      -0.011040
 1390 Fit      -0.016352
 1391 Fit      -0.018491
 1392 Fit      -0.016640
 1393 Fit      -0.013853
 1394 Fit      -0.013562
 1395 Fit      -0.015962
 1396 Fit      -0.018496
 1397 Fit      -0.015355
 1398 Fit      -0.010135
 1399 Fit      -0.004842
 1400 Fit      -0.012299
 1401 Fit      -0.018128
 1402 Fit      -0.019679
 1403 Fit      -0.016672
 1404 Fit      -0.011425
 1405 Fit      -0.007502
 1406 Fit      -0.006987
 1407 Fit      -0.008623
 1408 Fit      -0.012113
 1409 Fit      -0.015906
 1410 Fit      -0.009490
 1411 Fit      -0.005054
 1412 Fit      -0.017718
 1413 Fit      -0.019226
 1414 Fit      -0.015440
 1415 Fit      -0.008196
 1416 Fit      -0.013896
 1417 Fit      -0.015906
 1418 Fit      -0.011876
 1419 Fit      -0.009249
 1420 Fit       0.000357
 1421 Fit       0.006385
 1422 Fit       0.007259
 1423 Fit      -0.000756
 1424 Fit       0.003405
 1425 Fit       0.002482
 1426 Fit       0.000904
 1427 Fit       0.004495
 1428 Fit       0.005888
 1429 Fit       0.005576
 1430 Fit       0.003641
 1431 Fit       0.005336
 1432 Fit       0.006458
 1433 Fit       0.006711
 1434 Fit       0.005697
 1435 Fit       0.002689
 1436 Fit       0.007903
 1437 Fit       0.006581
 1438 Fit       0.006600
 1439 Fit       0.011409
 1440 Fit       0.007819
 1441 Fit       0.007424
 1442 Fit       0.012253
 1443 Fit       0.007381
 1444 Fit       0.010291
 1445 Fit       0.003506
 1446 Fit       0.002179
 1447 Fit       0.001359
 1448 Fit       0.000291
 1449 Fit      -0.000385
 1450 Fit      -0.001039
 1451 Fit       0.004813
 1452 Fit       0.000134
 1453 Fit      -0.000161
 1454 Fit       0.009755
 1455 Fit       0.000933
 1456 Fit       0.000191
 1457 Fit      -0.001589
 1458 Fit       0.000442
 1459 Fit       0.002049
 1460 Fit       0.006015
 1461 Fit       0.001701
 1462 Fit       0.000472
 1463 Fit       0.002072
 1464 Fit       0.005073
 1465 Fit       0.001184
 1466 Fit      -0.000463
 1467 Fit      -0.006272
 1468 Fit       0.001831
 1469 Fit       0.000983
 1470 Fit      -0.001227
 1471 Fit      -0.006906
 1472 Fit       0.001322
 1473 Fit       0.001059
 1474 Fit      -0.000271
 1475 Fit      -0.003408
 1476 Fit      -0.009019
 1477 Fit       0.000315
 1478 Fit      -0.000326
 1479 Fit      -0.001878
 1480 Fit       0.007518
 1481 Fit       0.005638
 1482 Fit       0.003528
 1483 Fit       0.006375
 1484 Fit       0.005677
 1485 Fit       0.004594
 1486 Fit       0.002874
 1487 Fit       0.005060
 1488 Fit       0.004677
 1489 Fit       0.004526
 1490 Fit       0.003479
 1491 Fit       0.001656
 1492 Fit       0.001766
 1493 Fit       0.002549
 1494 Fit       0.001610
 1495 Fit       0.000427
 1496 Fit       0.004065
 1497 Fit       0.006746
 1498 Fit       0.012393
 1499 Fit       0.004271
 1500 Fit       0.006249
 1501 Fit       0.009932
 1502 Fit       0.005362
 1503 Fit       0.006683
 1504 Fit       0.005396
 1505 Fit       0.004711
 1506 Fit       0.005235
 1507 Fit       0.006867
 1508 Fit       0.005487
 1509 Fit       0.013950
 1510 Fit       0.012784
 1511 Fit       0.009592
 1512 Fit       0.005531
 1513 Fit       0.011960
 1514 Fit       0.013279
 1515 Fit       0.010816
 1516 Fit       0.009696
 1517 Fit       0.007203
 1518 Fit       0.010376
 1519 Fit       0.008481
 1520 Fit       0.007062
 1521 Fit       0.007928
 1522 Fit       0.009834
 1523 Fit       0.010817
 1524 Fit       0.011562
 1525 Fit       0.012245
 1526 Fit       0.007042
 1527 Fit       0.008535
 1528 Fit       0.009722
 1529 Fit       0.010423
 1530 Fit       0.010692
 1531 Fit       0.010736
 1532 Fit       0.007432
 1533 Fit       0.008772
 1534 Fit       0.009438
 1535 Fit       0.009406
 1536 Fit       0.009024
 1537 Fit       0.006547
 1538 Fit       0.007915
 1539 Fit       0.008041
 1540 Fit       0.006618
 1541 Fit      -0.005905
 1542 Fit      -0.004669
 1543 Fit      -0.002545
 1544 Fit       0.000375
 1545 Fit       0.002925
 1546 Fit       0.005109
 1547 Fit       0.001476
 1548 Fit       0.002185
 1549 Fit       0.003466
 1550 Fit       0.004578
 1551 Fit       0.005383
 1552 Fit       0.003834
 1553 Fit       0.003995
 1554 Fit       0.004708
 1555 Fit       0.005208
 1556 Fit       0.005506
 1557 Fit       0.004761
 1558 Fit       0.005052
 1559 Fit       0.010302
 1560 Fit       0.011412
 1561 Fit       0.011803
 1562 Fit       0.012346
 1563 Fit       0.005406
 1564 Fit       0.007479
 1565 Fit      -0.001758
 1566 Fit       0.004280
 1567 Fit       0.006980
 1568 Fit       0.008321
 1569 Fit       0.009391
 1570 Fit      -0.003170
 1571 Fit       0.003498
 1572 Fit       0.006663
 1573 Fit       0.008381
 1574 Fit       0.009424
 1575 Fit       0.010413
 1576 Fit       0.004926
 1577 Fit       0.007438
 1578 Fit       0.009078
 1579 Fit       0.010352
 1580 Fit       0.011813
 1581 Fit       0.011775
 1582 Fit       0.012950
 1583 Fit       0.014959
 1584 Fit       0.012526
 1585 Fit       0.013027
 1586 Fit       0.014315
 1587 Fit       0.016561
 1588 Fit       0.013484
 1589 Fit       0.014831
 1590 Fit      -0.009984
 1591 Fit      -0.009289
 1592 Fit      -0.005307
 1593 Fit      -0.009814
 1594 Fit      -0.011849
 1595 Fit      -0.009742
 1596 Fit      -0.004138
 1597 Fit      -0.006905
 1598 Fit      -0.009836
 1599 Fit      -0.007297
 1600 Fit       0.012673
 1601 Fit       0.009599
 1602 Fit      -0.004242
 1603 Fit       0.007876
 1604 Fit       0.003520
 1605 Fit      -0.001290
 1606 Fit      -0.002300
 1607 Fit      -0.004093
 1608 Fit       0.007136
 1609 Fit       0.004651
 1610 Fit       0.002897
 1611 Fit       0.000708
 1612 Fit      -0.003186
 1613 Fit       0.009356
 1614 Fit       0.006854
 1615 Fit       0.004807
 1616 Fit       0.002084
 1617 Fit      -0.002857
 1618 Fit       0.009137
 1619 Fit       0.006473
 1620 Fit       0.003415
 1621 Fit      -0.001964
 1622 Fit       0.014717
 1623 Fit       0.013021
 1624 Fit       0.016828
 1625 Fit       0.015885
 1626 Fit       0.013715
 1627 Fit       0.011945
 1628 Fit       0.009857
 1629 Fit       0.016373
 1630 Fit       0.015125
 1631 Fit       0.014050
 1632 Fit       0.011832
 1633 Fit       0.008510
 1634 Fit       0.010847
 1635 Fit       0.015639
 1636 Fit       0.008739
 1637 Fit       0.008480
 1638 Fit       0.011723
 1639 Fit       0.011433
 1640 Fit       0.011010
 1641 Fit       0.010741
 1642 Fit       0.013639
 1643 Fit       0.013190
 1644 Fit       0.016487
 1645 Fit       0.007915
 1646 Fit       0.004969
 1647 Fit       0.008827
 1648 Fit       0.009964
 1649 Fit       0.008480
 1650 Fit       0.005875
 1651 Fit       0.010847
 1652 Fit       0.010592
 1653 Fit       0.011781
 1654 Fit       0.010837
 1655 Fit       0.009632
 1656 Fit       0.012931
 1657 Fit       0.012351
 1658 Fit       0.013761
 1659 Fit       0.013213
 1660 Fit       0.014552
 1661 Fit      -0.005164
 1662 Fit       0.004990
 1663 Fit       0.005786
 1664 Fit      -0.002489
 1665 Fit      -0.003403
 1666 Fit      -0.003867
 1667 Fit       0.004062
 1668 Fit       0.003532
 1669 Fit       0.003650
 1670 Fit       0.004038
 1671 Fit       0.004649
 1672 Fit       0.006267
 1673 Fit       0.006992
 1674 Fit       0.007970
 1675 Fit       0.009343
 1676 Fit       0.002479
 1677 Fit       0.003806
 1678 Fit       0.004888
 1679 Fit      -0.003561
 1680 Fit      -0.002841
 1681 Fit      -0.001361
 1682 Fit       0.000732
 1683 Fit       0.003302
 1684 Fit      -0.009364
 1685 Fit      -0.002392
 1686 Fit      -0.002911
 1687 Fit       0.000440
 1688 Fit       0.000591
 1689 Fit      -0.008248
 1690 Fit      -0.006354
 1691 Fit      -0.002795
 1692 Fit      -0.000837
 1693 Fit      -0.001763
 1694 Fit      -0.005902
 1695 Fit      -0.000127
 1696 Fit       0.001864
 1697 Fit       0.002420
 1698 Fit       0.001616
 1699 Fit      -0.000869
 1700 Fit       0.002080
 1701 Fit       0.003597
 1702 Fit       0.004449
 1703 Fit       0.004553
 1704 Fit       0.003991
 1705 Fit       0.004992
 1706 Fit      -0.005458
 1707 Fit      -0.003530
 1708 Fit      -0.001445
 1709 Fit      -0.003198
 1710 Fit      -0.001913
 1711 Fit      -0.000226
 1712 Fit      -0.014411
 1713 Fit      -0.015903
 1714 Fit      -0.013380
 1715 Fit      -0.011009
 1716 Fit      -0.011463
 1717 Fit      -0.008412
 1718 Fit      -0.006837
 1719 Fit      -0.000374
 1720 Fit       0.006531
 1721 Fit       0.009246
 1722 Fit      -0.003806
 1723 Fit       0.001524
 1724 Fit       0.009147
 1725 Fit       0.005893
 1726 Fit       0.008648
 1727 Fit       0.003246
 1728 Fit       0.005397
 1729 Fit       0.006866
 1730 Fit       0.007920
 1731 Fit       0.007383
 1732 Fit       0.007858
 1733 Fit       0.008181
 1734 Fit      -0.004642
 1735 Fit      -0.000935
 1736 Fit       0.003006
 1737 Fit      -0.003816
 1738 Fit       0.000403
 1739 Fit       0.003529
 1740 Fit       0.006574
 1741 Fit       0.002205
 1742 Fit      -0.001078
 1743 Fit       0.004277
 1744 Fit       0.005334
 1745 Fit       0.003197
 1746 Fit       0.001573
 1747 Fit      -0.000007
 1748 Fit      -0.001430
 1749 Fit      -0.001232
 1750 Fit       0.004611
 1751 Fit       0.007848
 1752 Fit       0.005101
 1753 Fit       0.000862
 1754 Fit       0.008919
 1755 Fit       0.007409
 1756 Fit       0.005648
 1757 Fit       0.002381
 1758 Fit      -0.002789
 1759 Fit       0.008995
 1760 Fit       0.007633
 1761 Fit       0.005781
 1762 Fit       0.002930
 1763 Fit       0.007692
 1764 Fit      -0.004144
 1765 Fit      -0.004933
 1766 Fit      -0.003792
 1767 Fit      -0.001591
 1768 Fit       0.000320
 1769 Fit      -0.003894
 1770 Fit      -0.008469
 1771 Fit      -0.010693
 1772 Fit      -0.010714
 1773 Fit      -0.009291
 1774 Fit      -0.007488
 1775 Fit      -0.006230
 1776 Fit      -0.005529
 1777 Fit      -0.004331
 1778 Fit      -0.003432
 1779 Fit      -0.009138
 1780 Fit      -0.012334
 1781 Fit      -0.013324
 1782 Fit      -0.012775
 1783 Fit      -0.011566
 1784 Fit      -0.010526
 1785 Fit      -0.010106
 1786 Fit      -0.010155
 1787 Fit      -0.010191
 1788 Fit      -0.010104
 1789 Fit      -0.007839
 1790 Fit      -0.011333
 1791 Fit      -0.012453
 1792 Fit      -0.012151
 1793 Fit      -0.011469
 1794 Fit      -0.011135
 1795 Fit      -0.011196
 1796 Fit      -0.011007
 1797 Fit      -0.005179
 1798 Fit      -0.008256
 1799 Fit      -0.009320
 1800 Fit      -0.009388
 1801 Fit      -0.009289
 1802 Fit      -0.008876
 1803 Fit      -0.004344
 1804 Fit      -0.005389
 1805 Fit      -0.005345
 1806 Fit       0.000719
 1807 Fit      -0.001608
 1808 Fit      -0.000649
 1809 Fit      -0.004582
 1810 Fit       0.002325
 1811 Fit      -0.000331
 1812 Fit       0.002170
 1813 Fit       0.005236
 1814 Fit       0.006726
 1815 Fit       0.006933
 1816 Fit       0.003296
 1817 Fit       0.006050
 1818 Fit       0.009868
 1819 Fit       0.001298
 1820 Fit       0.001396
 1821 Fit       0.002289
 1822 Fit       0.004702
 1823 Fit      -0.007823
 1824 Fit      -0.009690
 1825 Fit      -0.013387
 1826 Fit      -0.016235
 1827 Fit       0.002126
 1828 Fit       0.001536
 1829 Fit      -0.001415
 1830 Fit      -0.005543
 1831 Fit      -0.006989
 1832 Fit      -0.007325
 1833 Fit      -0.006565
 1834 Fit      -0.004643
 1835 Fit      -0.006249
 1836 Fit      -0.011071
 1837 Fit      -0.011845
 1838 Fit      -0.011521
 1839 Fit      -0.011163
 1840 Fit      -0.010676
 1841 Fit      -0.009261
 1842 Fit      -0.008690
 1843 Fit      -0.003547
 1844 Fit      -0.013532
 1845 Fit      -0.015112
 1846 Fit      -0.014871
 1847 Fit      -0.014127
 1848 Fit      -0.013675
 1849 Fit      -0.013573
 1850 Fit      -0.013229
 1851 Fit      -0.011802
 1852 Fit      -0.007434
 1853 Fit      -0.012476
 1854 Fit      -0.015562
 1855 Fit      -0.016547
 1856 Fit      -0.016062
 1857 Fit      -0.015004
 1858 Fit      -0.014112
 1859 Fit      -0.013672
 1860 Fit      -0.013428
 1861 Fit      -0.012712
 1862 Fit      -0.010802
 1863 Fit      -0.007515
 1864 Fit      -0.012793
 1865 Fit      -0.015320
 1866 Fit      -0.015635
 1867 Fit      -0.014540
 1868 Fit      -0.013005
 1869 Fit      -0.011679
 1870 Fit      -0.010544
 1871 Fit      -0.008886
 1872 Fit      -0.005502
 1873 Fit      -0.013466
 1874 Fit      -0.014238
 1875 Fit      -0.012758
 1876 Fit      -0.009985
 1877 Fit      -0.006614
 1878 Fit      -0.001640
 1879 Fit      -0.001617
 1880 Fit       0.000733
 1881 Fit       0.001897
 1882 Fit       0.005204
 1883 Fit      -0.005069
 1884 Fit      -0.003890
 1885 Fit      -0.002947
 1886 Fit      -0.002555
 1887 Fit      -0.005762
 1888 Fit      -0.001596
 1889 Fit      -0.002126
 1890 Fit      -0.002058
 1891 Fit      -0.001956
 1892 Fit      -0.002133
 1893 Fit      -0.003720
 1894 Fit      -0.003855
 1895 Fit      -0.008034
 1896 Fit      -0.000962
 1897 Fit      -0.002784
 1898 Fit       0.003510
 1899 Fit       0.000074
 1900 Fit      -0.004909
 1901 Fit      -0.002708
 1902 Fit      -0.002521
 1903 Fit      -0.001442
 1904 Fit      -0.005722
 1905 Fit      -0.003282
 1906 Fit      -0.003536
 1907 Fit      -0.005426
 1908 Fit      -0.004121
 1909 Fit      -0.004227
 1910 Fit      -0.007012
 1911 Fit      -0.005280
 1912 Fit      -0.014129
 1913 Fit      -0.014239
 1914 Fit      -0.011740
 1915 Fit      -0.012335
 1916 Fit      -0.014350
 1917 Fit      -0.014325
 1918 Fit      -0.014744
 1919 Fit      -0.014013
 1920 Fit      -0.010674
 1921 Fit      -0.007217
 1922 Fit      -0.006934
 1923 Fit      -0.009895
 1924 Fit      -0.013437
 1925 Fit      -0.015035
 1926 Fit      -0.014132
 1927 Fit      -0.012526
 1928 Fit      -0.012270
 1929 Fit      -0.013541
 1930 Fit      -0.014830
 1931 Fit      -0.012542
 1932 Fit      -0.008898
 1933 Fit      -0.003538
 1934 Fit      -0.005372
 1935 Fit      -0.010461
 1936 Fit      -0.014463
 1937 Fit      -0.015734
 1938 Fit      -0.014082
 1939 Fit      -0.010973
 1940 Fit      -0.008586
 1941 Fit      -0.008145
 1942 Fit      -0.009147
 1943 Fit      -0.011232
 1944 Fit      -0.013199
 1945 Fit      -0.009033
 1946 Fit      -0.005790
 1947 Fit      -0.001731
 1948 Fit      -0.007338
 1949 Fit      -0.012713
 1950 Fit      -0.015529
 1951 Fit      -0.014942
 1952 Fit      -0.011632
 1953 Fit      -0.007134
 1954 Fit      -0.002862
 1955 Fit      -0.009152
 1956 Fit      -0.002797
 1957 Fit      -0.013899
 1958 Fit      -0.013309
 1959 Fit      -0.009864
 1960 Fit      -0.010333
 1961 Fit      -0.009775
 1962 Fit      -0.004784
 1963 Fit      -0.001800
 1964 Fit       0.003910
 1965 Fit       0.005506
 1966 Fit       0.006255
 1967 Fit       0.006197
 1968 Fit      -0.002211
 1969 Fit       0.001428
 1970 Fit       0.000579
 1971 Fit      -0.000671
 1972 Fit       0.002737
 1973 Fit       0.004010
 1974 Fit       0.003731
 1975 Fit       0.001887
 1976 Fit       0.001568
 1977 Fit       0.003709
 1978 Fit       0.004868
 1979 Fit       0.005225
 1980 Fit       0.004679
 1981 Fit       0.005626
 1982 Fit       0.006010
 1983 Fit       0.004626
 1984 Fit       0.004603
 1985 Fit       0.008012
 1986 Fit       0.006097
 1987 Fit       0.005802
 1988 Fit       0.006322
 1989 Fit       0.006085
 1990 Fit       0.005570
 1991 Fit       0.002958
 1992 Fit       0.005021
 1993 Fit       0.002562
 1994 Fit       0.001676
 1995 Fit       0.000516
 1996 Fit      -0.002472
 1997 Fit      -0.003186
 1998 Fit       0.000692
 1999 Fit      -0.000291
 2000 Fit      -0.000678
 2001 Fit       0.002163
 2002 Fit      -0.000020
 2003 Fit      -0.000165
 2004 Fit      -0.000920
 2005 Fit      -0.000309
 2006 Fit      -0.000744
 2007 Fit       0.000295
 2008 Fit       0.000331
 2009 Fit       0.001521
 2010 Fit       0.004256
 2011 Fit      -0.000191
 2012 Fit       0.000917
 2013 Fit       0.002601
 2014 Fit      -0.000548
 2015 Fit      -0.001638
 2016 Fit      -0.007292
 2017 Fit       0.001227
 2018 Fit      -0.000155
 2019 Fit      -0.002677
 2020 Fit      -0.008456
 2021 Fit       0.001272
 2022 Fit       0.000695
 2023 Fit      -0.000419
 2024 Fit      -0.002843
 2025 Fit      -0.007519
 2026 Fit       0.000523
 2027 Fit      -0.000159
 2028 Fit      -0.001654
 2029 Fit      -0.004078
 2030 Fit       0.005248
 2031 Fit       0.006055
 2032 Fit       0.005090
 2033 Fit       0.004061
 2034 Fit       0.002732
 2035 Fit       0.004743
 2036 Fit       0.004337
 2037 Fit       0.003753
 2038 Fit       0.002699
 2039 Fit       0.001345
 2040 Fit       0.002879
 2041 Fit       0.002871
 2042 Fit       0.002973
 2043 Fit       0.002344
 2044 Fit       0.001118
 2045 Fit       0.000208
 2046 Fit       0.001156
 2047 Fit       0.000745
 2048 Fit      -0.000413
 Job cpu time:       0 days  0 hours 13 minutes 21.5 seconds.
 Normal termination of Gaussian 16 at Sun Jul  9 07:20:40 2023.
