 Copyright (c) 1988-2019, Gaussian, Inc.  All Rights Reserved.
  
 This is part of the Gaussian(R) 16 program.  It is based on
 the Gaussian(R) 09 system (copyright 2009, Gaussian, Inc.),
 the Gaussian(R) 03 system (copyright 2003, Gaussian, Inc.),
 the Gaussian(R) 98 system (copyright 1998, Gaussian, Inc.),
 the Gaussian(R) 94 system (copyright 1995, Gaussian, Inc.),
 the Gaussian 92(TM) system (copyright 1992, Gaussian, Inc.),
 the Gaussian 90(TM) system (copyright 1990, Gaussian, Inc.),
 the Gaussian 88(TM) system (copyright 1988, Gaussian, Inc.),
 the Gaussian 86(TM) system (copyright 1986, Carnegie Mellon
 University), and the Gaussian 82(TM) system (copyright 1983,
 Carnegie Mellon University). Gaussian is a federally registered
 trademark of Gaussian, Inc.
 Cite this work as:
 Gaussian 16, Revision C.01,
 M. J. Frisch, G. W. Trucks, H. B. Schlegel, G. E. Scuseria, 
 M. A. Robb, J. R. Cheeseman, G. Scalmani, V. Barone, 
 G. A. Petersson, H. Nakatsuji, X. Li, M. Caricato, A. V. Marenich, 
 J. Bloino, B. G. Janesko, R. Gomperts, B. Mennucci, H. P. Hratchian, 
 J. V. Ortiz, A. F. Izmaylov, J. L. Sonnenberg, D. Williams-Young, 
 F. Ding, F. Lipparini, F. Egidi, J. Goings, B. Peng, A. Petrone, 
 T. Henderson, D. Ranasinghe, V. G. Zakrzewski, J. Gao, N. Rega, 
 G. Zheng, W. Liang, M. Hada, M. Ehara, K. Toyota, R. Fukuda, 
 J. Hasegawa, M. Ishida, T. Nakajima, Y. Honda, O. Kitao, H. Nakai, 
 T. Vreven, K. Throssell, J. A. Montgomery, Jr., J. E. Peralta, 
 F. Ogliaro, M. J. Bearpark, J. J. Heyd, E. N. Brothers, K. N. Kudin, 
 V. N. Staroverov, T. A. Keith, R. Kobayashi, J. Normand, 
 K. Raghavachari, A. P. Rendell, J. C. Burant, S. S. Iyengar, 
 J. Tomasi, M. Cossi, J. M. Millam, M. Klene, C. Adamo, R. Cammi, 
 J. W. Ochterski, R. L. Martin, K. Morokuma, O. Farkas, 
 J. B. Foresman, and D. J. Fox, Gaussian, Inc., Wallingford CT, 2019.
 
 ******************************************
 Gaussian 16:  EM64L-G16RevC.01  3-Jul-2019
                 9-Jul-2023 
 ******************************************
 ----------------------------------------------------------------------
 #P B3LYP/6-31G(d) Integral=Ultrafine SCF(Conver=8,XQC,MaxConventionalC
 ycles=64,MaxCycle=128) NoSymm Test Pop=mk IOp(6/33=2) GFInput GFPrint
 ----------------------------------------------------------------------
 1/38=1,172=1/1;
 2/12=2,15=1,17=6,18=5,40=1/2;
 3/5=1,6=6,7=1,11=2,24=110,25=1,30=1,74=-5,75=-5/1,2,3;
 4//1;
 5/5=2,6=8,7=128,8=3,13=1,38=5,85=64/2,8;
 6/7=2,8=2,9=2,10=2,15=8,20=1,28=1,33=2/1,2;
 99/5=1,9=1/99;
 -------------------------------------------------
 MEP step - Input generated by PyRED DVE-DMDS-OPLS
 -------------------------------------------------
 Symbolic Z-matrix:
 Charge =  0 Multiplicity = 1
 C                     4.55126   6.69179   4.16799 
 H                     4.24823   5.89094   4.85251 
 H                     5.63027   6.84618   4.29139 
 H                     4.03283   7.60882   4.46741 
 C                     4.22293   6.34319   2.7178 
 H                     4.54172   7.15769   2.05713 
 H                     4.74525   5.43374   2.39995 
 O                     2.81683   6.20955   2.50207 
 C                     2.27387   4.93122   2.78483 
 H                     1.24051   5.09493   3.11642 
 H                     2.81155   4.43434   3.60584 
 C                     2.24036   4.01257   1.57203 
 H                     1.59283   3.14859   1.77712 
 H                     1.81446   4.55877   0.71631 
 O                     3.56717   3.58843   1.27127 
 C                     3.74036   2.96605   0.01219 
 H                     4.80864   3.04951  -0.22032 
 H                     3.17679   3.49846  -0.76988 
 C                     3.36486   1.49021  -0.0134 
 H                     3.81306   0.98423   0.85698 
 H                     3.78353   1.02693  -0.92464 
 O                     1.95305   1.35129   0. 
 C                     1.52506   0.        0. 
 H                     1.90372  -0.53217   0.8867 
 H                     1.91555  -0.52235  -0.88909 
 C                     0.        0.        0. 
 H                    -0.38086   0.56621  -0.85644 
 H                    -0.36757   0.49039   0.90675 
 S                    -0.73736  -1.67769   0.00751 
 C                    -0.52328  -2.15676  -1.75926 
 H                    -0.94561  -1.37094  -2.39401 
 H                     0.54092  -2.25787  -1.99363 
 C                    -1.245    -3.48088  -2.00504 
 H                    -2.31753  -3.36765  -1.81361 
 H                    -0.85234  -4.253    -1.33573 
 S                    -0.99897  -3.98187  -3.76023 
 C                    -2.14935  -5.41386  -3.87308 
 H                    -2.25347  -5.60612  -4.94514 
 H                    -3.13398  -5.11146  -3.50345 
 C                    -1.64354  -6.67201  -3.16298 
 H                    -0.66218  -6.94857  -3.55882 
 H                    -1.52404  -6.50812  -2.08694 
 S                    -2.73455  -8.13946  -3.40361 
 C                    -3.74786  -8.13841  -1.86723 
 H                    -4.2444   -9.11473  -1.88599 
 H                    -3.0695   -8.14353  -1.00635 
 C                    -4.78215  -7.02042  -1.74629 
 H                    -5.38528  -7.16115  -0.84026 
 H                    -4.30721  -6.03615  -1.67431 
 H                    -5.45472  -7.01082  -2.6097 
 
 ITRead=  0  0  0  0  0  0  0  0  0  0  0  0  0  0  0  0  0  0  0  0
 ITRead=  0  0  0  0  0  0  0  0  0  0  0  0  0  0  0  0  0  0  0  0
 ITRead=  0  0  0  0  0  0  0  0  0  0
 MicOpt= -1 -1 -1 -1 -1 -1 -1 -1 -1 -1 -1 -1 -1 -1 -1 -1 -1 -1 -1 -1
 MicOpt= -1 -1 -1 -1 -1 -1 -1 -1 -1 -1 -1 -1 -1 -1 -1 -1 -1 -1 -1 -1
 MicOpt= -1 -1 -1 -1 -1 -1 -1 -1 -1 -1
 NAtoms=     50 NQM=       50 NQMF=       0 NMMI=      0 NMMIF=      0
                NMic=       0 NMicF=      0.
                          Input orientation:                          
 ---------------------------------------------------------------------
 Center     Atomic      Atomic             Coordinates (Angstroms)
 Number     Number       Type             X           Y           Z
 ---------------------------------------------------------------------
      1          6           0        4.551265    6.691794    4.167986
      2          1           0        4.248233    5.890935    4.852512
      3          1           0        5.630272    6.846184    4.291392
      4          1           0        4.032830    7.608816    4.467414
      5          6           0        4.222935    6.343193    2.717802
      6          1           0        4.541717    7.157694    2.057129
      7          1           0        4.745254    5.433736    2.399946
      8          8           0        2.816830    6.209545    2.502067
      9          6           0        2.273866    4.931222    2.784826
     10          1           0        1.240510    5.094927    3.116418
     11          1           0        2.811554    4.434338    3.605838
     12          6           0        2.240356    4.012565    1.572026
     13          1           0        1.592825    3.148585    1.777119
     14          1           0        1.814463    4.558767    0.716309
     15          8           0        3.567169    3.588426    1.271274
     16          6           0        3.740361    2.966049    0.012194
     17          1           0        4.808636    3.049515   -0.220323
     18          1           0        3.176793    3.498460   -0.769878
     19          6           0        3.364859    1.490214   -0.013403
     20          1           0        3.813061    0.984227    0.856983
     21          1           0        3.783530    1.026930   -0.924639
     22          8           0        1.953045    1.351289    0.000000
     23          6           0        1.525063    0.000000    0.000000
     24          1           0        1.903718   -0.532168    0.886704
     25          1           0        1.915546   -0.522349   -0.889086
     26          6           0        0.000000    0.000000    0.000000
     27          1           0       -0.380862    0.566208   -0.856444
     28          1           0       -0.367574    0.490390    0.906751
     29         16           0       -0.737363   -1.677686    0.007511
     30          6           0       -0.523277   -2.156762   -1.759262
     31          1           0       -0.945609   -1.370935   -2.394011
     32          1           0        0.540918   -2.257874   -1.993630
     33          6           0       -1.244997   -3.480878   -2.005043
     34          1           0       -2.317527   -3.367653   -1.813609
     35          1           0       -0.852337   -4.252995   -1.335729
     36         16           0       -0.998966   -3.981874   -3.760230
     37          6           0       -2.149350   -5.413863   -3.873082
     38          1           0       -2.253470   -5.606121   -4.945141
     39          1           0       -3.133977   -5.111465   -3.503445
     40          6           0       -1.643541   -6.672012   -3.162978
     41          1           0       -0.662183   -6.948572   -3.558817
     42          1           0       -1.524037   -6.508120   -2.086943
     43         16           0       -2.734547   -8.139461   -3.403613
     44          6           0       -3.747857   -8.138406   -1.867233
     45          1           0       -4.244396   -9.114726   -1.885989
     46          1           0       -3.069498   -8.143528   -1.006349
     47          6           0       -4.782149   -7.020417   -1.746292
     48          1           0       -5.385278   -7.161146   -0.840255
     49          1           0       -4.307212   -6.036145   -1.674305
     50          1           0       -5.454722   -7.010819   -2.609695
 ---------------------------------------------------------------------
 Stoichiometry    C14H30O3S3
 Framework group  C1[X(C14H30O3S3)]
 Standard basis: 6-31G(d) (6D, 7F)
   372 basis functions,   752 primitive gaussians,   372 cartesian basis functions
    93 alpha electrons       93 beta electrons
 Requested convergence on RMS density matrix=1.00D-08 within  64 cycles.
 Requested convergence on MAX density matrix=1.00D-06.
 Requested convergence on             energy=1.00D-06.
 SCF Done:  E(RB3LYP) =  -1971.75525771     A.U. after   13 cycles
            NFock= 13  Conv=0.38D-08     -V/T= 2.0058
 Mulliken charges:
     1  C   -0.451638
     2  H    0.145036
     3  H    0.137212
     4  H    0.153410
     5  C   -0.031537
     6  H    0.136562
     7  H    0.151237
     8  O   -0.472719
     9  C   -0.046124
    10  H    0.138750
    11  H    0.131230
    12  C   -0.018563
    13  H    0.132165
    14  H    0.130856
    15  O   -0.474732
    16  C   -0.037215
    17  H    0.144594
    18  H    0.136880
    19  C   -0.022004
    20  H    0.134165
    21  H    0.118492
    22  O   -0.477856
    23  C    0.000096
    24  H    0.139469
    25  H    0.126071
    26  C   -0.437201
    27  H    0.181216
    28  H    0.187710
    29  S    0.087145
    30  C   -0.416478
    31  H    0.186481
    32  H    0.187104
    33  C   -0.418130
    34  H    0.182568
    35  H    0.184251
    36  S    0.085184
    37  C   -0.409742
    38  H    0.191622
    39  H    0.180297
    40  C   -0.414858
    41  H    0.192592
    42  H    0.172436
    43  S    0.083198
    44  C   -0.408838
    45  H    0.179232
    46  H    0.170105
    47  C   -0.435505
    48  H    0.151983
    49  H    0.148556
    50  H    0.165235
 Sum of Mulliken charges =  -0.00000
 Dipole moment (field-independent basis, Debye):
    X=              0.0329    Y=             -1.1263    Z=              0.7489  Tot=              1.3530
 Quadrupole moment (field-independent basis, Debye-Ang):
   XX=           -136.3910   YY=           -167.7400   ZZ=           -156.7005
   XY=              4.4516   XZ=             -3.6540   YZ=            -14.7535
 Traceless Quadrupole moment (field-independent basis, Debye-Ang):
   XX=             17.2195   YY=            -14.1295   ZZ=             -3.0900
   XY=              4.4516   XZ=             -3.6540   YZ=            -14.7535
 Octapole moment (field-independent basis, Debye-Ang**2):
  XXX=            -98.5184  YYY=            483.3506  ZZZ=            327.9958  XYY=            -88.4943
  XXY=            139.7719  XXZ=             88.7967  XZZ=            -14.1750  YZZ=            233.6152
  YYZ=            173.4417  XYZ=             15.6463
 Hexadecapole moment (field-independent basis, Debye-Ang**3):
 XXXX=          -6443.9644 YYYY=         -24226.1042 ZZZZ=          -5631.1867 XXXY=          -4987.5022
 XXXZ=          -2151.0022 YYYX=          -5221.8964 YYYZ=          -6141.4895 ZZZX=          -2252.2675
 ZZZY=          -5150.9295 XXYY=          -4418.3010 XXZZ=          -2082.7918 YYZZ=          -5208.7048
 XXYZ=          -1642.8924 YYXZ=           -968.0371 ZZXY=          -1943.5594
 Merz-Kollman atomic radii used.
 Atom Element Radius
    1     6    1.50
    2     1    1.20
    3     1    1.20
    4     1    1.20
    5     6    1.50
    6     1    1.20
    7     1    1.20
    8     8    1.40
    9     6    1.50
   10     1    1.20
   11     1    1.20
   12     6    1.50
   13     1    1.20
   14     1    1.20
   15     8    1.40
   16     6    1.50
   17     1    1.20
   18     1    1.20
   19     6    1.50
   20     1    1.20
   21     1    1.20
   22     8    1.40
   23     6    1.50
   24     1    1.20
   25     1    1.20
   26     6    1.50
   27     1    1.20
   28     1    1.20
   29    16    1.75
   30     6    1.50
   31     1    1.20
   32     1    1.20
   33     6    1.50
   34     1    1.20
   35     1    1.20
   36    16    1.75
   37     6    1.50
   38     1    1.20
   39     1    1.20
   40     6    1.50
   41     1    1.20
   42     1    1.20
   43    16    1.75
   44     6    1.50
   45     1    1.20
   46     1    1.20
   47     6    1.50
   48     1    1.20
   49     1    1.20
   50     1    1.20
 Generate VDW surfaces: Layer= 4 Dens= 1 Start= 1.400 Inc= 0.200
            Electrostatic Properties Using The SCF Density.


       Atomic Center    1 is at   4.551265  6.691794  4.167986
       Atomic Center    2 is at   4.248233  5.890935  4.852512
       Atomic Center    3 is at   5.630272  6.846184  4.291392
       Atomic Center    4 is at   4.032830  7.608816  4.467414
       Atomic Center    5 is at   4.222935  6.343193  2.717802
       Atomic Center    6 is at   4.541717  7.157694  2.057129
       Atomic Center    7 is at   4.745254  5.433736  2.399946
       Atomic Center    8 is at   2.816830  6.209545  2.502067
       Atomic Center    9 is at   2.273866  4.931222  2.784826
       Atomic Center   10 is at   1.240510  5.094927  3.116418
       Atomic Center   11 is at   2.811554  4.434338  3.605838
       Atomic Center   12 is at   2.240356  4.012565  1.572026
       Atomic Center   13 is at   1.592825  3.148585  1.777119
       Atomic Center   14 is at   1.814463  4.558767  0.716309
       Atomic Center   15 is at   3.567169  3.588426  1.271274
       Atomic Center   16 is at   3.740361  2.966049  0.012194
       Atomic Center   17 is at   4.808636  3.049515 -0.220323
       Atomic Center   18 is at   3.176793  3.498460 -0.769878
       Atomic Center   19 is at   3.364859  1.490214 -0.013403
       Atomic Center   20 is at   3.813061  0.984227  0.856983
       Atomic Center   21 is at   3.783530  1.026930 -0.924639
       Atomic Center   22 is at   1.953045  1.351289  0.000000
       Atomic Center   23 is at   1.525063  0.000000  0.000000
       Atomic Center   24 is at   1.903718 -0.532168  0.886704
       Atomic Center   25 is at   1.915546 -0.522349 -0.889086
       Atomic Center   26 is at   0.000000  0.000000  0.000000
       Atomic Center   27 is at  -0.380862  0.566208 -0.856444
       Atomic Center   28 is at  -0.367574  0.490390  0.906751
       Atomic Center   29 is at  -0.737363 -1.677686  0.007511
       Atomic Center   30 is at  -0.523277 -2.156762 -1.759262
       Atomic Center   31 is at  -0.945609 -1.370935 -2.394011
       Atomic Center   32 is at   0.540918 -2.257874 -1.993630
       Atomic Center   33 is at  -1.244997 -3.480878 -2.005043
       Atomic Center   34 is at  -2.317527 -3.367653 -1.813609
       Atomic Center   35 is at  -0.852337 -4.252995 -1.335729
       Atomic Center   36 is at  -0.998966 -3.981874 -3.760230
       Atomic Center   37 is at  -2.149350 -5.413863 -3.873082
       Atomic Center   38 is at  -2.253470 -5.606121 -4.945141
       Atomic Center   39 is at  -3.133977 -5.111465 -3.503445
       Atomic Center   40 is at  -1.643541 -6.672012 -3.162978
       Atomic Center   41 is at  -0.662183 -6.948572 -3.558817
       Atomic Center   42 is at  -1.524037 -6.508120 -2.086943
       Atomic Center   43 is at  -2.734547 -8.139461 -3.403613
       Atomic Center   44 is at  -3.747857 -8.138406 -1.867233
       Atomic Center   45 is at  -4.244396 -9.114726 -1.885989
       Atomic Center   46 is at  -3.069498 -8.143528 -1.006349
       Atomic Center   47 is at  -4.782149 -7.020417 -1.746292
       Atomic Center   48 is at  -5.385278 -7.161146 -0.840255
       Atomic Center   49 is at  -4.307212 -6.036145 -1.674305
       Atomic Center   50 is at  -5.454722 -7.010819 -2.609695
      ESP Fit Center   51 is at   5.601265  6.691794  5.986639
      ESP Fit Center   52 is at   5.076265  7.601121  5.986639
      ESP Fit Center   53 is at   5.744201  4.963528  4.167986
      ESP Fit Center   54 is at   5.306761  8.346099  3.117986
      ESP Fit Center   55 is at   4.248233  5.890935  6.532512
      ESP Fit Center   56 is at   5.235712  5.890935  6.211661
      ESP Fit Center   57 is at   3.449346  6.471361  6.211661
      ESP Fit Center   58 is at   3.449346  5.310509  6.211661
      ESP Fit Center   59 is at   4.553381  4.951786  6.211661
      ESP Fit Center   60 is at   2.746816  6.437406  5.371661
      ESP Fit Center   61 is at   2.746816  5.344464  5.371661
      ESP Fit Center   62 is at   3.449346  4.507221  5.371661
      ESP Fit Center   63 is at   4.525684  4.317434  5.371661
      ESP Fit Center   64 is at   5.472200  4.863905  5.371661
      ESP Fit Center   65 is at   4.525684  4.317434  4.333363
      ESP Fit Center   66 is at   5.630272  6.846184  5.971392
      ESP Fit Center   67 is at   6.617751  6.846184  5.650541
      ESP Fit Center   68 is at   5.935420  7.785333  5.650541
      ESP Fit Center   69 is at   5.935420  5.907035  5.650541
      ESP Fit Center   70 is at   7.228047  6.846184  4.810541
      ESP Fit Center   71 is at   6.854239  7.873214  4.810541
      ESP Fit Center   72 is at   5.907723  8.419685  4.810541
      ESP Fit Center   73 is at   6.854239  5.819154  4.810541
      ESP Fit Center   74 is at   7.228047  6.846184  3.772243
      ESP Fit Center   75 is at   6.854239  7.873214  3.772243
      ESP Fit Center   76 is at   5.907723  8.419685  3.772243
      ESP Fit Center   77 is at   6.854239  5.819154  3.772243
      ESP Fit Center   78 is at   6.617751  6.846184  2.932243
      ESP Fit Center   79 is at   5.935420  7.785333  2.932243
      ESP Fit Center   80 is at   4.032830  7.608816  6.147414
      ESP Fit Center   81 is at   4.337978  8.547965  5.826563
      ESP Fit Center   82 is at   3.233943  8.189242  5.826563
      ESP Fit Center   83 is at   3.233943  7.028390  5.826563
      ESP Fit Center   84 is at   5.256797  8.635846  4.986563
      ESP Fit Center   85 is at   4.310281  9.182317  4.986563
      ESP Fit Center   86 is at   3.233943  8.992530  4.986563
      ESP Fit Center   87 is at   2.531413  8.155287  4.986563
      ESP Fit Center   88 is at   2.531413  7.062345  4.986563
      ESP Fit Center   89 is at   4.310281  9.182317  3.948265
      ESP Fit Center   90 is at   3.233943  8.992530  3.948265
      ESP Fit Center   91 is at   2.531413  8.155287  3.948265
      ESP Fit Center   92 is at   4.337978  8.547965  3.108265
      ESP Fit Center   93 is at   3.233943  8.189242  3.108265
      ESP Fit Center   94 is at   6.322935  6.343193  2.717802
      ESP Fit Center   95 is at   6.082393  7.319112  2.717802
      ESP Fit Center   96 is at   3.478265  8.306727  2.717802
      ESP Fit Center   97 is at   6.041588  6.343193  1.667802
      ESP Fit Center   98 is at   4.222935  6.343193  0.617802
      ESP Fit Center   99 is at   5.765684  8.184724  2.576278
      ESP Fit Center  100 is at   4.819168  8.731195  2.576278
      ESP Fit Center  101 is at   3.742830  8.541408  2.576278
      ESP Fit Center  102 is at   6.139492  7.157694  1.537980
      ESP Fit Center  103 is at   5.765684  8.184724  1.537980
      ESP Fit Center  104 is at   4.819168  8.731195  1.537980
      ESP Fit Center  105 is at   3.742830  8.541408  1.537980
      ESP Fit Center  106 is at   5.529196  7.157694  0.697980
      ESP Fit Center  107 is at   4.846865  8.096843  0.697980
      ESP Fit Center  108 is at   3.742830  7.738120  0.697980
      ESP Fit Center  109 is at   4.846865  6.218545  0.697980
      ESP Fit Center  110 is at   4.541717  7.157694  0.377129
      ESP Fit Center  111 is at   5.050402  4.494587  3.759095
      ESP Fit Center  112 is at   6.343029  5.433736  2.919095
      ESP Fit Center  113 is at   5.022705  3.860235  2.919095
      ESP Fit Center  114 is at   5.969221  4.406706  2.919095
      ESP Fit Center  115 is at   6.343029  5.433736  1.880797
      ESP Fit Center  116 is at   5.969221  4.406706  1.880797
      ESP Fit Center  117 is at   5.732733  5.433736  1.040797
      ESP Fit Center  118 is at   4.745254  5.433736  0.719946
      ESP Fit Center  119 is at   2.326830  7.058250  4.199477
      ESP Fit Center  120 is at   2.292302  7.823878  3.482067
      ESP Fit Center  121 is at   1.443597  7.207257  3.482067
      ESP Fit Center  122 is at   2.816830  8.169545  2.502067
      ESP Fit Center  123 is at   1.836830  7.906955  2.502067
      ESP Fit Center  124 is at   1.119420  7.189545  2.502067
      ESP Fit Center  125 is at   2.292302  7.823878  1.522067
      ESP Fit Center  126 is at   1.443597  7.207257  1.522067
      ESP Fit Center  127 is at   1.119420  6.209545  1.522067
      ESP Fit Center  128 is at   3.306830  7.058250  0.804657
      ESP Fit Center  129 is at   2.326830  7.058250  0.804657
      ESP Fit Center  130 is at   2.816830  6.209545  0.542067
      ESP Fit Center  131 is at   1.748866  5.840549  4.603479
      ESP Fit Center  132 is at   1.082901  3.556776  3.834826
      ESP Fit Center  133 is at   1.240510  5.094927  4.796418
      ESP Fit Center  134 is at   1.545658  6.034076  4.475567
      ESP Fit Center  135 is at   0.441623  5.675353  4.475567
      ESP Fit Center  136 is at   0.441623  4.514501  4.475567
      ESP Fit Center  137 is at   0.441623  6.478641  3.635567
      ESP Fit Center  138 is at  -0.260907  5.641398  3.635567
      ESP Fit Center  139 is at  -0.260907  4.548456  3.635567
      ESP Fit Center  140 is at   0.441623  3.711213  3.635567
      ESP Fit Center  141 is at   0.441623  6.478641  2.597269
      ESP Fit Center  142 is at  -0.260907  5.641398  2.597269
      ESP Fit Center  143 is at  -0.260907  4.548456  2.597269
      ESP Fit Center  144 is at   0.441623  5.675353  1.757269
      ESP Fit Center  145 is at   2.811554  4.434338  5.285838
      ESP Fit Center  146 is at   2.012667  5.014764  4.964987
      ESP Fit Center  147 is at   2.012667  3.853912  4.964987
      ESP Fit Center  148 is at   3.116702  3.495189  4.964987
      ESP Fit Center  149 is at   2.012667  3.050624  4.124987
      ESP Fit Center  150 is at   3.089005  2.860837  4.124987
      ESP Fit Center  151 is at   4.035521  3.407308  4.124987
      ESP Fit Center  152 is at   0.201378  4.515128  1.572026
      ESP Fit Center  153 is at   0.495371  3.500191  0.522026
      ESP Fit Center  154 is at   0.793938  2.568159  3.136268
      ESP Fit Center  155 is at   1.897973  2.209436  3.136268
      ESP Fit Center  156 is at   0.091408  3.695056  2.296268
      ESP Fit Center  157 is at   0.091408  2.602114  2.296268
      ESP Fit Center  158 is at   0.793938  1.764871  2.296268
      ESP Fit Center  159 is at   1.870276  1.575084  2.296268
      ESP Fit Center  160 is at   0.091408  3.695056  1.257970
      ESP Fit Center  161 is at   0.091408  2.602114  1.257970
      ESP Fit Center  162 is at   1.015576  5.942481  1.235458
      ESP Fit Center  163 is at   0.313046  5.105238  1.235458
      ESP Fit Center  164 is at   3.038430  5.585797  0.197160
      ESP Fit Center  165 is at   2.091914  6.132268  0.197160
      ESP Fit Center  166 is at   1.015576  5.942481  0.197160
      ESP Fit Center  167 is at   0.313046  5.105238  0.197160
      ESP Fit Center  168 is at   0.313046  4.012296  0.197160
      ESP Fit Center  169 is at   2.119611  5.497916 -0.642840
      ESP Fit Center  170 is at   1.015576  5.139193 -0.642840
      ESP Fit Center  171 is at   1.015576  3.978341 -0.642840
      ESP Fit Center  172 is at   1.814463  4.558767 -0.963691
      ESP Fit Center  173 is at   4.547169  3.588426  2.968684
      ESP Fit Center  174 is at   4.057169  2.739721  2.968684
      ESP Fit Center  175 is at   5.264579  3.588426  2.251274
      ESP Fit Center  176 is at   3.042641  1.974093  2.251274
      ESP Fit Center  177 is at   4.091697  1.974093  2.251274
      ESP Fit Center  178 is at   4.940402  2.590714  2.251274
      ESP Fit Center  179 is at   5.527169  3.588426  1.271274
      ESP Fit Center  180 is at   4.091697  5.202759  0.291274
      ESP Fit Center  181 is at   5.270310  1.982811  1.062194
      ESP Fit Center  182 is at   3.993488  5.050738  0.012194
      ESP Fit Center  183 is at   4.495857  4.620354 -1.037806
      ESP Fit Center  184 is at   5.796115  3.049515  1.138826
      ESP Fit Center  185 is at   6.406411  3.049515  0.298826
      ESP Fit Center  186 is at   6.032603  4.076545  0.298826
      ESP Fit Center  187 is at   5.086087  4.623016  0.298826
      ESP Fit Center  188 is at   6.032603  2.022485  0.298826
      ESP Fit Center  189 is at   6.406411  3.049515 -0.739472
      ESP Fit Center  190 is at   6.032603  4.076545 -0.739472
      ESP Fit Center  191 is at   5.086087  4.623016 -0.739472
      ESP Fit Center  192 is at   6.032603  2.022485 -0.739472
      ESP Fit Center  193 is at   5.796115  3.049515 -1.579472
      ESP Fit Center  194 is at   5.113784  3.988664 -1.579472
      ESP Fit Center  195 is at   5.113784  2.110366 -1.579472
      ESP Fit Center  196 is at   4.808636  3.049515 -1.900323
      ESP Fit Center  197 is at   3.454244  5.071961 -0.250729
      ESP Fit Center  198 is at   4.400760  4.525490 -1.289027
      ESP Fit Center  199 is at   3.454244  5.071961 -1.289027
      ESP Fit Center  200 is at   2.377906  4.882174 -1.289027
      ESP Fit Center  201 is at   1.675376  4.044931 -1.289027
      ESP Fit Center  202 is at   1.675376  2.951989 -1.289027
      ESP Fit Center  203 is at   4.164272  3.498460 -2.129027
      ESP Fit Center  204 is at   3.481941  4.437609 -2.129027
      ESP Fit Center  205 is at   2.377906  4.078886 -2.129027
      ESP Fit Center  206 is at   2.377906  2.918034 -2.129027
      ESP Fit Center  207 is at   3.481941  2.559311 -2.129027
      ESP Fit Center  208 is at   3.176793  3.498460 -2.449878
      ESP Fit Center  209 is at   5.464859  1.490214 -0.013403
      ESP Fit Center  210 is at   3.617986 -0.594475 -0.013403
      ESP Fit Center  211 is at   5.224317  0.514295 -0.013403
      ESP Fit Center  212 is at   3.813061  0.984227  2.536983
      ESP Fit Center  213 is at   4.800540  0.984227  2.216132
      ESP Fit Center  214 is at   4.118209  1.923376  2.216132
      ESP Fit Center  215 is at   3.014174  1.564653  2.216132
      ESP Fit Center  216 is at   3.014174  0.403801  2.216132
      ESP Fit Center  217 is at   4.118209  0.045078  2.216132
      ESP Fit Center  218 is at   5.410836  0.984227  1.376132
      ESP Fit Center  219 is at   5.037028  2.011257  1.376132
      ESP Fit Center  220 is at   4.090512 -0.589274  1.376132
      ESP Fit Center  221 is at   5.037028 -0.042803  1.376132
      ESP Fit Center  222 is at   5.410836  0.984227  0.337834
      ESP Fit Center  223 is at   4.090512 -0.589274  0.337834
      ESP Fit Center  224 is at   5.037028 -0.042803  0.337834
      ESP Fit Center  225 is at   5.381305  1.026930 -0.405490
      ESP Fit Center  226 is at   4.060981 -0.546571 -0.405490
      ESP Fit Center  227 is at   5.007497 -0.000100 -0.405490
      ESP Fit Center  228 is at   5.381305  1.026930 -1.443788
      ESP Fit Center  229 is at   4.060981 -0.546571 -1.443788
      ESP Fit Center  230 is at   5.007497 -0.000100 -1.443788
      ESP Fit Center  231 is at   4.771009  1.026930 -2.283788
      ESP Fit Center  232 is at   4.088678  1.966079 -2.283788
      ESP Fit Center  233 is at   2.984643  1.607356 -2.283788
      ESP Fit Center  234 is at   2.984643  0.446504 -2.283788
      ESP Fit Center  235 is at   4.088678  0.087781 -2.283788
      ESP Fit Center  236 is at   3.783530  1.026930 -2.604639
      ESP Fit Center  237 is at   1.953045  1.351289  1.960000
      ESP Fit Center  238 is at   0.973045  1.351289  1.697410
      ESP Fit Center  239 is at   0.973045  3.048699  0.000000
      ESP Fit Center  240 is at   0.255635  2.331289  0.000000
      ESP Fit Center  241 is at   1.428517  2.965622 -0.980000
      ESP Fit Center  242 is at   0.579812  2.349001 -0.980000
      ESP Fit Center  243 is at   1.463045  2.199994 -1.697410
      ESP Fit Center  244 is at   0.973045  1.351289 -1.697410
      ESP Fit Center  245 is at   1.953045  1.351289 -1.960000
      ESP Fit Center  246 is at   1.000063  0.909327  1.818653
      ESP Fit Center  247 is at   1.778190 -2.084689  0.000000
      ESP Fit Center  248 is at   2.717999 -1.728266  0.000000
      ESP Fit Center  249 is at   3.384521 -0.975919  0.000000
      ESP Fit Center  250 is at   1.000063  0.909327 -1.818653
      ESP Fit Center  251 is at   1.903718 -0.532168  2.566704
      ESP Fit Center  252 is at   2.891197 -0.532168  2.245853
      ESP Fit Center  253 is at   2.208866  0.406981  2.245853
      ESP Fit Center  254 is at   1.104831  0.048258  2.245853
      ESP Fit Center  255 is at   1.104831 -1.112594  2.245853
      ESP Fit Center  256 is at   2.208866 -1.471317  2.245853
      ESP Fit Center  257 is at   2.181169 -2.105669  1.405853
      ESP Fit Center  258 is at   3.127685 -1.559198  1.405853
      ESP Fit Center  259 is at   2.181169 -2.105669  0.367555
      ESP Fit Center  260 is at   3.127685 -1.559198  0.367555
      ESP Fit Center  261 is at   2.192997 -2.095850 -0.369937
      ESP Fit Center  262 is at   3.139513 -1.549379 -0.369937
      ESP Fit Center  263 is at   2.192997 -2.095850 -1.408235
      ESP Fit Center  264 is at   3.139513 -1.549379 -1.408235
      ESP Fit Center  265 is at   2.903025 -0.522349 -2.248235
      ESP Fit Center  266 is at   2.220694  0.416800 -2.248235
      ESP Fit Center  267 is at   1.116659  0.058077 -2.248235
      ESP Fit Center  268 is at   2.220694 -1.461498 -2.248235
      ESP Fit Center  269 is at   1.915546 -0.522349 -2.569086
      ESP Fit Center  270 is at  -1.571873  1.392558  0.000000
      ESP Fit Center  271 is at  -2.038978  0.502563  0.000000
      ESP Fit Center  272 is at  -0.103411  2.139709 -0.337295
      ESP Fit Center  273 is at  -1.179749  1.949922 -0.337295
      ESP Fit Center  274 is at  -1.882279  1.112679 -0.337295
      ESP Fit Center  275 is at  -0.103411  2.139709 -1.375593
      ESP Fit Center  276 is at  -1.179749  1.949922 -1.375593
      ESP Fit Center  277 is at  -1.882279  1.112679 -1.375593
      ESP Fit Center  278 is at  -1.882279  0.019737 -1.375593
      ESP Fit Center  279 is at   0.606617  0.566208 -2.215593
      ESP Fit Center  280 is at  -0.075714  1.505357 -2.215593
      ESP Fit Center  281 is at  -1.179749  1.146634 -2.215593
      ESP Fit Center  282 is at  -0.380862  0.566208 -2.536444
      ESP Fit Center  283 is at  -0.367574  0.490390  2.586751
      ESP Fit Center  284 is at   0.619905  0.490390  2.265900
      ESP Fit Center  285 is at  -0.062426  1.429539  2.265900
      ESP Fit Center  286 is at  -1.166461  1.070816  2.265900
      ESP Fit Center  287 is at  -1.166461 -0.090036  2.265900
      ESP Fit Center  288 is at  -0.062426 -0.448759  2.265900
      ESP Fit Center  289 is at  -0.090123  2.063891  1.425900
      ESP Fit Center  290 is at  -1.166461  1.874104  1.425900
      ESP Fit Center  291 is at  -1.868991  1.036861  1.425900
      ESP Fit Center  292 is at  -0.090123  2.063891  0.387602
      ESP Fit Center  293 is at  -1.166461  1.874104  0.387602
      ESP Fit Center  294 is at  -1.868991  1.036861  0.387602
      ESP Fit Center  295 is at  -0.737363 -1.677686  2.457511
      ESP Fit Center  296 is at   0.325652 -1.677686  2.214885
      ESP Fit Center  297 is at  -0.205855 -0.757088  2.214885
      ESP Fit Center  298 is at  -1.268871 -0.757088  2.214885
      ESP Fit Center  299 is at  -1.800378 -1.677686  2.214885
      ESP Fit Center  300 is at  -1.268871 -2.598284  2.214885
      ESP Fit Center  301 is at  -0.205855 -2.598284  2.214885
      ESP Fit Center  302 is at  -1.991740 -0.230057  1.535061
      ESP Fit Center  303 is at  -2.575259 -1.138031  1.535061
      ESP Fit Center  304 is at  -2.575259 -2.217341  1.535061
      ESP Fit Center  305 is at  -1.991740 -3.125315  1.535061
      ESP Fit Center  306 is at  -1.009965 -3.573676  1.535061
      ESP Fit Center  307 is at   0.058359 -3.420074  1.535061
      ESP Fit Center  308 is at   0.874047 -2.713277  1.535061
      ESP Fit Center  309 is at  -2.226614  0.189776  0.552687
      ESP Fit Center  310 is at  -2.889393 -0.641323  0.552687
      ESP Fit Center  311 is at  -3.125936 -1.677686  0.552687
      ESP Fit Center  312 is at  -2.889393 -2.714049  0.552687
      ESP Fit Center  313 is at  -2.226614 -3.545148  0.552687
      ESP Fit Center  314 is at  -1.268871 -4.006373  0.552687
      ESP Fit Center  315 is at  -0.205855 -4.006373  0.552687
      ESP Fit Center  316 is at   0.751888 -3.545148  0.552687
      ESP Fit Center  317 is at   1.414667 -2.714049  0.552687
      ESP Fit Center  318 is at  -2.226614  0.189776 -0.537665
      ESP Fit Center  319 is at  -2.889393 -0.641323 -0.537665
      ESP Fit Center  320 is at  -3.125936 -1.677686 -0.537665
      ESP Fit Center  321 is at   0.751888 -3.545148 -0.537665
      ESP Fit Center  322 is at   1.414667 -2.714049 -0.537665
      ESP Fit Center  323 is at  -1.991740 -0.230057 -1.520039
      ESP Fit Center  324 is at  -2.575259 -1.138031 -1.520039
      ESP Fit Center  325 is at  -2.562255 -1.654199 -1.759262
      ESP Fit Center  326 is at  -1.744496  0.012779 -1.874862
      ESP Fit Center  327 is at  -2.447026 -0.824464 -1.874862
      ESP Fit Center  328 is at   0.278358 -0.343905 -2.913160
      ESP Fit Center  329 is at  -0.668158  0.202566 -2.913160
      ESP Fit Center  330 is at  -1.744496  0.012779 -2.913160
      ESP Fit Center  331 is at  -2.447026 -0.824464 -2.913160
      ESP Fit Center  332 is at  -2.447026 -1.917406 -2.913160
      ESP Fit Center  333 is at   0.041870 -1.370935 -3.753160
      ESP Fit Center  334 is at  -0.640461 -0.431786 -3.753160
      ESP Fit Center  335 is at  -1.744496 -0.790509 -3.753160
      ESP Fit Center  336 is at  -0.945609 -1.370935 -4.074011
      ESP Fit Center  337 is at   2.138693 -2.257874 -1.474481
      ESP Fit Center  338 is at   0.818369 -3.831375 -1.474481
      ESP Fit Center  339 is at   1.764885 -3.284904 -1.474481
      ESP Fit Center  340 is at   2.138693 -2.257874 -2.512779
      ESP Fit Center  341 is at   1.764885 -1.230844 -2.512779
      ESP Fit Center  342 is at   0.818369 -0.684373 -2.512779
      ESP Fit Center  343 is at   1.764885 -3.284904 -2.512779
      ESP Fit Center  344 is at   1.528397 -2.257874 -3.352779
      ESP Fit Center  345 is at   0.846066 -1.318725 -3.352779
      ESP Fit Center  346 is at  -2.435962 -4.855324 -0.955043
      ESP Fit Center  347 is at  -2.435962 -2.106432 -3.055043
      ESP Fit Center  348 is at  -3.116414 -2.787227 -0.454460
      ESP Fit Center  349 is at  -3.116414 -3.948079 -0.454460
      ESP Fit Center  350 is at  -3.116414 -1.983939 -1.294460
      ESP Fit Center  351 is at  -3.818944 -2.821182 -1.294460
      ESP Fit Center  352 is at  -3.818944 -3.914124 -1.294460
      ESP Fit Center  353 is at  -3.116414 -4.751367 -1.294460
      ESP Fit Center  354 is at  -3.116414 -1.983939 -2.332758
      ESP Fit Center  355 is at  -3.818944 -2.821182 -2.332758
      ESP Fit Center  356 is at  -3.818944 -3.914124 -2.332758
      ESP Fit Center  357 is at  -3.116414 -2.787227 -3.172758
      ESP Fit Center  358 is at  -0.852337 -4.252995  0.344271
      ESP Fit Center  359 is at   0.135142 -4.252995  0.023420
      ESP Fit Center  360 is at  -1.651224 -4.833421  0.023420
      ESP Fit Center  361 is at  -0.547189 -5.192144  0.023420
      ESP Fit Center  362 is at   0.745438 -4.252995 -0.816580
      ESP Fit Center  363 is at  -0.574886 -5.826496 -0.816580
      ESP Fit Center  364 is at   0.371630 -5.280025 -0.816580
      ESP Fit Center  365 is at   0.745438 -4.252995 -1.854878
      ESP Fit Center  366 is at   0.371630 -5.280025 -1.854878
      ESP Fit Center  367 is at   0.916521 -3.981874 -2.232680
      ESP Fit Center  368 is at   0.612444 -5.017465 -2.232680
      ESP Fit Center  369 is at   1.389607 -3.981874 -3.215054
      ESP Fit Center  370 is at  -2.488217 -2.114412 -3.215054
      ESP Fit Center  371 is at  -3.150996 -2.945511 -3.215054
      ESP Fit Center  372 is at   1.153064 -5.018237 -3.215054
      ESP Fit Center  373 is at   1.389607 -3.981874 -4.305406
      ESP Fit Center  374 is at   1.153064 -2.945511 -4.305406
      ESP Fit Center  375 is at   0.490285 -2.114412 -4.305406
      ESP Fit Center  376 is at  -0.467458 -1.653187 -4.305406
      ESP Fit Center  377 is at  -1.530474 -1.653187 -4.305406
      ESP Fit Center  378 is at  -2.488217 -2.114412 -4.305406
      ESP Fit Center  379 is at  -3.150996 -2.945511 -4.305406
      ESP Fit Center  380 is at   0.490285 -5.849336 -4.305406
      ESP Fit Center  381 is at   1.153064 -5.018237 -4.305406
      ESP Fit Center  382 is at   0.916521 -3.981874 -5.287780
      ESP Fit Center  383 is at   0.612444 -2.946283 -5.287780
      ESP Fit Center  384 is at  -0.203244 -2.239486 -5.287780
      ESP Fit Center  385 is at  -1.271568 -2.085884 -5.287780
      ESP Fit Center  386 is at  -2.253343 -2.534245 -5.287780
      ESP Fit Center  387 is at  -2.836862 -3.442219 -5.287780
      ESP Fit Center  388 is at  -0.203244 -5.724262 -5.287780
      ESP Fit Center  389 is at   0.612444 -5.017465 -5.287780
      ESP Fit Center  390 is at   0.064049 -3.981874 -5.967604
      ESP Fit Center  391 is at  -0.467458 -3.061276 -5.967604
      ESP Fit Center  392 is at  -1.530474 -3.061276 -5.967604
      ESP Fit Center  393 is at  -2.061981 -3.981874 -5.967604
      ESP Fit Center  394 is at  -0.467458 -4.902472 -5.967604
      ESP Fit Center  395 is at  -0.998966 -3.981874 -6.210230
      ESP Fit Center  396 is at  -3.340315 -4.039417 -4.923082
      ESP Fit Center  397 is at  -3.052357 -4.222407 -5.464290
      ESP Fit Center  398 is at  -3.754887 -5.059650 -5.464290
      ESP Fit Center  399 is at  -3.754887 -6.152592 -5.464290
      ESP Fit Center  400 is at  -1.029503 -6.633151 -5.464290
      ESP Fit Center  401 is at  -1.265991 -5.606121 -6.304290
      ESP Fit Center  402 is at  -1.948322 -4.666972 -6.304290
      ESP Fit Center  403 is at  -3.052357 -5.025695 -6.304290
      ESP Fit Center  404 is at  -3.052357 -6.186547 -6.304290
      ESP Fit Center  405 is at  -1.948322 -6.545270 -6.304290
      ESP Fit Center  406 is at  -2.253470 -5.606121 -6.625141
      ESP Fit Center  407 is at  -3.932864 -3.727751 -2.984296
      ESP Fit Center  408 is at  -4.635394 -4.564994 -2.984296
      ESP Fit Center  409 is at  -3.932864 -3.727751 -4.022594
      ESP Fit Center  410 is at  -4.635394 -4.564994 -4.022594
      ESP Fit Center  411 is at  -4.635394 -5.657936 -4.022594
      ESP Fit Center  412 is at  -3.932864 -4.531039 -4.862594
      ESP Fit Center  413 is at   0.175112 -6.672012 -2.112978
      ESP Fit Center  414 is at  -0.113592 -7.655250 -2.112978
      ESP Fit Center  415 is at   0.325296 -6.948572 -2.199668
      ESP Fit Center  416 is at   0.935592 -6.948572 -3.039668
      ESP Fit Center  417 is at   0.561784 -5.921542 -3.039668
      ESP Fit Center  418 is at   0.561784 -7.975602 -3.039668
      ESP Fit Center  419 is at   0.935592 -6.948572 -4.077966
      ESP Fit Center  420 is at   0.561784 -5.921542 -4.077966
      ESP Fit Center  421 is at  -0.384732 -8.522073 -4.077966
      ESP Fit Center  422 is at   0.561784 -7.975602 -4.077966
      ESP Fit Center  423 is at   0.325296 -6.948572 -4.917966
      ESP Fit Center  424 is at  -0.357035 -7.887721 -4.917966
      ESP Fit Center  425 is at  -0.662183 -6.948572 -5.238817
      ESP Fit Center  426 is at  -1.524037 -6.508120 -0.406943
      ESP Fit Center  427 is at  -0.536558 -6.508120 -0.727794
      ESP Fit Center  428 is at  -2.322924 -5.927694 -0.727794
      ESP Fit Center  429 is at  -1.218889 -7.447269 -0.727794
      ESP Fit Center  430 is at   0.073738 -6.508120 -1.567794
      ESP Fit Center  431 is at  -0.300070 -7.535150 -1.567794
      ESP Fit Center  432 is at  -0.819060 -8.139461 -1.876063
      ESP Fit Center  433 is at  -1.938825 -9.881849 -1.876063
      ESP Fit Center  434 is at  -1.123137 -9.175052 -1.876063
      ESP Fit Center  435 is at  -3.266055-10.468148 -2.858437
      ESP Fit Center  436 is at  -2.203039-10.468148 -2.858437
      ESP Fit Center  437 is at  -1.245296-10.006923 -2.858437
      ESP Fit Center  438 is at  -0.582517 -9.175824 -2.858437
      ESP Fit Center  439 is at  -5.123120 -8.139461 -3.948789
      ESP Fit Center  440 is at  -4.886577 -9.175824 -3.948789
      ESP Fit Center  441 is at  -4.223798-10.006923 -3.948789
      ESP Fit Center  442 is at  -3.266055-10.468148 -3.948789
      ESP Fit Center  443 is at  -2.203039-10.468148 -3.948789
      ESP Fit Center  444 is at  -1.245296-10.006923 -3.948789
      ESP Fit Center  445 is at  -0.582517 -9.175824 -3.948789
      ESP Fit Center  446 is at  -0.819060 -8.139461 -4.931163
      ESP Fit Center  447 is at  -3.988924 -6.691832 -4.931163
      ESP Fit Center  448 is at  -4.572443 -7.599806 -4.931163
      ESP Fit Center  449 is at  -4.572443 -8.679116 -4.931163
      ESP Fit Center  450 is at  -3.988924 -9.587090 -4.931163
      ESP Fit Center  451 is at  -3.007149-10.035451 -4.931163
      ESP Fit Center  452 is at  -1.938825 -9.881849 -4.931163
      ESP Fit Center  453 is at  -1.123137 -9.175052 -4.931163
      ESP Fit Center  454 is at  -1.671532 -8.139461 -5.610987
      ESP Fit Center  455 is at  -2.203039 -7.218863 -5.610987
      ESP Fit Center  456 is at  -3.266055 -7.218863 -5.610987
      ESP Fit Center  457 is at  -3.797562 -8.139461 -5.610987
      ESP Fit Center  458 is at  -3.266055 -9.060059 -5.610987
      ESP Fit Center  459 is at  -2.203039 -9.060059 -5.610987
      ESP Fit Center  460 is at  -2.734547 -8.139461 -5.853613
      ESP Fit Center  461 is at  -4.272857 -9.047733 -0.048580
      ESP Fit Center  462 is at  -5.043283 -9.695152 -0.526840
      ESP Fit Center  463 is at  -3.939248-10.053875 -0.526840
      ESP Fit Center  464 is at  -5.745813 -9.661197 -1.366840
      ESP Fit Center  465 is at  -5.043283-10.498440 -1.366840
      ESP Fit Center  466 is at  -3.966945-10.688227 -1.366840
      ESP Fit Center  467 is at  -3.020429-10.141756 -1.366840
      ESP Fit Center  468 is at  -5.745813 -9.661197 -2.405138
      ESP Fit Center  469 is at  -5.043283-10.498440 -2.405138
      ESP Fit Center  470 is at  -3.966945-10.688227 -2.405138
      ESP Fit Center  471 is at  -5.043283 -9.695152 -3.245138
      ESP Fit Center  472 is at  -3.069498 -8.143528  0.673651
      ESP Fit Center  473 is at  -2.082019 -8.143528  0.352800
      ESP Fit Center  474 is at  -2.764350 -7.204379  0.352800
      ESP Fit Center  475 is at  -3.868385 -7.563102  0.352800
      ESP Fit Center  476 is at  -3.868385 -8.723954  0.352800
      ESP Fit Center  477 is at  -2.764350 -9.082677  0.352800
      ESP Fit Center  478 is at  -1.471723 -8.143528 -0.487200
      ESP Fit Center  479 is at  -1.845531 -7.116498 -0.487200
      ESP Fit Center  480 is at  -2.792047 -6.570027 -0.487200
      ESP Fit Center  481 is at  -2.792047 -9.717029 -0.487200
      ESP Fit Center  482 is at  -1.845531 -9.170558 -0.487200
      ESP Fit Center  483 is at  -3.732149 -7.020417  0.072361
      ESP Fit Center  484 is at  -4.257149 -6.111090  0.072361
      ESP Fit Center  485 is at  -6.354022 -5.627859 -1.746292
      ESP Fit Center  486 is at  -6.821127 -6.517854 -1.746292
      ESP Fit Center  487 is at  -6.821127 -7.522980 -1.746292
      ESP Fit Center  488 is at  -6.354022 -8.412975 -1.746292
      ESP Fit Center  489 is at  -5.385278 -7.161146  0.839745
      ESP Fit Center  490 is at  -4.397799 -7.161146  0.518894
      ESP Fit Center  491 is at  -5.080130 -6.221997  0.518894
      ESP Fit Center  492 is at  -6.184165 -6.580720  0.518894
      ESP Fit Center  493 is at  -6.184165 -7.741572  0.518894
      ESP Fit Center  494 is at  -5.080130 -8.100295  0.518894
      ESP Fit Center  495 is at  -6.184165 -5.777432 -0.321106
      ESP Fit Center  496 is at  -6.886695 -6.614675 -0.321106
      ESP Fit Center  497 is at  -6.886695 -7.707617 -0.321106
      ESP Fit Center  498 is at  -6.184165 -8.544860 -0.321106
      ESP Fit Center  499 is at  -5.107827 -8.734647 -0.321106
      ESP Fit Center  500 is at  -6.886695 -6.614675 -1.359404
      ESP Fit Center  501 is at  -6.886695 -7.707617 -1.359404
      ESP Fit Center  502 is at  -6.184165 -8.544860 -1.359404
      ESP Fit Center  503 is at  -3.319733 -6.036145 -0.315156
      ESP Fit Center  504 is at  -4.002064 -5.096996 -0.315156
      ESP Fit Center  505 is at  -5.106099 -5.455719 -0.315156
      ESP Fit Center  506 is at  -3.083245 -5.009115 -1.155156
      ESP Fit Center  507 is at  -4.029761 -4.462644 -1.155156
      ESP Fit Center  508 is at  -5.106099 -4.652431 -1.155156
      ESP Fit Center  509 is at  -4.029761 -4.462644 -2.193454
      ESP Fit Center  510 is at  -5.106099 -4.652431 -2.193454
      ESP Fit Center  511 is at  -6.956139 -6.464348 -2.090546
      ESP Fit Center  512 is at  -6.956139 -7.557290 -2.090546
      ESP Fit Center  513 is at  -5.177271 -5.437318 -3.128844
      ESP Fit Center  514 is at  -6.253609 -5.627105 -3.128844
      ESP Fit Center  515 is at  -6.956139 -6.464348 -3.128844
      ESP Fit Center  516 is at  -6.956139 -7.557290 -3.128844
      ESP Fit Center  517 is at  -6.253609 -8.394533 -3.128844
      ESP Fit Center  518 is at  -5.149574 -6.071670 -3.968844
      ESP Fit Center  519 is at  -6.253609 -6.430393 -3.968844
      ESP Fit Center  520 is at  -6.253609 -7.591245 -3.968844
      ESP Fit Center  521 is at  -5.149574 -7.949968 -3.968844
      ESP Fit Center  522 is at  -5.454722 -7.010819 -4.289695
      ESP Fit Center  523 is at   5.592586  6.691794  6.330311
      ESP Fit Center  524 is at   5.071925  7.593604  6.330311
      ESP Fit Center  525 is at   5.330748  8.398623  5.664362
      ESP Fit Center  526 is at   2.211438  6.691794  4.702036
      ESP Fit Center  527 is at   6.010123  4.862444  4.702036
      ESP Fit Center  528 is at   4.248233  5.890935  6.772512
      ESP Fit Center  529 is at   5.208233  5.890935  6.515281
      ESP Fit Center  530 is at   3.768233  6.722319  6.515281
      ESP Fit Center  531 is at   3.288233  5.890935  6.515281
      ESP Fit Center  532 is at   3.768233  5.059551  6.515281
      ESP Fit Center  533 is at   4.728233  5.059551  6.515281
      ESP Fit Center  534 is at   2.585464  5.890935  5.812512
      ESP Fit Center  535 is at   2.903025  4.913584  5.812512
      ESP Fit Center  536 is at   3.734409  4.309548  5.812512
      ESP Fit Center  537 is at   4.762057  4.309548  5.812512
      ESP Fit Center  538 is at   5.593441  4.913584  5.812512
      ESP Fit Center  539 is at   4.248233  3.970935  4.852512
      ESP Fit Center  540 is at   5.208233  4.228166  4.852512
      ESP Fit Center  541 is at   6.590272  6.846184  5.954161
      ESP Fit Center  542 is at   6.110272  7.677568  5.954161
      ESP Fit Center  543 is at   6.110272  6.014800  5.954161
      ESP Fit Center  544 is at   7.293041  6.846184  5.251392
      ESP Fit Center  545 is at   6.975480  7.823535  5.251392
      ESP Fit Center  546 is at   6.144096  8.427571  5.251392
      ESP Fit Center  547 is at   6.975480  5.868833  5.251392
      ESP Fit Center  548 is at   7.550272  6.846184  4.291392
      ESP Fit Center  549 is at   7.293041  7.806184  4.291392
      ESP Fit Center  550 is at   6.590272  8.508953  4.291392
      ESP Fit Center  551 is at   6.590272  5.183415  4.291392
      ESP Fit Center  552 is at   7.293041  5.886184  4.291392
      ESP Fit Center  553 is at   7.293041  6.846184  3.331392
      ESP Fit Center  554 is at   6.975480  7.823535  3.331392
      ESP Fit Center  555 is at   6.144096  8.427571  3.331392
      ESP Fit Center  556 is at   6.975480  5.868833  3.331392
      ESP Fit Center  557 is at   6.590272  6.846184  2.628623
      ESP Fit Center  558 is at   4.032830  7.608816  6.387414
      ESP Fit Center  559 is at   4.512830  8.440200  6.130183
      ESP Fit Center  560 is at   3.552830  8.440200  6.130183
      ESP Fit Center  561 is at   3.072830  7.608816  6.130183
      ESP Fit Center  562 is at   5.378038  8.586167  5.427414
      ESP Fit Center  563 is at   4.546654  9.190203  5.427414
      ESP Fit Center  564 is at   3.519006  9.190203  5.427414
      ESP Fit Center  565 is at   2.687622  8.586167  5.427414
      ESP Fit Center  566 is at   2.370061  7.608816  5.427414
      ESP Fit Center  567 is at   4.992830  9.271585  4.467414
      ESP Fit Center  568 is at   4.032830  9.528816  4.467414
      ESP Fit Center  569 is at   3.072830  9.271585  4.467414
      ESP Fit Center  570 is at   2.370061  8.568816  4.467414
      ESP Fit Center  571 is at   2.112830  7.608816  4.467414
      ESP Fit Center  572 is at   4.546654  9.190203  3.507414
      ESP Fit Center  573 is at   3.519006  9.190203  3.507414
      ESP Fit Center  574 is at   2.687622  8.586167  3.507414
      ESP Fit Center  575 is at   6.562762  6.343193  2.183752
      ESP Fit Center  576 is at   6.099331  6.343193  1.221426
      ESP Fit Center  577 is at   4.222935  6.343193  0.317802
      ESP Fit Center  578 is at   5.055541  8.739081  3.017129
      ESP Fit Center  579 is at   6.461717  7.157694  2.057129
      ESP Fit Center  580 is at   6.204486  8.117694  2.057129
      ESP Fit Center  581 is at   5.501717  8.820463  2.057129
      ESP Fit Center  582 is at   4.541717  9.077694  2.057129
      ESP Fit Center  583 is at   3.581717  8.820463  2.057129
      ESP Fit Center  584 is at   6.204486  7.157694  1.097129
      ESP Fit Center  585 is at   5.886925  8.135045  1.097129
      ESP Fit Center  586 is at   5.055541  8.739081  1.097129
      ESP Fit Center  587 is at   4.027893  8.739081  1.097129
      ESP Fit Center  588 is at   3.196509  8.135045  1.097129
      ESP Fit Center  589 is at   5.501717  7.157694  0.394360
      ESP Fit Center  590 is at   5.021717  7.989078  0.394360
      ESP Fit Center  591 is at   4.061717  7.989078  0.394360
      ESP Fit Center  592 is at   3.581717  7.157694  0.394360
      ESP Fit Center  593 is at   5.021717  6.326310  0.394360
      ESP Fit Center  594 is at   4.541717  7.157694  0.137129
      ESP Fit Center  595 is at   5.259078  3.852349  3.359946
      ESP Fit Center  596 is at   6.090462  4.456385  3.359946
      ESP Fit Center  597 is at   6.665254  5.433736  2.399946
      ESP Fit Center  598 is at   5.705254  3.770967  2.399946
      ESP Fit Center  599 is at   6.408023  4.473736  2.399946
      ESP Fit Center  600 is at   6.408023  5.433736  1.439946
      ESP Fit Center  601 is at   6.090462  4.456385  1.439946
      ESP Fit Center  602 is at   5.705254  5.433736  0.737177
      ESP Fit Center  603 is at   4.745254  5.433736  0.479946
      ESP Fit Center  604 is at   1.399996  7.238935  3.898684
      ESP Fit Center  605 is at   2.042430  8.251469  3.000514
      ESP Fit Center  606 is at   1.182203  7.657698  3.000514
      ESP Fit Center  607 is at   2.042430  8.251469  2.003620
      ESP Fit Center  608 is at   1.182203  7.657698  2.003620
      ESP Fit Center  609 is at   0.696450  6.732172  2.003620
      ESP Fit Center  610 is at   2.275648  7.875133  1.105450
      ESP Fit Center  611 is at   1.399996  7.238935  1.105450
      ESP Fit Center  612 is at   3.302780  7.051235  0.483897
      ESP Fit Center  613 is at   2.330880  7.051235  0.483897
      ESP Fit Center  614 is at   2.816830  6.209545  0.262067
      ESP Fit Center  615 is at   1.753206  5.833032  4.947151
      ESP Fit Center  616 is at   1.045088  3.513137  4.281202
      ESP Fit Center  617 is at   1.240510  5.094927  5.036418
      ESP Fit Center  618 is at   0.760510  5.926311  4.779187
      ESP Fit Center  619 is at   0.280510  5.094927  4.779187
      ESP Fit Center  620 is at   0.760510  4.263543  4.779187
      ESP Fit Center  621 is at   0.726686  6.676314  4.076418
      ESP Fit Center  622 is at  -0.104698  6.072278  4.076418
      ESP Fit Center  623 is at  -0.422259  5.094927  4.076418
      ESP Fit Center  624 is at  -0.104698  4.117576  4.076418
      ESP Fit Center  625 is at   0.726686  3.513540  4.076418
      ESP Fit Center  626 is at   0.280510  6.757696  3.116418
      ESP Fit Center  627 is at  -0.422259  6.054927  3.116418
      ESP Fit Center  628 is at  -0.679490  5.094927  3.116418
      ESP Fit Center  629 is at  -0.422259  4.134927  3.116418
      ESP Fit Center  630 is at  -0.104698  6.072278  2.156418
      ESP Fit Center  631 is at  -0.422259  5.094927  2.156418
      ESP Fit Center  632 is at  -0.104698  4.117576  2.156418
      ESP Fit Center  633 is at   2.811554  4.434338  5.525838
      ESP Fit Center  634 is at   2.331554  5.265722  5.268607
      ESP Fit Center  635 is at   1.851554  4.434338  5.268607
      ESP Fit Center  636 is at   2.331554  3.602954  5.268607
      ESP Fit Center  637 is at   3.291554  3.602954  5.268607
      ESP Fit Center  638 is at   1.466346  3.456987  4.565838
      ESP Fit Center  639 is at   2.297730  2.852951  4.565838
      ESP Fit Center  640 is at   3.325378  2.852951  4.565838
      ESP Fit Center  641 is at   4.156762  3.456987  4.565838
      ESP Fit Center  642 is at   2.811554  2.514338  3.605838
      ESP Fit Center  643 is at   3.771554  2.771569  3.605838
      ESP Fit Center  644 is at   4.474323  3.474338  3.605838
      ESP Fit Center  645 is at   3.019839  2.305736  3.068402
      ESP Fit Center  646 is at  -0.099471  4.012565  2.106076
      ESP Fit Center  647 is at  -0.099471  4.012565  1.037976
      ESP Fit Center  648 is at   0.632825  3.148585  3.439888
      ESP Fit Center  649 is at   1.112825  2.317201  3.439888
      ESP Fit Center  650 is at   2.072825  2.317201  3.439888
      ESP Fit Center  651 is at  -0.069944  3.148585  2.737119
      ESP Fit Center  652 is at   0.247617  2.171234  2.737119
      ESP Fit Center  653 is at   1.079001  1.567198  2.737119
      ESP Fit Center  654 is at   2.106649  1.567198  2.737119
      ESP Fit Center  655 is at  -0.327175  3.148585  1.777119
      ESP Fit Center  656 is at  -0.069944  2.188585  1.777119
      ESP Fit Center  657 is at  -0.069944  3.148585  0.817119
      ESP Fit Center  658 is at   0.854463  6.221536  0.716309
      ESP Fit Center  659 is at   0.151694  5.518767  0.716309
      ESP Fit Center  660 is at  -0.105537  4.558767  0.716309
      ESP Fit Center  661 is at   3.159671  5.536118 -0.243691
      ESP Fit Center  662 is at   2.328287  6.140154 -0.243691
      ESP Fit Center  663 is at   1.300639  6.140154 -0.243691
      ESP Fit Center  664 is at   0.469255  5.536118 -0.243691
      ESP Fit Center  665 is at   0.151694  4.558767 -0.243691
      ESP Fit Center  666 is at   0.469255  3.581416 -0.243691
      ESP Fit Center  667 is at   2.294463  5.390151 -0.946460
      ESP Fit Center  668 is at   1.334463  5.390151 -0.946460
      ESP Fit Center  669 is at   0.854463  4.558767 -0.946460
      ESP Fit Center  670 is at   4.539069  3.588426  3.289444
      ESP Fit Center  671 is at   4.053119  2.746736  3.289444
      ESP Fit Center  672 is at   5.318472  3.588426  2.667891
      ESP Fit Center  673 is at   3.025987  1.922838  2.667891
      ESP Fit Center  674 is at   4.108351  1.922838  2.667891
      ESP Fit Center  675 is at   4.984003  2.559036  2.667891
      ESP Fit Center  676 is at   5.751008  3.588426  1.769721
      ESP Fit Center  677 is at   5.500862  2.573546  1.769721
      ESP Fit Center  678 is at   5.500862  4.603306  0.772827
      ESP Fit Center  679 is at   4.261021  5.247212 -0.521856
      ESP Fit Center  680 is at   4.519844  4.672878 -1.484182
      ESP Fit Center  681 is at   4.781682  2.966049 -2.150131
      ESP Fit Center  682 is at   5.768636  3.049515  1.442446
      ESP Fit Center  683 is at   6.471405  3.049515  0.739677
      ESP Fit Center  684 is at   6.153844  4.026866  0.739677
      ESP Fit Center  685 is at   6.153844  2.072164  0.739677
      ESP Fit Center  686 is at   6.728636  3.049515 -0.220323
      ESP Fit Center  687 is at   6.471405  4.009515 -0.220323
      ESP Fit Center  688 is at   5.768636  4.712284 -0.220323
      ESP Fit Center  689 is at   5.768636  1.386746 -0.220323
      ESP Fit Center  690 is at   6.471405  2.089515 -0.220323
      ESP Fit Center  691 is at   6.471405  3.049515 -1.180323
      ESP Fit Center  692 is at   6.153844  4.026866 -1.180323
      ESP Fit Center  693 is at   5.322460  4.630902 -1.180323
      ESP Fit Center  694 is at   6.153844  2.072164 -1.180323
      ESP Fit Center  695 is at   5.768636  3.049515 -1.883092
      ESP Fit Center  696 is at   5.288636  3.880899 -1.883092
      ESP Fit Center  697 is at   5.288636  2.218131 -1.883092
      ESP Fit Center  698 is at   4.808636  3.049515 -2.140323
      ESP Fit Center  699 is at   3.176793  5.418460 -0.769878
      ESP Fit Center  700 is at   4.522001  4.475811 -1.729878
      ESP Fit Center  701 is at   3.690617  5.079847 -1.729878
      ESP Fit Center  702 is at   2.662969  5.079847 -1.729878
      ESP Fit Center  703 is at   1.831585  4.475811 -1.729878
      ESP Fit Center  704 is at   1.514024  3.498460 -1.729878
      ESP Fit Center  705 is at   4.136793  3.498460 -2.432647
      ESP Fit Center  706 is at   3.656793  4.329844 -2.432647
      ESP Fit Center  707 is at   2.696793  4.329844 -2.432647
      ESP Fit Center  708 is at   2.216793  3.498460 -2.432647
      ESP Fit Center  709 is at   2.696793  2.667076 -2.432647
      ESP Fit Center  710 is at   3.656793  2.667076 -2.432647
      ESP Fit Center  711 is at   3.176793  3.498460 -2.689878
      ESP Fit Center  712 is at   5.704686  1.490214  0.520647
      ESP Fit Center  713 is at   3.813061  0.984227  2.776983
      ESP Fit Center  714 is at   4.773061  0.984227  2.519752
      ESP Fit Center  715 is at   4.293061  1.815611  2.519752
      ESP Fit Center  716 is at   2.853061  0.984227  2.519752
      ESP Fit Center  717 is at   3.333061  0.152843  2.519752
      ESP Fit Center  718 is at   4.293061  0.152843  2.519752
      ESP Fit Center  719 is at   5.475830  0.984227  1.816983
      ESP Fit Center  720 is at   5.158269  1.961578  1.816983
      ESP Fit Center  721 is at   4.326885 -0.597160  1.816983
      ESP Fit Center  722 is at   5.158269  0.006876  1.816983
      ESP Fit Center  723 is at   5.733061  0.984227  0.856983
      ESP Fit Center  724 is at   3.813061 -0.935773  0.856983
      ESP Fit Center  725 is at   4.773061 -0.678542  0.856983
      ESP Fit Center  726 is at   5.475830  0.024227  0.856983
      ESP Fit Center  727 is at   5.703530  1.026930 -0.924639
      ESP Fit Center  728 is at   4.743530 -0.635839 -0.924639
      ESP Fit Center  729 is at   5.446299  0.066930 -0.924639
      ESP Fit Center  730 is at   5.446299  1.026930 -1.884639
      ESP Fit Center  731 is at   5.128738  2.004281 -1.884639
      ESP Fit Center  732 is at   4.297354 -0.554457 -1.884639
      ESP Fit Center  733 is at   5.128738  0.049579 -1.884639
      ESP Fit Center  734 is at   4.743530  1.026930 -2.587408
      ESP Fit Center  735 is at   4.263530  1.858314 -2.587408
      ESP Fit Center  736 is at   3.303530  1.858314 -2.587408
      ESP Fit Center  737 is at   2.823530  1.026930 -2.587408
      ESP Fit Center  738 is at   3.303530  0.195546 -2.587408
      ESP Fit Center  739 is at   4.263530  0.195546 -2.587408
      ESP Fit Center  740 is at   3.783530  1.026930 -2.844639
      ESP Fit Center  741 is at   0.318418  2.799442 -0.498447
      ESP Fit Center  742 is at   1.411863  3.016877 -1.396617
      ESP Fit Center  743 is at   0.536211  2.380679 -1.396617
      ESP Fit Center  744 is at   1.467095  2.192979 -2.018170
      ESP Fit Center  745 is at   0.981145  1.351289 -2.018170
      ESP Fit Center  746 is at   1.953045  1.351289 -2.240000
      ESP Fit Center  747 is at   1.004403  0.901810 -2.162325
      ESP Fit Center  748 is at   1.903718 -0.532168  2.806704
      ESP Fit Center  749 is at   2.863718 -0.532168  2.549473
      ESP Fit Center  750 is at   2.383718  0.299216  2.549473
      ESP Fit Center  751 is at   1.423718  0.299216  2.549473
      ESP Fit Center  752 is at   0.943718 -0.532168  2.549473
      ESP Fit Center  753 is at   1.423718 -1.363552  2.549473
      ESP Fit Center  754 is at   2.383718 -1.363552  2.549473
      ESP Fit Center  755 is at   1.389894 -2.113555  1.846704
      ESP Fit Center  756 is at   2.417542 -2.113555  1.846704
      ESP Fit Center  757 is at   3.248926 -1.509519  1.846704
      ESP Fit Center  758 is at   1.903718 -2.452168  0.886704
      ESP Fit Center  759 is at   2.863718 -2.194937  0.886704
      ESP Fit Center  760 is at   3.566487 -1.492168  0.886704
      ESP Fit Center  761 is at   2.875546 -2.185118 -0.889086
      ESP Fit Center  762 is at   3.578315 -1.482349 -0.889086
      ESP Fit Center  763 is at   3.260754 -1.499700 -1.849086
      ESP Fit Center  764 is at   2.875546 -0.522349 -2.551855
      ESP Fit Center  765 is at   2.395546  0.309035 -2.551855
      ESP Fit Center  766 is at   1.435546  0.309035 -2.551855
      ESP Fit Center  767 is at   2.395546 -1.353733 -2.551855
      ESP Fit Center  768 is at   1.915546 -0.522349 -2.809086
      ESP Fit Center  769 is at  -0.380862  2.486208 -0.856444
      ESP Fit Center  770 is at  -1.340862  2.228977 -0.856444
      ESP Fit Center  771 is at  -2.043631  1.526208 -0.856444
      ESP Fit Center  772 is at  -2.300862  0.566208 -0.856444
      ESP Fit Center  773 is at   0.132962  2.147595 -1.816444
      ESP Fit Center  774 is at  -0.894686  2.147595 -1.816444
      ESP Fit Center  775 is at  -1.726070  1.543559 -1.816444
      ESP Fit Center  776 is at  -2.043631  0.566208 -1.816444
      ESP Fit Center  777 is at   0.579138  0.566208 -2.519213
      ESP Fit Center  778 is at   0.099138  1.397592 -2.519213
      ESP Fit Center  779 is at  -0.860862  1.397592 -2.519213
      ESP Fit Center  780 is at  -1.340862  0.566208 -2.519213
      ESP Fit Center  781 is at  -0.380862  0.566208 -2.776444
      ESP Fit Center  782 is at  -0.367574  0.490390  2.826751
      ESP Fit Center  783 is at   0.592426  0.490390  2.569520
      ESP Fit Center  784 is at   0.112426  1.321774  2.569520
      ESP Fit Center  785 is at  -0.847574  1.321774  2.569520
      ESP Fit Center  786 is at  -1.327574  0.490390  2.569520
      ESP Fit Center  787 is at  -0.847574 -0.340994  2.569520
      ESP Fit Center  788 is at   0.112426 -0.340994  2.569520
      ESP Fit Center  789 is at  -0.881398  2.071777  1.866751
      ESP Fit Center  790 is at  -1.712782  1.467741  1.866751
      ESP Fit Center  791 is at  -2.030343  0.490390  1.866751
      ESP Fit Center  792 is at  -0.367574  2.410390  0.906751
      ESP Fit Center  793 is at  -1.327574  2.153159  0.906751
      ESP Fit Center  794 is at  -2.030343  1.450390  0.906751
      ESP Fit Center  795 is at  -2.287574  0.490390  0.906751
      ESP Fit Center  796 is at  -0.737363 -1.677686  2.807511
      ESP Fit Center  797 is at   0.334151 -1.677686  2.594374
      ESP Fit Center  798 is at  -0.201606 -0.749728  2.594374
      ESP Fit Center  799 is at  -1.273120 -0.749728  2.594374
      ESP Fit Center  800 is at  -1.808877 -1.677686  2.594374
      ESP Fit Center  801 is at  -1.273120 -2.605644  2.594374
      ESP Fit Center  802 is at  -0.201606 -2.605644  2.594374
      ESP Fit Center  803 is at  -2.452006 -0.687737  1.987410
      ESP Fit Center  804 is at  -2.717262 -1.677686  1.987410
      ESP Fit Center  805 is at  -2.452006 -2.667635  1.987410
      ESP Fit Center  806 is at  -1.727312 -3.392329  1.987410
      ESP Fit Center  807 is at  -0.737363 -3.657585  1.987410
      ESP Fit Center  808 is at   0.252586 -3.392329  1.987410
      ESP Fit Center  809 is at   0.977280 -2.667635  1.987410
      ESP Fit Center  810 is at  -2.830179 -0.157166  1.079025
      ESP Fit Center  811 is at  -3.267697 -1.139847  1.079025
      ESP Fit Center  812 is at  -3.267697 -2.215525  1.079025
      ESP Fit Center  813 is at  -2.830179 -3.198206  1.079025
      ESP Fit Center  814 is at  -2.030794 -3.917975  1.079025
      ESP Fit Center  815 is at  -1.007764 -4.250378  1.079025
      ESP Fit Center  816 is at   0.062022 -4.137939  1.079025
      ESP Fit Center  817 is at   0.993586 -3.600100  1.079025
      ESP Fit Center  818 is at   1.625854 -2.729858  1.079025
      ESP Fit Center  819 is at  -2.424740  0.556762  0.007511
      ESP Fit Center  820 is at  -3.117971 -0.203676  0.007511
      ESP Fit Center  821 is at  -3.489688 -1.163187  0.007511
      ESP Fit Center  822 is at  -3.489688 -2.192185  0.007511
      ESP Fit Center  823 is at  -3.117971 -3.151696  0.007511
      ESP Fit Center  824 is at   1.331862 -3.564034  0.007511
      ESP Fit Center  825 is at   1.873559 -2.689163  0.007511
      ESP Fit Center  826 is at  -2.830179 -0.157166 -1.064003
      ESP Fit Center  827 is at  -3.267697 -1.139847 -1.064003
      ESP Fit Center  828 is at  -1.905609  0.291834 -2.394011
      ESP Fit Center  829 is at  -2.608378 -0.410935 -2.394011
      ESP Fit Center  830 is at  -2.865609 -1.370935 -2.394011
      ESP Fit Center  831 is at   0.399599 -0.393584 -3.354011
      ESP Fit Center  832 is at  -0.431785  0.210452 -3.354011
      ESP Fit Center  833 is at  -1.459433  0.210452 -3.354011
      ESP Fit Center  834 is at  -2.290817 -0.393584 -3.354011
      ESP Fit Center  835 is at  -2.608378 -1.370935 -3.354011
      ESP Fit Center  836 is at   0.014391 -1.370935 -4.056780
      ESP Fit Center  837 is at  -0.465609 -0.539551 -4.056780
      ESP Fit Center  838 is at  -1.425609 -0.539551 -4.056780
      ESP Fit Center  839 is at   1.054742 -3.839261 -1.033630
      ESP Fit Center  840 is at   1.886126 -3.235225 -1.033630
      ESP Fit Center  841 is at   2.460918 -2.257874 -1.993630
      ESP Fit Center  842 is at   1.500918 -3.920643 -1.993630
      ESP Fit Center  843 is at   2.203687 -3.217874 -1.993630
      ESP Fit Center  844 is at   2.203687 -2.257874 -2.953630
      ESP Fit Center  845 is at   1.886126 -1.280523 -2.953630
      ESP Fit Center  846 is at   1.054742 -0.676487 -2.953630
      ESP Fit Center  847 is at   1.886126 -3.235225 -2.953630
      ESP Fit Center  848 is at   1.500918 -2.257874 -3.656399
      ESP Fit Center  849 is at   1.020918 -1.426490 -3.656399
      ESP Fit Center  850 is at  -2.473775 -4.898963 -0.508667
      ESP Fit Center  851 is at  -3.277527 -3.367653 -0.150840
      ESP Fit Center  852 is at  -2.797527 -4.199037 -0.150840
      ESP Fit Center  853 is at  -3.662735 -2.390302 -0.853609
      ESP Fit Center  854 is at  -3.980296 -3.367653 -0.853609
      ESP Fit Center  855 is at  -3.662735 -4.345004 -0.853609
      ESP Fit Center  856 is at  -2.831351 -4.949040 -0.853609
      ESP Fit Center  857 is at  -3.277527 -1.704884 -1.813609
      ESP Fit Center  858 is at  -3.980296 -2.407653 -1.813609
      ESP Fit Center  859 is at  -4.237527 -3.367653 -1.813609
      ESP Fit Center  860 is at  -2.831351 -1.786266 -2.773609
      ESP Fit Center  861 is at  -3.662735 -2.390302 -2.773609
      ESP Fit Center  862 is at  -3.980296 -3.367653 -2.773609
      ESP Fit Center  863 is at  -1.812337 -4.252995  0.327040
      ESP Fit Center  864 is at  -1.332337 -5.084379  0.327040
      ESP Fit Center  865 is at  -0.372337 -5.084379  0.327040
      ESP Fit Center  866 is at   0.810432 -4.252995 -0.375729
      ESP Fit Center  867 is at  -2.197545 -5.230346 -0.375729
      ESP Fit Center  868 is at  -0.338513 -5.834382 -0.375729
      ESP Fit Center  869 is at   0.492871 -5.230346 -0.375729
      ESP Fit Center  870 is at   1.067663 -4.252995 -1.335729
      ESP Fit Center  871 is at   0.810432 -5.212995 -1.335729
      ESP Fit Center  872 is at   1.587897 -3.981874 -2.688716
      ESP Fit Center  873 is at   0.731983 -5.904288 -2.688716
      ESP Fit Center  874 is at   1.364251 -5.034046 -2.688716
      ESP Fit Center  875 is at   1.801034 -3.981874 -3.760230
      ESP Fit Center  876 is at   1.611956 -2.970397 -3.760230
      ESP Fit Center  877 is at  -2.686343 -1.747426 -3.760230
      ESP Fit Center  878 is at  -3.379574 -2.507864 -3.760230
      ESP Fit Center  879 is at   1.070259 -5.868222 -3.760230
      ESP Fit Center  880 is at   1.611956 -4.993351 -3.760230
      ESP Fit Center  881 is at   1.587897 -3.981874 -4.831744
      ESP Fit Center  882 is at   1.364251 -2.929702 -4.831744
      ESP Fit Center  883 is at   0.731983 -2.059460 -4.831744
      ESP Fit Center  884 is at  -0.199581 -1.521621 -4.831744
      ESP Fit Center  885 is at  -1.269367 -1.409182 -4.831744
      ESP Fit Center  886 is at  -2.292397 -1.741585 -4.831744
      ESP Fit Center  887 is at  -3.091782 -2.461354 -4.831744
      ESP Fit Center  888 is at  -3.529300 -3.444035 -4.831744
      ESP Fit Center  889 is at   0.731983 -5.904288 -4.831744
      ESP Fit Center  890 is at   1.364251 -5.034046 -4.831744
      ESP Fit Center  891 is at   0.980933 -3.981874 -5.740129
      ESP Fit Center  892 is at   0.715677 -2.991925 -5.740129
      ESP Fit Center  893 is at  -0.009017 -2.267231 -5.740129
      ESP Fit Center  894 is at  -0.998966 -2.001975 -5.740129
      ESP Fit Center  895 is at  -1.988915 -2.267231 -5.740129
      ESP Fit Center  896 is at  -2.713609 -2.991925 -5.740129
      ESP Fit Center  897 is at  -2.978865 -3.981874 -5.740129
      ESP Fit Center  898 is at  -0.009017 -5.696517 -5.740129
      ESP Fit Center  899 is at   0.715677 -4.971823 -5.740129
      ESP Fit Center  900 is at   0.072548 -3.981874 -6.347093
      ESP Fit Center  901 is at  -0.463209 -3.053916 -6.347093
      ESP Fit Center  902 is at  -1.534723 -3.053916 -6.347093
      ESP Fit Center  903 is at  -2.070480 -3.981874 -6.347093
      ESP Fit Center  904 is at  -0.463209 -4.909832 -6.347093
      ESP Fit Center  905 is at  -0.998966 -3.981874 -6.560230
      ESP Fit Center  906 is at  -3.378128 -3.995778 -5.369458
      ESP Fit Center  907 is at  -3.598678 -4.628770 -5.905141
      ESP Fit Center  908 is at  -3.916239 -5.606121 -5.905141
      ESP Fit Center  909 is at  -3.598678 -6.583472 -5.905141
      ESP Fit Center  910 is at  -1.739646 -7.187508 -5.905141
      ESP Fit Center  911 is at  -0.908262 -6.583472 -5.905141
      ESP Fit Center  912 is at  -1.293470 -5.606121 -6.607910
      ESP Fit Center  913 is at  -1.773470 -4.774737 -6.607910
      ESP Fit Center  914 is at  -2.733470 -4.774737 -6.607910
      ESP Fit Center  915 is at  -3.213470 -5.606121 -6.607910
      ESP Fit Center  916 is at  -2.733470 -6.437505 -6.607910
      ESP Fit Center  917 is at  -1.773470 -6.437505 -6.607910
      ESP Fit Center  918 is at  -2.253470 -5.606121 -6.865141
      ESP Fit Center  919 is at  -4.479185 -4.134114 -2.543445
      ESP Fit Center  920 is at  -4.093977 -3.448696 -3.503445
      ESP Fit Center  921 is at  -4.796746 -4.151465 -3.503445
      ESP Fit Center  922 is at  -5.053977 -5.111465 -3.503445
      ESP Fit Center  923 is at  -4.479185 -4.134114 -4.463445
      ESP Fit Center  924 is at  -4.796746 -5.111465 -4.463445
      ESP Fit Center  925 is at  -4.479185 -6.088816 -4.463445
      ESP Fit Center  926 is at  -0.065017 -7.686468 -1.666602
      ESP Fit Center  927 is at   1.000586 -6.948572 -2.598817
      ESP Fit Center  928 is at   0.683025 -5.971221 -2.598817
      ESP Fit Center  929 is at   0.683025 -7.925923 -2.598817
      ESP Fit Center  930 is at   1.257817 -6.948572 -3.558817
      ESP Fit Center  931 is at   1.000586 -5.988572 -3.558817
      ESP Fit Center  932 is at   0.297817 -8.611341 -3.558817
      ESP Fit Center  933 is at   1.000586 -7.908572 -3.558817
      ESP Fit Center  934 is at   1.000586 -6.948572 -4.518817
      ESP Fit Center  935 is at  -0.148359 -8.529959 -4.518817
      ESP Fit Center  936 is at   0.683025 -7.925923 -4.518817
      ESP Fit Center  937 is at   0.297817 -6.948572 -5.221586
      ESP Fit Center  938 is at  -0.182183 -7.779956 -5.221586
      ESP Fit Center  939 is at  -0.662183 -6.948572 -5.478817
      ESP Fit Center  940 is at  -1.524037 -6.508120 -0.166943
      ESP Fit Center  941 is at  -0.564037 -6.508120 -0.424174
      ESP Fit Center  942 is at  -2.004037 -5.676736 -0.424174
      ESP Fit Center  943 is at  -1.044037 -7.339504 -0.424174
      ESP Fit Center  944 is at   0.138732 -6.508120 -1.126943
      ESP Fit Center  945 is at  -1.010213 -8.089507 -1.126943
      ESP Fit Center  946 is at  -0.178829 -7.485471 -1.126943
      ESP Fit Center  947 is at  -0.754648 -8.139461 -1.423714
      ESP Fit Center  948 is at  -1.744598 -9.854104 -1.423714
      ESP Fit Center  949 is at  -1.019904 -9.129410 -1.423714
      ESP Fit Center  950 is at  -3.004948-10.712153 -2.332099
      ESP Fit Center  951 is at  -1.935162-10.599714 -2.332099
      ESP Fit Center  952 is at  -1.003598-10.061875 -2.332099
      ESP Fit Center  953 is at  -0.371330 -9.191633 -2.332099
      ESP Fit Center  954 is at  -4.421924-10.373909 -3.403613
      ESP Fit Center  955 is at  -3.500803-10.832573 -3.403613
      ESP Fit Center  956 is at  -2.476196-10.927517 -3.403613
      ESP Fit Center  957 is at  -1.486480-10.645918 -3.403613
      ESP Fit Center  958 is at  -0.665322-10.025809 -3.403613
      ESP Fit Center  959 is at  -0.123625 -9.150938 -3.403613
      ESP Fit Center  960 is at  -4.827363 -6.618941 -4.475127
      ESP Fit Center  961 is at  -5.264881 -7.601622 -4.475127
      ESP Fit Center  962 is at  -5.264881 -8.677300 -4.475127
      ESP Fit Center  963 is at  -4.827363 -9.659981 -4.475127
      ESP Fit Center  964 is at  -4.027978-10.379750 -4.475127
      ESP Fit Center  965 is at  -3.004948-10.712153 -4.475127
      ESP Fit Center  966 is at  -1.935162-10.599714 -4.475127
      ESP Fit Center  967 is at  -1.003598-10.061875 -4.475127
      ESP Fit Center  968 is at  -0.371330 -9.191633 -4.475127
      ESP Fit Center  969 is at  -0.754648 -8.139461 -5.383512
      ESP Fit Center  970 is at  -4.449190 -7.149512 -5.383512
      ESP Fit Center  971 is at  -4.714446 -8.139461 -5.383512
      ESP Fit Center  972 is at  -4.449190 -9.129410 -5.383512
      ESP Fit Center  973 is at  -3.724496 -9.854104 -5.383512
      ESP Fit Center  974 is at  -2.734547-10.119360 -5.383512
      ESP Fit Center  975 is at  -1.744598 -9.854104 -5.383512
      ESP Fit Center  976 is at  -1.019904 -9.129410 -5.383512
      ESP Fit Center  977 is at  -1.663033 -8.139461 -5.990476
      ESP Fit Center  978 is at  -3.270304 -7.211503 -5.990476
      ESP Fit Center  979 is at  -3.806061 -8.139461 -5.990476
      ESP Fit Center  980 is at  -3.270304 -9.067419 -5.990476
      ESP Fit Center  981 is at  -2.198790 -9.067419 -5.990476
      ESP Fit Center  982 is at  -2.734547 -8.139461 -6.203613
      ESP Fit Center  983 is at  -4.268517 -9.040216  0.295092
      ESP Fit Center  984 is at  -5.204396 -9.114726 -0.223220
      ESP Fit Center  985 is at  -4.724396 -9.946110 -0.223220
      ESP Fit Center  986 is at  -3.764396 -9.946110 -0.223220
      ESP Fit Center  987 is at  -5.907165 -9.114726 -0.925989
      ESP Fit Center  988 is at  -5.589604-10.092077 -0.925989
      ESP Fit Center  989 is at  -4.758220-10.696113 -0.925989
      ESP Fit Center  990 is at  -3.730572-10.696113 -0.925989
      ESP Fit Center  991 is at  -6.164396 -9.114726 -1.885989
      ESP Fit Center  992 is at  -5.907165-10.074726 -1.885989
      ESP Fit Center  993 is at  -5.204396-10.777495 -1.885989
      ESP Fit Center  994 is at  -4.244396-11.034726 -1.885989
      ESP Fit Center  995 is at  -3.284396-10.777495 -1.885989
      ESP Fit Center  996 is at  -5.907165 -9.114726 -2.845989
      ESP Fit Center  997 is at  -5.589604-10.092077 -2.845989
      ESP Fit Center  998 is at  -4.758220-10.696113 -2.845989
      ESP Fit Center  999 is at  -3.069498 -8.143528  0.913651
      ESP Fit Center 1000 is at  -2.109498 -8.143528  0.656420
      ESP Fit Center 1001 is at  -2.589498 -7.312144  0.656420
      ESP Fit Center 1002 is at  -3.549498 -7.312144  0.656420
      ESP Fit Center 1003 is at  -4.029498 -8.143528  0.656420
      ESP Fit Center 1004 is at  -3.549498 -8.974912  0.656420
      ESP Fit Center 1005 is at  -2.589498 -8.974912  0.656420
      ESP Fit Center 1006 is at  -1.406729 -8.143528 -0.046349
      ESP Fit Center 1007 is at  -1.724290 -7.166177 -0.046349
      ESP Fit Center 1008 is at  -2.555674 -6.562141 -0.046349
      ESP Fit Center 1009 is at  -3.583322 -9.724915 -0.046349
      ESP Fit Center 1010 is at  -2.555674 -9.724915 -0.046349
      ESP Fit Center 1011 is at  -1.724290 -9.120879 -0.046349
      ESP Fit Center 1012 is at  -1.149498 -8.143528 -1.006349
      ESP Fit Center 1013 is at  -2.109498 -9.806297 -1.006349
      ESP Fit Center 1014 is at  -1.406729 -9.103528 -1.006349
      ESP Fit Center 1015 is at  -3.740828 -7.020417  0.416033
      ESP Fit Center 1016 is at  -4.261489 -6.118607  0.416033
      ESP Fit Center 1017 is at  -6.241007 -5.191067 -1.212242
      ESP Fit Center 1018 is at  -6.890260 -6.005204 -1.212242
      ESP Fit Center 1019 is at  -6.241007 -8.849767 -1.212242
      ESP Fit Center 1020 is at  -6.241007 -5.191067 -2.280342
      ESP Fit Center 1021 is at  -6.241007 -8.849767 -2.280342
      ESP Fit Center 1022 is at  -5.049188 -5.163120 -3.242668
      ESP Fit Center 1023 is at  -5.385278 -7.161146  1.079745
      ESP Fit Center 1024 is at  -4.425278 -7.161146  0.822514
      ESP Fit Center 1025 is at  -4.905278 -6.329762  0.822514
      ESP Fit Center 1026 is at  -5.865278 -6.329762  0.822514
      ESP Fit Center 1027 is at  -6.345278 -7.161146  0.822514
      ESP Fit Center 1028 is at  -5.865278 -7.992530  0.822514
      ESP Fit Center 1029 is at  -4.905278 -7.992530  0.822514
      ESP Fit Center 1030 is at  -5.899102 -5.579759  0.119745
      ESP Fit Center 1031 is at  -6.730486 -6.183795  0.119745
      ESP Fit Center 1032 is at  -7.048047 -7.161146  0.119745
      ESP Fit Center 1033 is at  -6.730486 -8.138497  0.119745
      ESP Fit Center 1034 is at  -5.899102 -8.742533  0.119745
      ESP Fit Center 1035 is at  -7.048047 -6.201146 -0.840255
      ESP Fit Center 1036 is at  -7.305278 -7.161146 -0.840255
      ESP Fit Center 1037 is at  -7.048047 -8.121146 -0.840255
      ESP Fit Center 1038 is at  -6.345278 -8.823915 -0.840255
      ESP Fit Center 1039 is at  -3.347212 -6.036145 -0.011536
      ESP Fit Center 1040 is at  -3.827212 -5.204761 -0.011536
      ESP Fit Center 1041 is at  -4.787212 -5.204761 -0.011536
      ESP Fit Center 1042 is at  -2.962004 -5.058794 -0.714305
      ESP Fit Center 1043 is at  -3.793388 -4.454758 -0.714305
      ESP Fit Center 1044 is at  -4.821036 -4.454758 -0.714305
      ESP Fit Center 1045 is at  -4.307212 -4.116145 -1.674305
      ESP Fit Center 1046 is at  -5.267212 -4.373376 -1.674305
      ESP Fit Center 1047 is at  -4.821036 -4.454758 -2.634305
[...]
 1391 Fit       0.005856
 1392 Fit       0.012526
 1393 Fit       0.005406
 1394 Fit       0.010014
 1395 Fit       0.005050
 1396 Fit       0.009066
 1397 Fit       0.010373
 1398 Fit       0.007506
 1399 Fit       0.013259
 1400 Fit       0.007837
 1401 Fit       0.006395
 1402 Fit       0.005849
 1403 Fit       0.000850
 1404 Fit      -0.002095
 1405 Fit      -0.004906
 1406 Fit       0.002514
 1407 Fit       0.007467
 1408 Fit      -0.005455
 1409 Fit      -0.008678
 1410 Fit      -0.009736
 1411 Fit      -0.004792
 1412 Fit      -0.000232
 1413 Fit       0.001425
 1414 Fit      -0.005786
 1415 Fit      -0.006193
 1416 Fit      -0.001403
 1417 Fit      -0.007118
 1418 Fit      -0.011436
 1419 Fit      -0.010880
 1420 Fit      -0.008731
 1421 Fit      -0.006875
 1422 Fit      -0.007088
 1423 Fit      -0.009162
 1424 Fit      -0.011547
 1425 Fit      -0.011383
 1426 Fit      -0.007035
 1427 Fit      -0.005102
 1428 Fit      -0.010376
 1429 Fit      -0.009372
 1430 Fit      -0.009738
 1431 Fit      -0.010338
 1432 Fit      -0.011935
 1433 Fit      -0.012418
 1434 Fit      -0.009009
 1435 Fit      -0.001275
 1436 Fit      -0.000081
 1437 Fit      -0.006538
 1438 Fit      -0.006761
 1439 Fit      -0.009242
 1440 Fit      -0.008957
 1441 Fit      -0.002291
 1442 Fit      -0.000948
 1443 Fit      -0.004233
 1444 Fit       0.000676
 1445 Fit       0.002198
 1446 Fit      -0.001959
 1447 Fit       0.005792
 1448 Fit       0.004525
 1449 Fit       0.002486
 1450 Fit       0.002814
 1451 Fit       0.002997
 1452 Fit       0.001613
 1453 Fit       0.004140
 1454 Fit       0.004444
 1455 Fit       0.009058
 1456 Fit       0.009014
 1457 Fit       0.003373
 1458 Fit       0.005157
 1459 Fit       0.001477
 1460 Fit       0.003294
 1461 Fit       0.003007
 1462 Fit       0.001652
 1463 Fit      -0.001177
 1464 Fit       0.002968
 1465 Fit       0.001546
 1466 Fit       0.002862
 1467 Fit       0.003089
 1468 Fit       0.002733
 1469 Fit       0.006657
 1470 Fit       0.017234
 1471 Fit       0.014296
 1472 Fit       0.014297
 1473 Fit       0.010335
 1474 Fit       0.008347
 1475 Fit      -0.001563
 1476 Fit      -0.000026
 1477 Fit      -0.002960
 1478 Fit      -0.009321
 1479 Fit      -0.010402
 1480 Fit      -0.005980
 1481 Fit      -0.004066
 1482 Fit      -0.011299
 1483 Fit      -0.015010
 1484 Fit      -0.013784
 1485 Fit      -0.007403
 1486 Fit      -0.000347
 1487 Fit      -0.000526
 1488 Fit      -0.003488
 1489 Fit      -0.008743
 1490 Fit      -0.013778
 1491 Fit      -0.016039
 1492 Fit      -0.013823
 1493 Fit      -0.006653
 1494 Fit      -0.005669
 1495 Fit      -0.008804
 1496 Fit      -0.009339
 1497 Fit      -0.008697
 1498 Fit      -0.008536
 1499 Fit      -0.010329
 1500 Fit      -0.013223
 1501 Fit      -0.014790
 1502 Fit      -0.012815
 1503 Fit      -0.006592
 1504 Fit      -0.000729
 1505 Fit       0.006035
 1506 Fit      -0.011920
 1507 Fit      -0.013939
 1508 Fit      -0.013431
 1509 Fit      -0.013153
 1510 Fit      -0.013538
 1511 Fit      -0.012397
 1512 Fit      -0.007792
 1513 Fit      -0.004575
 1514 Fit      -0.007128
 1515 Fit      -0.013397
 1516 Fit      -0.013388
 1517 Fit      -0.010682
 1518 Fit      -0.009393
 1519 Fit       0.010890
 1520 Fit       0.010034
 1521 Fit       0.010917
 1522 Fit       0.009991
 1523 Fit       0.008341
 1524 Fit       0.005636
 1525 Fit       0.009510
 1526 Fit       0.009197
 1527 Fit       0.007900
 1528 Fit       0.004901
 1529 Fit      -0.000798
 1530 Fit       0.006914
 1531 Fit       0.006349
 1532 Fit       0.003850
 1533 Fit       0.011502
 1534 Fit       0.011715
 1535 Fit       0.013252
 1536 Fit       0.012489
 1537 Fit       0.012094
 1538 Fit       0.010257
 1539 Fit       0.009798
 1540 Fit       0.011365
 1541 Fit       0.016545
 1542 Fit       0.017871
 1543 Fit       0.008009
 1544 Fit       0.006429
 1545 Fit       0.007487
 1546 Fit       0.012463
 1547 Fit       0.009632
 1548 Fit       0.007930
 1549 Fit       0.006168
 1550 Fit       0.005500
 1551 Fit       0.005274
 1552 Fit       0.005653
 1553 Fit       0.006319
 1554 Fit       0.008236
 1555 Fit       0.009915
 1556 Fit       0.011037
 1557 Fit       0.008967
 1558 Fit       0.008589
 1559 Fit       0.009493
 1560 Fit       0.010414
 1561 Fit       0.011223
 1562 Fit       0.007299
 1563 Fit       0.007328
 1564 Fit       0.008057
 1565 Fit       0.008885
 1566 Fit       0.009863
 1567 Fit       0.011305
 1568 Fit       0.006003
 1569 Fit       0.006453
 1570 Fit       0.007174
 1571 Fit       0.008393
 1572 Fit       0.011316
 1573 Fit       0.010901
 1574 Fit       0.008257
 1575 Fit       0.010760
 1576 Fit       0.007702
 1577 Fit       0.011169
 1578 Fit       0.008770
 1579 Fit       0.005564
 1580 Fit       0.005641
 1581 Fit       0.005757
 1582 Fit       0.006147
 1583 Fit       0.006145
 1584 Fit       0.005392
 1585 Fit       0.005438
 1586 Fit       0.005056
 1587 Fit       0.003961
 1588 Fit      -0.001961
 1589 Fit       0.002568
 1590 Fit       0.002561
 1591 Fit      -0.001821
 1592 Fit      -0.005519
 1593 Fit      -0.002248
 1594 Fit      -0.002016
 1595 Fit      -0.002789
 1596 Fit      -0.003156
 1597 Fit      -0.001777
 1598 Fit      -0.002689
 1599 Fit      -0.004281
 1600 Fit      -0.000943
 1601 Fit      -0.000526
 1602 Fit      -0.002016
 1603 Fit      -0.001160
 1604 Fit      -0.000494
 1605 Fit      -0.001665
 1606 Fit      -0.000631
 1607 Fit      -0.000719
 1608 Fit      -0.001102
 1609 Fit      -0.000841
 1610 Fit       0.001065
 1611 Fit       0.000593
 1612 Fit      -0.003428
 1613 Fit      -0.000120
 1614 Fit       0.002387
 1615 Fit       0.002497
 1616 Fit       0.001252
 1617 Fit      -0.000162
 1618 Fit       0.001338
 1619 Fit      -0.000069
 1620 Fit      -0.000715
 1621 Fit       0.000859
 1622 Fit       0.000275
 1623 Fit      -0.001310
 1624 Fit       0.000349
 1625 Fit       0.001839
 1626 Fit       0.001433
 1627 Fit       0.000167
 1628 Fit       0.000136
 1629 Fit       0.001347
 1630 Fit       0.002123
 1631 Fit       0.001752
 1632 Fit       0.000555
 1633 Fit       0.000254
 1634 Fit       0.001604
 1635 Fit       0.001893
 1636 Fit       0.001547
 1637 Fit       0.001293
 1638 Fit      -0.002764
 1639 Fit      -0.002832
 1640 Fit      -0.003791
 1641 Fit      -0.002233
 1642 Fit      -0.002252
 1643 Fit      -0.003335
 1644 Fit      -0.005099
 1645 Fit      -0.002279
 1646 Fit      -0.002234
 1647 Fit      -0.002926
 1648 Fit      -0.004857
 1649 Fit      -0.008027
 1650 Fit      -0.011311
 1651 Fit      -0.002964
 1652 Fit      -0.004635
 1653 Fit      -0.008329
 1654 Fit      -0.015272
 1655 Fit      -0.006495
 1656 Fit      -0.014302
 1657 Fit       0.001107
 1658 Fit       0.001510
 1659 Fit      -0.000254
 1660 Fit      -0.002091
 1661 Fit      -0.005004
 1662 Fit      -0.009507
 1663 Fit      -0.000284
 1664 Fit      -0.002249
 1665 Fit      -0.005795
 1666 Fit       0.000747
 1667 Fit       0.000733
 1668 Fit      -0.000138
 1669 Fit      -0.002085
 1670 Fit      -0.005883
 1671 Fit      -0.013479
 1672 Fit      -0.000527
 1673 Fit      -0.000320
 1674 Fit      -0.001634
 1675 Fit      -0.005008
 1676 Fit      -0.011758
 1677 Fit      -0.002501
 1678 Fit      -0.003012
 1679 Fit      -0.007444
 1680 Fit      -0.013705
 1681 Fit      -0.006204
 1682 Fit      -0.004068
 1683 Fit       0.000791
 1684 Fit      -0.005435
 1685 Fit      -0.001294
 1686 Fit      -0.000096
 1687 Fit      -0.001728
 1688 Fit      -0.001451
 1689 Fit      -0.004185
 1690 Fit      -0.013700
 1691 Fit      -0.019169
 1692 Fit      -0.017288
 1693 Fit      -0.019574
 1694 Fit      -0.021149
 1695 Fit      -0.017952
 1696 Fit      -0.018287
 1697 Fit      -0.021461
 1698 Fit      -0.019547
 1699 Fit      -0.012680
 1700 Fit      -0.017428
 1701 Fit      -0.020285
 1702 Fit      -0.017718
 1703 Fit      -0.014943
 1704 Fit      -0.017466
 1705 Fit      -0.003279
 1706 Fit       0.000488
 1707 Fit       0.003790
 1708 Fit       0.005069
 1709 Fit      -0.009260
 1710 Fit      -0.002855
 1711 Fit       0.001031
 1712 Fit       0.002730
 1713 Fit      -0.010946
 1714 Fit      -0.003903
 1715 Fit       0.000569
 1716 Fit       0.003097
 1717 Fit       0.004384
 1718 Fit      -0.006606
 1719 Fit      -0.000877
 1720 Fit       0.002461
 1721 Fit       0.004540
 1722 Fit       0.006026
 1723 Fit      -0.008745
 1724 Fit      -0.001708
 1725 Fit       0.002205
 1726 Fit       0.004726
 1727 Fit      -0.000796
 1728 Fit       0.001820
 1729 Fit       0.003148
 1730 Fit       0.003342
 1731 Fit       0.003858
 1732 Fit       0.003062
 1733 Fit       0.001888
 1734 Fit       0.001624
 1735 Fit       0.002532
 1736 Fit      -0.000807
 1737 Fit      -0.003539
 1738 Fit      -0.003564
 1739 Fit       0.001516
 1740 Fit      -0.002543
 1741 Fit       0.004941
 1742 Fit       0.006203
 1743 Fit       0.006053
 1744 Fit       0.003901
 1745 Fit       0.000609
 1746 Fit       0.005271
 1747 Fit       0.002603
 1748 Fit      -0.015066
 1749 Fit      -0.006663
 1750 Fit      -0.001690
 1751 Fit       0.000034
 1752 Fit      -0.007858
 1753 Fit      -0.006468
 1754 Fit      -0.002932
 1755 Fit      -0.000742
 1756 Fit      -0.001885
 1757 Fit      -0.000580
 1758 Fit      -0.000185
 1759 Fit      -0.004477
 1760 Fit      -0.007207
 1761 Fit      -0.009284
 1762 Fit      -0.006333
 1763 Fit       0.002488
 1764 Fit      -0.004275
 1765 Fit      -0.008378
 1766 Fit       0.000016
 1767 Fit       0.009194
 1768 Fit       0.000657
 1769 Fit      -0.003318
 1770 Fit       0.003640
 1771 Fit       0.005146
 1772 Fit       0.002610
 1773 Fit      -0.001214
 1774 Fit       0.007337
 1775 Fit       0.007393
 1776 Fit       0.005228
 1777 Fit       0.002392
 1778 Fit       0.012101
 1779 Fit       0.009384
 1780 Fit       0.008496
 1781 Fit       0.006307
 1782 Fit       0.003999
 1783 Fit       0.010748
 1784 Fit       0.009073
 1785 Fit       0.006961
 1786 Fit      -0.002517
 1787 Fit      -0.002249
 1788 Fit       0.002509
 1789 Fit       0.001762
 1790 Fit       0.002051
 1791 Fit       0.001214
 1792 Fit      -0.001924
 1793 Fit       0.007554
 1794 Fit       0.004967
 1795 Fit       0.003994
 1796 Fit       0.003613
 1797 Fit       0.005423
 1798 Fit       0.005938
 1799 Fit       0.010955
 1800 Fit       0.005025
 1801 Fit       0.000113
 1802 Fit       0.000498
 1803 Fit       0.001183
 1804 Fit       0.004860
 1805 Fit       0.004373
 1806 Fit       0.002723
 1807 Fit       0.006941
 1808 Fit       0.005687
 1809 Fit       0.006234
 1810 Fit       0.008858
 1811 Fit       0.008105
 1812 Fit       0.007465
 1813 Fit       0.009714
 1814 Fit       0.011675
 1815 Fit       0.011403
 1816 Fit       0.010324
 1817 Fit       0.010507
 1818 Fit       0.010815
 1819 Fit       0.011819
 1820 Fit       0.010559
 1821 Fit       0.010268
 1822 Fit       0.009992
 1823 Fit       0.009796
 1824 Fit       0.007959
 1825 Fit       0.007869
 1826 Fit       0.010247
 1827 Fit       0.009976
 1828 Fit       0.009106
 1829 Fit      -0.003995
 1830 Fit      -0.000874
 1831 Fit       0.004076
 1832 Fit       0.002519
 1833 Fit       0.007539
 1834 Fit       0.004909
 1835 Fit       0.005737
 1836 Fit       0.004187
 1837 Fit       0.005357
 1838 Fit       0.005309
 1839 Fit       0.002448
 1840 Fit       0.004510
 1841 Fit       0.003520
 1842 Fit       0.006514
 1843 Fit       0.000396
 1844 Fit       0.005553
 1845 Fit       0.008471
 1846 Fit       0.007077
 1847 Fit       0.008504
 1848 Fit       0.010009
 1849 Fit       0.011243
 1850 Fit       0.011065
 1851 Fit       0.010801
 1852 Fit       0.009317
 1853 Fit       0.009277
 1854 Fit       0.010565
 1855 Fit       0.000785
 1856 Fit       0.002504
 1857 Fit       0.000329
 1858 Fit       0.003461
 1859 Fit       0.001933
 1860 Fit       0.004472
 1861 Fit       0.004620
 1862 Fit       0.000561
 1863 Fit       0.004252
 1864 Fit       0.006435
 1865 Fit       0.007580
 1866 Fit       0.010031
 1867 Fit       0.006796
 1868 Fit       0.008174
 1869 Fit       0.006757
 1870 Fit       0.006701
 1871 Fit       0.007087
 1872 Fit       0.007187
 1873 Fit       0.005720
 1874 Fit       0.006908
 1875 Fit       0.006319
 1876 Fit       0.004645
 1877 Fit       0.004175
 1878 Fit       0.004852
 1879 Fit       0.003535
 1880 Fit      -0.001732
 1881 Fit      -0.000857
 1882 Fit       0.003039
 1883 Fit       0.001272
 1884 Fit      -0.003029
 1885 Fit      -0.004668
 1886 Fit      -0.004526
 1887 Fit       0.003899
 1888 Fit      -0.001938
 1889 Fit      -0.004911
 1890 Fit      -0.005328
 1891 Fit      -0.005077
 1892 Fit      -0.005655
 1893 Fit      -0.006226
 1894 Fit      -0.004302
 1895 Fit      -0.000244
 1896 Fit      -0.005103
 1897 Fit      -0.006628
 1898 Fit      -0.005482
 1899 Fit      -0.003372
 1900 Fit      -0.002267
 1901 Fit      -0.003215
 1902 Fit      -0.005298
 1903 Fit      -0.005889
 1904 Fit      -0.002568
 1905 Fit      -0.001200
 1906 Fit      -0.005832
 1907 Fit      -0.007424
 1908 Fit      -0.005883
 1909 Fit      -0.002221
 1910 Fit       0.001665
 1911 Fit       0.004120
 1912 Fit       0.003878
 1913 Fit       0.000532
 1914 Fit      -0.002992
 1915 Fit      -0.003486
 1916 Fit      -0.002828
 1917 Fit      -0.005991
 1918 Fit      -0.006178
 1919 Fit      -0.003016
 1920 Fit       0.002750
 1921 Fit       0.001244
 1922 Fit       0.000871
 1923 Fit       0.000692
 1924 Fit      -0.002840
 1925 Fit      -0.002449
 1926 Fit       0.004818
 1927 Fit       0.002016
 1928 Fit       0.010686
 1929 Fit       0.004982
 1930 Fit       0.007072
 1931 Fit       0.004558
 1932 Fit       0.003994
 1933 Fit       0.007173
 1934 Fit       0.007433
 1935 Fit       0.006772
 1936 Fit       0.004542
 1937 Fit       0.000663
 1938 Fit       0.001843
 1939 Fit       0.000221
 1940 Fit       0.004782
 1941 Fit       0.007576
 1942 Fit       0.010337
 1943 Fit       0.005508
 1944 Fit       0.005786
 1945 Fit       0.009094
 1946 Fit       0.011150
 1947 Fit       0.002717
 1948 Fit       0.009289
 1949 Fit       0.005053
 1950 Fit       0.009974
 1951 Fit       0.004343
 1952 Fit       0.006892
 1953 Fit       0.011384
 1954 Fit       0.007472
 1955 Fit       0.004879
 1956 Fit       0.015457
 1957 Fit       0.010441
 1958 Fit       0.005606
 1959 Fit       0.009197
 1960 Fit       0.005713
 1961 Fit       0.004197
 1962 Fit       0.001811
 1963 Fit       0.000147
 1964 Fit      -0.002020
 1965 Fit      -0.003453
 1966 Fit      -0.004710
 1967 Fit       0.000011
 1968 Fit      -0.000700
 1969 Fit       0.001719
 1970 Fit      -0.005331
 1971 Fit      -0.006903
 1972 Fit      -0.007399
 1973 Fit      -0.004667
 1974 Fit      -0.001956
 1975 Fit      -0.000782
 1976 Fit      -0.000999
 1977 Fit      -0.002555
 1978 Fit      -0.005084
 1979 Fit      -0.006009
 1980 Fit      -0.003874
 1981 Fit       0.000713
 1982 Fit      -0.005296
 1983 Fit      -0.008125
 1984 Fit      -0.007903
 1985 Fit      -0.006895
 1986 Fit      -0.005944
 1987 Fit      -0.006188
 1988 Fit      -0.007501
 1989 Fit      -0.008805
 1990 Fit      -0.008347
 1991 Fit      -0.005175
 1992 Fit       0.002560
 1993 Fit      -0.003412
 1994 Fit      -0.007136
 1995 Fit      -0.006915
 1996 Fit      -0.007468
 1997 Fit      -0.007964
 1998 Fit      -0.008852
 1999 Fit      -0.008854
 2000 Fit      -0.006317
 2001 Fit      -0.001045
 2002 Fit      -0.000312
 2003 Fit      -0.004720
 2004 Fit      -0.005257
 2005 Fit      -0.006981
 2006 Fit      -0.006550
 2007 Fit      -0.002029
 2008 Fit      -0.001242
 2009 Fit      -0.003526
 2010 Fit       0.000794
 2011 Fit       0.002032
 2012 Fit      -0.002745
 2013 Fit       0.000259
 2014 Fit       0.001361
 2015 Fit      -0.001492
 2016 Fit       0.003548
 2017 Fit       0.002859
 2018 Fit       0.001367
 2019 Fit       0.001728
 2020 Fit       0.001855
 2021 Fit       0.000842
 2022 Fit       0.002565
 2023 Fit       0.002804
 2024 Fit       0.009669
 2025 Fit       0.009623
 2026 Fit       0.004480
 2027 Fit       0.006193
 2028 Fit       0.001431
 2029 Fit       0.003191
 2030 Fit       0.000055
 2031 Fit       0.005107
 2032 Fit       0.004091
 2033 Fit       0.003547
 2034 Fit       0.002745
 2035 Fit       0.001258
 2036 Fit      -0.001267
 2037 Fit       0.002036
 2038 Fit       0.000283
 2039 Fit      -0.000973
 2040 Fit       0.001728
 2041 Fit       0.000501
 2042 Fit       0.001525
 2043 Fit       0.002050
 2044 Fit       0.014976
 2045 Fit       0.012564
 2046 Fit       0.013047
 2047 Fit       0.009893
 2048 Fit       0.008286
 2049 Fit      -0.000181
 2050 Fit      -0.004695
 2051 Fit      -0.005401
 2052 Fit      -0.002261
 2053 Fit      -0.002886
 2054 Fit      -0.007895
 2055 Fit      -0.010066
 2056 Fit      -0.008849
 2057 Fit      -0.004378
 2058 Fit       0.000262
 2059 Fit      -0.004316
 2060 Fit      -0.008656
 2061 Fit      -0.011506
 2062 Fit      -0.011930
 2063 Fit      -0.009468
 2064 Fit      -0.004147
 2065 Fit      -0.002365
 2066 Fit      -0.002691
 2067 Fit      -0.003546
 2068 Fit      -0.005889
 2069 Fit      -0.009045
 2070 Fit      -0.011576
 2071 Fit      -0.012090
 2072 Fit      -0.009753
 2073 Fit      -0.004455
 2074 Fit      -0.004040
 2075 Fit      -0.007044
 2076 Fit      -0.007961
 2077 Fit      -0.007954
 2078 Fit      -0.008098
 2079 Fit      -0.009221
 2080 Fit      -0.010812
 2081 Fit      -0.011401
 2082 Fit      -0.009648
 2083 Fit      -0.005218
 2084 Fit      -0.001476
 2085 Fit      -0.008421
 2086 Fit      -0.010495
 2087 Fit      -0.010704
 2088 Fit      -0.010725
 2089 Fit      -0.010819
 2090 Fit      -0.009726
 2091 Fit      -0.006374
 2092 Fit      -0.004086
 2093 Fit      -0.005136
 2094 Fit      -0.009886
 2095 Fit      -0.010373
 2096 Fit      -0.008498
 2097 Fit      -0.007238
 2098 Fit       0.009839
 2099 Fit       0.009737
 2100 Fit       0.008229
 2101 Fit       0.004490
 2102 Fit       0.009113
 2103 Fit       0.009991
 2104 Fit       0.008771
 2105 Fit       0.007363
 2106 Fit       0.005574
 2107 Fit       0.008667
 2108 Fit       0.007928
 2109 Fit       0.006489
 2110 Fit       0.003962
 2111 Fit       0.007121
 2112 Fit       0.006399
 2113 Fit       0.004640
 2114 Fit       0.000994
 2115 Fit       0.004290
 2116 Fit       0.003565
 2117 Fit       0.010120
 2118 Fit       0.010122
 2119 Fit       0.011325
 2120 Fit       0.011056
 2121 Fit       0.010773
 2122 Fit       0.009307
 2123 Fit       0.008779
 2124 Fit       0.010002
 2125 Fit       0.013391
 2126 Fit       0.014375
 2127 Fit       0.007564
 2128 Fit       0.006461
 2129 Fit       0.007263
 2130 Fit       0.008868
 2131 Fit       0.001846
 2132 Fit       0.003606
 2133 Fit       0.010973
 2134 Fit       0.008806
 2135 Fit       0.012011
 2136 Fit       0.007142
 2137 Fit       0.006168
 2138 Fit       0.005608
 2139 Fit       0.005129
 2140 Fit       0.005457
 2141 Fit       0.006998
 2142 Fit       0.009104
 2143 Fit       0.005615
 2144 Fit       0.005015
 2145 Fit       0.005899
 2146 Fit       0.006125
 2147 Fit       0.008786
 2148 Fit       0.009857
 2149 Fit       0.008209
 2150 Fit       0.007728
 2151 Fit       0.008352
 2152 Fit       0.009156
 2153 Fit       0.009936
 2154 Fit       0.006829
 2155 Fit       0.006835
 2156 Fit       0.007382
 2157 Fit       0.008058
 2158 Fit       0.008867
 2159 Fit       0.009942
 2160 Fit       0.005943
 2161 Fit       0.006176
 2162 Fit       0.006692
 2163 Fit       0.007389
 2164 Fit       0.008563
 2165 Fit       0.009303
 2166 Fit       0.008468
 2167 Fit       0.010296
 2168 Fit       0.007271
 2169 Fit       0.012205
 2170 Fit       0.007811
 2171 Fit       0.005212
 2172 Fit       0.005108
 2173 Fit       0.004917
 2174 Fit       0.004893
 2175 Fit       0.004800
 2176 Fit       0.004915
 2177 Fit       0.004799
 2178 Fit       0.004166
 2179 Fit       0.004042
 2180 Fit       0.003482
 2181 Fit       0.001984
 2182 Fit       0.001101
 2183 Fit       0.000897
 2184 Fit      -0.003433
 Job cpu time:       0 days  0 hours 11 minutes 28.8 seconds.
 Normal termination of Gaussian 16 at Sun Jul  9 07:29:03 2023.
