 Copyright (c) 1988-2019, Gaussian, Inc.  All Rights Reserved.
  
 This is part of the Gaussian(R) 16 program.  It is based on
 the Gaussian(R) 09 system (copyright 2009, Gaussian, Inc.),
 the Gaussian(R) 03 system (copyright 2003, Gaussian, Inc.),
 the Gaussian(R) 98 system (copyright 1998, Gaussian, Inc.),
 the Gaussian(R) 94 system (copyright 1995, Gaussian, Inc.),
 the Gaussian 92(TM) system (copyright 1992, Gaussian, Inc.),
 the Gaussian 90(TM) system (copyright 1990, Gaussian, Inc.),
 the Gaussian 88(TM) system (copyright 1988, Gaussian, Inc.),
 the Gaussian 86(TM) system (copyright 1986, Carnegie Mellon
 University), and the Gaussian 82(TM) system (copyright 1983,
 Carnegie Mellon University). Gaussian is a federally registered
 trademark of Gaussian, Inc.
 Cite this work as:
 Gaussian 16, Revision C.01,
 M. J. Frisch, G. W. Trucks, H. B. Schlegel, G. E. Scuseria, 
 M. A. Robb, J. R. Cheeseman, G. Scalmani, V. Barone, 
 G. A. Petersson, H. Nakatsuji, X. Li, M. Caricato, A. V. Marenich, 
 J. Bloino, B. G. Janesko, R. Gomperts, B. Mennucci, H. P. Hratchian, 
 J. V. Ortiz, A. F. Izmaylov, J. L. Sonnenberg, D. Williams-Young, 
 F. Ding, F. Lipparini, F. Egidi, J. Goings, B. Peng, A. Petrone, 
 T. Henderson, D. Ranasinghe, V. G. Zakrzewski, J. Gao, N. Rega, 
 G. Zheng, W. Liang, M. Hada, M. Ehara, K. Toyota, R. Fukuda, 
 J. Hasegawa, M. Ishida, T. Nakajima, Y. Honda, O. Kitao, H. Nakai, 
 T. Vreven, K. Throssell, J. A. Montgomery, Jr., J. E. Peralta, 
 F. Ogliaro, M. J. Bearpark, J. J. Heyd, E. N. Brothers, K. N. Kudin, 
 V. N. Staroverov, T. A. Keith, R. Kobayashi, J. Normand, 
 K. Raghavachari, A. P. Rendell, J. C. Burant, S. S. Iyengar, 
 J. Tomasi, M. Cossi, J. M. Millam, M. Klene, C. Adamo, R. Cammi, 
 J. W. Ochterski, R. L. Martin, K. Morokuma, O. Farkas, 
 J. B. Foresman, and D. J. Fox, Gaussian, Inc., Wallingford CT, 2019.
 
 ******************************************
 Gaussian 16:  EM64L-G16RevC.01  3-Jul-2019
                 9-Jul-2023 
 ******************************************
 ----------------------------------------------------------------------
 #P B3LYP/6-31G(d) Integral=Ultrafine SCF(Conver=8,XQC,MaxConventionalC
 ycles=64,MaxCycle=128) NoSymm Test Pop=mk IOp(6/33=2) GFInput GFPrint
 ----------------------------------------------------------------------
 1/38=1,172=1/1;
 2/12=2,15=1,17=6,18=5,40=1/2;
 3/5=1,6=6,7=1,11=2,24=110,25=1,30=1,74=-5,75=-5/1,2,3;
 4//1;
 5/5=2,6=8,7=128,8=3,13=1,38=5,85=64/2,8;
 6/7=2,8=2,9=2,10=2,15=8,20=1,28=1,33=2/1,2;
 99/5=1,9=1/99;
 -------------------------------------------------
 MEP step - Input generated by PyRED DVE-DMDS-OPLS
 -------------------------------------------------
 Symbolic Z-matrix:
 Charge =  0 Multiplicity = 1
 C                     7.83916   1.75317   7.11552 
 H                     8.04093   0.87182   7.73426 
 H                     8.64135   1.85054   6.37688 
 H                     7.85409   2.64083   7.75599 
 C                     6.49183   1.61995   6.42484 
 H                     6.4759    0.71762   5.79273 
 H                     5.68402   1.51016   7.16773 
 O                     6.27605   2.79193   5.64929 
 C                     5.02274   2.8455    4.99194 
 H                     4.79865   3.90349   4.82034 
 H                     4.2214    2.42984   5.622 
 C                     5.04669   2.11859   3.64655 
 H                     5.82551   2.55947   3.00399 
 H                     5.29222   1.05184   3.78004 
 O                     3.76432   2.2618    3.06365 
 C                     3.64897   1.65159   1.79316 
 H                     3.84586   0.56781   1.86031 
 H                     4.37445   2.07449   1.07996 
 C                     2.22999   1.90254   1.28645 
 H                     2.06244   2.98      1.18836 
 H                     1.50461   1.51759   2.01688 
 O                     2.0452    1.32664   0. 
 C                     1.53206   0.        0. 
 H                     1.90726  -0.57908   0.85523 
 H                     1.91094  -0.47543  -0.91088 
 C                     0.        0.        0. 
 H                    -0.37534   0.60825  -0.82888 
 H                    -0.38393   0.44348   0.92456 
 S                    -0.72128  -1.68886  -0.06939 
 C                    -0.61147  -2.06454  -1.87055 
 H                     0.37658  -1.78911  -2.25022 
 H                    -0.6869   -3.15452  -1.93166 
 C                    -1.71418  -1.39681  -2.69333 
 H                    -1.63766  -0.30694  -2.63146 
 H                    -2.70239  -1.66996  -2.31175 
 S                    -1.60753  -1.77051  -4.49417 
 C                    -2.30209  -3.47654  -4.56642 
 H                    -1.86234  -4.08911  -3.77362 
 H                    -1.94784  -3.88664  -5.51583 
 C                    -3.83053  -3.51112  -4.4948 
 H                    -4.17826  -3.06555  -3.5579 
 H                    -4.27234  -2.9296   -5.3101 
 S                    -4.53427  -5.21605  -4.52764 
 C                    -4.95804  -5.43446  -6.30549 
 H                    -5.57002  -6.34308  -6.31299 
 H                    -5.61143  -4.60813  -6.60762 
 C                    -3.77862  -5.58211  -7.26552 
 H                    -3.18455  -4.66381  -7.32079 
 H                    -3.11785  -6.39791  -6.95589 
 H                    -4.14261  -5.79851  -8.27806 
 
 ITRead=  0  0  0  0  0  0  0  0  0  0  0  0  0  0  0  0  0  0  0  0
 ITRead=  0  0  0  0  0  0  0  0  0  0  0  0  0  0  0  0  0  0  0  0
 ITRead=  0  0  0  0  0  0  0  0  0  0
 MicOpt= -1 -1 -1 -1 -1 -1 -1 -1 -1 -1 -1 -1 -1 -1 -1 -1 -1 -1 -1 -1
 MicOpt= -1 -1 -1 -1 -1 -1 -1 -1 -1 -1 -1 -1 -1 -1 -1 -1 -1 -1 -1 -1
 MicOpt= -1 -1 -1 -1 -1 -1 -1 -1 -1 -1
 NAtoms=     50 NQM=       50 NQMF=       0 NMMI=      0 NMMIF=      0
                NMic=       0 NMicF=      0.
                          Input orientation:                          
 ---------------------------------------------------------------------
 Center     Atomic      Atomic             Coordinates (Angstroms)
 Number     Number       Type             X           Y           Z
 ---------------------------------------------------------------------
      1          6           0        7.839157    1.753166    7.115519
      2          1           0        8.040929    0.871821    7.734257
      3          1           0        8.641354    1.850541    6.376879
      4          1           0        7.854086    2.640827    7.755987
      5          6           0        6.491825    1.619949    6.424836
      6          1           0        6.475897    0.717620    5.792727
      7          1           0        5.684019    1.510156    7.167731
      8          8           0        6.276046    2.791932    5.649293
      9          6           0        5.022742    2.845500    4.991941
     10          1           0        4.798650    3.903490    4.820341
     11          1           0        4.221399    2.429840    5.621997
     12          6           0        5.046694    2.118593    3.646550
     13          1           0        5.825509    2.559475    3.003985
     14          1           0        5.292222    1.051845    3.780037
     15          8           0        3.764317    2.261796    3.063646
     16          6           0        3.648974    1.651592    1.793157
     17          1           0        3.845862    0.567811    1.860314
     18          1           0        4.374454    2.074493    1.079957
     19          6           0        2.229988    1.902541    1.286453
     20          1           0        2.062436    2.980001    1.188363
     21          1           0        1.504607    1.517585    2.016875
     22          8           0        2.045197    1.326640    0.000000
     23          6           0        1.532058    0.000000    0.000000
     24          1           0        1.907261   -0.579080    0.855230
     25          1           0        1.910940   -0.475427   -0.910879
     26          6           0        0.000000    0.000000    0.000000
     27          1           0       -0.375344    0.608250   -0.828880
     28          1           0       -0.383932    0.443482    0.924557
     29         16           0       -0.721284   -1.688864   -0.069387
     30          6           0       -0.611473   -2.064541   -1.870554
     31          1           0        0.376581   -1.789106   -2.250217
     32          1           0       -0.686903   -3.154517   -1.931657
     33          6           0       -1.714182   -1.396813   -2.693331
     34          1           0       -1.637658   -0.306942   -2.631462
     35          1           0       -2.702393   -1.669963   -2.311750
     36         16           0       -1.607532   -1.770514   -4.494168
     37          6           0       -2.302090   -3.476541   -4.566421
     38          1           0       -1.862336   -4.089111   -3.773615
     39          1           0       -1.947840   -3.886640   -5.515832
     40          6           0       -3.830529   -3.511118   -4.494804
     41          1           0       -4.178256   -3.065553   -3.557896
     42          1           0       -4.272343   -2.929603   -5.310101
     43         16           0       -4.534267   -5.216054   -4.527635
     44          6           0       -4.958042   -5.434460   -6.305492
     45          1           0       -5.570020   -6.343084   -6.312987
     46          1           0       -5.611426   -4.608126   -6.607621
     47          6           0       -3.778624   -5.582112   -7.265519
     48          1           0       -3.184551   -4.663814   -7.320792
     49          1           0       -3.117853   -6.397906   -6.955889
     50          1           0       -4.142610   -5.798510   -8.278055
 ---------------------------------------------------------------------
 Stoichiometry    C14H30O3S3
 Framework group  C1[X(C14H30O3S3)]
 Standard basis: 6-31G(d) (6D, 7F)
   372 basis functions,   752 primitive gaussians,   372 cartesian basis functions
    93 alpha electrons       93 beta electrons
 Requested convergence on RMS density matrix=1.00D-08 within  64 cycles.
 Requested convergence on MAX density matrix=1.00D-06.
 Requested convergence on             energy=1.00D-06.
 SCF Done:  E(RB3LYP) =  -1971.75434673     A.U. after   13 cycles
            NFock= 13  Conv=0.43D-08     -V/T= 2.0058
 Mulliken charges:
     1  C   -0.452022
     2  H    0.142965
     3  H    0.158133
     4  H    0.159725
     5  C   -0.013460
     6  H    0.121159
     7  H    0.122564
     8  O   -0.472723
     9  C   -0.036771
    10  H    0.154246
    11  H    0.130467
    12  C   -0.023425
    13  H    0.133305
    14  H    0.121861
    15  O   -0.486314
    16  C   -0.016606
    17  H    0.121687
    18  H    0.134268
    19  C   -0.052204
    20  H    0.157952
    21  H    0.135926
    22  O   -0.474686
    23  C   -0.025857
    24  H    0.141633
    25  H    0.151724
    26  C   -0.434402
    27  H    0.180672
    28  H    0.180445
    29  S    0.082210
    30  C   -0.415027
    31  H    0.188384
    32  H    0.183436
    33  C   -0.413759
    34  H    0.183967
    35  H    0.186448
    36  S    0.079457
    37  C   -0.412075
    38  H    0.183439
    39  H    0.187163
    40  C   -0.411864
    41  H    0.182537
    42  H    0.182212
    43  S    0.079327
    44  C   -0.407515
    45  H    0.178504
    46  H    0.171161
    47  C   -0.437070
    48  H    0.153089
    49  H    0.164233
    50  H    0.151477
 Sum of Mulliken charges =  -0.00000
 Dipole moment (field-independent basis, Debye):
    X=              0.0507    Y=             -1.0792    Z=             -0.7116  Tot=              1.2937
 Quadrupole moment (field-independent basis, Debye-Ang):
   XX=           -147.4104   YY=           -154.6960   ZZ=           -132.3687
   XY=             -8.9337   XZ=             11.7142   YZ=              5.7804
 Traceless Quadrupole moment (field-independent basis, Debye-Ang):
   XX=             -2.5854   YY=             -9.8710   ZZ=             12.4564
   XY=             -8.9337   XZ=             11.7142   YZ=              5.7804
 Octapole moment (field-independent basis, Debye-Ang**2):
  XXX=           -217.1092  YYY=            435.8319  ZZZ=            192.8540  XYY=           -101.5255
  XXY=             97.6309  XXZ=             51.3660  XZZ=           -136.6694  YZZ=             15.7149
  YYZ=              5.2120  XYZ=            -87.4965
 Hexadecapole moment (field-independent basis, Debye-Ang**3):
 XXXX=         -13719.5247 YYYY=          -8064.2016 ZZZZ=         -14895.0770 XXXY=          -4572.7265
 XXXZ=          -6572.2810 YYYX=          -4315.5420 YYYZ=          -4764.3574 ZZZX=          -5805.5758
 ZZZY=          -4265.6906 XXYY=          -3845.5501 XXZZ=          -4395.8532 YYZZ=          -3643.9287
 XXYZ=          -1715.7101 YYXZ=          -2215.0624 ZZXY=          -1122.7672
 Merz-Kollman atomic radii used.
 Atom Element Radius
    1     6    1.50
    2     1    1.20
    3     1    1.20
    4     1    1.20
    5     6    1.50
    6     1    1.20
    7     1    1.20
    8     8    1.40
    9     6    1.50
   10     1    1.20
   11     1    1.20
   12     6    1.50
   13     1    1.20
   14     1    1.20
   15     8    1.40
   16     6    1.50
   17     1    1.20
   18     1    1.20
   19     6    1.50
   20     1    1.20
   21     1    1.20
   22     8    1.40
   23     6    1.50
   24     1    1.20
   25     1    1.20
   26     6    1.50
   27     1    1.20
   28     1    1.20
   29    16    1.75
   30     6    1.50
   31     1    1.20
   32     1    1.20
   33     6    1.50
   34     1    1.20
   35     1    1.20
   36    16    1.75
   37     6    1.50
   38     1    1.20
   39     1    1.20
   40     6    1.50
   41     1    1.20
   42     1    1.20
   43    16    1.75
   44     6    1.50
   45     1    1.20
   46     1    1.20
   47     6    1.50
   48     1    1.20
   49     1    1.20
   50     1    1.20
 Generate VDW surfaces: Layer= 4 Dens= 1 Start= 1.400 Inc= 0.200
            Electrostatic Properties Using The SCF Density.


       Atomic Center    1 is at   7.839157  1.753166  7.115519
       Atomic Center    2 is at   8.040929  0.871821  7.734257
       Atomic Center    3 is at   8.641354  1.850541  6.376879
       Atomic Center    4 is at   7.854086  2.640827  7.755987
       Atomic Center    5 is at   6.491825  1.619949  6.424836
       Atomic Center    6 is at   6.475897  0.717620  5.792727
       Atomic Center    7 is at   5.684019  1.510156  7.167731
       Atomic Center    8 is at   6.276046  2.791932  5.649293
       Atomic Center    9 is at   5.022742  2.845500  4.991941
       Atomic Center   10 is at   4.798650  3.903490  4.820341
       Atomic Center   11 is at   4.221399  2.429840  5.621997
       Atomic Center   12 is at   5.046694  2.118593  3.646550
       Atomic Center   13 is at   5.825509  2.559475  3.003985
       Atomic Center   14 is at   5.292222  1.051845  3.780037
       Atomic Center   15 is at   3.764317  2.261796  3.063646
       Atomic Center   16 is at   3.648974  1.651592  1.793157
       Atomic Center   17 is at   3.845862  0.567811  1.860314
       Atomic Center   18 is at   4.374454  2.074493  1.079957
       Atomic Center   19 is at   2.229988  1.902541  1.286453
       Atomic Center   20 is at   2.062436  2.980001  1.188363
       Atomic Center   21 is at   1.504607  1.517585  2.016875
       Atomic Center   22 is at   2.045197  1.326640  0.000000
       Atomic Center   23 is at   1.532058  0.000000  0.000000
       Atomic Center   24 is at   1.907261 -0.579080  0.855230
       Atomic Center   25 is at   1.910940 -0.475427 -0.910879
       Atomic Center   26 is at   0.000000  0.000000  0.000000
       Atomic Center   27 is at  -0.375344  0.608250 -0.828880
       Atomic Center   28 is at  -0.383932  0.443482  0.924557
       Atomic Center   29 is at  -0.721284 -1.688864 -0.069387
       Atomic Center   30 is at  -0.611473 -2.064541 -1.870554
       Atomic Center   31 is at   0.376581 -1.789106 -2.250217
       Atomic Center   32 is at  -0.686903 -3.154517 -1.931657
       Atomic Center   33 is at  -1.714182 -1.396813 -2.693331
       Atomic Center   34 is at  -1.637658 -0.306942 -2.631462
       Atomic Center   35 is at  -2.702393 -1.669963 -2.311750
       Atomic Center   36 is at  -1.607532 -1.770514 -4.494168
       Atomic Center   37 is at  -2.302090 -3.476541 -4.566421
       Atomic Center   38 is at  -1.862336 -4.089111 -3.773615
       Atomic Center   39 is at  -1.947840 -3.886640 -5.515832
       Atomic Center   40 is at  -3.830529 -3.511118 -4.494804
       Atomic Center   41 is at  -4.178256 -3.065553 -3.557896
       Atomic Center   42 is at  -4.272343 -2.929603 -5.310101
       Atomic Center   43 is at  -4.534267 -5.216054 -4.527635
       Atomic Center   44 is at  -4.958042 -5.434460 -6.305492
       Atomic Center   45 is at  -5.570020 -6.343084 -6.312987
       Atomic Center   46 is at  -5.611426 -4.608126 -6.607621
       Atomic Center   47 is at  -3.778624 -5.582112 -7.265519
       Atomic Center   48 is at  -3.184551 -4.663814 -7.320792
       Atomic Center   49 is at  -3.117853 -6.397906 -6.955889
       Atomic Center   50 is at  -4.142610 -5.798510 -8.278055
      ESP Fit Center   51 is at   7.839157  1.753166  9.215519
      ESP Fit Center   52 is at   8.889157  1.753166  8.934172
      ESP Fit Center   53 is at   6.789157  1.753166  8.934172
      ESP Fit Center   54 is at   9.657810  1.753166  8.165519
      ESP Fit Center   55 is at   8.594653  0.098861  6.065519
      ESP Fit Center   56 is at   8.040929  0.871821  9.414257
      ESP Fit Center   57 is at   9.028408  0.871821  9.093406
      ESP Fit Center   58 is at   7.242042  0.291395  9.093406
      ESP Fit Center   59 is at   8.346077 -0.067328  9.093406
      ESP Fit Center   60 is at   9.638704  0.871821  8.253406
      ESP Fit Center   61 is at   6.539512  0.325350  8.253406
      ESP Fit Center   62 is at   7.242042 -0.511893  8.253406
      ESP Fit Center   63 is at   8.318380 -0.701680  8.253406
      ESP Fit Center   64 is at   9.264896 -0.155209  8.253406
      ESP Fit Center   65 is at   7.242042 -0.511893  7.215108
      ESP Fit Center   66 is at   8.318380 -0.701680  7.215108
      ESP Fit Center   67 is at   9.264896 -0.155209  7.215108
      ESP Fit Center   68 is at  10.239129  1.850541  6.896028
      ESP Fit Center   69 is at   9.865321  2.877571  6.896028
      ESP Fit Center   70 is at   9.865321  0.823511  6.896028
      ESP Fit Center   71 is at  10.239129  1.850541  5.857730
      ESP Fit Center   72 is at   9.865321  2.877571  5.857730
      ESP Fit Center   73 is at   8.918805  3.424042  5.857730
      ESP Fit Center   74 is at   8.918805  0.277040  5.857730
      ESP Fit Center   75 is at   9.865321  0.823511  5.857730
      ESP Fit Center   76 is at   9.628833  1.850541  5.017730
      ESP Fit Center   77 is at   8.946502  2.789690  5.017730
      ESP Fit Center   78 is at   8.946502  0.911392  5.017730
      ESP Fit Center   79 is at   8.641354  1.850541  4.696879
      ESP Fit Center   80 is at   7.854086  2.640827  9.435987
      ESP Fit Center   81 is at   8.841565  2.640827  9.115136
      ESP Fit Center   82 is at   8.159234  3.579976  9.115136
      ESP Fit Center   83 is at   7.055199  3.221253  9.115136
      ESP Fit Center   84 is at   7.055199  2.060401  9.115136
      ESP Fit Center   85 is at   9.451861  2.640827  8.275136
      ESP Fit Center   86 is at   9.078053  3.667857  8.275136
      ESP Fit Center   87 is at   8.131537  4.214328  8.275136
      ESP Fit Center   88 is at   7.055199  4.024541  8.275136
      ESP Fit Center   89 is at   6.352669  3.187298  8.275136
      ESP Fit Center   90 is at   9.078053  3.667857  7.236838
      ESP Fit Center   91 is at   8.131537  4.214328  7.236838
      ESP Fit Center   92 is at   7.055199  4.024541  7.236838
      ESP Fit Center   93 is at   6.233004 -0.180193  7.474836
      ESP Fit Center   94 is at   7.541825  1.619949  4.606183
      ESP Fit Center   95 is at   4.974480  0.171149  6.311876
      ESP Fit Center   96 is at   5.677010 -0.666094  6.311876
      ESP Fit Center   97 is at   6.753348 -0.855881  6.311876
      ESP Fit Center   98 is at   7.699864 -0.309410  6.311876
      ESP Fit Center   99 is at   8.073672  0.717620  5.273578
      ESP Fit Center  100 is at   4.974480  0.171149  5.273578
      ESP Fit Center  101 is at   5.677010 -0.666094  5.273578
      ESP Fit Center  102 is at   6.753348 -0.855881  5.273578
      ESP Fit Center  103 is at   7.699864 -0.309410  5.273578
      ESP Fit Center  104 is at   7.463376  0.717620  4.433578
      ESP Fit Center  105 is at   6.781045 -0.221529  4.433578
      ESP Fit Center  106 is at   5.684019  1.510156  8.847731
      ESP Fit Center  107 is at   5.989167  2.449305  8.526880
      ESP Fit Center  108 is at   4.885132  2.090582  8.526880
      ESP Fit Center  109 is at   4.885132  0.929730  8.526880
      ESP Fit Center  110 is at   5.989167  0.571007  8.526880
      ESP Fit Center  111 is at   4.885132  2.893870  7.686880
      ESP Fit Center  112 is at   4.182602  2.056627  7.686880
      ESP Fit Center  113 is at   4.182602  0.963685  7.686880
      ESP Fit Center  114 is at   4.885132  0.126442  7.686880
      ESP Fit Center  115 is at   5.961470 -0.063345  7.686880
      ESP Fit Center  116 is at   4.182602  0.963685  6.648582
      ESP Fit Center  117 is at   4.885132  0.126442  6.648582
      ESP Fit Center  118 is at   5.786046  3.640637  7.346703
      ESP Fit Center  119 is at   6.800574  4.406265  6.629293
      ESP Fit Center  120 is at   5.751518  4.406265  6.629293
      ESP Fit Center  121 is at   7.973456  3.771932  5.649293
      ESP Fit Center  122 is at   7.256046  4.489342  5.649293
      ESP Fit Center  123 is at   6.276046  4.751932  5.649293
      ESP Fit Center  124 is at   7.973456  2.791932  4.669293
      ESP Fit Center  125 is at   7.649279  3.789644  4.669293
      ESP Fit Center  126 is at   6.800574  4.406265  4.669293
      ESP Fit Center  127 is at   7.649279  1.794220  4.669293
      ESP Fit Center  128 is at   7.256046  2.791932  3.951883
      ESP Fit Center  129 is at   6.766046  3.640637  3.951883
      ESP Fit Center  130 is at   4.497742  3.754827  6.810594
      ESP Fit Center  131 is at   6.552691  3.828738  3.941941
      ESP Fit Center  132 is at   5.103798  4.842639  6.179490
      ESP Fit Center  133 is at   3.999763  4.483916  6.179490
      ESP Fit Center  134 is at   6.022617  4.930520  5.339490
      ESP Fit Center  135 is at   5.076101  5.476991  5.339490
      ESP Fit Center  136 is at   3.999763  5.287204  5.339490
      ESP Fit Center  137 is at   3.297233  4.449961  5.339490
      ESP Fit Center  138 is at   6.022617  4.930520  4.301192
      ESP Fit Center  139 is at   5.076101  5.476991  4.301192
      ESP Fit Center  140 is at   3.999763  5.287204  4.301192
      ESP Fit Center  141 is at   3.297233  4.449961  4.301192
      ESP Fit Center  142 is at   5.103798  4.842639  3.461192
      ESP Fit Center  143 is at   3.999763  4.483916  3.461192
      ESP Fit Center  144 is at   4.221399  2.429840  7.301997
      ESP Fit Center  145 is at   4.526547  3.368989  6.981146
      ESP Fit Center  146 is at   3.422512  3.010266  6.981146
      ESP Fit Center  147 is at   3.422512  1.849414  6.981146
      ESP Fit Center  148 is at   3.422512  3.813554  6.141146
      ESP Fit Center  149 is at   2.719982  2.976311  6.141146
      ESP Fit Center  150 is at   2.719982  1.883369  6.141146
      ESP Fit Center  151 is at   3.422512  1.046126  6.141146
      ESP Fit Center  152 is at   4.498850  0.856339  6.141146
      ESP Fit Center  153 is at   2.719982  2.976311  5.102848
      ESP Fit Center  154 is at   2.719982  1.883369  5.102848
      ESP Fit Center  155 is at   3.422512  1.046126  5.102848
      ESP Fit Center  156 is at   3.855729  0.744147  4.696550
      ESP Fit Center  157 is at   4.787873  3.918735  2.596550
      ESP Fit Center  158 is at   7.423284  2.559475  3.523134
      ESP Fit Center  159 is at   7.049476  3.586505  3.523134
      ESP Fit Center  160 is at   6.102960  4.132976  3.523134
      ESP Fit Center  161 is at   7.423284  2.559475  2.484836
      ESP Fit Center  162 is at   7.049476  3.586505  2.484836
      ESP Fit Center  163 is at   6.102960  4.132976  2.484836
      ESP Fit Center  164 is at   5.026622  3.943189  2.484836
      ESP Fit Center  165 is at   7.049476  1.532445  2.484836
      ESP Fit Center  166 is at   6.812988  2.559475  1.644836
      ESP Fit Center  167 is at   6.130657  3.498624  1.644836
      ESP Fit Center  168 is at   6.130657  1.620326  1.644836
      ESP Fit Center  169 is at   4.493335  0.471419  5.139186
      ESP Fit Center  170 is at   3.790805  0.505374  4.299186
      ESP Fit Center  171 is at   4.493335 -0.331869  4.299186
      ESP Fit Center  172 is at   5.569673 -0.521656  4.299186
      ESP Fit Center  173 is at   6.889997  1.051845  3.260888
      ESP Fit Center  174 is at   4.493335 -0.331869  3.260888
      ESP Fit Center  175 is at   5.569673 -0.521656  3.260888
      ESP Fit Center  176 is at   6.516189  0.024815  3.260888
      ESP Fit Center  177 is at   5.597370  0.112696  2.420888
      ESP Fit Center  178 is at   2.784317  2.261796  4.761056
      ESP Fit Center  179 is at   3.239789  3.876129  4.043646
      ESP Fit Center  180 is at   2.391084  3.259508  4.043646
      ESP Fit Center  181 is at   2.066907  2.261796  4.043646
      ESP Fit Center  182 is at   2.391084  1.264084  4.043646
      ESP Fit Center  183 is at   3.239789  0.647463  4.043646
      ESP Fit Center  184 is at   3.764317  4.221796  3.063646
      ESP Fit Center  185 is at   2.784317  3.959206  3.063646
      ESP Fit Center  186 is at   2.066907  3.241796  3.063646
      ESP Fit Center  187 is at   4.288845  3.876129  2.083646
      ESP Fit Center  188 is at   3.239789  3.876129  2.083646
      ESP Fit Center  189 is at   2.458009  0.277146  2.843157
      ESP Fit Center  190 is at   4.173974  0.742265 -0.025496
      ESP Fit Center  191 is at   3.046975 -0.012615  3.219463
      ESP Fit Center  192 is at   4.151010 -0.371338  3.219463
      ESP Fit Center  193 is at   2.344445  0.021340  2.379463
      ESP Fit Center  194 is at   3.046975 -0.815903  2.379463
      ESP Fit Center  195 is at   4.123313 -1.005690  2.379463
      ESP Fit Center  196 is at   5.069829 -0.459219  2.379463
      ESP Fit Center  197 is at   5.443637  0.567811  1.341165
      ESP Fit Center  198 is at   4.123313 -1.005690  1.341165
      ESP Fit Center  199 is at   5.069829 -0.459219  1.341165
      ESP Fit Center  200 is at   4.151010 -0.371338  0.501165
      ESP Fit Center  201 is at   4.651905  3.647994  1.599106
      ESP Fit Center  202 is at   5.972229  2.074493  0.560808
      ESP Fit Center  203 is at   5.598421  3.101523  0.560808
      ESP Fit Center  204 is at   4.651905  3.647994  0.560808
      ESP Fit Center  205 is at   3.575567  3.458207  0.560808
      ESP Fit Center  206 is at   5.598421  1.047463  0.560808
      ESP Fit Center  207 is at   5.361933  2.074493 -0.279192
      ESP Fit Center  208 is at   4.679602  3.013642 -0.279192
      ESP Fit Center  209 is at   3.575567  2.654919 -0.279192
      ESP Fit Center  210 is at   4.679602  1.135344 -0.279192
      ESP Fit Center  211 is at   4.374454  2.074493 -0.600043
      ESP Fit Center  212 is at   1.704988  2.811868  3.105106
      ESP Fit Center  213 is at   0.191010  2.405104  1.286453
      ESP Fit Center  214 is at   2.367584  3.919150  2.547512
      ESP Fit Center  215 is at   1.263549  3.560427  2.547512
      ESP Fit Center  216 is at   3.286403  4.007031  1.707512
      ESP Fit Center  217 is at   2.339887  4.553502  1.707512
      ESP Fit Center  218 is at   1.263549  4.363715  1.707512
      ESP Fit Center  219 is at   0.561019  3.526472  1.707512
      ESP Fit Center  220 is at   3.286403  4.007031  0.669214
      ESP Fit Center  221 is at   2.339887  4.553502  0.669214
      ESP Fit Center  222 is at   1.263549  4.363715  0.669214
      ESP Fit Center  223 is at   0.561019  3.526472  0.669214
      ESP Fit Center  224 is at   2.367584  3.919150 -0.170786
      ESP Fit Center  225 is at   1.263549  3.560427 -0.170786
      ESP Fit Center  226 is at   1.504607  1.517585  3.696875
      ESP Fit Center  227 is at   1.809755  2.456734  3.376024
      ESP Fit Center  228 is at   0.705720  2.098011  3.376024
      ESP Fit Center  229 is at   0.705720  0.937159  3.376024
      ESP Fit Center  230 is at   1.809755  0.578436  3.376024
      ESP Fit Center  231 is at   0.705720  2.901299  2.536024
      ESP Fit Center  232 is at   0.003190  2.064056  2.536024
      ESP Fit Center  233 is at   0.003190  0.971114  2.536024
      ESP Fit Center  234 is at   0.705720  0.133871  2.536024
      ESP Fit Center  235 is at   1.782058 -0.055916  2.536024
      ESP Fit Center  236 is at   0.003190  2.064056  1.497726
      ESP Fit Center  237 is at   0.347787  2.306640  0.000000
      ESP Fit Center  238 is at   3.742607  0.346640  0.000000
      ESP Fit Center  239 is at   3.742607  1.326640 -0.980000
      ESP Fit Center  240 is at   3.418430  2.324352 -0.980000
      ESP Fit Center  241 is at   2.569725  2.940973 -0.980000
      ESP Fit Center  242 is at   1.520669  2.940973 -0.980000
      ESP Fit Center  243 is at   0.671964  2.324352 -0.980000
      ESP Fit Center  244 is at   3.418430  0.328928 -0.980000
      ESP Fit Center  245 is at   3.025197  1.326640 -1.697410
      ESP Fit Center  246 is at   2.535197  2.175345 -1.697410
      ESP Fit Center  247 is at   1.555197  2.175345 -1.697410
      ESP Fit Center  248 is at   1.065197  1.326640 -1.697410
      ESP Fit Center  249 is at   2.045197  1.326640 -1.960000
      ESP Fit Center  250 is at   3.632058  0.000000  0.000000
      ESP Fit Center  251 is at   1.785185 -2.084689  0.000000
      ESP Fit Center  252 is at   3.391516 -0.975919  0.000000
      ESP Fit Center  253 is at   1.007058  0.909327 -1.818653
      ESP Fit Center  254 is at   1.907261 -0.579080  2.535230
      ESP Fit Center  255 is at   1.108374 -1.159506  2.214379
      ESP Fit Center  256 is at   2.212409 -1.518229  2.214379
      ESP Fit Center  257 is at   2.184712 -2.152581  1.374379
      ESP Fit Center  258 is at   3.131228 -1.606110  1.374379
      ESP Fit Center  259 is at   2.184712 -2.152581  0.336081
      ESP Fit Center  260 is at   3.131228 -1.606110  0.336081
      ESP Fit Center  261 is at   2.188391 -2.048928 -0.391730
      ESP Fit Center  262 is at   3.134907 -1.502457 -0.391730
      ESP Fit Center  263 is at   3.508715 -0.475427 -1.430028
      ESP Fit Center  264 is at   2.188391 -2.048928 -1.430028
      ESP Fit Center  265 is at   3.134907 -1.502457 -1.430028
      ESP Fit Center  266 is at   2.898419 -0.475427 -2.270028
      ESP Fit Center  267 is at   2.216088  0.463722 -2.270028
      ESP Fit Center  268 is at   1.112053  0.104999 -2.270028
      ESP Fit Center  269 is at   2.216088 -1.414576 -2.270028
      ESP Fit Center  270 is at   1.910940 -0.475427 -2.590879
      ESP Fit Center  271 is at  -2.038978  0.502563  0.000000
      ESP Fit Center  272 is at  -0.097893  2.181751 -0.309731
      ESP Fit Center  273 is at  -1.174231  1.991964 -0.309731
      ESP Fit Center  274 is at  -1.876761  1.154721 -0.309731
      ESP Fit Center  275 is at  -0.097893  2.181751 -1.348029
      ESP Fit Center  276 is at  -1.174231  1.991964 -1.348029
      ESP Fit Center  277 is at  -1.876761  1.154721 -1.348029
      ESP Fit Center  278 is at   0.612135  0.608250 -2.188029
      ESP Fit Center  279 is at  -0.070196  1.547399 -2.188029
      ESP Fit Center  280 is at  -0.383932  0.443482  2.604557
      ESP Fit Center  281 is at  -1.182819  1.023908  2.283706
      ESP Fit Center  282 is at  -1.182819 -0.136944  2.283706
      ESP Fit Center  283 is at  -0.078784 -0.495667  2.283706
      ESP Fit Center  284 is at  -0.106481  2.016983  1.443706
      ESP Fit Center  285 is at  -1.182819  1.827196  1.443706
      ESP Fit Center  286 is at  -1.885349  0.989953  1.443706
      ESP Fit Center  287 is at  -1.885349 -0.102989  1.443706
      ESP Fit Center  288 is at  -1.182819  1.827196  0.405408
      ESP Fit Center  289 is at  -1.885349  0.989953  0.405408
      ESP Fit Center  290 is at  -0.721284 -1.688864  2.380613
      ESP Fit Center  291 is at   0.341731 -1.688864  2.137987
      ESP Fit Center  292 is at  -0.189776 -0.768266  2.137987
      ESP Fit Center  293 is at  -1.252792 -0.768266  2.137987
      ESP Fit Center  294 is at  -1.784299 -1.688864  2.137987
      ESP Fit Center  295 is at  -1.252792 -2.609462  2.137987
      ESP Fit Center  296 is at  -0.189776 -2.609462  2.137987
      ESP Fit Center  297 is at  -1.975661 -0.241235  1.458163
      ESP Fit Center  298 is at  -2.559180 -1.149209  1.458163
      ESP Fit Center  299 is at  -2.559180 -2.228519  1.458163
      ESP Fit Center  300 is at  -1.975661 -3.136493  1.458163
      ESP Fit Center  301 is at  -0.993886 -3.584854  1.458163
      ESP Fit Center  302 is at   0.074438 -3.431252  1.458163
      ESP Fit Center  303 is at   0.890126 -2.724455  1.458163
      ESP Fit Center  304 is at  -2.210535  0.178598  0.475789
      ESP Fit Center  305 is at  -2.873314 -0.652501  0.475789
      ESP Fit Center  306 is at  -3.109857 -1.688864  0.475789
      ESP Fit Center  307 is at  -2.873314 -2.725227  0.475789
      ESP Fit Center  308 is at  -2.210535 -3.556326  0.475789
      ESP Fit Center  309 is at  -1.252792 -4.017551  0.475789
      ESP Fit Center  310 is at  -0.189776 -4.017551  0.475789
      ESP Fit Center  311 is at   0.767967 -3.556326  0.475789
      ESP Fit Center  312 is at   1.430746 -2.725227  0.475789
      ESP Fit Center  313 is at  -2.210535  0.178598 -0.614563
      ESP Fit Center  314 is at  -2.873314 -0.652501 -0.614563
      ESP Fit Center  315 is at  -3.109857 -1.688864 -0.614563
      ESP Fit Center  316 is at  -2.873314 -2.725227 -0.614563
      ESP Fit Center  317 is at  -2.210535 -3.556326 -0.614563
      ESP Fit Center  318 is at   0.767967 -3.556326 -0.614563
      ESP Fit Center  319 is at   1.430746 -2.725227 -0.614563
      ESP Fit Center  320 is at   1.600548 -2.816136 -1.731068
      ESP Fit Center  321 is at   1.974356 -1.789106 -2.769366
      ESP Fit Center  322 is at   1.600548 -0.762076 -2.769366
      ESP Fit Center  323 is at   0.654032 -0.215605 -2.769366
      ESP Fit Center  324 is at   1.600548 -2.816136 -2.769366
      ESP Fit Center  325 is at   1.364060 -1.789106 -3.609366
      ESP Fit Center  326 is at   0.681729 -0.849957 -3.609366
      ESP Fit Center  327 is at   0.681729 -2.728255 -3.609366
      ESP Fit Center  328 is at  -0.381755 -4.093666 -0.572508
      ESP Fit Center  329 is at  -2.188320 -3.700988 -1.412508
      ESP Fit Center  330 is at  -1.485790 -4.538231 -1.412508
      ESP Fit Center  331 is at  -0.409452 -4.728018 -1.412508
      ESP Fit Center  332 is at   0.537064 -4.181547 -1.412508
      ESP Fit Center  333 is at  -0.409452 -4.728018 -2.450806
      ESP Fit Center  334 is at   0.537064 -4.181547 -2.450806
      ESP Fit Center  335 is at  -2.436545  0.273484 -1.272313
      ESP Fit Center  336 is at  -1.360207  1.266559 -2.112313
      ESP Fit Center  337 is at  -2.436545  1.076772 -2.112313
      ESP Fit Center  338 is at  -3.139075  0.239529 -2.112313
      ESP Fit Center  339 is at  -0.413691  0.720088 -3.150611
      ESP Fit Center  340 is at  -1.360207  1.266559 -3.150611
      ESP Fit Center  341 is at  -2.436545  1.076772 -3.150611
      ESP Fit Center  342 is at  -3.139075  0.239529 -3.150611
      ESP Fit Center  343 is at  -1.332510  0.632207 -3.990611
      ESP Fit Center  344 is at  -3.501280 -1.089537 -0.952601
      ESP Fit Center  345 is at  -3.501280 -2.250389 -0.952601
      ESP Fit Center  346 is at  -3.501280 -0.286249 -1.792601
      ESP Fit Center  347 is at  -4.203810 -1.123492 -1.792601
      ESP Fit Center  348 is at  -4.203810 -2.216434 -1.792601
      ESP Fit Center  349 is at  -3.501280 -3.053677 -1.792601
      ESP Fit Center  350 is at  -2.424942 -3.243464 -1.792601
      ESP Fit Center  351 is at  -3.501280 -0.286249 -2.830899
      ESP Fit Center  352 is at  -4.203810 -1.123492 -2.830899
      ESP Fit Center  353 is at   0.781041 -1.770514 -3.948992
      ESP Fit Center  354 is at   0.544498 -0.734151 -3.948992
      ESP Fit Center  355 is at  -0.118281  0.096948 -3.948992
      ESP Fit Center  356 is at  -3.096783  0.096948 -3.948992
      ESP Fit Center  357 is at  -3.759562 -0.734151 -3.948992
      ESP Fit Center  358 is at  -0.118281 -3.637976 -3.948992
      ESP Fit Center  359 is at   0.544498 -2.806877 -3.948992
      ESP Fit Center  360 is at   0.781041 -1.770514 -5.039344
      ESP Fit Center  361 is at   0.544498 -0.734151 -5.039344
      ESP Fit Center  362 is at  -0.118281  0.096948 -5.039344
      ESP Fit Center  363 is at  -1.076024  0.558173 -5.039344
      ESP Fit Center  364 is at  -2.139040  0.558173 -5.039344
      ESP Fit Center  365 is at  -3.096783  0.096948 -5.039344
      ESP Fit Center  366 is at  -3.759562 -0.734151 -5.039344
      ESP Fit Center  367 is at  -0.118281 -3.637976 -5.039344
      ESP Fit Center  368 is at   0.544498 -2.806877 -5.039344
      ESP Fit Center  369 is at   0.307955 -1.770514 -6.021718
      ESP Fit Center  370 is at   0.003878 -0.734923 -6.021718
      ESP Fit Center  371 is at  -0.811810 -0.028126 -6.021718
      ESP Fit Center  372 is at  -1.880134  0.125476 -6.021718
      ESP Fit Center  373 is at  -2.861909 -0.322885 -6.021718
      ESP Fit Center  374 is at  -3.445428 -1.230859 -6.021718
      ESP Fit Center  375 is at   0.003878 -2.806105 -6.021718
      ESP Fit Center  376 is at  -0.544517 -1.770514 -6.701542
      ESP Fit Center  377 is at  -1.076024 -0.849916 -6.701542
      ESP Fit Center  378 is at  -2.139040 -0.849916 -6.701542
      ESP Fit Center  379 is at  -2.670547 -1.770514 -6.701542
      ESP Fit Center  380 is at  -2.139040 -2.691112 -6.701542
      ESP Fit Center  381 is at  -1.076024 -2.691112 -6.701542
      ESP Fit Center  382 is at  -1.607532 -1.770514 -6.944168
      ESP Fit Center  383 is at  -2.048963 -5.561230 -4.566421
      ESP Fit Center  384 is at  -2.661223 -3.508685 -2.414466
      ESP Fit Center  385 is at  -2.661223 -4.669537 -2.414466
      ESP Fit Center  386 is at  -1.557188 -5.028260 -2.414466
      ESP Fit Center  387 is at  -1.584885 -5.662612 -3.254466
      ESP Fit Center  388 is at  -0.638369 -5.116141 -3.254466
      ESP Fit Center  389 is at  -0.264561 -4.089111 -4.292764
      ESP Fit Center  390 is at  -1.584885 -5.662612 -4.292764
      ESP Fit Center  391 is at  -0.638369 -5.116141 -4.292764
      ESP Fit Center  392 is at  -1.670389 -5.460141 -4.996683
      ESP Fit Center  393 is at  -0.723873 -4.913670 -4.996683
      ESP Fit Center  394 is at  -0.350065 -3.886640 -6.034981
      ESP Fit Center  395 is at  -1.670389 -5.460141 -6.034981
      ESP Fit Center  396 is at  -0.723873 -4.913670 -6.034981
      ESP Fit Center  397 is at  -0.960361 -3.886640 -6.874981
      ESP Fit Center  398 is at  -1.642692 -2.947491 -6.874981
      ESP Fit Center  399 is at  -5.869507 -3.008555 -4.494804
      ESP Fit Center  400 is at  -4.178256 -3.065553 -1.877896
      ESP Fit Center  401 is at  -4.977143 -2.485127 -2.198747
      ESP Fit Center  402 is at  -4.977143 -3.645979 -2.198747
      ESP Fit Center  403 is at  -3.873108 -4.004702 -2.198747
      ESP Fit Center  404 is at  -4.977143 -1.681839 -3.038747
      ESP Fit Center  405 is at  -5.679673 -2.519082 -3.038747
      ESP Fit Center  406 is at  -5.679673 -3.612024 -3.038747
      ESP Fit Center  407 is at  -4.977143 -1.681839 -4.077045
      ESP Fit Center  408 is at  -5.679673 -2.519082 -4.077045
      ESP Fit Center  409 is at  -5.071230 -1.545889 -4.790952
      ESP Fit Center  410 is at  -5.773760 -2.383132 -4.790952
      ESP Fit Center  411 is at  -3.994892 -1.356102 -5.829250
      ESP Fit Center  412 is at  -5.071230 -1.545889 -5.829250
      ESP Fit Center  413 is at  -5.773760 -2.383132 -5.829250
      ESP Fit Center  414 is at  -3.284864 -2.929603 -6.669250
      ESP Fit Center  415 is at  -3.967195 -1.990454 -6.669250
      ESP Fit Center  416 is at  -5.071230 -2.349177 -6.669250
      ESP Fit Center  417 is at  -4.272343 -2.929603 -6.990101
      ESP Fit Center  418 is at  -4.534267 -5.216054 -2.077635
      ESP Fit Center  419 is at  -3.471252 -5.216054 -2.320261
      ESP Fit Center  420 is at  -4.002759 -4.295456 -2.320261
      ESP Fit Center  421 is at  -5.065775 -4.295456 -2.320261
      ESP Fit Center  422 is at  -5.597282 -5.216054 -2.320261
      ESP Fit Center  423 is at  -5.065775 -6.136652 -2.320261
      ESP Fit Center  424 is at  -4.002759 -6.136652 -2.320261
      ESP Fit Center  425 is at  -5.788644 -3.768425 -3.000085
      ESP Fit Center  426 is at  -6.372163 -4.676399 -3.000085
      ESP Fit Center  427 is at  -6.372163 -5.755709 -3.000085
      ESP Fit Center  428 is at  -5.788644 -6.663683 -3.000085
      ESP Fit Center  429 is at  -4.806869 -7.112044 -3.000085
      ESP Fit Center  430 is at  -3.738545 -6.958442 -3.000085
      ESP Fit Center  431 is at  -2.922857 -6.251645 -3.000085
      ESP Fit Center  432 is at  -6.023518 -3.348592 -3.982459
      ESP Fit Center  433 is at  -6.686297 -4.179691 -3.982459
      ESP Fit Center  434 is at  -6.922840 -5.216054 -3.982459
      ESP Fit Center  435 is at  -6.686297 -6.252417 -3.982459
      ESP Fit Center  436 is at  -6.023518 -7.083516 -3.982459
      ESP Fit Center  437 is at  -5.065775 -7.544741 -3.982459
      ESP Fit Center  438 is at  -4.002759 -7.544741 -3.982459
      ESP Fit Center  439 is at  -3.045016 -7.083516 -3.982459
      ESP Fit Center  440 is at  -2.382237 -6.252417 -3.982459
      ESP Fit Center  441 is at  -6.023518 -3.348592 -5.072811
      ESP Fit Center  442 is at  -6.686297 -4.179691 -5.072811
      ESP Fit Center  443 is at  -6.922840 -5.216054 -5.072811
      ESP Fit Center  444 is at  -5.065775 -7.544741 -5.072811
      ESP Fit Center  445 is at  -4.002759 -7.544741 -5.072811
      ESP Fit Center  446 is at  -3.045016 -7.083516 -5.072811
      ESP Fit Center  447 is at  -2.382237 -6.252417 -5.072811
      ESP Fit Center  448 is at  -6.008042 -5.434460 -8.124145
      ESP Fit Center  449 is at  -6.368907 -6.923510 -4.953838
      ESP Fit Center  450 is at  -7.071437 -5.796613 -5.793838
      ESP Fit Center  451 is at  -7.071437 -6.889555 -5.793838
      ESP Fit Center  452 is at  -6.368907 -7.726798 -5.793838
      ESP Fit Center  453 is at  -5.292569 -7.916585 -5.793838
      ESP Fit Center  454 is at  -7.071437 -5.796613 -6.832136
      ESP Fit Center  455 is at  -7.071437 -6.889555 -6.832136
      ESP Fit Center  456 is at  -6.368907 -7.726798 -6.832136
      ESP Fit Center  457 is at  -5.292569 -7.916585 -6.832136
      ESP Fit Center  458 is at  -6.368907 -6.923510 -7.672136
      ESP Fit Center  459 is at  -5.264872 -7.282233 -7.672136
      ESP Fit Center  460 is at  -6.410313 -3.224412 -6.088472
      ESP Fit Center  461 is at  -7.112843 -4.061655 -6.088472
      ESP Fit Center  462 is at  -7.112843 -5.154597 -6.088472
      ESP Fit Center  463 is at  -5.333975 -3.034625 -7.126770
      ESP Fit Center  464 is at  -6.410313 -3.224412 -7.126770
      ESP Fit Center  465 is at  -7.112843 -4.061655 -7.126770
      ESP Fit Center  466 is at  -7.112843 -5.154597 -7.126770
      ESP Fit Center  467 is at  -5.306278 -3.668977 -7.966770
      ESP Fit Center  468 is at  -6.410313 -4.027700 -7.966770
      ESP Fit Center  469 is at  -6.410313 -5.188552 -7.966770
      ESP Fit Center  470 is at  -5.611426 -4.608126 -8.287621
      ESP Fit Center  471 is at  -1.678624 -5.582112 -7.265519
      ESP Fit Center  472 is at  -4.523294 -7.545646 -7.265519
      ESP Fit Center  473 is at  -1.959971 -5.582112 -8.315519
      ESP Fit Center  474 is at  -4.969589 -4.207666 -8.315519
      ESP Fit Center  475 is at  -2.907100 -3.090313 -6.801643
      ESP Fit Center  476 is at  -1.586776 -4.663814 -7.839941
      ESP Fit Center  477 is at  -1.960584 -3.636784 -7.839941
      ESP Fit Center  478 is at  -2.907100 -3.090313 -7.839941
      ESP Fit Center  479 is at  -3.983438 -3.280100 -7.839941
      ESP Fit Center  480 is at  -2.197072 -4.663814 -8.679941
      ESP Fit Center  481 is at  -2.879403 -3.724665 -8.679941
      ESP Fit Center  482 is at  -2.130374 -6.397906 -5.596740
      ESP Fit Center  483 is at  -2.812705 -7.337055 -5.596740
      ESP Fit Center  484 is at  -1.520078 -6.397906 -6.436740
      ESP Fit Center  485 is at  -3.916740 -7.781620 -6.436740
      ESP Fit Center  486 is at  -2.840402 -7.971407 -6.436740
      ESP Fit Center  487 is at  -1.893886 -7.424936 -6.436740
      ESP Fit Center  488 is at  -1.520078 -6.397906 -7.475038
      ESP Fit Center  489 is at  -3.916740 -7.781620 -7.475038
      ESP Fit Center  490 is at  -2.840402 -7.971407 -7.475038
      ESP Fit Center  491 is at  -1.893886 -7.424936 -7.475038
      ESP Fit Center  492 is at  -2.130374 -6.397906 -8.315038
      ESP Fit Center  493 is at  -2.812705 -7.337055 -8.315038
      ESP Fit Center  494 is at  -4.941497 -4.414796 -8.797204
      ESP Fit Center  495 is at  -5.644027 -5.252039 -8.797204
      ESP Fit Center  496 is at  -5.644027 -6.344981 -8.797204
      ESP Fit Center  497 is at  -4.941497 -7.182224 -8.797204
      ESP Fit Center  498 is at  -3.865159 -7.372011 -8.797204
      ESP Fit Center  499 is at  -2.918643 -6.825540 -8.797204
      ESP Fit Center  500 is at  -3.155131 -5.798510 -9.637204
      ESP Fit Center  501 is at  -3.837462 -4.859361 -9.637204
      ESP Fit Center  502 is at  -4.941497 -5.218084 -9.637204
      ESP Fit Center  503 is at  -4.941497 -6.378936 -9.637204
      ESP Fit Center  504 is at  -3.837462 -6.737659 -9.637204
      ESP Fit Center  505 is at  -4.142610 -5.798510 -9.958055
      ESP Fit Center  506 is at   7.839157  1.753166  9.515519
      ESP Fit Center  507 is at   8.880478  1.753166  9.277844
      ESP Fit Center  508 is at   6.797836  1.753166  9.277844
      ESP Fit Center  509 is at   9.715553  1.753166  8.611895
      ESP Fit Center  510 is at  10.178984  1.753166  7.649569
      ESP Fit Center  511 is at   9.947268  2.768379  7.649569
      ESP Fit Center  512 is at   9.298015 -0.076184  6.581469
      ESP Fit Center  513 is at   8.618640  0.046337  5.619143
      ESP Fit Center  514 is at   8.040929  0.871821  9.654257
      ESP Fit Center  515 is at   9.000929  0.871821  9.397026
      ESP Fit Center  516 is at   7.080929  0.871821  9.397026
      ESP Fit Center  517 is at   7.560929  0.040437  9.397026
      ESP Fit Center  518 is at   8.520929  0.040437  9.397026
      ESP Fit Center  519 is at   9.703698  0.871821  8.694257
      ESP Fit Center  520 is at   6.695721 -0.105530  8.694257
      ESP Fit Center  521 is at   7.527105 -0.709566  8.694257
      ESP Fit Center  522 is at   8.554753 -0.709566  8.694257
      ESP Fit Center  523 is at   9.386137 -0.105530  8.694257
      ESP Fit Center  524 is at   7.080929 -0.790948  7.734257
      ESP Fit Center  525 is at   8.040929 -1.048179  7.734257
      ESP Fit Center  526 is at   9.000929 -0.790948  7.734257
      ESP Fit Center  527 is at   9.703698 -0.088179  7.734257
      ESP Fit Center  528 is at   7.527105 -0.709566  6.774257
      ESP Fit Center  529 is at   8.554753 -0.709566  6.774257
      ESP Fit Center  530 is at   9.386137 -0.105530  6.774257
      ESP Fit Center  531 is at  10.304123  1.850541  7.336879
      ESP Fit Center  532 is at   9.986562  2.827892  7.336879
      ESP Fit Center  533 is at  10.561354  1.850541  6.376879
      ESP Fit Center  534 is at  10.304123  2.810541  6.376879
      ESP Fit Center  535 is at   9.601354  3.513310  6.376879
      ESP Fit Center  536 is at   9.601354  0.187772  6.376879
      ESP Fit Center  537 is at  10.304123  0.890541  6.376879
      ESP Fit Center  538 is at  10.304123  1.850541  5.416879
      ESP Fit Center  539 is at   9.986562  2.827892  5.416879
      ESP Fit Center  540 is at   9.155178  3.431928  5.416879
      ESP Fit Center  541 is at   9.155178  0.269154  5.416879
      ESP Fit Center  542 is at   9.986562  0.873190  5.416879
      ESP Fit Center  543 is at   9.601354  1.850541  4.714110
      ESP Fit Center  544 is at   9.121354  2.681925  4.714110
      ESP Fit Center  545 is at   8.161354  1.019157  4.714110
      ESP Fit Center  546 is at   9.121354  1.019157  4.714110
      ESP Fit Center  547 is at   8.641354  1.850541  4.456879
      ESP Fit Center  548 is at   7.854086  2.640827  9.675987
      ESP Fit Center  549 is at   8.814086  2.640827  9.418756
      ESP Fit Center  550 is at   8.334086  3.472211  9.418756
      ESP Fit Center  551 is at   7.374086  3.472211  9.418756
      ESP Fit Center  552 is at   6.894086  2.640827  9.418756
      ESP Fit Center  553 is at   9.516855  2.640827  8.715987
      ESP Fit Center  554 is at   9.199294  3.618178  8.715987
      ESP Fit Center  555 is at   8.367910  4.222214  8.715987
      ESP Fit Center  556 is at   7.340262  4.222214  8.715987
      ESP Fit Center  557 is at   6.508878  3.618178  8.715987
      ESP Fit Center  558 is at   6.191317  2.640827  8.715987
      ESP Fit Center  559 is at   9.516855  3.600827  7.755987
      ESP Fit Center  560 is at   8.814086  4.303596  7.755987
      ESP Fit Center  561 is at   7.854086  4.560827  7.755987
      ESP Fit Center  562 is at   6.894086  4.303596  7.755987
      ESP Fit Center  563 is at   6.191317  3.600827  7.755987
      ESP Fit Center  564 is at   8.367910  4.222214  6.795987
      ESP Fit Center  565 is at   6.224786 -0.237348  7.921212
      ESP Fit Center  566 is at   5.962073 -0.863767  6.752727
      ESP Fit Center  567 is at   6.989721 -0.863767  6.752727
      ESP Fit Center  568 is at   4.813128 -0.242380  5.792727
      ESP Fit Center  569 is at   5.515897 -0.945149  5.792727
      ESP Fit Center  570 is at   6.475897 -1.202380  5.792727
      ESP Fit Center  571 is at   7.435897 -0.945149  5.792727
      ESP Fit Center  572 is at   8.138666 -0.242380  5.792727
      ESP Fit Center  573 is at   8.138666  0.717620  4.832727
      ESP Fit Center  574 is at   5.962073 -0.863767  4.832727
      ESP Fit Center  575 is at   6.989721 -0.863767  4.832727
      ESP Fit Center  576 is at   7.821105 -0.259731  4.832727
      ESP Fit Center  577 is at   7.435897  0.717620  4.129958
      ESP Fit Center  578 is at   6.955897 -0.113764  4.129958
      ESP Fit Center  579 is at   5.684019  1.510156  9.087731
      ESP Fit Center  580 is at   6.164019  2.341540  8.830500
      ESP Fit Center  581 is at   5.204019  2.341540  8.830500
      ESP Fit Center  582 is at   4.724019  1.510156  8.830500
      ESP Fit Center  583 is at   5.204019  0.678772  8.830500
      ESP Fit Center  584 is at   6.164019  0.678772  8.830500
      ESP Fit Center  585 is at   5.170195  3.091543  8.127731
      ESP Fit Center  586 is at   4.338811  2.487507  8.127731
      ESP Fit Center  587 is at   4.021250  1.510156  8.127731
      ESP Fit Center  588 is at   4.338811  0.532805  8.127731
      ESP Fit Center  589 is at   5.170195 -0.071231  8.127731
      ESP Fit Center  590 is at   6.197843 -0.071231  8.127731
      ESP Fit Center  591 is at   4.021250  0.550156  7.167731
      ESP Fit Center  592 is at   4.724019 -0.152613  7.167731
      ESP Fit Center  593 is at   4.338811  0.532805  6.207731
      ESP Fit Center  594 is at   5.790096  3.633622  7.667463
      ESP Fit Center  595 is at   6.817228  4.457520  7.045910
      ESP Fit Center  596 is at   5.734864  4.457520  7.045910
      ESP Fit Center  597 is at   7.516608  4.589196  6.147740
      ESP Fit Center  598 is at   6.539279  4.959848  6.147740
      ESP Fit Center  599 is at   8.209739  3.806812  5.150846
      ESP Fit Center  600 is at   7.516608  4.589196  5.150846
      ESP Fit Center  601 is at   6.539279  4.959848  5.150846
      ESP Fit Center  602 is at   8.027349  2.791932  4.252676
      ESP Fit Center  603 is at   7.692880  3.821322  4.252676
      ESP Fit Center  604 is at   6.817228  4.457520  4.252676
      ESP Fit Center  605 is at   7.692880  1.762542  4.252676
      ESP Fit Center  606 is at   4.502082  3.747310  7.154266
      ESP Fit Center  607 is at   3.793964  4.263585  6.488317
      ESP Fit Center  608 is at   2.914631  3.860713  5.525991
      ESP Fit Center  609 is at   5.278650  4.734874  6.483110
      ESP Fit Center  610 is at   4.318650  4.734874  6.483110
      ESP Fit Center  611 is at   5.312474  5.484877  5.780341
      ESP Fit Center  612 is at   4.284826  5.484877  5.780341
      ESP Fit Center  613 is at   3.453442  4.880841  5.780341
      ESP Fit Center  614 is at   5.758650  5.566259  4.820341
      ESP Fit Center  615 is at   4.798650  5.823490  4.820341
      ESP Fit Center  616 is at   3.838650  5.566259  4.820341
      ESP Fit Center  617 is at   3.135881  4.863490  4.820341
      ESP Fit Center  618 is at   6.143858  4.880841  3.860341
      ESP Fit Center  619 is at   5.312474  5.484877  3.860341
      ESP Fit Center  620 is at   4.284826  5.484877  3.860341
      ESP Fit Center  621 is at   3.453442  4.880841  3.860341
      ESP Fit Center  622 is at   5.278650  4.734874  3.157572
      ESP Fit Center  623 is at   4.318650  4.734874  3.157572
      ESP Fit Center  624 is at   3.741399  3.261224  7.284766
      ESP Fit Center  625 is at   3.261399  2.429840  7.284766
      ESP Fit Center  626 is at   3.741399  1.598456  7.284766
      ESP Fit Center  627 is at   2.876191  3.407191  6.581997
      ESP Fit Center  628 is at   2.558630  2.429840  6.581997
      ESP Fit Center  629 is at   2.876191  1.452489  6.581997
      ESP Fit Center  630 is at   3.707575  0.848453  6.581997
      ESP Fit Center  631 is at   2.558630  3.389840  5.621997
      ESP Fit Center  632 is at   2.301399  2.429840  5.621997
      ESP Fit Center  633 is at   2.558630  1.469840  5.621997
      ESP Fit Center  634 is at   3.261399  0.767071  5.621997
      ESP Fit Center  635 is at   4.221399  0.509840  5.621997
      ESP Fit Center  636 is at   7.154805  1.103380  3.112500
      ESP Fit Center  637 is at   7.745509  2.559475  3.003985
      ESP Fit Center  638 is at   7.488278  3.519475  3.003985
      ESP Fit Center  639 is at   6.785509  4.222244  3.003985
      ESP Fit Center  640 is at   5.825509  4.479475  3.003985
      ESP Fit Center  641 is at   7.488278  1.599475  3.003985
      ESP Fit Center  642 is at   7.488278  2.559475  2.043985
      ESP Fit Center  643 is at   7.170717  3.536826  2.043985
      ESP Fit Center  644 is at   6.339333  4.140862  2.043985
      ESP Fit Center  645 is at   5.311685  4.140862  2.043985
      ESP Fit Center  646 is at   7.170717  1.582124  2.043985
      ESP Fit Center  647 is at   6.785509  2.559475  1.341216
      ESP Fit Center  648 is at   6.305509  3.390859  1.341216
      ESP Fit Center  649 is at   6.305509  1.728091  1.341216
      ESP Fit Center  650 is at   3.947014  0.074494  4.740037
      ESP Fit Center  651 is at   4.778398 -0.529542  4.740037
      ESP Fit Center  652 is at   7.212222  1.051845  3.780037
      ESP Fit Center  653 is at   3.629453  0.091845  3.780037
      ESP Fit Center  654 is at   4.332222 -0.610924  3.780037
      ESP Fit Center  655 is at   5.292222 -0.868155  3.780037
      ESP Fit Center  656 is at   6.252222 -0.610924  3.780037
      ESP Fit Center  657 is at   6.954991  0.091845  3.780037
      ESP Fit Center  658 is at   5.806046 -0.529542  2.820037
      ESP Fit Center  659 is at   6.637430  0.074494  2.820037
      ESP Fit Center  660 is at   5.772222  0.220461  2.117268
      ESP Fit Center  661 is at   2.347483  3.291186  4.460263
      ESP Fit Center  662 is at   2.013014  2.261796  4.460263
      ESP Fit Center  663 is at   2.347483  1.232406  4.460263
      ESP Fit Center  664 is at   3.223135  0.596208  4.460263
      ESP Fit Center  665 is at   2.989917  4.303720  3.562093
      ESP Fit Center  666 is at   2.129690  3.709949  3.562093
      ESP Fit Center  667 is at   1.643937  2.784423  3.562093
      ESP Fit Center  668 is at   4.027550  4.429712  2.565199
      ESP Fit Center  669 is at   2.989917  4.303720  2.565199
      ESP Fit Center  670 is at   2.420196  0.233507  3.289533
      ESP Fit Center  671 is at   5.757085  0.636379  1.259107
      ESP Fit Center  672 is at   3.365862 -0.263573  3.523083
      ESP Fit Center  673 is at   2.500654 -0.409540  2.820314
      ESP Fit Center  674 is at   3.332038 -1.013576  2.820314
      ESP Fit Center  675 is at   4.359686 -1.013576  2.820314
      ESP Fit Center  676 is at   3.845862 -1.352189  1.860314
      ESP Fit Center  677 is at   4.805862 -1.094958  1.860314
      ESP Fit Center  678 is at   5.508631 -0.392189  1.860314
      ESP Fit Center  679 is at   4.359686 -1.013576  0.900314
      ESP Fit Center  680 is at   5.191070 -0.409540  0.900314
      ESP Fit Center  681 is at   4.325862 -0.263573  0.197545
      ESP Fit Center  682 is at   6.294454  2.074493  1.079957
      ESP Fit Center  683 is at   6.037223  3.034493  1.079957
      ESP Fit Center  684 is at   5.334454  3.737262  1.079957
      ESP Fit Center  685 is at   4.374454  3.994493  1.079957
      ESP Fit Center  686 is at   6.037223  1.114493  1.079957
      ESP Fit Center  687 is at   6.037223  2.074493  0.119957
      ESP Fit Center  688 is at   5.719662  3.051844  0.119957
      ESP Fit Center  689 is at   4.888278  3.655880  0.119957
      ESP Fit Center  690 is at   3.860630  3.655880  0.119957
      ESP Fit Center  691 is at   5.719662  1.097142  0.119957
      ESP Fit Center  692 is at   5.334454  2.074493 -0.582812
      ESP Fit Center  693 is at   4.854454  2.905877 -0.582812
      ESP Fit Center  694 is at   3.894454  2.905877 -0.582812
      ESP Fit Center  695 is at   4.854454  1.243109 -0.582812
      ESP Fit Center  696 is at   4.374454  2.074493 -0.840043
      ESP Fit Center  697 is at   1.001210  3.320626  2.782829
      ESP Fit Center  698 is at   0.121877  2.917754  1.820503
      ESP Fit Center  699 is at   0.121877  2.917754  0.752403
      ESP Fit Center  700 is at   1.582436  3.811385  2.851132
      ESP Fit Center  701 is at   2.576260  4.561388  2.148363
      ESP Fit Center  702 is at   1.548612  4.561388  2.148363
      ESP Fit Center  703 is at   0.717228  3.957352  2.148363
      ESP Fit Center  704 is at   3.022436  4.642770  1.188363
      ESP Fit Center  705 is at   2.062436  4.900001  1.188363
      ESP Fit Center  706 is at   1.102436  4.642770  1.188363
      ESP Fit Center  707 is at   0.399667  3.940001  1.188363
      ESP Fit Center  708 is at   3.407644  3.957352  0.228363
      ESP Fit Center  709 is at   2.576260  4.561388  0.228363
      ESP Fit Center  710 is at   1.548612  4.561388  0.228363
      ESP Fit Center  711 is at   0.717228  3.957352  0.228363
      ESP Fit Center  712 is at   2.542436  3.811385 -0.474406
      ESP Fit Center  713 is at   1.582436  3.811385 -0.474406
      ESP Fit Center  714 is at   1.504607  1.517585  3.936875
      ESP Fit Center  715 is at   1.024607  2.348969  3.679644
      ESP Fit Center  716 is at   0.544607  1.517585  3.679644
      ESP Fit Center  717 is at   1.024607  0.686201  3.679644
      ESP Fit Center  718 is at   1.984607  0.686201  3.679644
      ESP Fit Center  719 is at   0.990783  3.098972  2.976875
      ESP Fit Center  720 is at   0.159399  2.494936  2.976875
      ESP Fit Center  721 is at  -0.158162  1.517585  2.976875
      ESP Fit Center  722 is at   0.159399  0.540234  2.976875
      ESP Fit Center  723 is at   0.990783 -0.063802  2.976875
      ESP Fit Center  724 is at   2.018431 -0.063802  2.976875
      ESP Fit Center  725 is at  -0.158162  2.477585  2.016875
      ESP Fit Center  726 is at   3.285759  3.123904 -0.498447
      ESP Fit Center  727 is at   0.410570  2.774793 -0.498447
      ESP Fit Center  728 is at   3.978890  0.311760 -0.498447
      ESP Fit Center  729 is at   3.796500  1.326640 -1.396617
      ESP Fit Center  730 is at   3.462031  2.356030 -1.396617
      ESP Fit Center  731 is at   2.586379  2.992228 -1.396617
      ESP Fit Center  732 is at   1.504015  2.992228 -1.396617
      ESP Fit Center  733 is at   0.628363  2.356030 -1.396617
      ESP Fit Center  734 is at   3.017097  1.326640 -2.018170
      ESP Fit Center  735 is at   2.531147  2.168330 -2.018170
      ESP Fit Center  736 is at   1.559247  2.168330 -2.018170
      ESP Fit Center  737 is at   1.073297  1.326640 -2.018170
      ESP Fit Center  738 is at   2.045197  1.326640 -2.240000
      ESP Fit Center  739 is at   3.871885  0.000000 -0.534050
      ESP Fit Center  740 is at   1.011398  0.901810 -2.162325
      ESP Fit Center  741 is at   1.907261 -0.579080  2.775230
      ESP Fit Center  742 is at   0.947261 -0.579080  2.517999
      ESP Fit Center  743 is at   1.427261 -1.410464  2.517999
      ESP Fit Center  744 is at   2.387261 -1.410464  2.517999
      ESP Fit Center  745 is at   1.393437 -2.160467  1.815230
      ESP Fit Center  746 is at   2.421085 -2.160467  1.815230
      ESP Fit Center  747 is at   3.252469 -1.556431  1.815230
      ESP Fit Center  748 is at   1.907261 -2.499080  0.855230
      ESP Fit Center  749 is at   2.867261 -2.241849  0.855230
      ESP Fit Center  750 is at   3.570030 -1.539080  0.855230
      ESP Fit Center  751 is at   3.830940 -0.475427 -0.910879
      ESP Fit Center  752 is at   1.910940 -2.395427 -0.910879
      ESP Fit Center  753 is at   2.870940 -2.138196 -0.910879
      ESP Fit Center  754 is at   3.573709 -1.435427 -0.910879
      ESP Fit Center  755 is at   3.573709 -0.475427 -1.870879
      ESP Fit Center  756 is at   3.256148  0.501924 -1.870879
      ESP Fit Center  757 is at   2.424764 -2.056814 -1.870879
      ESP Fit Center  758 is at   3.256148 -1.452778 -1.870879
      ESP Fit Center  759 is at   2.870940 -0.475427 -2.573648
      ESP Fit Center  760 is at   2.390940  0.355957 -2.573648
      ESP Fit Center  761 is at   1.430940  0.355957 -2.573648
      ESP Fit Center  762 is at   2.390940 -1.306811 -2.573648
      ESP Fit Center  763 is at   1.910940 -0.475427 -2.830879
      ESP Fit Center  764 is at  -0.375344  2.528250 -0.828880
      ESP Fit Center  765 is at  -1.335344  2.271019 -0.828880
      ESP Fit Center  766 is at  -2.038113  1.568250 -0.828880
      ESP Fit Center  767 is at  -2.295344  0.608250 -0.828880
      ESP Fit Center  768 is at   0.138480  2.189637 -1.788880
      ESP Fit Center  769 is at  -0.889168  2.189637 -1.788880
      ESP Fit Center  770 is at  -1.720552  1.585601 -1.788880
      ESP Fit Center  771 is at   0.584656  0.608250 -2.491649
      ESP Fit Center  772 is at   0.104656  1.439634 -2.491649
      ESP Fit Center  773 is at  -0.383932  0.443482  2.844557
      ESP Fit Center  774 is at  -0.863932  1.274866  2.587326
      ESP Fit Center  775 is at  -1.343932  0.443482  2.587326
      ESP Fit Center  776 is at  -0.863932 -0.387902  2.587326
      ESP Fit Center  777 is at   0.096068 -0.387902  2.587326
      ESP Fit Center  778 is at  -0.897756  2.024869  1.884557
      ESP Fit Center  779 is at  -1.729140  1.420833  1.884557
      ESP Fit Center  780 is at  -2.046701  0.443482  1.884557
      ESP Fit Center  781 is at  -0.383932  2.363482  0.924557
      ESP Fit Center  782 is at  -1.343932  2.106251  0.924557
      ESP Fit Center  783 is at  -2.046701  1.403482  0.924557
      ESP Fit Center  784 is at  -2.303932  0.443482  0.924557
      ESP Fit Center  785 is at  -0.721284 -1.688864  2.730613
      ESP Fit Center  786 is at   0.350230 -1.688864  2.517476
      ESP Fit Center  787 is at  -0.185527 -0.760906  2.517476
      ESP Fit Center  788 is at  -1.257041 -0.760906  2.517476
      ESP Fit Center  789 is at  -1.792798 -1.688864  2.517476
      ESP Fit Center  790 is at  -1.257041 -2.616822  2.517476
      ESP Fit Center  791 is at  -0.185527 -2.616822  2.517476
      ESP Fit Center  792 is at  -2.435927 -0.698915  1.910512
      ESP Fit Center  793 is at  -2.701183 -1.688864  1.910512
      ESP Fit Center  794 is at  -2.435927 -2.678813  1.910512
      ESP Fit Center  795 is at  -1.711233 -3.403507  1.910512
      ESP Fit Center  796 is at  -0.721284 -3.668763  1.910512
      ESP Fit Center  797 is at   0.268665 -3.403507  1.910512
      ESP Fit Center  798 is at   0.993359 -2.678813  1.910512
      ESP Fit Center  799 is at  -2.814100 -0.168344  1.002127
      ESP Fit Center  800 is at  -3.251618 -1.151025  1.002127
      ESP Fit Center  801 is at  -3.251618 -2.226703  1.002127
      ESP Fit Center  802 is at  -2.814100 -3.209384  1.002127
      ESP Fit Center  803 is at  -2.014715 -3.929153  1.002127
      ESP Fit Center  804 is at  -0.991685 -4.261556  1.002127
      ESP Fit Center  805 is at   0.078101 -4.149117  1.002127
      ESP Fit Center  806 is at   1.009665 -3.611278  1.002127
      ESP Fit Center  807 is at   1.641933 -2.741036  1.002127
      ESP Fit Center  808 is at  -2.408661  0.545584 -0.069387
      ESP Fit Center  809 is at  -3.101892 -0.214854 -0.069387
      ESP Fit Center  810 is at  -3.473609 -1.174365 -0.069387
      ESP Fit Center  811 is at  -3.473609 -2.203363 -0.069387
      ESP Fit Center  812 is at  -3.101892 -3.162874 -0.069387
      ESP Fit Center  813 is at  -2.408661 -3.923312 -0.069387
      ESP Fit Center  814 is at  -1.487540 -4.381976 -0.069387
      ESP Fit Center  815 is at  -0.462933 -4.476920 -0.069387
      ESP Fit Center  816 is at   0.526783 -4.195321 -0.069387
      ESP Fit Center  817 is at   1.347941 -3.575212 -0.069387
      ESP Fit Center  818 is at   1.889638 -2.700341 -0.069387
      ESP Fit Center  819 is at  -2.814100 -3.209384 -1.140901
      ESP Fit Center  820 is at   1.641933 -2.741036 -1.140901
      ESP Fit Center  821 is at   1.496638 -3.079754 -1.336504
      ESP Fit Center  822 is at   1.721789 -2.766457 -1.290217
      ESP Fit Center  823 is at   1.336581 -3.451875 -2.250217
      ESP Fit Center  824 is at   2.039350 -2.749106 -2.250217
      ESP Fit Center  825 is at   2.039350 -1.789106 -3.210217
      ESP Fit Center  826 is at   1.721789 -0.811755 -3.210217
      ESP Fit Center  827 is at   0.890405 -0.207719 -3.210217
      ESP Fit Center  828 is at   1.721789 -2.766457 -3.210217
      ESP Fit Center  829 is at   1.336581 -1.789106 -3.912986
      ESP Fit Center  830 is at  -2.032111 -4.131868 -0.971657
      ESP Fit Center  831 is at  -1.200727 -4.735904 -0.971657
      ESP Fit Center  832 is at  -0.173079 -4.735904 -0.971657
      ESP Fit Center  833 is at   0.658305 -4.131868 -0.971657
      ESP Fit Center  834 is at  -1.646903 -4.817286 -1.931657
      ESP Fit Center  835 is at  -0.686903 -5.074517 -1.931657
      ESP Fit Center  836 is at   0.273097 -4.817286 -1.931657
      ESP Fit Center  837 is at   0.975866 -4.114517 -1.931657
      ESP Fit Center  838 is at  -0.173079 -4.735904 -2.891657
      ESP Fit Center  839 is at   0.658305 -4.131868 -2.891657
      ESP Fit Center  840 is at  -2.942960  0.021272 -1.196955
      ESP Fit Center  841 is at  -3.822293 -0.381600 -3.227381
      ESP Fit Center  842 is at  -2.151482  1.274445 -1.671462
      ESP Fit Center  843 is at  -2.982866  0.670409 -1.671462
      ESP Fit Center  844 is at  -0.677658  1.355827 -2.631462
      ESP Fit Center  845 is at  -1.637658  1.613058 -2.631462
      ESP Fit Center  846 is at  -2.597658  1.355827 -2.631462
      ESP Fit Center  847 is at  -3.300427  0.653058 -2.631462
      ESP Fit Center  848 is at  -0.292450  0.670409 -3.591462
      ESP Fit Center  849 is at  -1.123834  1.274445 -3.591462
      ESP Fit Center  850 is at  -2.151482  1.274445 -3.591462
      ESP Fit Center  851 is at  -2.982866  0.670409 -3.591462
      ESP Fit Center  852 is at  -3.662393 -1.669963 -0.648981
      ESP Fit Center  853 is at  -3.216217 -0.088576 -1.351750
      ESP Fit Center  854 is at  -4.047601 -0.692612 -1.351750
      ESP Fit Center  855 is at  -4.365162 -1.669963 -1.351750
      ESP Fit Center  856 is at  -4.047601 -2.647314 -1.351750
      ESP Fit Center  857 is at  -3.216217 -3.251350 -1.351750
      ESP Fit Center  858 is at  -3.662393 -0.007194 -2.311750
      ESP Fit Center  859 is at  -4.365162 -0.709963 -2.311750
      ESP Fit Center  860 is at  -4.622393 -1.669963 -2.311750
      ESP Fit Center  861 is at  -4.047601 -0.692612 -3.271750
      ESP Fit Center  862 is at   0.123417  0.151900 -3.422654
      ESP Fit Center  863 is at  -3.700348 -0.249994 -3.422654
      ESP Fit Center  864 is at   1.192468 -1.770514 -4.494168
      ESP Fit Center  865 is at   1.003390 -0.759037 -4.494168
      ESP Fit Center  866 is at   0.461693  0.115834 -4.494168
      ESP Fit Center  867 is at  -0.359465  0.735943 -4.494168
      ESP Fit Center  868 is at  -1.349181  1.017542 -4.494168
      ESP Fit Center  869 is at  -2.373788  0.922598 -4.494168
      ESP Fit Center  870 is at  -3.294909  0.463934 -4.494168
      ESP Fit Center  871 is at  -3.988140 -0.296504 -4.494168
      ESP Fit Center  872 is at   0.461693 -3.656862 -4.494168
      ESP Fit Center  873 is at   1.003390 -2.781991 -4.494168
      ESP Fit Center  874 is at   0.979331 -1.770514 -5.565682
      ESP Fit Center  875 is at   0.755685 -0.718342 -5.565682
      ESP Fit Center  876 is at   0.123417  0.151900 -5.565682
      ESP Fit Center  877 is at  -0.808147  0.689739 -5.565682
      ESP Fit Center  878 is at  -1.877933  0.802178 -5.565682
      ESP Fit Center  879 is at  -2.900963  0.469775 -5.565682
      ESP Fit Center  880 is at  -3.700348 -0.249994 -5.565682
      ESP Fit Center  881 is at   0.123417 -3.692928 -5.565682
      ESP Fit Center  882 is at   0.755685 -2.822686 -5.565682
      ESP Fit Center  883 is at   0.372367 -1.770514 -6.474067
      ESP Fit Center  884 is at   0.107111 -0.780565 -6.474067
      ESP Fit Center  885 is at  -0.617583 -0.055871 -6.474067
      ESP Fit Center  886 is at  -1.607532  0.209385 -6.474067
      ESP Fit Center  887 is at  -2.597481 -0.055871 -6.474067
      ESP Fit Center  888 is at  -3.322175 -0.780565 -6.474067
      ESP Fit Center  889 is at   0.107111 -2.760463 -6.474067
      ESP Fit Center  890 is at  -0.536018 -1.770514 -7.081031
      ESP Fit Center  891 is at  -1.071775 -0.842556 -7.081031
      ESP Fit Center  892 is at  -2.143289 -0.842556 -7.081031
      ESP Fit Center  893 is at  -2.679046 -1.770514 -7.081031
      ESP Fit Center  894 is at  -2.143289 -2.698472 -7.081031
      ESP Fit Center  895 is at  -1.071775 -2.698472 -7.081031
      ESP Fit Center  896 is at  -1.607532 -1.770514 -7.294168
      ESP Fit Center  897 is at  -1.781430 -5.757704 -5.100471
      ESP Fit Center  898 is at  -2.822336 -4.089111 -2.110846
      ESP Fit Center  899 is at  -2.342336 -4.920495 -2.110846
      ESP Fit Center  900 is at  -1.348512 -5.670498 -2.813615
      ESP Fit Center  901 is at  -0.517128 -5.066462 -2.813615
      ESP Fit Center  902 is at   0.057664 -4.089111 -3.773615
      ESP Fit Center  903 is at  -1.862336 -6.009111 -3.773615
      ESP Fit Center  904 is at  -0.902336 -5.751880 -3.773615
      ESP Fit Center  905 is at  -0.199567 -5.049111 -3.773615
      ESP Fit Center  906 is at  -0.027840 -3.886640 -5.515832
      ESP Fit Center  907 is at  -1.947840 -5.806640 -5.515832
      ESP Fit Center  908 is at  -0.987840 -5.549409 -5.515832
      ESP Fit Center  909 is at  -0.285071 -4.846640 -5.515832
      ESP Fit Center  910 is at  -0.285071 -3.886640 -6.475832
      ESP Fit Center  911 is at  -1.434016 -5.468027 -6.475832
      ESP Fit Center  912 is at  -0.602632 -4.863991 -6.475832
      ESP Fit Center  913 is at  -0.987840 -3.886640 -7.178601
      ESP Fit Center  914 is at  -1.467840 -3.055256 -7.178601
      ESP Fit Center  915 is at  -4.178256 -3.065553 -1.637896
      ESP Fit Center  916 is at  -4.658256 -2.234169 -1.895127
      ESP Fit Center  917 is at  -5.138256 -3.065553 -1.895127
      ESP Fit Center  918 is at  -4.658256 -3.896937 -1.895127
      ESP Fit Center  919 is at  -3.698256 -3.896937 -1.895127
      ESP Fit Center  920 is at  -4.692080 -1.484166 -2.597896
      ESP Fit Center  921 is at  -5.523464 -2.088202 -2.597896
      ESP Fit Center  922 is at  -5.841025 -3.065553 -2.597896
      ESP Fit Center  923 is at  -4.178256 -1.145553 -3.557896
      ESP Fit Center  924 is at  -5.138256 -1.402784 -3.557896
      ESP Fit Center  925 is at  -5.841025 -2.105553 -3.557896
      ESP Fit Center  926 is at  -6.098256 -3.065553 -3.557896
      ESP Fit Center  927 is at  -4.272343 -1.009603 -5.310101
      ESP Fit Center  928 is at  -5.232343 -1.266834 -5.310101
      ESP Fit Center  929 is at  -5.935112 -1.969603 -5.310101
      ESP Fit Center  930 is at  -6.192343 -2.929603 -5.310101
      ESP Fit Center  931 is at  -3.758519 -1.348216 -6.270101
      ESP Fit Center  932 is at  -4.786167 -1.348216 -6.270101
      ESP Fit Center  933 is at  -5.617551 -1.952252 -6.270101
      ESP Fit Center  934 is at  -3.792343 -2.098219 -6.972870
      ESP Fit Center  935 is at  -4.752343 -2.098219 -6.972870
      ESP Fit Center  936 is at  -4.272343 -2.929603 -7.230101
      ESP Fit Center  937 is at  -4.534267 -5.216054 -1.727635
      ESP Fit Center  938 is at  -3.462753 -5.216054 -1.940772
      ESP Fit Center  939 is at  -3.998510 -4.288096 -1.940772
      ESP Fit Center  940 is at  -5.070024 -4.288096 -1.940772
      ESP Fit Center  941 is at  -5.605781 -5.216054 -1.940772
      ESP Fit Center  942 is at  -5.070024 -6.144012 -1.940772
      ESP Fit Center  943 is at  -3.998510 -6.144012 -1.940772
      ESP Fit Center  944 is at  -6.248910 -4.226105 -2.547736
      ESP Fit Center  945 is at  -6.514166 -5.216054 -2.547736
      ESP Fit Center  946 is at  -6.248910 -6.206003 -2.547736
      ESP Fit Center  947 is at  -5.524216 -6.930697 -2.547736
      ESP Fit Center  948 is at  -4.534267 -7.195953 -2.547736
      ESP Fit Center  949 is at  -3.544318 -6.930697 -2.547736
      ESP Fit Center  950 is at  -2.819624 -6.206003 -2.547736
      ESP Fit Center  951 is at  -6.627083 -3.695534 -3.456121
      ESP Fit Center  952 is at  -7.064601 -4.678215 -3.456121
      ESP Fit Center  953 is at  -7.064601 -5.753893 -3.456121
      ESP Fit Center  954 is at  -6.627083 -6.736574 -3.456121
      ESP Fit Center  955 is at  -5.827698 -7.456343 -3.456121
      ESP Fit Center  956 is at  -4.804668 -7.788746 -3.456121
      ESP Fit Center  957 is at  -3.734882 -7.676307 -3.456121
      ESP Fit Center  958 is at  -2.803318 -7.138468 -3.456121
      ESP Fit Center  959 is at  -2.171050 -6.268226 -3.456121
      ESP Fit Center  960 is at  -6.221644 -2.981606 -4.527635
      ESP Fit Center  961 is at  -6.914875 -3.742044 -4.527635
      ESP Fit Center  962 is at  -7.286592 -4.701555 -4.527635
      ESP Fit Center  963 is at  -7.286592 -5.730553 -4.527635
      ESP Fit Center  964 is at  -6.914875 -6.690064 -4.527635
      ESP Fit Center  965 is at  -6.221644 -7.450502 -4.527635
      ESP Fit Center  966 is at  -5.300523 -7.909166 -4.527635
      ESP Fit Center  967 is at  -4.275916 -8.004110 -4.527635
      ESP Fit Center  968 is at  -3.286200 -7.722511 -4.527635
      ESP Fit Center  969 is at  -2.465042 -7.102402 -4.527635
      ESP Fit Center  970 is at  -1.923345 -6.227531 -4.527635
      ESP Fit Center  971 is at  -3.734882 -7.676307 -5.599149
      ESP Fit Center  972 is at  -7.297869 -5.434460 -5.771442
      ESP Fit Center  973 is at  -6.758430 -5.963102 -7.801868
      ESP Fit Center  974 is at  -7.232789 -6.343084 -5.352987
      ESP Fit Center  975 is at  -6.915228 -7.320435 -5.352987
      ESP Fit Center  976 is at  -6.083844 -7.924471 -5.352987
      ESP Fit Center  977 is at  -5.056196 -7.924471 -5.352987
      ESP Fit Center  978 is at  -7.490020 -6.343084 -6.312987
      ESP Fit Center  979 is at  -7.232789 -7.303084 -6.312987
      ESP Fit Center  980 is at  -6.530020 -8.005853 -6.312987
      ESP Fit Center  981 is at  -5.570020 -8.263084 -6.312987
      ESP Fit Center  982 is at  -4.610020 -8.005853 -6.312987
      ESP Fit Center  983 is at  -7.232789 -6.343084 -7.272987
      ESP Fit Center  984 is at  -6.915228 -7.320435 -7.272987
      ESP Fit Center  985 is at  -6.083844 -7.924471 -7.272987
      ESP Fit Center  986 is at  -5.056196 -7.924471 -7.272987
      ESP Fit Center  987 is at  -6.530020 -6.343084 -7.975756
      ESP Fit Center  988 is at  -6.050020 -7.174468 -7.975756
      ESP Fit Center  989 is at  -6.956634 -3.630775 -5.647621
      ESP Fit Center  990 is at  -7.274195 -4.608126 -5.647621
      ESP Fit Center  991 is at  -6.571426 -2.945357 -6.607621
      ESP Fit Center  992 is at  -7.274195 -3.648126 -6.607621
      ESP Fit Center  993 is at  -7.531426 -4.608126 -6.607621
      ESP Fit Center  994 is at  -5.097602 -3.026739 -7.567621
      ESP Fit Center  995 is at  -6.125250 -3.026739 -7.567621
      ESP Fit Center  996 is at  -6.956634 -3.630775 -7.567621
      ESP Fit Center  997 is at  -7.274195 -4.608126 -7.567621
      ESP Fit Center  998 is at  -5.131426 -3.776742 -8.270390
      ESP Fit Center  999 is at  -6.091426 -3.776742 -8.270390
      ESP Fit Center 1000 is at  -6.571426 -4.608126 -8.270390
      ESP Fit Center 1001 is at  -1.438797 -5.582112 -7.799569
      ESP Fit Center 1002 is at  -4.299284 -7.863275 -7.799569
      ESP Fit Center 1003 is at  -1.902228 -5.582112 -8.761895
      ESP Fit Center 1004 is at  -4.045663 -3.724815 -8.761895
      ESP Fit Center 1005 is at  -2.999141 -7.288941 -8.761895
      ESP Fit Center 1006 is at  -2.200100 -6.596568 -8.761895
      ESP Fit Center 1007 is at  -1.264551 -4.663814 -7.320792
      ESP Fit Center 1008 is at  -2.224551 -3.001045 -7.320792
      ESP Fit Center 1009 is at  -3.184551 -2.743814 -7.320792
      ESP Fit Center 1010 is at  -4.144551 -3.001045 -7.320792
      ESP Fit Center 1011 is at  -1.521782 -4.663814 -8.280792
      ESP Fit Center 1012 is at  -1.839343 -3.686463 -8.280792
      ESP Fit Center 1013 is at  -2.670727 -3.082427 -8.280792
      ESP Fit Center 1014 is at  -3.698375 -3.082427 -8.280792
      ESP Fit Center 1015 is at  -2.224551 -4.663814 -8.983561
      ESP Fit Center 1016 is at  -2.704551 -3.832430 -8.983561
      ESP Fit Center 1017 is at  -3.664551 -3.832430 -8.983561
      ESP Fit Center 1018 is at  -2.637853 -7.229290 -5.293120
      ESP Fit Center 1019 is at  -1.455084 -6.397906 -5.995889
      ESP Fit Center 1020 is at  -3.631677 -7.979293 -5.995889
      ESP Fit Center 1021 is at  -2.604029 -7.979293 -5.995889
      ESP Fit Center 1022 is at  -1.772645 -7.375257 -5.995889
      ESP Fit Center 1023 is at  -1.197853 -6.397906 -6.955889
      ESP Fit Center 1024 is at  -4.077853 -8.060675 -6.955889
      ESP Fit Center 1025 is at  -3.117853 -8.317906 -6.955889
      ESP Fit Center 1026 is at  -2.157853 -8.060675 -6.955889
      ESP Fit Center 1027 is at  -1.455084 -7.357906 -6.955889
      ESP Fit Center 1028 is at  -1.455084 -6.397906 -7.915889
      ESP Fit Center 1029 is at  -3.631677 -7.979293 -7.915889
      ESP Fit Center 1030 is at  -2.604029 -7.979293 -7.915889
      ESP Fit Center 1031 is at  -1.772645 -7.375257 -7.915889
      ESP Fit Center 1032 is at  -2.637853 -7.229290 -8.618658
      ESP Fit Center 1033 is at  -5.805379 -6.758510 -8.278055
      ESP Fit Center 1034 is at  -5.102610 -7.461279 -8.278055
      ESP Fit Center 1035 is at  -3.628786 -4.217123 -9.238055
      ESP Fit Center 1036 is at  -4.656434 -4.217123 -9.238055
      ESP Fit Center 1037 is at  -5.487818 -4.821159 -9.238055
      ESP Fit Center 1038 is at  -5.805379 -5.798510 -9.238055
      ESP Fit Center 1039 is at  -5.487818 -6.775861 -9.238055
      ESP Fit Center 1040 is at  -4.656434 -7.379897 -9.238055
      ESP Fit Center 1041 is at  -3.628786 -7.379897 -9.238055
      ESP Fit Center 1042 is at  -2.797402 -6.775861 -9.238055
      ESP Fit Center 1043 is at  -3.182610 -5.798510 -9.940824
      ESP Fit Center 1044 is at  -3.662610 -4.967126 -9.940824
      ESP Fit Center 1045 is at  -4.622610 -4.967126 -9.940824
      ESP Fit Center 1046 is at  -5.102610 -5.798510 -9.940824
      ESP Fit Center 1047 is at  -4.622610 -6.629894 -9.940824
[...]
 1380 Fit       0.009907
 1381 Fit       0.005802
 1382 Fit       0.007279
 1383 Fit       0.010556
 1384 Fit       0.008350
 1385 Fit       0.005776
 1386 Fit       0.006247
 1387 Fit       0.005000
 1388 Fit       0.001593
 1389 Fit       0.002204
 1390 Fit       0.004241
 1391 Fit       0.006602
 1392 Fit       0.007713
 1393 Fit       0.005191
 1394 Fit       0.008365
 1395 Fit      -0.001426
 1396 Fit       0.000099
 1397 Fit       0.002976
 1398 Fit      -0.002162
 1399 Fit      -0.004324
 1400 Fit      -0.001130
 1401 Fit      -0.001219
 1402 Fit      -0.004309
 1403 Fit      -0.011614
 1404 Fit      -0.010325
 1405 Fit      -0.007784
 1406 Fit      -0.005406
 1407 Fit      -0.004857
 1408 Fit      -0.006813
 1409 Fit      -0.009598
 1410 Fit      -0.009980
 1411 Fit      -0.005025
 1412 Fit      -0.005025
 1413 Fit      -0.010202
 1414 Fit      -0.012757
 1415 Fit      -0.012692
 1416 Fit      -0.011104
 1417 Fit      -0.010082
 1418 Fit      -0.010798
 1419 Fit      -0.012396
 1420 Fit      -0.012065
 1421 Fit      -0.006195
 1422 Fit      -0.001878
 1423 Fit      -0.009434
 1424 Fit      -0.009787
 1425 Fit      -0.011372
 1426 Fit      -0.011367
 1427 Fit      -0.011716
 1428 Fit      -0.011461
 1429 Fit      -0.007103
 1430 Fit      -0.004160
 1431 Fit      -0.005406
 1432 Fit      -0.008434
 1433 Fit      -0.007175
 1434 Fit       0.000852
 1435 Fit       0.009161
 1436 Fit       0.003411
 1437 Fit      -0.001654
 1438 Fit       0.002323
 1439 Fit       0.013364
 1440 Fit       0.007304
 1441 Fit       0.005717
 1442 Fit      -0.005098
 1443 Fit       0.003709
 1444 Fit       0.006285
 1445 Fit       0.004094
 1446 Fit       0.004110
 1447 Fit       0.003552
 1448 Fit       0.006835
 1449 Fit       0.008770
 1450 Fit       0.000094
 1451 Fit       0.001791
 1452 Fit       0.008897
 1453 Fit       0.004459
 1454 Fit       0.008754
 1455 Fit       0.007135
 1456 Fit       0.003017
 1457 Fit       0.004171
 1458 Fit       0.004419
 1459 Fit       0.000372
 1460 Fit       0.000972
 1461 Fit       0.005411
 1462 Fit       0.005783
 1463 Fit       0.001709
 1464 Fit       0.007676
 1465 Fit       0.011485
 1466 Fit       0.007064
 1467 Fit       0.010100
 1468 Fit      -0.006041
 1469 Fit      -0.001255
 1470 Fit       0.003815
 1471 Fit      -0.002760
 1472 Fit      -0.010900
 1473 Fit      -0.012068
 1474 Fit      -0.009199
 1475 Fit      -0.010066
 1476 Fit      -0.015013
 1477 Fit      -0.015333
 1478 Fit      -0.014104
 1479 Fit      -0.013477
 1480 Fit      -0.012276
 1481 Fit      -0.006964
 1482 Fit      -0.005919
 1483 Fit      -0.013582
 1484 Fit      -0.016329
 1485 Fit      -0.015286
 1486 Fit      -0.012919
 1487 Fit      -0.011766
 1488 Fit      -0.012621
 1489 Fit      -0.013984
 1490 Fit      -0.012896
 1491 Fit      -0.005827
 1492 Fit      -0.006663
 1493 Fit      -0.011998
 1494 Fit      -0.013318
 1495 Fit      -0.011137
 1496 Fit      -0.007723
 1497 Fit      -0.005961
 1498 Fit      -0.007137
 1499 Fit      -0.010218
 1500 Fit      -0.012875
 1501 Fit      -0.012464
 1502 Fit      -0.006337
 1503 Fit      -0.000557
 1504 Fit      -0.005019
 1505 Fit      -0.005995
 1506 Fit      -0.002850
 1507 Fit       0.000365
 1508 Fit      -0.004072
 1509 Fit      -0.007285
 1510 Fit      -0.007925
 1511 Fit      -0.004753
 1512 Fit       0.003986
 1513 Fit       0.009860
 1514 Fit       0.001101
 1515 Fit       0.003592
 1516 Fit       0.003640
 1517 Fit       0.004450
 1518 Fit       0.005935
 1519 Fit       0.007332
 1520 Fit       0.007691
 1521 Fit       0.006916
 1522 Fit       0.005749
 1523 Fit       0.008557
 1524 Fit       0.009346
 1525 Fit       0.009334
 1526 Fit       0.010644
 1527 Fit       0.003894
 1528 Fit      -0.000220
 1529 Fit       0.010808
 1530 Fit       0.008044
 1531 Fit       0.006084
 1532 Fit       0.005227
 1533 Fit       0.013108
 1534 Fit       0.011561
 1535 Fit       0.010187
 1536 Fit       0.008896
 1537 Fit       0.008331
 1538 Fit       0.010769
 1539 Fit       0.010169
 1540 Fit       0.006289
 1541 Fit       0.005103
 1542 Fit       0.006712
 1543 Fit       0.004745
 1544 Fit       0.007691
 1545 Fit       0.004600
 1546 Fit       0.009611
 1547 Fit       0.009796
 1548 Fit       0.006628
 1549 Fit       0.007815
 1550 Fit       0.007994
 1551 Fit       0.008631
 1552 Fit       0.005842
 1553 Fit       0.006823
 1554 Fit       0.002216
 1555 Fit       0.000915
 1556 Fit       0.001049
 1557 Fit       0.001465
 1558 Fit       0.004916
 1559 Fit       0.005423
 1560 Fit       0.004637
 1561 Fit       0.004725
 1562 Fit       0.004710
 1563 Fit       0.004850
 1564 Fit       0.005403
 1565 Fit       0.005218
 1566 Fit       0.005070
 1567 Fit       0.011133
 1568 Fit       0.008393
 1569 Fit       0.008062
 1570 Fit       0.009593
 1571 Fit       0.010222
 1572 Fit       0.010105
 1573 Fit       0.009189
 1574 Fit       0.007537
 1575 Fit       0.006010
 1576 Fit       0.005131
 1577 Fit       0.006542
 1578 Fit       0.007106
 1579 Fit       0.008547
 1580 Fit       0.009412
 1581 Fit       0.008759
 1582 Fit       0.007293
 1583 Fit       0.008245
 1584 Fit       0.002129
 1585 Fit       0.001571
 1586 Fit       0.002773
 1587 Fit       0.000880
 1588 Fit       0.000250
 1589 Fit      -0.000632
 1590 Fit       0.000160
 1591 Fit      -0.001145
 1592 Fit      -0.002596
 1593 Fit       0.001397
 1594 Fit      -0.008475
 1595 Fit       0.002763
 1596 Fit       0.005054
 1597 Fit       0.004518
 1598 Fit       0.003378
 1599 Fit       0.002842
 1600 Fit       0.004072
 1601 Fit       0.005089
 1602 Fit       0.004552
 1603 Fit       0.002147
 1604 Fit       0.006344
 1605 Fit       0.006483
 1606 Fit       0.006235
 1607 Fit       0.005426
 1608 Fit       0.003984
 1609 Fit       0.007751
 1610 Fit       0.006959
 1611 Fit       0.006055
 1612 Fit       0.004805
 1613 Fit       0.003194
 1614 Fit       0.007364
 1615 Fit       0.005858
 1616 Fit       0.004319
 1617 Fit       0.000573
 1618 Fit      -0.000943
 1619 Fit       0.001491
 1620 Fit       0.001212
 1621 Fit      -0.000638
 1622 Fit      -0.004016
 1623 Fit      -0.010449
 1624 Fit       0.002815
 1625 Fit       0.002172
 1626 Fit       0.001128
 1627 Fit      -0.001654
 1628 Fit      -0.007460
 1629 Fit       0.003377
 1630 Fit       0.002453
 1631 Fit      -0.000079
 1632 Fit      -0.005567
 1633 Fit       0.001893
 1634 Fit      -0.002977
 1635 Fit       0.001657
 1636 Fit       0.001112
 1637 Fit       0.001129
 1638 Fit       0.001163
 1639 Fit       0.001910
 1640 Fit       0.000126
 1641 Fit      -0.000098
 1642 Fit      -0.000653
 1643 Fit      -0.000808
 1644 Fit       0.000741
 1645 Fit      -0.001399
 1646 Fit      -0.002040
 1647 Fit      -0.003244
 1648 Fit      -0.005012
 1649 Fit      -0.006392
 1650 Fit      -0.005466
 1651 Fit      -0.008612
 1652 Fit      -0.013805
 1653 Fit       0.007916
 1654 Fit       0.007215
 1655 Fit       0.007612
 1656 Fit       0.007660
 1657 Fit       0.007521
 1658 Fit       0.008682
 1659 Fit       0.008260
 1660 Fit       0.007572
 1661 Fit       0.006520
 1662 Fit       0.009580
 1663 Fit       0.007684
 1664 Fit       0.005689
 1665 Fit       0.004296
 1666 Fit       0.002797
 1667 Fit       0.004475
 1668 Fit       0.005535
 1669 Fit      -0.001141
 1670 Fit       0.001538
 1671 Fit       0.003941
 1672 Fit       0.005229
 1673 Fit       0.005973
 1674 Fit       0.006772
 1675 Fit       0.005367
 1676 Fit       0.005837
 1677 Fit       0.006379
 1678 Fit       0.007253
 1679 Fit      -0.012299
 1680 Fit      -0.009187
 1681 Fit      -0.016186
 1682 Fit      -0.013305
 1683 Fit      -0.017263
 1684 Fit      -0.017123
 1685 Fit      -0.013670
 1686 Fit      -0.014748
 1687 Fit      -0.016116
 1688 Fit      -0.013234
 1689 Fit      -0.008927
 1690 Fit      -0.011720
 1691 Fit      -0.010121
 1692 Fit      -0.002864
 1693 Fit      -0.006580
 1694 Fit      -0.001932
 1695 Fit      -0.001154
 1696 Fit      -0.003157
 1697 Fit      -0.006081
 1698 Fit      -0.009122
 1699 Fit      -0.003572
 1700 Fit      -0.001736
 1701 Fit      -0.010019
 1702 Fit      -0.004026
 1703 Fit      -0.001603
 1704 Fit      -0.001315
 1705 Fit      -0.002589
 1706 Fit      -0.005880
 1707 Fit      -0.002352
 1708 Fit      -0.001212
 1709 Fit      -0.002192
 1710 Fit      -0.005880
 1711 Fit      -0.001976
 1712 Fit      -0.001917
 1713 Fit      -0.005041
 1714 Fit       0.000812
 1715 Fit       0.003361
 1716 Fit      -0.000057
 1717 Fit       0.001380
 1718 Fit       0.002977
 1719 Fit       0.004991
 1720 Fit      -0.001460
 1721 Fit      -0.000590
 1722 Fit       0.001079
 1723 Fit       0.003462
 1724 Fit       0.006478
 1725 Fit      -0.000996
 1726 Fit       0.002808
 1727 Fit      -0.006890
 1728 Fit      -0.009097
 1729 Fit      -0.000213
 1730 Fit      -0.001769
 1731 Fit      -0.001884
 1732 Fit      -0.001130
 1733 Fit       0.002298
 1734 Fit       0.002527
 1735 Fit       0.001542
 1736 Fit       0.001107
 1737 Fit       0.000398
 1738 Fit       0.004097
 1739 Fit       0.004120
 1740 Fit       0.003388
 1741 Fit       0.007200
 1742 Fit       0.006658
 1743 Fit       0.008510
 1744 Fit       0.009504
 1745 Fit       0.009197
 1746 Fit       0.008681
 1747 Fit       0.007916
 1748 Fit       0.006233
 1749 Fit       0.008153
 1750 Fit       0.006557
 1751 Fit      -0.007483
 1752 Fit      -0.004928
 1753 Fit      -0.000952
 1754 Fit      -0.009494
 1755 Fit      -0.009973
 1756 Fit      -0.007482
 1757 Fit       0.000728
 1758 Fit      -0.008643
 1759 Fit      -0.008141
 1760 Fit      -0.004057
 1761 Fit      -0.005592
 1762 Fit      -0.001975
 1763 Fit       0.006172
 1764 Fit       0.004390
 1765 Fit       0.007102
 1766 Fit       0.007668
 1767 Fit       0.008158
 1768 Fit       0.008551
 1769 Fit       0.007655
 1770 Fit       0.007123
 1771 Fit       0.006759
 1772 Fit       0.006079
 1773 Fit       0.004999
 1774 Fit       0.004261
 1775 Fit       0.003520
 1776 Fit       0.002049
 1777 Fit       0.000431
 1778 Fit       0.004621
 1779 Fit       0.002335
 1780 Fit       0.001684
 1781 Fit       0.000265
 1782 Fit      -0.001714
 1783 Fit       0.002188
 1784 Fit      -0.001135
 1785 Fit      -0.002603
 1786 Fit      -0.003996
 1787 Fit      -0.004183
 1788 Fit       0.002050
 1789 Fit       0.003632
 1790 Fit       0.002115
 1791 Fit      -0.003050
 1792 Fit      -0.003343
 1793 Fit      -0.000464
 1794 Fit      -0.003932
 1795 Fit      -0.001314
 1796 Fit       0.000432
 1797 Fit       0.001500
 1798 Fit       0.002571
 1799 Fit      -0.000296
 1800 Fit       0.000252
 1801 Fit       0.000914
 1802 Fit       0.001199
 1803 Fit       0.001368
 1804 Fit      -0.001605
 1805 Fit      -0.001269
 1806 Fit      -0.001822
 1807 Fit      -0.004079
 1808 Fit       0.002064
 1809 Fit       0.002756
 1810 Fit       0.000810
 1811 Fit       0.004867
 1812 Fit       0.007453
 1813 Fit       0.007482
 1814 Fit       0.006616
 1815 Fit       0.006363
 1816 Fit      -0.008563
 1817 Fit      -0.008966
 1818 Fit      -0.009008
 1819 Fit      -0.008419
 1820 Fit      -0.003802
 1821 Fit      -0.010603
 1822 Fit      -0.013029
 1823 Fit      -0.013786
 1824 Fit      -0.013424
 1825 Fit      -0.011082
 1826 Fit      -0.010374
 1827 Fit      -0.013452
 1828 Fit      -0.010552
 1829 Fit      -0.007264
 1830 Fit       0.004095
 1831 Fit       0.003202
 1832 Fit       0.007745
 1833 Fit       0.008592
 1834 Fit       0.004243
 1835 Fit       0.006796
 1836 Fit       0.004395
 1837 Fit      -0.000997
 1838 Fit       0.004968
 1839 Fit       0.004060
 1840 Fit       0.000821
 1841 Fit       0.005479
 1842 Fit       0.005463
 1843 Fit       0.004369
 1844 Fit       0.001437
 1845 Fit      -0.005108
 1846 Fit       0.005076
 1847 Fit       0.002830
 1848 Fit      -0.000655
 1849 Fit       0.003723
 1850 Fit       0.003531
 1851 Fit       0.005032
 1852 Fit       0.003331
 1853 Fit       0.002295
 1854 Fit       0.004864
 1855 Fit      -0.005464
 1856 Fit       0.002633
 1857 Fit       0.006132
 1858 Fit       0.007639
 1859 Fit      -0.002747
 1860 Fit       0.004167
 1861 Fit       0.007399
 1862 Fit       0.005041
 1863 Fit       0.008443
 1864 Fit       0.008135
 1865 Fit       0.005830
 1866 Fit       0.006728
 1867 Fit       0.004501
 1868 Fit       0.005966
 1869 Fit       0.005647
 1870 Fit       0.003746
 1871 Fit      -0.002195
 1872 Fit      -0.000096
 1873 Fit       0.004419
 1874 Fit       0.001141
 1875 Fit      -0.004643
 1876 Fit      -0.006756
 1877 Fit      -0.005506
 1878 Fit      -0.003222
 1879 Fit      -0.007392
 1880 Fit      -0.008880
 1881 Fit      -0.009092
 1882 Fit      -0.009069
 1883 Fit      -0.008180
 1884 Fit      -0.004467
 1885 Fit      -0.000759
 1886 Fit      -0.006633
 1887 Fit      -0.009459
 1888 Fit      -0.009970
 1889 Fit      -0.009363
 1890 Fit      -0.008870
 1891 Fit      -0.009100
 1892 Fit      -0.009441
 1893 Fit      -0.008127
 1894 Fit      -0.002927
 1895 Fit      -0.001081
 1896 Fit      -0.006274
 1897 Fit      -0.008924
 1898 Fit      -0.009364
 1899 Fit      -0.008471
 1900 Fit      -0.007131
 1901 Fit      -0.006177
 1902 Fit      -0.006266
 1903 Fit      -0.007302
 1904 Fit      -0.008061
 1905 Fit      -0.006681
 1906 Fit      -0.001448
 1907 Fit      -0.004720
 1908 Fit      -0.005527
 1909 Fit      -0.004835
 1910 Fit      -0.003840
 1911 Fit      -0.002722
 1912 Fit      -0.001465
 1913 Fit      -0.000728
 1914 Fit      -0.001390
 1915 Fit      -0.003207
 1916 Fit      -0.004535
 1917 Fit      -0.003591
 1918 Fit       0.006122
 1919 Fit       0.000788
 1920 Fit       0.001828
 1921 Fit       0.004459
 1922 Fit       0.003042
 1923 Fit       0.005892
 1924 Fit       0.007173
 1925 Fit       0.004086
 1926 Fit       0.005082
 1927 Fit       0.001685
 1928 Fit       0.001699
 1929 Fit       0.000393
 1930 Fit       0.006710
 1931 Fit       0.006038
 1932 Fit       0.005320
 1933 Fit       0.003842
 1934 Fit       0.007884
 1935 Fit       0.006027
 1936 Fit       0.003701
 1937 Fit       0.005352
 1938 Fit       0.008314
 1939 Fit       0.005938
 1940 Fit       0.006336
 1941 Fit       0.006521
 1942 Fit       0.005604
 1943 Fit       0.003734
 1944 Fit      -0.000699
 1945 Fit       0.000907
 1946 Fit       0.002252
 1947 Fit       0.002656
 1948 Fit       0.003602
 1949 Fit       0.004533
 1950 Fit       0.007012
 1951 Fit       0.004953
 1952 Fit       0.004051
 1953 Fit       0.005409
 1954 Fit       0.000290
 1955 Fit       0.000969
 1956 Fit      -0.005270
 1957 Fit      -0.004738
 1958 Fit      -0.003948
 1959 Fit      -0.002528
 1960 Fit      -0.001003
 1961 Fit      -0.000736
 1962 Fit      -0.002229
 1963 Fit      -0.004304
 1964 Fit      -0.005011
 1965 Fit      -0.002906
 1966 Fit       0.001205
 1967 Fit      -0.002995
 1968 Fit      -0.005118
 1969 Fit      -0.009152
 1970 Fit      -0.008985
 1971 Fit      -0.007839
 1972 Fit      -0.006518
 1973 Fit      -0.005950
 1974 Fit      -0.006639
 1975 Fit      -0.007922
 1976 Fit      -0.008091
 1977 Fit      -0.005146
 1978 Fit      -0.003582
 1979 Fit      -0.007537
 1980 Fit      -0.009052
 1981 Fit      -0.009700
 1982 Fit      -0.009153
 1983 Fit      -0.008669
 1984 Fit      -0.008937
 1985 Fit      -0.009384
 1986 Fit      -0.008178
 1987 Fit      -0.002861
 1988 Fit      -0.000142
 1989 Fit      -0.006068
 1990 Fit      -0.006728
 1991 Fit      -0.008395
 1992 Fit      -0.008693
 1993 Fit      -0.008713
 1994 Fit      -0.007825
 1995 Fit      -0.003877
 1996 Fit       0.004449
 1997 Fit      -0.002268
 1998 Fit      -0.003605
 1999 Fit      -0.005992
 2000 Fit      -0.004628
 2001 Fit       0.001729
 2002 Fit       0.003050
 2003 Fit      -0.000682
 2004 Fit       0.000513
 2005 Fit       0.003407
 2006 Fit       0.000957
 2007 Fit       0.010892
 2008 Fit       0.006461
 2009 Fit       0.005445
 2010 Fit      -0.001568
 2011 Fit       0.004386
 2012 Fit       0.006969
 2013 Fit       0.002590
 2014 Fit       0.003774
 2015 Fit       0.004531
 2016 Fit       0.003652
 2017 Fit       0.003553
 2018 Fit       0.006157
 2019 Fit       0.007678
 2020 Fit       0.003095
 2021 Fit       0.002112
 2022 Fit       0.003027
 2023 Fit       0.005903
 2024 Fit       0.002247
 2025 Fit       0.004500
 2026 Fit       0.002157
 2027 Fit       0.002870
 2028 Fit       0.003465
 2029 Fit      -0.001105
 2030 Fit       0.004304
 2031 Fit       0.006515
 2032 Fit       0.002272
 2033 Fit       0.007124
 2034 Fit       0.006928
 2035 Fit       0.009093
 2036 Fit      -0.005189
 2037 Fit      -0.001433
 2038 Fit       0.001812
 2039 Fit      -0.002751
 2040 Fit      -0.008467
 2041 Fit      -0.009523
 2042 Fit      -0.007263
 2043 Fit       0.004113
 2044 Fit      -0.007399
 2045 Fit      -0.011238
 2046 Fit      -0.011944
 2047 Fit      -0.011342
 2048 Fit      -0.010682
 2049 Fit      -0.009214
 2050 Fit      -0.004732
 2051 Fit      -0.004029
 2052 Fit      -0.010007
 2053 Fit      -0.012498
 2054 Fit      -0.012341
 2055 Fit      -0.011104
 2056 Fit      -0.010350
 2057 Fit      -0.010563
 2058 Fit      -0.010777
 2059 Fit      -0.009025
 2060 Fit      -0.002770
 2061 Fit      -0.002923
 2062 Fit      -0.008240
 2063 Fit      -0.010931
 2064 Fit      -0.011029
 2065 Fit      -0.009424
 2066 Fit      -0.007656
 2067 Fit      -0.007068
 2068 Fit      -0.007961
 2069 Fit      -0.009518
 2070 Fit      -0.010264
 2071 Fit      -0.008486
 2072 Fit      -0.001725
 2073 Fit      -0.005406
 2074 Fit      -0.007173
 2075 Fit      -0.006716
 2076 Fit      -0.004579
 2077 Fit      -0.002260
 2078 Fit      -0.001438
 2079 Fit      -0.002554
 2080 Fit      -0.004770
 2081 Fit      -0.006880
 2082 Fit      -0.007776
 2083 Fit      -0.006533
 2084 Fit       0.005158
 2085 Fit      -0.000676
 2086 Fit       0.002390
 2087 Fit      -0.000509
 2088 Fit       0.000410
 2089 Fit       0.007614
 2090 Fit       0.009097
 2091 Fit       0.001953
 2092 Fit       0.003694
 2093 Fit       0.004708
 2094 Fit       0.004692
 2095 Fit       0.003607
 2096 Fit       0.005605
 2097 Fit       0.006410
 2098 Fit       0.007023
 2099 Fit       0.007021
 2100 Fit       0.006492
 2101 Fit       0.007908
 2102 Fit       0.008315
 2103 Fit       0.008360
 2104 Fit       0.009822
 2105 Fit       0.006118
 2106 Fit       0.003749
 2107 Fit       0.002277
 2108 Fit       0.009954
 2109 Fit       0.008160
 2110 Fit       0.006808
 2111 Fit       0.005941
 2112 Fit       0.009802
 2113 Fit       0.008908
 2114 Fit       0.008115
 2115 Fit       0.008005
 2116 Fit       0.009551
 2117 Fit       0.009348
 2118 Fit       0.005171
 2119 Fit       0.011627
 2120 Fit       0.006440
 2121 Fit       0.004510
 2122 Fit       0.009270
 2123 Fit       0.005879
 2124 Fit       0.004845
 2125 Fit       0.004205
 2126 Fit       0.004553
 2127 Fit       0.005291
 2128 Fit       0.006086
 2129 Fit       0.006903
 2130 Fit       0.004568
 2131 Fit       0.006659
 2132 Fit       0.007441
 2133 Fit       0.006868
 2134 Fit       0.006453
 2135 Fit       0.008498
 2136 Fit       0.005477
 2137 Fit       0.006067
 2138 Fit       0.006285
 2139 Fit       0.007044
 2140 Fit       0.005950
 2141 Fit       0.000029
 2142 Fit      -0.001880
 2143 Fit      -0.001146
 2144 Fit       0.003838
 2145 Fit       0.003188
 2146 Fit       0.002668
 2147 Fit       0.002808
 2148 Fit       0.003048
 2149 Fit       0.004502
 2150 Fit       0.004860
 2151 Fit       0.004336
 2152 Fit       0.004291
 2153 Fit       0.004261
 2154 Fit       0.004601
 2155 Fit       0.004409
 2156 Fit       0.009580
 2157 Fit       0.008514
 2158 Fit       0.006819
 2159 Fit       0.007239
 2160 Fit       0.008333
 2161 Fit       0.008824
 2162 Fit       0.008719
 2163 Fit       0.008030
 2164 Fit       0.006861
 2165 Fit       0.005752
 2166 Fit       0.005071
 2167 Fit       0.006018
 2168 Fit       0.006467
 2169 Fit       0.007511
 2170 Fit       0.008097
 2171 Fit       0.007591
 2172 Fit       0.006537
 2173 Fit       0.007181
 Job cpu time:       0 days  0 hours 10 minutes 54.9 seconds.
 Normal termination of Gaussian 16 at Sun Jul  9 07:40:53 2023.
