 Copyright (c) 1988-2019, Gaussian, Inc.  All Rights Reserved.
  
 This is part of the Gaussian(R) 16 program.  It is based on
 the Gaussian(R) 09 system (copyright 2009, Gaussian, Inc.),
 the Gaussian(R) 03 system (copyright 2003, Gaussian, Inc.),
 the Gaussian(R) 98 system (copyright 1998, Gaussian, Inc.),
 the Gaussian(R) 94 system (copyright 1995, Gaussian, Inc.),
 the Gaussian 92(TM) system (copyright 1992, Gaussian, Inc.),
 the Gaussian 90(TM) system (copyright 1990, Gaussian, Inc.),
 the Gaussian 88(TM) system (copyright 1988, Gaussian, Inc.),
 the Gaussian 86(TM) system (copyright 1986, Carnegie Mellon
 University), and the Gaussian 82(TM) system (copyright 1983,
 Carnegie Mellon University). Gaussian is a federally registered
 trademark of Gaussian, Inc.
 Cite this work as:
 Gaussian 16, Revision C.01,
 M. J. Frisch, G. W. Trucks, H. B. Schlegel, G. E. Scuseria, 
 M. A. Robb, J. R. Cheeseman, G. Scalmani, V. Barone, 
 G. A. Petersson, H. Nakatsuji, X. Li, M. Caricato, A. V. Marenich, 
 J. Bloino, B. G. Janesko, R. Gomperts, B. Mennucci, H. P. Hratchian, 
 J. V. Ortiz, A. F. Izmaylov, J. L. Sonnenberg, D. Williams-Young, 
 F. Ding, F. Lipparini, F. Egidi, J. Goings, B. Peng, A. Petrone, 
 T. Henderson, D. Ranasinghe, V. G. Zakrzewski, J. Gao, N. Rega, 
 G. Zheng, W. Liang, M. Hada, M. Ehara, K. Toyota, R. Fukuda, 
 J. Hasegawa, M. Ishida, T. Nakajima, Y. Honda, O. Kitao, H. Nakai, 
 T. Vreven, K. Throssell, J. A. Montgomery, Jr., J. E. Peralta, 
 F. Ogliaro, M. J. Bearpark, J. J. Heyd, E. N. Brothers, K. N. Kudin, 
 V. N. Staroverov, T. A. Keith, R. Kobayashi, J. Normand, 
 K. Raghavachari, A. P. Rendell, J. C. Burant, S. S. Iyengar, 
 J. Tomasi, M. Cossi, J. M. Millam, M. Klene, C. Adamo, R. Cammi, 
 J. W. Ochterski, R. L. Martin, K. Morokuma, O. Farkas, 
 J. B. Foresman, and D. J. Fox, Gaussian, Inc., Wallingford CT, 2019.
 
 ******************************************
 Gaussian 16:  EM64L-G16RevC.01  3-Jul-2019
                 9-Jul-2023 
 ******************************************
 ----------------------------------------------------------------------
 #P B3LYP/6-31G(d) Integral=Ultrafine SCF(Conver=8,XQC,MaxConventionalC
 ycles=64,MaxCycle=128) NoSymm Test Pop=mk IOp(6/33=2) GFInput GFPrint
 ----------------------------------------------------------------------
 1/38=1,172=1/1;
 2/12=2,15=1,17=6,18=5,40=1/2;
 3/5=1,6=6,7=1,11=2,24=110,25=1,30=1,74=-5,75=-5/1,2,3;
 4//1;
 5/5=2,6=8,7=128,8=3,13=1,38=5,85=64/2,8;
 6/7=2,8=2,9=2,10=2,15=8,20=1,28=1,33=2/1,2;
 99/5=1,9=1/99;
 -------------------------------------------------
 MEP step - Input generated by PyRED DVE-DMDS-OPLS
 -------------------------------------------------
 Symbolic Z-matrix:
 Charge =  0 Multiplicity = 1
 C                     7.1087   -1.26151  -3.77163 
 H                     7.44874  -0.3696   -4.30843 
 H                     7.15371  -1.05224  -2.6978 
 H                     7.81128  -2.0729   -3.99536 
 C                     5.69246  -1.66778  -4.17496 
 H                     5.6443   -1.88217  -5.25532 
 H                     5.40058  -2.58115  -3.64545 
 O                     4.70344  -0.70324  -3.83113 
 C                     4.63575   0.41142  -4.70564 
 H                     4.39595   0.07387  -5.73005 
 H                     5.59018   0.95666  -4.74429 
 C                     3.54896   1.36401  -4.2251 
 H                     3.34657   2.08911  -5.0223 
 H                     2.62522   0.79459  -4.04321 
 O                     3.92769   2.125    -3.08871 
 C                     3.69719   1.50613  -1.82461 
 H                     4.45455   1.89761  -1.1375 
 H                     3.8284    0.42079  -1.8868 
 C                     2.30732   1.87098  -1.29146 
 H                     1.52647   1.55485  -1.99977 
 H                     2.23372   2.95825  -1.18631 
 O                     2.09254   1.30949   0. 
 C                     1.53115   0.        0. 
 H                     1.90153  -0.49669   0.90221 
 H                     1.89002  -0.57004  -0.87174 
 C                     0.        0.        0. 
 H                    -0.35523  -1.02283  -0.17297 
 H                    -0.38673   0.61055  -0.8246 
 S                    -0.80648   0.48655   1.57814 
 C                    -0.5064    2.30023   1.63564 
 H                    -0.63828   2.5734    2.68755 
 H                     0.54032   2.47663   1.37414 
 C                    -1.42123   3.14262   0.7411 
 H                    -1.4229    2.75709  -0.28329 
 H                    -1.03924   4.16964   0.68838 
 S                    -3.18995   3.19737   1.24241 
 C                    -3.13496   4.45897   2.57897 
 H                    -2.26862   4.26774   3.22161 
 H                    -4.0283    4.2811    3.1852 
 C                    -3.12679   5.89543   2.05637 
 H                    -2.26551   6.06107   1.4016 
 H                    -4.03692   6.08747   1.47873 
 S                    -3.05729   7.06191   3.48266 
 C                    -3.30895   8.66902   2.62461 
 H                    -4.23188   8.6074    2.03633 
 H                    -3.49373   9.38108   3.43606 
 C                    -2.13558   9.13382   1.76264 
 H                    -1.22024   9.21483   2.35723 
 H                    -1.94238   8.44216   0.93577 
 H                    -2.35227   10.11738   1.3268 
 
 ITRead=  0  0  0  0  0  0  0  0  0  0  0  0  0  0  0  0  0  0  0  0
 ITRead=  0  0  0  0  0  0  0  0  0  0  0  0  0  0  0  0  0  0  0  0
 ITRead=  0  0  0  0  0  0  0  0  0  0
 MicOpt= -1 -1 -1 -1 -1 -1 -1 -1 -1 -1 -1 -1 -1 -1 -1 -1 -1 -1 -1 -1
 MicOpt= -1 -1 -1 -1 -1 -1 -1 -1 -1 -1 -1 -1 -1 -1 -1 -1 -1 -1 -1 -1
 MicOpt= -1 -1 -1 -1 -1 -1 -1 -1 -1 -1
 NAtoms=     50 NQM=       50 NQMF=       0 NMMI=      0 NMMIF=      0
                NMic=       0 NMicF=      0.
                          Input orientation:                          
 ---------------------------------------------------------------------
 Center     Atomic      Atomic             Coordinates (Angstroms)
 Number     Number       Type             X           Y           Z
 ---------------------------------------------------------------------
      1          6           0        7.108702   -1.261505   -3.771632
      2          1           0        7.448742   -0.369597   -4.308434
      3          1           0        7.153712   -1.052244   -2.697804
      4          1           0        7.811281   -2.072899   -3.995361
      5          6           0        5.692455   -1.667776   -4.174964
      6          1           0        5.644301   -1.882174   -5.255316
      7          1           0        5.400582   -2.581145   -3.645452
      8          8           0        4.703444   -0.703241   -3.831126
      9          6           0        4.635747    0.411424   -4.705635
     10          1           0        4.395948    0.073871   -5.730048
     11          1           0        5.590181    0.956655   -4.744286
     12          6           0        3.548956    1.364012   -4.225100
     13          1           0        3.346573    2.089113   -5.022300
     14          1           0        2.625216    0.794586   -4.043205
     15          8           0        3.927688    2.125003   -3.088706
     16          6           0        3.697188    1.506126   -1.824613
     17          1           0        4.454554    1.897608   -1.137504
     18          1           0        3.828403    0.420789   -1.886804
     19          6           0        2.307318    1.870976   -1.291464
     20          1           0        1.526467    1.554851   -1.999771
     21          1           0        2.233723    2.958249   -1.186308
     22          8           0        2.092540    1.309492    0.000000
     23          6           0        1.531153    0.000000    0.000000
     24          1           0        1.901526   -0.496691    0.902213
     25          1           0        1.890016   -0.570037   -0.871735
     26          6           0        0.000000    0.000000    0.000000
     27          1           0       -0.355228   -1.022831   -0.172969
     28          1           0       -0.386729    0.610546   -0.824601
     29         16           0       -0.806476    0.486551    1.578143
     30          6           0       -0.506397    2.300233    1.635643
     31          1           0       -0.638279    2.573402    2.687554
     32          1           0        0.540322    2.476631    1.374141
     33          6           0       -1.421230    3.142623    0.741100
     34          1           0       -1.422895    2.757088   -0.283289
     35          1           0       -1.039244    4.169641    0.688380
     36         16           0       -3.189946    3.197365    1.242409
     37          6           0       -3.134955    4.458973    2.578969
     38          1           0       -2.268619    4.267737    3.221613
     39          1           0       -4.028301    4.281099    3.185196
     40          6           0       -3.126794    5.895434    2.056372
     41          1           0       -2.265509    6.061074    1.401596
     42          1           0       -4.036921    6.087469    1.478730
     43         16           0       -3.057293    7.061914    3.482656
     44          6           0       -3.308949    8.669018    2.624610
     45          1           0       -4.231883    8.607395    2.036333
     46          1           0       -3.493729    9.381078    3.436058
     47          6           0       -2.135577    9.133818    1.762636
     48          1           0       -1.220241    9.214828    2.357234
     49          1           0       -1.942377    8.442165    0.935774
     50          1           0       -2.352273   10.117380    1.326803
 ---------------------------------------------------------------------
 Stoichiometry    C14H30O3S3
 Framework group  C1[X(C14H30O3S3)]
 Standard basis: 6-31G(d) (6D, 7F)
   372 basis functions,   752 primitive gaussians,   372 cartesian basis functions
    93 alpha electrons       93 beta electrons
 Requested convergence on RMS density matrix=1.00D-08 within  64 cycles.
 Requested convergence on MAX density matrix=1.00D-06.
 Requested convergence on             energy=1.00D-06.
 SCF Done:  E(RB3LYP) =  -1971.75015374     A.U. after   13 cycles
            NFock= 13  Conv=0.43D-08     -V/T= 2.0058
 Mulliken charges:
     1  C   -0.458285
     2  H    0.153063
     3  H    0.160533
     4  H    0.145725
     5  C   -0.016089
     6  H    0.121035
     7  H    0.146066
     8  O   -0.471725
     9  C   -0.019919
    10  H    0.114876
    11  H    0.137424
    12  C   -0.047521
    13  H    0.145060
    14  H    0.131562
    15  O   -0.475430
    16  C   -0.057312
    17  H    0.151011
    18  H    0.162593
    19  C   -0.053374
    20  H    0.122789
    21  H    0.150944
    22  O   -0.467830
    23  C   -0.025091
    24  H    0.165008
    25  H    0.132585
    26  C   -0.435169
    27  H    0.174598
    28  H    0.169372
    29  S    0.097567
    30  C   -0.421042
    31  H    0.177920
    32  H    0.208573
    33  C   -0.414304
    34  H    0.178133
    35  H    0.170145
    36  S    0.107665
    37  C   -0.437887
    38  H    0.183253
    39  H    0.194220
    40  C   -0.390483
    41  H    0.171949
    42  H    0.178094
    43  S    0.073558
    44  C   -0.407361
    45  H    0.168618
    46  H    0.176214
    47  C   -0.436479
    48  H    0.163650
    49  H    0.152236
    50  H    0.149260
 Sum of Mulliken charges =  -0.00000
 Dipole moment (field-independent basis, Debye):
    X=              2.5931    Y=              0.0539    Z=             -4.3358  Tot=              5.0523
 Quadrupole moment (field-independent basis, Debye-Ang):
   XX=           -146.3910   YY=           -130.0091   ZZ=           -144.2199
   XY=             -9.8878   XZ=             -5.0826   YZ=             -1.6916
 Traceless Quadrupole moment (field-independent basis, Debye-Ang):
   XX=             -6.1843   YY=             10.1976   ZZ=             -4.0133
   XY=             -9.8878   XZ=             -5.0826   YZ=             -1.6916
 Octapole moment (field-independent basis, Debye-Ang**2):
  XXX=           -111.0616  YYY=           -998.1817  ZZZ=            -65.2801  XYY=           -125.2616
  XXY=           -434.8053  XXZ=            -55.5278  XZZ=             13.4007  YZZ=           -441.6059
  YYZ=              2.4355  XYZ=             33.7352
 Hexadecapole moment (field-independent basis, Debye-Ang**3):
 XXXX=          -9863.5270 YYYY=         -12917.1986 ZZZZ=          -6079.5551 XXXY=           2693.4238
 XXXZ=           3301.6316 YYYX=           2191.1195 YYYZ=          -2301.2262 ZZZX=           3382.8248
 ZZZY=          -2675.4562 XXYY=          -4051.7050 XXZZ=          -2507.3858 YYZZ=          -3831.5726
 XXYZ=           -717.9796 YYXZ=           1245.1420 ZZXY=           1044.8405
 Merz-Kollman atomic radii used.
 Atom Element Radius
    1     6    1.50
    2     1    1.20
    3     1    1.20
    4     1    1.20
    5     6    1.50
    6     1    1.20
    7     1    1.20
    8     8    1.40
    9     6    1.50
   10     1    1.20
   11     1    1.20
   12     6    1.50
   13     1    1.20
   14     1    1.20
   15     8    1.40
   16     6    1.50
   17     1    1.20
   18     1    1.20
   19     6    1.50
   20     1    1.20
   21     1    1.20
   22     8    1.40
   23     6    1.50
   24     1    1.20
   25     1    1.20
   26     6    1.50
   27     1    1.20
   28     1    1.20
   29    16    1.75
   30     6    1.50
   31     1    1.20
   32     1    1.20
   33     6    1.50
   34     1    1.20
   35     1    1.20
   36    16    1.75
   37     6    1.50
   38     1    1.20
   39     1    1.20
   40     6    1.50
   41     1    1.20
   42     1    1.20
   43    16    1.75
   44     6    1.50
   45     1    1.20
   46     1    1.20
   47     6    1.50
   48     1    1.20
   49     1    1.20
   50     1    1.20
 Generate VDW surfaces: Layer= 4 Dens= 1 Start= 1.400 Inc= 0.200
            Electrostatic Properties Using The SCF Density.


       Atomic Center    1 is at   7.108702 -1.261505 -3.771632
       Atomic Center    2 is at   7.448742 -0.369597 -4.308434
       Atomic Center    3 is at   7.153712 -1.052244 -2.697804
       Atomic Center    4 is at   7.811281 -2.072899 -3.995361
       Atomic Center    5 is at   5.692455 -1.667776 -4.174964
       Atomic Center    6 is at   5.644301 -1.882174 -5.255316
       Atomic Center    7 is at   5.400582 -2.581145 -3.645452
       Atomic Center    8 is at   4.703444 -0.703241 -3.831126
       Atomic Center    9 is at   4.635747  0.411424 -4.705635
       Atomic Center   10 is at   4.395948  0.073871 -5.730048
       Atomic Center   11 is at   5.590181  0.956655 -4.744286
       Atomic Center   12 is at   3.548956  1.364012 -4.225100
       Atomic Center   13 is at   3.346573  2.089113 -5.022300
       Atomic Center   14 is at   2.625216  0.794586 -4.043205
       Atomic Center   15 is at   3.927688  2.125003 -3.088706
       Atomic Center   16 is at   3.697188  1.506126 -1.824613
       Atomic Center   17 is at   4.454554  1.897608 -1.137504
       Atomic Center   18 is at   3.828403  0.420789 -1.886804
       Atomic Center   19 is at   2.307318  1.870976 -1.291464
       Atomic Center   20 is at   1.526467  1.554851 -1.999771
       Atomic Center   21 is at   2.233723  2.958249 -1.186308
       Atomic Center   22 is at   2.092540  1.309492  0.000000
       Atomic Center   23 is at   1.531153  0.000000  0.000000
       Atomic Center   24 is at   1.901526 -0.496691  0.902213
       Atomic Center   25 is at   1.890016 -0.570037 -0.871735
       Atomic Center   26 is at   0.000000  0.000000  0.000000
       Atomic Center   27 is at  -0.355228 -1.022831 -0.172969
       Atomic Center   28 is at  -0.386729  0.610546 -0.824601
       Atomic Center   29 is at  -0.806476  0.486551  1.578143
       Atomic Center   30 is at  -0.506397  2.300233  1.635643
       Atomic Center   31 is at  -0.638279  2.573402  2.687554
       Atomic Center   32 is at   0.540322  2.476631  1.374141
       Atomic Center   33 is at  -1.421230  3.142623  0.741100
       Atomic Center   34 is at  -1.422895  2.757088 -0.283289
       Atomic Center   35 is at  -1.039244  4.169641  0.688380
       Atomic Center   36 is at  -3.189946  3.197365  1.242409
       Atomic Center   37 is at  -3.134955  4.458973  2.578969
       Atomic Center   38 is at  -2.268619  4.267737  3.221613
       Atomic Center   39 is at  -4.028301  4.281099  3.185196
       Atomic Center   40 is at  -3.126794  5.895434  2.056372
       Atomic Center   41 is at  -2.265509  6.061074  1.401596
       Atomic Center   42 is at  -4.036921  6.087469  1.478730
       Atomic Center   43 is at  -3.057293  7.061914  3.482656
       Atomic Center   44 is at  -3.308949  8.669018  2.624610
       Atomic Center   45 is at  -4.231883  8.607395  2.036333
       Atomic Center   46 is at  -3.493729  9.381078  3.436058
       Atomic Center   47 is at  -2.135577  9.133818  1.762636
       Atomic Center   48 is at  -1.220241  9.214828  2.357234
       Atomic Center   49 is at  -1.942377  8.442165  0.935774
       Atomic Center   50 is at  -2.352273 10.117380  1.326803
      ESP Fit Center   51 is at   8.927355 -1.261505 -2.721632
      ESP Fit Center   52 is at   6.849881 -3.061647 -2.721632
      ESP Fit Center   53 is at   8.158702 -1.261505 -5.590285
      ESP Fit Center   54 is at   7.108702 -1.261505 -5.871632
      ESP Fit Center   55 is at   7.753890  0.569552 -2.949285
      ESP Fit Center   56 is at   9.046517 -0.369597 -3.789285
      ESP Fit Center   57 is at   8.672709  0.657433 -3.789285
      ESP Fit Center   58 is at   7.726193  1.203904 -3.789285
      ESP Fit Center   59 is at   9.046517 -0.369597 -4.827583
      ESP Fit Center   60 is at   8.672709  0.657433 -4.827583
      ESP Fit Center   61 is at   7.726193  1.203904 -4.827583
      ESP Fit Center   62 is at   8.436221 -0.369597 -5.667583
      ESP Fit Center   63 is at   7.753890  0.569552 -5.667583
      ESP Fit Center   64 is at   7.448742 -0.369597 -5.988434
      ESP Fit Center   65 is at   7.153712 -1.052244 -1.017804
      ESP Fit Center   66 is at   8.141191 -1.052244 -1.338655
      ESP Fit Center   67 is at   7.458860 -0.113095 -1.338655
      ESP Fit Center   68 is at   6.354825 -0.471818 -1.338655
      ESP Fit Center   69 is at   6.354825 -1.632670 -1.338655
      ESP Fit Center   70 is at   7.458860 -1.991393 -1.338655
      ESP Fit Center   71 is at   8.751487 -1.052244 -2.178655
      ESP Fit Center   72 is at   8.377679 -0.025214 -2.178655
      ESP Fit Center   73 is at   7.431163  0.521257 -2.178655
      ESP Fit Center   74 is at   6.354825  0.331470 -2.178655
      ESP Fit Center   75 is at   6.354825 -2.435958 -2.178655
      ESP Fit Center   76 is at   7.431163 -2.625745 -2.178655
      ESP Fit Center   77 is at   8.377679 -2.079274 -2.178655
      ESP Fit Center   78 is at   8.798760 -2.072899 -2.636212
      ESP Fit Center   79 is at   8.116429 -3.012048 -2.636212
      ESP Fit Center   80 is at   9.409056 -2.072899 -3.476212
      ESP Fit Center   81 is at   7.012394 -3.456613 -3.476212
      ESP Fit Center   82 is at   8.088732 -3.646400 -3.476212
      ESP Fit Center   83 is at   9.035248 -3.099929 -3.476212
      ESP Fit Center   84 is at   9.409056 -2.072899 -4.514510
      ESP Fit Center   85 is at   7.012394 -3.456613 -4.514510
      ESP Fit Center   86 is at   8.088732 -3.646400 -4.514510
      ESP Fit Center   87 is at   9.035248 -3.099929 -4.514510
      ESP Fit Center   88 is at   8.798760 -2.072899 -5.354510
      ESP Fit Center   89 is at   8.116429 -3.012048 -5.354510
      ESP Fit Center   90 is at   7.811281 -2.072899 -5.675361
      ESP Fit Center   91 is at   5.692455 -1.667776 -2.074964
      ESP Fit Center   92 is at   3.947470 -2.180150 -5.224964
      ESP Fit Center   93 is at   7.242076 -1.882174 -5.774465
      ESP Fit Center   94 is at   4.142884 -2.428645 -5.774465
      ESP Fit Center   95 is at   4.845414 -3.265888 -5.774465
      ESP Fit Center   96 is at   5.921752 -3.455675 -5.774465
      ESP Fit Center   97 is at   6.868268 -2.909204 -5.774465
      ESP Fit Center   98 is at   6.631780 -1.882174 -6.614465
      ESP Fit Center   99 is at   5.949449 -0.943025 -6.614465
      ESP Fit Center  100 is at   4.845414 -1.301748 -6.614465
      ESP Fit Center  101 is at   4.845414 -2.462600 -6.614465
      ESP Fit Center  102 is at   5.949449 -2.821323 -6.614465
      ESP Fit Center  103 is at   5.644301 -1.882174 -6.935316
      ESP Fit Center  104 is at   5.400582 -2.581145 -1.965452
      ESP Fit Center  105 is at   6.388061 -2.581145 -2.286303
      ESP Fit Center  106 is at   4.601695 -2.000719 -2.286303
      ESP Fit Center  107 is at   4.601695 -3.161571 -2.286303
      ESP Fit Center  108 is at   5.705730 -3.520294 -2.286303
      ESP Fit Center  109 is at   3.899165 -3.127616 -3.126303
      ESP Fit Center  110 is at   4.601695 -3.964859 -3.126303
      ESP Fit Center  111 is at   5.678033 -4.154646 -3.126303
      ESP Fit Center  112 is at   6.624549 -3.608175 -3.126303
      ESP Fit Center  113 is at   3.899165 -3.127616 -4.164601
      ESP Fit Center  114 is at   4.601695 -3.964859 -4.164601
      ESP Fit Center  115 is at   5.678033 -4.154646 -4.164601
      ESP Fit Center  116 is at   6.624549 -3.608175 -4.164601
      ESP Fit Center  117 is at   4.213444 -1.551946 -2.133716
      ESP Fit Center  118 is at   5.193444 -1.551946 -2.133716
      ESP Fit Center  119 is at   3.006034 -0.703241 -2.851126
      ESP Fit Center  120 is at   3.330211 -1.700953 -2.851126
      ESP Fit Center  121 is at   3.006034 -1.683241 -3.831126
      ESP Fit Center  122 is at   3.723444 -2.400651 -3.831126
      ESP Fit Center  123 is at   3.330211 -1.700953 -4.811126
      ESP Fit Center  124 is at   2.894531  0.620342 -6.249197
      ESP Fit Center  125 is at   2.894531 -0.472600 -6.249197
      ESP Fit Center  126 is at   3.597061 -1.309843 -6.249197
      ESP Fit Center  127 is at   5.383427  0.073871 -7.089197
      ESP Fit Center  128 is at   4.701096  1.013020 -7.089197
      ESP Fit Center  129 is at   3.597061  0.654297 -7.089197
      ESP Fit Center  130 is at   3.597061 -0.506555 -7.089197
      ESP Fit Center  131 is at   4.701096 -0.865278 -7.089197
      ESP Fit Center  132 is at   4.395948  0.073871 -7.410048
      ESP Fit Center  133 is at   6.577660  0.956655 -3.385137
      ESP Fit Center  134 is at   5.895329  1.895804 -3.385137
      ESP Fit Center  135 is at   6.814148  1.983685 -4.225137
      ESP Fit Center  136 is at   5.867632  2.530156 -4.225137
      ESP Fit Center  137 is at   6.814148  1.983685 -5.263435
      ESP Fit Center  138 is at   5.867632  2.530156 -5.263435
      ESP Fit Center  139 is at   6.577660  0.956655 -6.103435
      ESP Fit Center  140 is at   5.895329  1.895804 -6.103435
      ESP Fit Center  141 is at   1.977083  2.756570 -4.225100
      ESP Fit Center  142 is at   3.624024  3.662614 -4.503151
      ESP Fit Center  143 is at   2.547686  3.472827 -4.503151
      ESP Fit Center  144 is at   1.845156  2.635584 -4.503151
      ESP Fit Center  145 is at   4.570540  3.116143 -5.541449
      ESP Fit Center  146 is at   3.624024  3.662614 -5.541449
      ESP Fit Center  147 is at   2.547686  3.472827 -5.541449
      ESP Fit Center  148 is at   1.845156  2.635584 -5.541449
      ESP Fit Center  149 is at   1.845156  1.542642 -5.541449
      ESP Fit Center  150 is at   4.334052  2.089113 -6.381449
      ESP Fit Center  151 is at   3.651721  3.028262 -6.381449
      ESP Fit Center  152 is at   2.547686  2.669539 -6.381449
      ESP Fit Center  153 is at   2.547686  1.508687 -6.381449
      ESP Fit Center  154 is at   3.346573  2.089113 -6.702300
      ESP Fit Center  155 is at   1.123799  0.248115 -3.524056
      ESP Fit Center  156 is at   1.826329 -0.589128 -3.524056
      ESP Fit Center  157 is at   1.123799  1.341057 -4.562354
      ESP Fit Center  158 is at   1.123799  0.248115 -4.562354
      ESP Fit Center  159 is at   1.826329 -0.589128 -4.562354
      ESP Fit Center  160 is at   1.826329  0.214160 -5.402354
      ESP Fit Center  161 is at   5.300921  3.122715 -2.108706
      ESP Fit Center  162 is at   4.452216  3.739336 -2.108706
      ESP Fit Center  163 is at   3.403160  3.739336 -2.108706
      ESP Fit Center  164 is at   5.887688  2.125003 -3.088706
      ESP Fit Center  165 is at   5.625098  3.105003 -3.088706
      ESP Fit Center  166 is at   4.907688  3.822413 -3.088706
      ESP Fit Center  167 is at   3.927688  4.085003 -3.088706
      ESP Fit Center  168 is at   2.947688  3.822413 -3.088706
      ESP Fit Center  169 is at   2.230278  3.105003 -3.088706
      ESP Fit Center  170 is at   5.300921  3.122715 -4.068706
      ESP Fit Center  171 is at   4.452216  3.739336 -4.068706
      ESP Fit Center  172 is at   3.403160  3.739336 -4.068706
      ESP Fit Center  173 is at   4.222188  0.596799 -0.005960
      ESP Fit Center  174 is at   5.556646  0.530207 -1.824613
      ESP Fit Center  175 is at   4.454554  1.897608  0.542496
      ESP Fit Center  176 is at   5.442033  1.897608  0.221645
      ESP Fit Center  177 is at   4.759702  2.836757  0.221645
      ESP Fit Center  178 is at   3.655667  2.478034  0.221645
      ESP Fit Center  179 is at   4.759702  0.958459  0.221645
      ESP Fit Center  180 is at   6.052329  1.897608 -0.618355
      ESP Fit Center  181 is at   5.678521  2.924638 -0.618355
      ESP Fit Center  182 is at   4.732005  3.471109 -0.618355
      ESP Fit Center  183 is at   5.678521  0.870578 -0.618355
      ESP Fit Center  184 is at   6.052329  1.897608 -1.656653
      ESP Fit Center  185 is at   5.678521  2.924638 -1.656653
      ESP Fit Center  186 is at   4.732005  3.471109 -1.656653
      ESP Fit Center  187 is at   4.133551 -0.518360 -0.527655
      ESP Fit Center  188 is at   4.105854 -1.152712 -1.367655
      ESP Fit Center  189 is at   5.052370 -0.606241 -1.367655
      ESP Fit Center  190 is at   3.029516 -0.962925 -2.405953
      ESP Fit Center  191 is at   0.727580  2.938565 -2.518920
      ESP Fit Center  192 is at   0.025050  2.101322 -2.518920
      ESP Fit Center  193 is at   0.025050  1.008380 -2.518920
      ESP Fit Center  194 is at   0.727580  0.171137 -2.518920
      ESP Fit Center  195 is at   1.803918 -0.018650 -2.518920
      ESP Fit Center  196 is at   1.831615  2.494000 -3.358920
      ESP Fit Center  197 is at   0.727580  2.135277 -3.358920
      ESP Fit Center  198 is at   0.727580  0.974425 -3.358920
      ESP Fit Center  199 is at   2.538871  3.897398  0.172841
      ESP Fit Center  200 is at   1.434836  3.538675  0.172841
      ESP Fit Center  201 is at   3.457690  3.985279 -0.667159
      ESP Fit Center  202 is at   2.511174  4.531750 -0.667159
      ESP Fit Center  203 is at   1.434836  4.341963 -0.667159
      ESP Fit Center  204 is at   0.732306  3.504720 -0.667159
      ESP Fit Center  205 is at   3.457690  3.985279 -1.705457
      ESP Fit Center  206 is at   2.511174  4.531750 -1.705457
      ESP Fit Center  207 is at   1.434836  4.341963 -1.705457
      ESP Fit Center  208 is at   0.732306  3.504720 -1.705457
      ESP Fit Center  209 is at   2.538871  3.897398 -2.545457
      ESP Fit Center  210 is at   1.434836  3.538675 -2.545457
      ESP Fit Center  211 is at   2.092540  1.309492  1.960000
      ESP Fit Center  212 is at   3.072540  1.309492  1.697410
      ESP Fit Center  213 is at   2.582540  2.158197  1.697410
      ESP Fit Center  214 is at   3.789950  1.309492  0.980000
      ESP Fit Center  215 is at   3.465773  2.307204  0.980000
      ESP Fit Center  216 is at   2.617068  2.923825  0.980000
      ESP Fit Center  217 is at   3.465773  0.311780  0.980000
      ESP Fit Center  218 is at   3.789950  0.329492  0.000000
      ESP Fit Center  219 is at   3.631153  0.000000  0.000000
      ESP Fit Center  220 is at   1.784280 -2.084689  0.000000
      ESP Fit Center  221 is at   3.390611 -0.975919  0.000000
      ESP Fit Center  222 is at   1.901526 -0.496691  2.582213
      ESP Fit Center  223 is at   2.889005 -0.496691  2.261362
      ESP Fit Center  224 is at   2.206674  0.442458  2.261362
      ESP Fit Center  225 is at   1.102639 -1.077117  2.261362
      ESP Fit Center  226 is at   2.206674 -1.435840  2.261362
      ESP Fit Center  227 is at   3.499301 -0.496691  1.421362
      ESP Fit Center  228 is at   1.102639 -1.880405  1.421362
      ESP Fit Center  229 is at   2.178977 -2.070192  1.421362
      ESP Fit Center  230 is at   3.125493 -1.523721  1.421362
      ESP Fit Center  231 is at   2.178977 -2.070192  0.383064
      ESP Fit Center  232 is at   3.125493 -1.523721  0.383064
      ESP Fit Center  233 is at   2.167467 -2.143538 -0.352586
      ESP Fit Center  234 is at   3.113983 -1.597067 -0.352586
      ESP Fit Center  235 is at   1.091129 -1.953751 -1.390884
      ESP Fit Center  236 is at   2.167467 -2.143538 -1.390884
      ESP Fit Center  237 is at   3.113983 -1.597067 -1.390884
      ESP Fit Center  238 is at   1.091129 -1.150463 -2.230884
      ESP Fit Center  239 is at   2.195164 -1.509186 -2.230884
      ESP Fit Center  240 is at   1.890016 -0.570037 -2.551735
      ESP Fit Center  241 is at  -1.744985 -0.512374 -1.050000
      ESP Fit Center  242 is at   0.525000 -0.909327 -1.818653
      ESP Fit Center  243 is at  -0.050080 -1.961980  1.186180
      ESP Fit Center  244 is at  -1.856645 -1.569302  0.346180
      ESP Fit Center  245 is at  -1.154115 -2.406545  0.346180
      ESP Fit Center  246 is at  -0.077777 -2.596332  0.346180
      ESP Fit Center  247 is at   0.868739 -2.049861  0.346180
      ESP Fit Center  248 is at  -1.856645 -1.569302 -0.692118
      ESP Fit Center  249 is at  -1.154115 -2.406545 -0.692118
      ESP Fit Center  250 is at  -0.077777 -2.596332 -0.692118
      ESP Fit Center  251 is at   0.868739 -2.049861 -0.692118
      ESP Fit Center  252 is at  -1.154115 -1.603257 -1.532118
      ESP Fit Center  253 is at  -0.050080 -1.961980 -1.532118
      ESP Fit Center  254 is at  -0.355228 -1.022831 -1.852969
      ESP Fit Center  255 is at  -0.109278  2.184047 -1.343750
      ESP Fit Center  256 is at  -1.888146  1.157017 -1.343750
      ESP Fit Center  257 is at  -1.888146  0.064075 -1.343750
      ESP Fit Center  258 is at  -1.185616  1.190972 -2.183750
      ESP Fit Center  259 is at  -1.185616  0.030120 -2.183750
      ESP Fit Center  260 is at  -0.081581 -0.328603 -2.183750
      ESP Fit Center  261 is at  -0.386729  0.610546 -2.504601
      ESP Fit Center  262 is at  -0.806476  0.486551  4.028143
      ESP Fit Center  263 is at   0.256539  0.486551  3.785517
      ESP Fit Center  264 is at  -1.337984  1.407149  3.785517
      ESP Fit Center  265 is at  -1.869491  0.486551  3.785517
      ESP Fit Center  266 is at  -1.337984 -0.434047  3.785517
      ESP Fit Center  267 is at  -0.274968 -0.434047  3.785517
      ESP Fit Center  268 is at   1.109011  0.486551  3.105693
      ESP Fit Center  269 is at   0.804934  1.522142  3.105693
      ESP Fit Center  270 is at  -2.644372  1.026206  3.105693
      ESP Fit Center  271 is at  -2.644372 -0.053104  3.105693
      ESP Fit Center  272 is at  -2.060853 -0.961078  3.105693
      ESP Fit Center  273 is at  -1.079078 -1.409439  3.105693
      ESP Fit Center  274 is at  -0.010754 -1.255837  3.105693
      ESP Fit Center  275 is at   0.804934 -0.549040  3.105693
      ESP Fit Center  276 is at  -3.195049  0.486551  2.123319
      ESP Fit Center  277 is at  -2.958506 -0.549812  2.123319
      ESP Fit Center  278 is at  -2.295727 -1.380911  2.123319
      ESP Fit Center  279 is at  -1.337984 -1.842136  2.123319
      ESP Fit Center  280 is at  -0.274968 -1.842136  2.123319
      ESP Fit Center  281 is at   0.682775 -1.380911  2.123319
      ESP Fit Center  282 is at  -3.195049  0.486551  1.032967
      ESP Fit Center  283 is at  -2.958506 -0.549812  1.032967
      ESP Fit Center  284 is at  -2.295727 -1.380911  1.032967
      ESP Fit Center  285 is at  -1.337984 -1.842136  1.032967
      ESP Fit Center  286 is at  -2.644372  1.026206  0.050593
      ESP Fit Center  287 is at  -2.644372 -0.053104  0.050593
      ESP Fit Center  288 is at  -2.060853 -0.961078  0.050593
      ESP Fit Center  289 is at  -0.638279  2.573402  4.367554
      ESP Fit Center  290 is at   0.349200  2.573402  4.046703
      ESP Fit Center  291 is at  -0.333131  3.512551  4.046703
      ESP Fit Center  292 is at  -1.437166  1.992976  4.046703
      ESP Fit Center  293 is at  -0.333131  1.634253  4.046703
      ESP Fit Center  294 is at   0.959496  2.573402  3.206703
      ESP Fit Center  295 is at   0.585688  3.600432  3.206703
      ESP Fit Center  296 is at  -0.360828  4.146903  3.206703
      ESP Fit Center  297 is at  -2.139696  2.026931  3.206703
      ESP Fit Center  298 is at   1.527801  2.476631  2.733290
      ESP Fit Center  299 is at   2.138097  2.476631  1.893290
      ESP Fit Center  300 is at   1.764289  3.503661  1.893290
      ESP Fit Center  301 is at   0.817773  4.050132  1.893290
      ESP Fit Center  302 is at   1.764289  3.503661  0.854992
      ESP Fit Center  303 is at   0.817773  4.050132  0.854992
      ESP Fit Center  304 is at   0.845470  3.415780  0.014992
      ESP Fit Center  305 is at   0.540322  2.476631 -0.305859
      ESP Fit Center  306 is at   0.397423  3.142623 -0.308900
      ESP Fit Center  307 is at   0.174880  2.757088 -0.802438
      ESP Fit Center  308 is at  -2.221782  1.373374 -0.802438
      ESP Fit Center  309 is at  -0.435416  2.757088 -1.642438
      ESP Fit Center  310 is at  -1.117747  3.696237 -1.642438
      ESP Fit Center  311 is at  -2.221782  3.337514 -1.642438
      ESP Fit Center  312 is at  -2.221782  2.176662 -1.642438
      ESP Fit Center  313 is at  -1.422895  2.757088 -1.963289
      ESP Fit Center  314 is at  -0.734096  5.108790  2.047529
      ESP Fit Center  315 is at   0.558531  4.169641  1.207529
      ESP Fit Center  316 is at   0.184723  5.196671  1.207529
      ESP Fit Center  317 is at   0.558531  4.169641  0.169231
      ESP Fit Center  318 is at   0.184723  5.196671  0.169231
      ESP Fit Center  319 is at  -0.761793  5.743142  0.169231
      ESP Fit Center  320 is at  -0.051765  4.169641 -0.670769
      ESP Fit Center  321 is at  -0.734096  5.108790 -0.670769
      ESP Fit Center  322 is at  -1.838131  4.750067 -0.670769
      ESP Fit Center  323 is at  -3.721454  2.276767  3.449783
      ESP Fit Center  324 is at  -2.658438  2.276767  3.449783
      ESP Fit Center  325 is at  -5.027842  2.657710  2.769959
      ESP Fit Center  326 is at  -4.444323  1.749736  2.769959
      ESP Fit Center  327 is at  -3.462548  1.301375  2.769959
      ESP Fit Center  328 is at  -5.341976  4.233728  1.787585
      ESP Fit Center  329 is at  -5.578519  3.197365  1.787585
      ESP Fit Center  330 is at  -5.341976  2.161002  1.787585
      ESP Fit Center  331 is at  -4.679197  1.329903  1.787585
      ESP Fit Center  332 is at  -3.721454  0.868678  1.787585
      ESP Fit Center  333 is at  -5.341976  4.233728  0.697233
      ESP Fit Center  334 is at  -5.578519  3.197365  0.697233
      ESP Fit Center  335 is at  -5.341976  2.161002  0.697233
      ESP Fit Center  336 is at  -4.679197  1.329903  0.697233
      ESP Fit Center  337 is at  -3.721454  0.868678  0.697233
      ESP Fit Center  338 is at  -2.394224  4.939753 -0.285141
      ESP Fit Center  339 is at  -3.462548  5.093355 -0.285141
      ESP Fit Center  340 is at  -4.444323  4.644994 -0.285141
      ESP Fit Center  341 is at  -5.027842  3.737020 -0.285141
      ESP Fit Center  342 is at  -5.027842  2.657710 -0.285141
      ESP Fit Center  343 is at  -4.444323  1.749736 -0.285141
      ESP Fit Center  344 is at  -3.462548  1.301375 -0.285141
      ESP Fit Center  345 is at  -2.658438  4.117963 -0.964965
      ESP Fit Center  346 is at  -3.721454  4.117963 -0.964965
      ESP Fit Center  347 is at  -4.252961  3.197365 -0.964965
      ESP Fit Center  348 is at  -3.721454  2.276767 -0.964965
      ESP Fit Center  349 is at  -3.189946  3.197365 -1.207591
      ESP Fit Center  350 is at  -3.134955  4.458973  4.678969
      ESP Fit Center  351 is at  -3.393776  2.658831  3.628969
      ESP Fit Center  352 is at  -2.268619  4.267737  4.901613
      ESP Fit Center  353 is at  -1.281140  4.267737  4.580762
      ESP Fit Center  354 is at  -3.067506  3.687311  4.580762
      ESP Fit Center  355 is at  -1.963471  3.328588  4.580762
      ESP Fit Center  356 is at  -0.670844  4.267737  3.740762
      ESP Fit Center  357 is at  -1.044652  5.294767  3.740762
      ESP Fit Center  358 is at  -1.991168  2.694236  3.740762
      ESP Fit Center  359 is at  -0.670844  4.267737  2.702464
      ESP Fit Center  360 is at  -1.044652  5.294767  2.702464
      ESP Fit Center  361 is at  -4.028301  4.281099  4.865196
      ESP Fit Center  362 is at  -4.827188  4.861525  4.544345
      ESP Fit Center  363 is at  -4.827188  3.700673  4.544345
      ESP Fit Center  364 is at  -3.723153  3.341950  4.544345
      ESP Fit Center  365 is at  -5.529718  4.827570  3.704345
      ESP Fit Center  366 is at  -5.529718  3.734628  3.704345
      ESP Fit Center  367 is at  -4.827188  2.897385  3.704345
      ESP Fit Center  368 is at  -3.750850  2.707598  3.704345
      ESP Fit Center  369 is at  -5.529718  4.827570  2.666047
      ESP Fit Center  370 is at  -5.529718  3.734628  2.666047
      ESP Fit Center  371 is at  -3.126794  5.895434 -0.043628
      ESP Fit Center  372 is at  -0.667734  6.061074  1.920745
      ESP Fit Center  373 is at  -1.041542  7.088104  1.920745
      ESP Fit Center  374 is at  -0.667734  6.061074  0.882447
      ESP Fit Center  375 is at  -1.278030  6.061074  0.042447
      ESP Fit Center  376 is at  -1.960361  7.000223  0.042447
      ESP Fit Center  377 is at  -3.064396  6.641500  0.042447
      ESP Fit Center  378 is at  -2.265509  6.061074 -0.278404
      ESP Fit Center  379 is at  -5.538338  6.633940  1.997879
      ESP Fit Center  380 is at  -5.538338  5.540998  1.997879
      ESP Fit Center  381 is at  -5.538338  6.633940  0.959581
      ESP Fit Center  382 is at  -5.538338  5.540998  0.959581
      ESP Fit Center  383 is at  -3.731773  7.026618  0.119581
      ESP Fit Center  384 is at  -4.835808  6.667895  0.119581
      ESP Fit Center  385 is at  -4.835808  5.507043  0.119581
      ESP Fit Center  386 is at  -4.036921  6.087469 -0.201270
      ESP Fit Center  387 is at  -3.057293  7.061914  5.932656
      ESP Fit Center  388 is at  -1.994278  7.061914  5.690030
      ESP Fit Center  389 is at  -2.525785  7.982512  5.690030
      ESP Fit Center  390 is at  -3.588801  7.982512  5.690030
      ESP Fit Center  391 is at  -4.120308  7.061914  5.690030
      ESP Fit Center  392 is at  -3.588801  6.141316  5.690030
      ESP Fit Center  393 is at  -2.525785  6.141316  5.690030
      ESP Fit Center  394 is at  -1.141806  7.061914  5.010206
      ESP Fit Center  395 is at  -1.445883  8.097505  5.010206
      ESP Fit Center  396 is at  -2.261571  8.804302  5.010206
      ESP Fit Center  397 is at  -4.311670  8.509543  5.010206
      ESP Fit Center  398 is at  -4.895189  7.601569  5.010206
      ESP Fit Center  399 is at  -4.895189  6.522259  5.010206
      ESP Fit Center  400 is at  -4.311670  5.614285  5.010206
      ESP Fit Center  401 is at  -3.329895  5.165924  5.010206
      ESP Fit Center  402 is at  -2.261571  5.319526  5.010206
      ESP Fit Center  403 is at  -1.445883  6.026323  5.010206
      ESP Fit Center  404 is at  -0.668720  7.061914  4.027832
      ESP Fit Center  405 is at  -0.905263  8.098277  4.027832
      ESP Fit Center  406 is at  -1.568042  8.929376  4.027832
      ESP Fit Center  407 is at  -5.209323  8.098277  4.027832
      ESP Fit Center  408 is at  -5.445866  7.061914  4.027832
      ESP Fit Center  409 is at  -5.209323  6.025551  4.027832
      ESP Fit Center  410 is at  -0.905263  6.025551  4.027832
      ESP Fit Center  411 is at  -0.668720  7.061914  2.937480
      ESP Fit Center  412 is at  -5.445866  7.061914  2.937480
      ESP Fit Center  413 is at  -5.209323  6.025551  2.937480
      ESP Fit Center  414 is at  -0.905263  6.025551  2.937480
      ESP Fit Center  415 is at  -4.880822 10.061576  2.624610
      ESP Fit Center  416 is at  -5.030770  9.991109  2.555482
      ESP Fit Center  417 is at  -5.733300  9.153866  2.555482
      ESP Fit Center  418 is at  -5.733300  8.060924  2.555482
      ESP Fit Center  419 is at  -5.030770  9.991109  1.517184
      ESP Fit Center  420 is at  -5.733300  9.153866  1.517184
      ESP Fit Center  421 is at  -5.733300  8.060924  1.517184
      ESP Fit Center  422 is at  -3.926735  9.546544  0.677184
      ESP Fit Center  423 is at  -5.030770  9.187821  0.677184
      ESP Fit Center  424 is at  -5.030770  8.026969  0.677184
      ESP Fit Center  425 is at  -3.926735  7.668246  0.677184
      ESP Fit Center  426 is at  -4.231883  8.607395  0.356333
      ESP Fit Center  427 is at  -3.493729  9.381078  5.116058
      ESP Fit Center  428 is at  -2.506250  9.381078  4.795207
      ESP Fit Center  429 is at  -3.188581 10.320227  4.795207
      ESP Fit Center  430 is at  -4.292616  9.961504  4.795207
      ESP Fit Center  431 is at  -4.292616  8.800652  4.795207
      ESP Fit Center  432 is at  -2.269762 10.408108  3.955207
      ESP Fit Center  433 is at  -3.216278 10.954579  3.955207
      ESP Fit Center  434 is at  -4.292616 10.764792  3.955207
      ESP Fit Center  435 is at  -4.995146  9.927549  3.955207
      ESP Fit Center  436 is at  -4.995146  8.834607  3.955207
      ESP Fit Center  437 is at  -3.216278 10.954579  2.916909
      ESP Fit Center  438 is at  -4.292616 10.764792  2.916909
      ESP Fit Center  439 is at  -4.995146  9.927549  2.916909
      ESP Fit Center  440 is at  -2.394398 10.933960  2.812636
      ESP Fit Center  441 is at  -0.316924  9.133818  0.712636
      ESP Fit Center  442 is at  -0.605628 10.117056  0.712636
      ESP Fit Center  443 is at  -3.880562  9.646192  0.712636
      ESP Fit Center  444 is at  -3.185577  9.133818 -0.056017
      ESP Fit Center  445 is at  -1.220241  9.214828  4.037234
      ESP Fit Center  446 is at  -0.232762  9.214828  3.716383
      ESP Fit Center  447 is at  -0.915093 10.153977  3.716383
      ESP Fit Center  448 is at  -0.915093  8.275679  3.716383
      ESP Fit Center  449 is at   0.377534  9.214828  2.876383
      ESP Fit Center  450 is at   0.003726 10.241858  2.876383
      ESP Fit Center  451 is at  -0.942790 10.788329  2.876383
      ESP Fit Center  452 is at   0.003726  8.187798  2.876383
      ESP Fit Center  453 is at   0.377534  9.214828  1.838085
      ESP Fit Center  454 is at   0.003726 10.241858  1.838085
      ESP Fit Center  455 is at   0.003726  8.187798  1.838085
      ESP Fit Center  456 is at  -0.718410  7.415135  1.454923
      ESP Fit Center  457 is at  -0.344602  8.442165  0.416625
      ESP Fit Center  458 is at  -3.443794  7.895694  0.416625
      ESP Fit Center  459 is at  -0.718410  7.415135  0.416625
      ESP Fit Center  460 is at  -0.954898  8.442165 -0.423375
      ESP Fit Center  461 is at  -1.637229  9.381314 -0.423375
      ESP Fit Center  462 is at  -2.741264  9.022591 -0.423375
      ESP Fit Center  463 is at  -2.741264  7.861739 -0.423375
      ESP Fit Center  464 is at  -1.637229  7.503016 -0.423375
      ESP Fit Center  465 is at  -1.942377  8.442165 -0.744226
      ESP Fit Center  466 is at  -2.047125 11.056529  2.685952
      ESP Fit Center  467 is at  -1.128306 11.144410  1.845952
      ESP Fit Center  468 is at  -2.074822 11.690881  1.845952
      ESP Fit Center  469 is at  -3.151160 11.501094  1.845952
      ESP Fit Center  470 is at  -3.853690 10.663851  1.845952
      ESP Fit Center  471 is at  -1.128306 11.144410  0.807654
      ESP Fit Center  472 is at  -2.074822 11.690881  0.807654
      ESP Fit Center  473 is at  -3.151160 11.501094  0.807654
      ESP Fit Center  474 is at  -3.853690 10.663851  0.807654
      ESP Fit Center  475 is at  -1.364794 10.117380 -0.032346
      ESP Fit Center  476 is at  -2.047125 11.056529 -0.032346
      ESP Fit Center  477 is at  -3.151160 10.697806 -0.032346
      ESP Fit Center  478 is at  -3.151160  9.536954 -0.032346
      ESP Fit Center  479 is at  -2.352273 10.117380 -0.353197
      ESP Fit Center  480 is at   6.841663 -3.118802 -2.275256
      ESP Fit Center  481 is at   7.888185 -2.968334 -2.275256
      ESP Fit Center  482 is at   8.687226 -2.275961 -2.275256
      ESP Fit Center  483 is at   9.448529 -1.261505 -3.237582
      ESP Fit Center  484 is at   9.216813 -0.246292 -3.237582
      ESP Fit Center  485 is at   8.150023 -1.261505 -5.933957
      ESP Fit Center  486 is at   7.629362 -2.163315 -5.933957
      ESP Fit Center  487 is at   8.793950  0.607754 -3.348434
      ESP Fit Center  488 is at   7.962566  1.211790 -3.348434
      ESP Fit Center  489 is at   6.934918  1.211790 -3.348434
      ESP Fit Center  490 is at   9.368742 -0.369597 -4.308434
      ESP Fit Center  491 is at   9.111511  0.590403 -4.308434
      ESP Fit Center  492 is at   8.408742  1.293172 -4.308434
      ESP Fit Center  493 is at   7.448742  1.550403 -4.308434
      ESP Fit Center  494 is at   9.111511 -0.369597 -5.268434
      ESP Fit Center  495 is at   8.793950  0.607754 -5.268434
      ESP Fit Center  496 is at   7.962566  1.211790 -5.268434
      ESP Fit Center  497 is at   8.408742 -0.369597 -5.971203
      ESP Fit Center  498 is at   7.928742  0.461787 -5.971203
      ESP Fit Center  499 is at   7.448742 -0.369597 -6.228434
      ESP Fit Center  500 is at   7.153712 -1.052244 -0.777804
      ESP Fit Center  501 is at   8.113712 -1.052244 -1.035035
      ESP Fit Center  502 is at   7.633712 -0.220860 -1.035035
      ESP Fit Center  503 is at   6.673712 -0.220860 -1.035035
      ESP Fit Center  504 is at   6.193712 -1.052244 -1.035035
      ESP Fit Center  505 is at   6.673712 -1.883628 -1.035035
      ESP Fit Center  506 is at   7.633712 -1.883628 -1.035035
      ESP Fit Center  507 is at   8.816481 -1.052244 -1.737804
      ESP Fit Center  508 is at   8.498920 -0.074893 -1.737804
      ESP Fit Center  509 is at   7.667536  0.529143 -1.737804
      ESP Fit Center  510 is at   6.639888  0.529143 -1.737804
      ESP Fit Center  511 is at   5.808504 -0.074893 -1.737804
      ESP Fit Center  512 is at   5.490943 -1.052244 -1.737804
      ESP Fit Center  513 is at   5.808504 -2.029595 -1.737804
      ESP Fit Center  514 is at   6.639888 -2.633631 -1.737804
      ESP Fit Center  515 is at   7.667536 -2.633631 -1.737804
      ESP Fit Center  516 is at   8.498920 -2.029595 -1.737804
      ESP Fit Center  517 is at   8.291281 -2.904283 -2.332592
      ESP Fit Center  518 is at   9.474050 -2.072899 -3.035361
      ESP Fit Center  519 is at   7.297457 -3.654286 -3.035361
      ESP Fit Center  520 is at   8.325105 -3.654286 -3.035361
      ESP Fit Center  521 is at   9.156489 -3.050250 -3.035361
      ESP Fit Center  522 is at   9.731281 -2.072899 -3.995361
      ESP Fit Center  523 is at   7.811281 -3.992899 -3.995361
      ESP Fit Center  524 is at   8.771281 -3.735668 -3.995361
      ESP Fit Center  525 is at   9.474050 -3.032899 -3.995361
      ESP Fit Center  526 is at   9.474050 -2.072899 -4.955361
      ESP Fit Center  527 is at   7.297457 -3.654286 -4.955361
      ESP Fit Center  528 is at   8.325105 -3.654286 -4.955361
      ESP Fit Center  529 is at   9.156489 -3.050250 -4.955361
      ESP Fit Center  530 is at   8.771281 -2.072899 -5.658130
      ESP Fit Center  531 is at   7.331281 -2.904283 -5.658130
      ESP Fit Center  532 is at   8.291281 -2.904283 -5.658130
      ESP Fit Center  533 is at   3.584344 -2.682989 -4.709014
      ESP Fit Center  534 is at   7.307070 -1.882174 -6.215316
      ESP Fit Center  535 is at   6.989509 -0.904823 -6.215316
      ESP Fit Center  536 is at   3.981532 -1.882174 -6.215316
      ESP Fit Center  537 is at   4.299093 -2.859525 -6.215316
      ESP Fit Center  538 is at   5.130477 -3.463561 -6.215316
      ESP Fit Center  539 is at   6.158125 -3.463561 -6.215316
      ESP Fit Center  540 is at   6.989509 -2.859525 -6.215316
      ESP Fit Center  541 is at   6.604301 -1.882174 -6.918085
      ESP Fit Center  542 is at   6.124301 -1.050790 -6.918085
      ESP Fit Center  543 is at   4.684301 -1.882174 -6.918085
      ESP Fit Center  544 is at   5.164301 -2.713558 -6.918085
      ESP Fit Center  545 is at   6.124301 -2.713558 -6.918085
      ESP Fit Center  546 is at   5.644301 -1.882174 -7.175316
      ESP Fit Center  547 is at   5.400582 -2.581145 -1.725452
      ESP Fit Center  548 is at   4.440582 -2.581145 -1.982683
      ESP Fit Center  549 is at   4.920582 -3.412529 -1.982683
      ESP Fit Center  550 is at   5.880582 -3.412529 -1.982683
      ESP Fit Center  551 is at   3.737813 -2.581145 -2.685452
      ESP Fit Center  552 is at   4.055374 -3.558496 -2.685452
      ESP Fit Center  553 is at   4.886758 -4.162532 -2.685452
      ESP Fit Center  554 is at   5.914406 -4.162532 -2.685452
      ESP Fit Center  555 is at   6.745790 -3.558496 -2.685452
      ESP Fit Center  556 is at   3.480582 -2.581145 -3.645452
      ESP Fit Center  557 is at   3.737813 -3.541145 -3.645452
      ESP Fit Center  558 is at   4.440582 -4.243914 -3.645452
      ESP Fit Center  559 is at   5.400582 -4.501145 -3.645452
      ESP Fit Center  560 is at   6.360582 -4.243914 -3.645452
      ESP Fit Center  561 is at   4.055374 -3.558496 -4.605452
      ESP Fit Center  562 is at   4.886758 -4.162532 -4.605452
      ESP Fit Center  563 is at   5.914406 -4.162532 -4.605452
      ESP Fit Center  564 is at   4.217494 -1.544931 -1.812956
      ESP Fit Center  565 is at   5.189394 -1.544931 -1.812956
      ESP Fit Center  566 is at   3.286610 -1.732631 -2.434509
      ESP Fit Center  567 is at   2.583064 -1.225868 -3.332679
      ESP Fit Center  568 is at   3.068817 -2.151394 -3.332679
      ESP Fit Center  569 is at   2.583064 -1.225868 -4.329573
      ESP Fit Center  570 is at   3.068817 -2.151394 -4.329573
      ESP Fit Center  571 is at   3.286610 -1.732631 -5.227743
      ESP Fit Center  572 is at   2.733179 -0.886129 -5.730048
      ESP Fit Center  573 is at   3.435948 -1.588898 -5.730048
      ESP Fit Center  574 is at   6.058717  0.073871 -6.690048
      ESP Fit Center  575 is at   3.050740  1.051222 -6.690048
      ESP Fit Center  576 is at   2.733179  0.073871 -6.690048
      ESP Fit Center  577 is at   3.050740 -0.903480 -6.690048
      ESP Fit Center  578 is at   3.882124 -1.507516 -6.690048
      ESP Fit Center  579 is at   5.355948  0.073871 -7.392817
      ESP Fit Center  580 is at   4.875948  0.905255 -7.392817
      ESP Fit Center  581 is at   3.915948  0.905255 -7.392817
      ESP Fit Center  582 is at   3.435948  0.073871 -7.392817
      ESP Fit Center  583 is at   3.915948 -0.757513 -7.392817
      ESP Fit Center  584 is at   4.875948 -0.757513 -7.392817
      ESP Fit Center  585 is at   4.395948  0.073871 -7.650048
      ESP Fit Center  586 is at   6.935389  1.934006 -3.784286
      ESP Fit Center  587 is at   6.104005  2.538042 -3.784286
      ESP Fit Center  588 is at   7.252950  1.916655 -4.744286
      ESP Fit Center  589 is at   6.550181  2.619424 -4.744286
      ESP Fit Center  590 is at   5.590181  2.876655 -4.744286
      ESP Fit Center  591 is at   7.252950  0.956655 -5.704286
      ESP Fit Center  592 is at   6.935389  1.934006 -5.704286
      ESP Fit Center  593 is at   6.104005  2.538042 -5.704286
      ESP Fit Center  594 is at   6.550181  0.956655 -6.407055
      ESP Fit Center  595 is at   6.070181  1.788039 -6.407055
      ESP Fit Center  596 is at   5.007814  3.193362 -4.759150
      ESP Fit Center  597 is at   1.440845  2.379225 -4.759150
      ESP Fit Center  598 is at   4.306573  3.751882 -5.022300
      ESP Fit Center  599 is at   3.346573  4.009113 -5.022300
      ESP Fit Center  600 is at   2.386573  3.751882 -5.022300
      ESP Fit Center  601 is at   1.683804  3.049113 -5.022300
      ESP Fit Center  602 is at   4.691781  3.066464 -5.982300
      ESP Fit Center  603 is at   3.860397  3.670500 -5.982300
      ESP Fit Center  604 is at   2.832749  3.670500 -5.982300
      ESP Fit Center  605 is at   2.001365  3.066464 -5.982300
      ESP Fit Center  606 is at   1.683804  2.089113 -5.982300
      ESP Fit Center  607 is at   4.306573  2.089113 -6.685069
      ESP Fit Center  608 is at   3.826573  2.920497 -6.685069
      ESP Fit Center  609 is at   2.866573  2.920497 -6.685069
      ESP Fit Center  610 is at   2.386573  2.089113 -6.685069
      ESP Fit Center  611 is at   2.866573  1.257729 -6.685069
      ESP Fit Center  612 is at   3.346573  2.089113 -6.942300
      ESP Fit Center  613 is at   1.280008 -0.182765 -3.083205
      ESP Fit Center  614 is at   2.111392 -0.786801 -3.083205
      ESP Fit Center  615 is at   0.962447  1.754586 -4.043205
      ESP Fit Center  616 is at   0.705216  0.794586 -4.043205
      ESP Fit Center  617 is at   0.962447 -0.165414 -4.043205
      ESP Fit Center  618 is at   1.665216 -0.868183 -4.043205
      ESP Fit Center  619 is at   1.280008  1.771937 -5.003205
      ESP Fit Center  620 is at   0.962447  0.794586 -5.003205
      ESP Fit Center  621 is at   1.280008 -0.182765 -5.003205
      ESP Fit Center  622 is at   2.111392 -0.786801 -5.003205
      ESP Fit Center  623 is at   1.665216  0.794586 -5.705974
      ESP Fit Center  624 is at   2.145216 -0.036798 -5.705974
      ESP Fit Center  625 is at   4.468870  3.790591 -1.692089
      ESP Fit Center  626 is at   6.111527  2.125003 -2.590259
      ESP Fit Center  627 is at   5.861381  3.139883 -2.590259
      ESP Fit Center  628 is at   5.168250  3.922267 -2.590259
      ESP Fit Center  629 is at   4.190921  4.292919 -2.590259
      ESP Fit Center  630 is at   3.153288  4.166927 -2.590259
      ESP Fit Center  631 is at   5.861381  3.139883 -3.587153
      ESP Fit Center  632 is at   5.168250  3.922267 -3.587153
      ESP Fit Center  633 is at   4.190921  4.292919 -3.587153
      ESP Fit Center  634 is at   3.153288  4.166927 -3.587153
      ESP Fit Center  635 is at   2.293061  3.573156 -3.587153
      ESP Fit Center  636 is at   5.344522  3.154393 -4.485323
      ESP Fit Center  637 is at   4.468870  3.790591 -4.485323
      ESP Fit Center  638 is at   4.217848  0.604316  0.337712
      ESP Fit Center  639 is at   5.805299  0.490913 -1.290563
      ESP Fit Center  640 is at   6.037015  1.506126 -2.358663
      ESP Fit Center  641 is at   4.454554  1.897608  0.782496
      ESP Fit Center  642 is at   5.414554  1.897608  0.525265
      ESP Fit Center  643 is at   4.934554  2.728992  0.525265
      ESP Fit Center  644 is at   3.974554  2.728992  0.525265
      ESP Fit Center  645 is at   4.934554  1.066224  0.525265
      ESP Fit Center  646 is at   6.117323  1.897608 -0.177504
      ESP Fit Center  647 is at   5.799762  2.874959 -0.177504
      ESP Fit Center  648 is at   4.968378  3.478995 -0.177504
      ESP Fit Center  649 is at   3.940730  3.478995 -0.177504
      ESP Fit Center  650 is at   5.799762  0.920257 -0.177504
      ESP Fit Center  651 is at   6.374554  1.897608 -1.137504
      ESP Fit Center  652 is at   6.117323  2.857608 -1.137504
      ESP Fit Center  653 is at   5.414554  3.560377 -1.137504
      ESP Fit Center  654 is at   4.454554  3.817608 -1.137504
      ESP Fit Center  655 is at   6.117323  0.937608 -1.137504
      ESP Fit Center  656 is at   6.117323  1.897608 -2.097504
      ESP Fit Center  657 is at   5.799762  2.874959 -2.097504
      ESP Fit Center  658 is at   4.308403 -0.410595 -0.224035
      ESP Fit Center  659 is at   4.342227 -1.160598 -0.926804
      ESP Fit Center  660 is at   5.173611 -0.556562 -0.926804
      ESP Fit Center  661 is at   3.828403 -1.499211 -1.886804
      ESP Fit Center  662 is at   1.078540  3.289061 -2.787840
      ESP Fit Center  663 is at  -0.136302  2.514851 -1.999771
      ESP Fit Center  664 is at   1.012643  3.136238 -2.959771
      ESP Fit Center  665 is at   0.181259  2.532202 -2.959771
      ESP Fit Center  666 is at  -0.136302  1.554851 -2.959771
      ESP Fit Center  667 is at   0.181259  0.577500 -2.959771
      ESP Fit Center  668 is at   1.012643 -0.026536 -2.959771
      ESP Fit Center  669 is at   1.046467  2.386235 -3.662540
      ESP Fit Center  670 is at   0.566467  1.554851 -3.662540
      ESP Fit Center  671 is at   2.713723  3.789633  0.476461
      ESP Fit Center  672 is at   1.753723  3.789633  0.476461
      ESP Fit Center  673 is at   3.578931  3.935600 -0.226308
      ESP Fit Center  674 is at   2.747547  4.539636 -0.226308
      ESP Fit Center  675 is at   1.719899  4.539636 -0.226308
      ESP Fit Center  676 is at   0.888515  3.935600 -0.226308
      ESP Fit Center  677 is at   3.896492  3.918249 -1.186308
      ESP Fit Center  678 is at   3.193723  4.621018 -1.186308
      ESP Fit Center  679 is at   2.233723  4.878249 -1.186308
      ESP Fit Center  680 is at   1.273723  4.621018 -1.186308
      ESP Fit Center  681 is at   0.570954  3.918249 -1.186308
      ESP Fit Center  682 is at   2.747547  4.539636 -2.146308
      ESP Fit Center  683 is at   1.719899  4.539636 -2.146308
      ESP Fit Center  684 is at   0.888515  3.935600 -2.146308
      ESP Fit Center  685 is at   1.753723  3.789633 -2.849077
      ESP Fit Center  686 is at   2.092540  1.309492  2.240000
      ESP Fit Center  687 is at   3.064440  1.309492  2.018170
      ESP Fit Center  688 is at   2.578490  2.151182  2.018170
      ESP Fit Center  689 is at   3.843843  1.309492  1.396617
      ESP Fit Center  690 is at   3.509374  2.338882  1.396617
      ESP Fit Center  691 is at   2.633722  2.975080  1.396617
      ESP Fit Center  692 is at   3.333102  3.106756  0.498447
      ESP Fit Center  693 is at   4.026233  0.294612  0.498447
      ESP Fit Center  694 is at   3.870980  0.000000  0.534050
      ESP Fit Center  695 is at   1.010493 -2.281163  0.534050
      ESP Fit Center  696 is at   1.901526 -0.496691  2.822213
      ESP Fit Center  697 is at   2.861526 -0.496691  2.564982
      ESP Fit Center  698 is at   2.381526  0.334693  2.564982
      ESP Fit Center  699 is at   1.421526 -1.328075  2.564982
      ESP Fit Center  700 is at   2.381526 -1.328075  2.564982
      ESP Fit Center  701 is at   3.564295 -0.496691  1.862213
      ESP Fit Center  702 is at   3.246734  0.480660  1.862213
      ESP Fit Center  703 is at   1.387702 -2.078078  1.862213
      ESP Fit Center  704 is at   2.415350 -2.078078  1.862213
      ESP Fit Center  705 is at   3.246734 -1.474042  1.862213
      ESP Fit Center  706 is at   3.821526 -0.496691  0.902213
      ESP Fit Center  707 is at   0.941526 -2.159460  0.902213
      ESP Fit Center  708 is at   1.901526 -2.416691  0.902213
      ESP Fit Center  709 is at   2.861526 -2.159460  0.902213
      ESP Fit Center  710 is at   3.564295 -1.456691  0.902213
      ESP Fit Center  711 is at   1.890016 -2.490037 -0.871735
      ESP Fit Center  712 is at   2.850016 -2.232806 -0.871735
      ESP Fit Center  713 is at   3.552785 -1.530037 -0.871735
      ESP Fit Center  714 is at   0.544808 -1.547388 -1.831735
      ESP Fit Center  715 is at   1.376192 -2.151424 -1.831735
      ESP Fit Center  716 is at   2.403840 -2.151424 -1.831735
      ESP Fit Center  717 is at   3.235224 -1.547388 -1.831735
      ESP Fit Center  718 is at   0.930016 -0.570037 -2.534504
      ESP Fit Center  719 is at   1.410016 -1.401421 -2.534504
      ESP Fit Center  720 is at   2.370016 -1.401421 -2.534504
      ESP Fit Center  721 is at   1.890016 -0.570037 -2.791735
      ESP Fit Center  722 is at  -1.800388 -0.528642 -1.496376
      ESP Fit Center  723 is at  -0.520660 -0.901810 -2.162325
      ESP Fit Center  724 is at  -0.869052 -2.604218  0.787031
      ESP Fit Center  725 is at   0.158596 -2.604218  0.787031
      ESP Fit Center  726 is at  -2.017997 -1.982831 -0.172969
      ESP Fit Center  727 is at  -1.315228 -2.685600 -0.172969
      ESP Fit Center  728 is at  -0.355228 -2.942831 -0.172969
      ESP Fit Center  729 is at   0.604772 -2.685600 -0.172969
      ESP Fit Center  730 is at  -2.017997 -1.022831 -1.132969
      ESP Fit Center  731 is at  -1.700436 -2.000182 -1.132969
      ESP Fit Center  732 is at  -0.869052 -2.604218 -1.132969
      ESP Fit Center  733 is at   0.158596 -2.604218 -1.132969
      ESP Fit Center  734 is at  -1.315228 -1.022831 -1.835738
      ESP Fit Center  735 is at  -0.835228 -1.854215 -1.835738
      ESP Fit Center  736 is at   0.124772 -1.854215 -1.835738
      ESP Fit Center  737 is at  -2.306729  0.610546 -0.824601
      ESP Fit Center  738 is at  -1.731937  1.587897 -1.784601
      ESP Fit Center  739 is at  -2.049498  0.610546 -1.784601
      ESP Fit Center  740 is at  -1.731937 -0.366805 -1.784601
      ESP Fit Center  741 is at  -0.866729  1.441930 -2.487370
      ESP Fit Center  742 is at  -1.346729  0.610546 -2.487370
      ESP Fit Center  743 is at  -0.866729 -0.220838 -2.487370
      ESP Fit Center  744 is at   0.093271 -0.220838 -2.487370
      ESP Fit Center  745 is at  -0.386729  0.610546 -2.744601
      ESP Fit Center  746 is at  -0.806476  0.486551  4.378143
      ESP Fit Center  747 is at   0.265038  0.486551  4.165006
      ESP Fit Center  748 is at  -1.342233  1.414509  4.165006
      ESP Fit Center  749 is at  -1.877990  0.486551  4.165006
      ESP Fit Center  750 is at  -1.342233 -0.441407  4.165006
      ESP Fit Center  751 is at  -0.270719 -0.441407  4.165006
      ESP Fit Center  752 is at   1.173423  0.486551  3.558042
      ESP Fit Center  753 is at   0.908167  1.476500  3.558042
      ESP Fit Center  754 is at  -2.521119  1.476500  3.558042
      ESP Fit Center  755 is at  -2.786375  0.486551  3.558042
      ESP Fit Center  756 is at  -2.521119 -0.503398  3.558042
      ESP Fit Center  757 is at  -1.796425 -1.228092  3.558042
      ESP Fit Center  758 is at  -0.806476 -1.493348  3.558042
      ESP Fit Center  759 is at   0.183473 -1.228092  3.558042
      ESP Fit Center  760 is at   0.908167 -0.503398  3.558042
      ESP Fit Center  761 is at   1.780387  0.486551  2.649657
      ESP Fit Center  762 is at  -3.336810 -0.051288  2.649657
      ESP Fit Center  763 is at  -2.899292 -1.033969  2.649657
      ESP Fit Center  764 is at  -2.099907 -1.753738  2.649657
      ESP Fit Center  765 is at  -1.076877 -2.086141  2.649657
      ESP Fit Center  766 is at  -0.007091 -1.973702  2.649657
      ESP Fit Center  767 is at   0.924473 -1.435863  2.649657
      ESP Fit Center  768 is at  -3.558801 -0.027948  1.578143
      ESP Fit Center  769 is at  -3.187084 -0.987459  1.578143
      ESP Fit Center  770 is at  -2.493853 -1.747897  1.578143
      ESP Fit Center  771 is at  -1.572732 -2.206561  1.578143
      ESP Fit Center  772 is at  -0.548125 -2.301505  1.578143
      ESP Fit Center  773 is at   0.441591 -2.019906  1.578143
      ESP Fit Center  774 is at  -3.336810 -0.051288  0.506629
      ESP Fit Center  775 is at  -2.899292 -1.033969  0.506629
      ESP Fit Center  776 is at  -2.099907 -1.753738  0.506629
      ESP Fit Center  777 is at  -2.786375  0.486551 -0.401756
      ESP Fit Center  778 is at  -2.521119 -0.503398 -0.401756
      ESP Fit Center  779 is at   1.369999  2.300233  3.132019
      ESP Fit Center  780 is at  -0.638279  2.573402  4.607554
      ESP Fit Center  781 is at   0.321721  2.573402  4.350323
      ESP Fit Center  782 is at  -0.158279  3.404786  4.350323
      ESP Fit Center  783 is at  -1.598279  2.573402  4.350323
      ESP Fit Center  784 is at  -1.118279  1.742018  4.350323
      ESP Fit Center  785 is at  -0.158279  1.742018  4.350323
      ESP Fit Center  786 is at   1.024490  2.573402  3.647554
      ESP Fit Center  787 is at   0.706929  3.550753  3.647554
      ESP Fit Center  788 is at  -0.124455  4.154789  3.647554
      ESP Fit Center  789 is at   1.500322  2.476631  3.036910
      ESP Fit Center  790 is at   2.203091  2.476631  2.334141
      ESP Fit Center  791 is at   1.885530  3.453982  2.334141
      ESP Fit Center  792 is at   1.054146  4.058018  2.334141
      ESP Fit Center  793 is at   1.885530  1.499280  2.334141
      ESP Fit Center  794 is at   2.203091  3.436631  1.374141
      ESP Fit Center  795 is at   1.500322  4.139400  1.374141
      ESP Fit Center  796 is at   1.054146  4.058018  0.414141
      ESP Fit Center  797 is at  -0.077687  3.734439 -1.243289
      ESP Fit Center  798 is at  -2.768103  1.779737 -1.243289
      ESP Fit Center  799 is at  -0.462895  2.757088 -1.946058
      ESP Fit Center  800 is at  -0.942895  3.588472 -1.946058
      ESP Fit Center  801 is at  -1.902895  3.588472 -1.946058
      ESP Fit Center  802 is at  -2.382895  2.757088 -1.946058
      ESP Fit Center  803 is at  -1.902895  1.925704 -1.946058
      ESP Fit Center  804 is at  -1.422895  2.757088 -2.203289
      ESP Fit Center  805 is at  -0.559244  5.001025  2.351149
      ESP Fit Center  806 is at   0.305964  5.146992  1.648380
      ESP Fit Center  807 is at   0.623525  5.129641  0.688380
      ESP Fit Center  808 is at  -0.079244  5.832410  0.688380
      ESP Fit Center  809 is at   0.623525  4.169641 -0.271620
      ESP Fit Center  810 is at   0.305964  5.146992 -0.271620
      ESP Fit Center  811 is at  -0.525420  5.751028 -0.271620
      ESP Fit Center  812 is at  -0.079244  4.169641 -0.974389
      ESP Fit Center  813 is at  -0.559244  5.001025 -0.974389
      ESP Fit Center  814 is at  -1.519244  5.001025 -0.974389
      ESP Fit Center  815 is at  -3.725703  2.269407  3.829272
      ESP Fit Center  816 is at  -2.654189  2.269407  3.829272
      ESP Fit Center  817 is at  -4.904589  2.207416  3.222308
      ESP Fit Center  818 is at  -4.179895  1.482722  3.222308
      ESP Fit Center  819 is at  -3.189946  1.217466  3.222308
      ESP Fit Center  820 is at  -5.720280  3.735204  2.313923
      ESP Fit Center  821 is at  -5.720280  2.659526  2.313923
      ESP Fit Center  822 is at  -5.282762  1.676845  2.313923
      ESP Fit Center  823 is at  -4.483377  0.957076  2.313923
      ESP Fit Center  824 is at  -5.570554  4.671375  1.242409
      ESP Fit Center  825 is at  -5.942271  3.711864  1.242409
      ESP Fit Center  826 is at  -5.942271  2.682866  1.242409
      ESP Fit Center  827 is at  -5.570554  1.723355  1.242409
      ESP Fit Center  828 is at  -4.877323  0.962917  1.242409
      ESP Fit Center  829 is at  -3.956202  0.504253  1.242409
      ESP Fit Center  830 is at  -5.282762  4.717885  0.170895
      ESP Fit Center  831 is at  -5.720280  3.735204  0.170895
      ESP Fit Center  832 is at  -5.720280  2.659526  0.170895
      ESP Fit Center  833 is at  -5.282762  1.676845  0.170895
      ESP Fit Center  834 is at  -4.483377  0.957076  0.170895
      ESP Fit Center  835 is at  -3.460347  0.624673  0.170895
      ESP Fit Center  836 is at  -2.199997  4.912008 -0.737490
      ESP Fit Center  837 is at  -3.189946  5.177264 -0.737490
      ESP Fit Center  838 is at  -4.179895  4.912008 -0.737490
      ESP Fit Center  839 is at  -4.904589  4.187314 -0.737490
      ESP Fit Center  840 is at  -5.169845  3.197365 -0.737490
      ESP Fit Center  841 is at  -4.904589  2.207416 -0.737490
      ESP Fit Center  842 is at  -4.179895  1.482722 -0.737490
      ESP Fit Center  843 is at  -3.189946  1.217466 -0.737490
      ESP Fit Center  844 is at  -2.654189  4.125323 -1.344454
      ESP Fit Center  845 is at  -3.725703  4.125323 -1.344454
      ESP Fit Center  846 is at  -4.261460  3.197365 -1.344454
      ESP Fit Center  847 is at  -3.725703  2.269407 -1.344454
      ESP Fit Center  848 is at  -3.189946  3.197365 -1.557591
      ESP Fit Center  849 is at  -3.134955  4.458973  4.978969
      ESP Fit Center  850 is at  -3.401994  2.601676  4.075345
      ESP Fit Center  851 is at  -2.268619  4.267737  5.141613
      ESP Fit Center  852 is at  -1.308619  4.267737  4.884382
      ESP Fit Center  853 is at  -2.748619  3.436353  4.884382
      ESP Fit Center  854 is at  -1.788619  3.436353  4.884382
      ESP Fit Center  855 is at  -0.605850  4.267737  4.181613
      ESP Fit Center  856 is at  -0.923411  5.245088  4.181613
      ESP Fit Center  857 is at  -2.782443  2.686350  4.181613
      ESP Fit Center  858 is at  -0.605850  5.227737  3.221613
      ESP Fit Center  859 is at  -4.028301  4.281099  5.105196
      ESP Fit Center  860 is at  -4.988301  4.281099  4.847965
      ESP Fit Center  861 is at  -4.508301  3.449715  4.847965
      ESP Fit Center  862 is at  -3.548301  3.449715  4.847965
      ESP Fit Center  863 is at  -5.373509  5.258450  4.145196
      ESP Fit Center  864 is at  -5.691070  4.281099  4.145196
      ESP Fit Center  865 is at  -5.373509  3.303748  4.145196
      ESP Fit Center  866 is at  -4.542125  2.699712  4.145196
      ESP Fit Center  867 is at  -5.691070  5.241099  3.185196
      ESP Fit Center  868 is at  -5.948301  4.281099  3.185196
      ESP Fit Center  869 is at  -5.691070  3.321099  3.185196
      ESP Fit Center  870 is at  -5.691070  4.281099  2.225196
      ESP Fit Center  871 is at  -3.126794  5.895434 -0.343628
      ESP Fit Center  872 is at  -0.602740  6.061074  2.361596
      ESP Fit Center  873 is at  -0.345509  6.061074  1.401596
      ESP Fit Center  874 is at  -0.602740  7.021074  1.401596
      ESP Fit Center  875 is at  -0.602740  6.061074  0.441596
      ESP Fit Center  876 is at  -1.305509  6.061074 -0.261173
      ESP Fit Center  877 is at  -1.785509  6.892458 -0.261173
      ESP Fit Center  878 is at  -2.745509  6.892458 -0.261173
      ESP Fit Center  879 is at  -2.265509  6.061074 -0.518404
      ESP Fit Center  880 is at  -5.699690  6.087469  2.438730
      ESP Fit Center  881 is at  -5.699690  7.047469  1.478730
      ESP Fit Center  882 is at  -5.956921  6.087469  1.478730
      ESP Fit Center  883 is at  -5.699690  5.127469  1.478730
      ESP Fit Center  884 is at  -5.382129  7.064820  0.518730
      ESP Fit Center  885 is at  -5.699690  6.087469  0.518730
      ESP Fit Center  886 is at  -5.382129  5.110118  0.518730
      ESP Fit Center  887 is at  -3.556921  6.918853 -0.184039
      ESP Fit Center  888 is at  -4.516921  6.918853 -0.184039
      ESP Fit Center  889 is at  -4.996921  6.087469 -0.184039
      ESP Fit Center  890 is at  -4.516921  5.256085 -0.184039
      ESP Fit Center  891 is at  -4.036921  6.087469 -0.441270
      ESP Fit Center  892 is at  -3.057293  7.061914  6.282656
      ESP Fit Center  893 is at  -1.985779  7.061914  6.069519
      ESP Fit Center  894 is at  -2.521536  7.989872  6.069519
      ESP Fit Center  895 is at  -3.593050  7.989872  6.069519
      ESP Fit Center  896 is at  -4.128807  7.061914  6.069519
      ESP Fit Center  897 is at  -3.593050  6.133956  6.069519
      ESP Fit Center  898 is at  -2.521536  6.133956  6.069519
      ESP Fit Center  899 is at  -1.077394  7.061914  5.462555
      ESP Fit Center  900 is at  -1.342650  8.051863  5.462555
      ESP Fit Center  901 is at  -2.067344  8.776557  5.462555
      ESP Fit Center  902 is at  -3.057293  9.041813  5.462555
      ESP Fit Center  903 is at  -4.047242  8.776557  5.462555
      ESP Fit Center  904 is at  -4.771936  8.051863  5.462555
      ESP Fit Center  905 is at  -5.037192  7.061914  5.462555
      ESP Fit Center  906 is at  -4.771936  6.071965  5.462555
      ESP Fit Center  907 is at  -4.047242  5.347271  5.462555
      ESP Fit Center  908 is at  -3.057293  5.082015  5.462555
      ESP Fit Center  909 is at  -2.067344  5.347271  5.462555
      ESP Fit Center  910 is at  -1.342650  6.071965  5.462555
      ESP Fit Center  911 is at  -0.470430  7.061914  4.554170
      ESP Fit Center  912 is at  -0.694076  8.114086  4.554170
      ESP Fit Center  913 is at  -1.326344  8.984328  4.554170
      ESP Fit Center  914 is at  -5.150109  8.582434  4.554170
      ESP Fit Center  915 is at  -5.587627  7.599753  4.554170
      ESP Fit Center  916 is at  -5.587627  6.524075  4.554170
      ESP Fit Center  917 is at  -5.150109  5.541394  4.554170
      ESP Fit Center  918 is at  -0.694076  6.009742  4.554170
      ESP Fit Center  919 is at  -0.257293  7.061914  3.482656
      ESP Fit Center  920 is at  -5.809618  7.576413  3.482656
      ESP Fit Center  921 is at  -5.809618  6.547415  3.482656
      ESP Fit Center  922 is at  -5.437901  5.587904  3.482656
      ESP Fit Center  923 is at  -0.446371  6.050437  3.482656
      ESP Fit Center  924 is at  -0.470430  7.061914  2.411142
      ESP Fit Center  925 is at  -5.417060  9.684231  3.158660
      ESP Fit Center  926 is at  -4.767807 10.498368  2.090560
      ESP Fit Center  927 is at  -5.577091  9.584746  2.996333
      ESP Fit Center  928 is at  -5.894652  8.607395  2.996333
      ESP Fit Center  929 is at  -5.191883 10.270164  2.036333
      ESP Fit Center  930 is at  -5.894652  9.567395  2.036333
      ESP Fit Center  931 is at  -6.151883  8.607395  2.036333
      ESP Fit Center  932 is at  -5.894652  7.647395  2.036333
      ESP Fit Center  933 is at  -4.745707 10.188782  1.076333
      ESP Fit Center  934 is at  -5.577091  9.584746  1.076333
      ESP Fit Center  935 is at  -5.894652  8.607395  1.076333
      ESP Fit Center  936 is at  -5.577091  7.630044  1.076333
      ESP Fit Center  937 is at  -4.711883  9.438779  0.373564
      ESP Fit Center  938 is at  -5.191883  8.607395  0.373564
      ESP Fit Center  939 is at  -4.711883  7.776011  0.373564
      ESP Fit Center  940 is at  -3.751883  7.776011  0.373564
      ESP Fit Center  941 is at  -4.231883  8.607395  0.116333
      ESP Fit Center  942 is at  -3.493729  9.381078  5.356058
      ESP Fit Center  943 is at  -2.533729  9.381078  5.098827
      ESP Fit Center  944 is at  -3.013729 10.212462  5.098827
      ESP Fit Center  945 is at  -3.973729 10.212462  5.098827
      ESP Fit Center  946 is at  -4.453729  9.381078  5.098827
      ESP Fit Center  947 is at  -2.148521 10.358429  4.396058
      ESP Fit Center  948 is at  -2.979905 10.962465  4.396058
      ESP Fit Center  949 is at  -4.007553 10.962465  4.396058
      ESP Fit Center  950 is at  -4.838937 10.358429  4.396058
      ESP Fit Center  951 is at  -5.156498  9.381078  4.396058
      ESP Fit Center  952 is at  -2.533729 11.043847  3.436058
      ESP Fit Center  953 is at  -3.493729 11.301078  3.436058
      ESP Fit Center  954 is at  -4.453729 11.043847  3.436058
      ESP Fit Center  955 is at  -5.156498 10.341078  3.436058
      ESP Fit Center  956 is at  -4.007553 10.962465  2.476058
      ESP Fit Center  957 is at  -2.402616 10.991115  3.259012
      ESP Fit Center  958 is at  -0.027466  8.118605  1.228586
      ESP Fit Center  959 is at  -0.259181  9.133818  0.266260
      ESP Fit Center  960 is at  -0.557053 10.148274  0.266260
      ESP Fit Center  961 is at  -3.935965  9.662460  0.266260
      ESP Fit Center  962 is at  -3.176898  9.133818 -0.399689
      ESP Fit Center  963 is at  -1.220241  9.214828  4.277234
      ESP Fit Center  964 is at  -0.260241  9.214828  4.020003
      ESP Fit Center  965 is at  -0.740241 10.046212  4.020003
      ESP Fit Center  966 is at  -1.700241 10.046212  4.020003
      ESP Fit Center  967 is at   0.442528  9.214828  3.317234
      ESP Fit Center  968 is at   0.124967 10.192179  3.317234
      ESP Fit Center  969 is at  -0.706417 10.796215  3.317234
      ESP Fit Center  970 is at   0.124967  8.237477  3.317234
      ESP Fit Center  971 is at   0.699759  9.214828  2.357234
      ESP Fit Center  972 is at   0.442528 10.174828  2.357234
      ESP Fit Center  973 is at  -0.260241 10.877597  2.357234
      ESP Fit Center  974 is at  -0.260241  7.552059  2.357234
      ESP Fit Center  975 is at   0.442528  8.254828  2.357234
      ESP Fit Center  976 is at   0.442528  9.214828  1.397234
      ESP Fit Center  977 is at   0.124967 10.192179  1.397234
      ESP Fit Center  978 is at   0.124967  8.237477  1.397234
      ESP Fit Center  979 is at  -0.279608  7.482165  0.935774
      ESP Fit Center  980 is at  -0.279608  8.442165 -0.024226
      ESP Fit Center  981 is at  -3.605146  8.442165 -0.024226
      ESP Fit Center  982 is at  -3.287585  7.464814 -0.024226
      ESP Fit Center  983 is at  -0.597169  7.464814 -0.024226
      ESP Fit Center  984 is at  -0.982377  8.442165 -0.726995
      ESP Fit Center  985 is at  -1.462377  9.273549 -0.726995
      ESP Fit Center  986 is at  -2.422377  9.273549 -0.726995
      ESP Fit Center  987 is at  -2.902377  8.442165 -0.726995
      ESP Fit Center  988 is at  -2.422377  7.610781 -0.726995
      ESP Fit Center  989 is at  -1.462377  7.610781 -0.726995
      ESP Fit Center  990 is at  -1.942377  8.442165 -0.984226
      ESP Fit Center  991 is at  -1.838449 11.698767  2.286803
      ESP Fit Center  992 is at  -2.866097 11.698767  2.286803
      ESP Fit Center  993 is at  -3.697481 11.094731  2.286803
      ESP Fit Center  994 is at  -0.689504 11.077380  1.326803
      ESP Fit Center  995 is at  -1.392273 11.780149  1.326803
      ESP Fit Center  996 is at  -2.352273 12.037380  1.326803
      ESP Fit Center  997 is at  -3.312273 11.780149  1.326803
      ESP Fit Center  998 is at  -4.015042 11.077380  1.326803
      ESP Fit Center  999 is at  -1.007065 11.094731  0.366803
      ESP Fit Center 1000 is at  -1.838449 11.698767  0.366803
      ESP Fit Center 1001 is at  -2.866097 11.698767  0.366803
      ESP Fit Center 1002 is at  -3.697481 11.094731  0.366803
      ESP Fit Center 1003 is at  -4.015042 10.117380  0.366803
      ESP Fit Center 1004 is at  -1.392273 10.117380 -0.335966
      ESP Fit Center 1005 is at  -1.872273 10.948764 -0.335966
      ESP Fit Center 1006 is at  -2.832273 10.948764 -0.335966
      ESP Fit Center 1007 is at  -3.312273 10.117380 -0.335966
      ESP Fit Center 1008 is at  -2.352273 10.117380 -0.593197
      ESP Fit Center 1009 is at   6.836996 -3.151261 -1.862444
      ESP Fit Center 1010 is at   7.901807 -2.998164 -1.862444
      ESP Fit Center 1011 is at   8.714813 -2.293690 -1.862444
      ESP Fit Center 1012 is at   9.603177 -1.261505 -2.738387
      ESP Fit Center 1013 is at   9.356146 -0.179193 -2.738387
      ESP Fit Center 1014 is at   8.663982  0.688754 -2.738387
      ESP Fit Center 1015 is at   7.663775  1.170428 -2.738387
      ESP Fit Center 1016 is at   6.553629  1.170428 -2.738387
      ESP Fit Center 1017 is at   9.808702 -1.261505 -3.771632
      ESP Fit Center 1018 is at   9.603177 -0.228260 -3.771632
      ESP Fit Center 1019 is at   9.017890 -1.261505 -5.680820
      ESP Fit Center 1020 is at   8.141947 -1.261505 -6.266107
      ESP Fit Center 1021 is at   7.625325 -2.156322 -6.266107
      ESP Fit Center 1022 is at   9.022403  0.641734 -3.228434
      ESP Fit Center 1023 is at   8.225824  1.331974 -3.228434
      ESP Fit Center 1024 is at   7.182526  1.481978 -3.228434
      ESP Fit Center 1025 is at   9.608742 -0.369597 -4.308434
      ESP Fit Center 1026 is at   9.361327  0.634205 -4.308434
      ESP Fit Center 1027 is at   8.675762  1.408048 -4.308434
      ESP Fit Center 1028 is at   7.709101  1.774654 -4.308434
      ESP Fit Center 1029 is at   9.319357 -0.369597 -5.388434
      ESP Fit Center 1030 is at   9.022403  0.641734 -5.388434
      ESP Fit Center 1031 is at   8.225824  1.331974 -5.388434
      ESP Fit Center 1032 is at   8.528742 -0.369597 -6.179049
      ESP Fit Center 1033 is at   7.988742  0.565710 -6.179049
      ESP Fit Center 1034 is at   7.448742 -0.369597 -6.468434
      ESP Fit Center 1035 is at   7.153712 -1.052244 -0.537804
      ESP Fit Center 1036 is at   8.233712 -1.052244 -0.827189
      ESP Fit Center 1037 is at   7.693712 -0.116937 -0.827189
      ESP Fit Center 1038 is at   6.613712 -0.116937 -0.827189
      ESP Fit Center 1039 is at   6.073712 -1.052244 -0.827189
      ESP Fit Center 1040 is at   6.613712 -1.987551 -0.827189
      ESP Fit Center 1041 is at   7.693712 -1.987551 -0.827189
      ESP Fit Center 1042 is at   9.024327 -1.052244 -1.617804
      ESP Fit Center 1043 is at   8.727373 -0.040913 -1.617804
      ESP Fit Center 1044 is at   7.930794  0.649327 -1.617804
      ESP Fit Center 1045 is at   6.887496  0.799331 -1.617804
      ESP Fit Center 1046 is at   6.887496 -2.903819 -1.617804
      ESP Fit Center 1047 is at   7.930794 -2.753815 -1.617804
[...]
 1303 Fit       0.002911
 1304 Fit       0.007795
 1305 Fit       0.000296
 1306 Fit      -0.001503
 1307 Fit       0.002800
 1308 Fit       0.000473
 1309 Fit      -0.005478
 1310 Fit      -0.006331
 1311 Fit      -0.004209
 1312 Fit       0.000632
 1313 Fit       0.004149
 1314 Fit      -0.013123
 1315 Fit      -0.004049
 1316 Fit       0.002167
 1317 Fit      -0.007608
 1318 Fit       0.002417
 1319 Fit       0.010899
 1320 Fit       0.011494
 1321 Fit       0.001224
 1322 Fit       0.014912
 1323 Fit       0.010081
 1324 Fit       0.005402
 1325 Fit       0.004160
 1326 Fit       0.010367
 1327 Fit       0.011231
 1328 Fit       0.008331
 1329 Fit       0.009531
 1330 Fit       0.011361
 1331 Fit       0.010648
 1332 Fit       0.011836
 1333 Fit       0.009655
 1334 Fit       0.006070
 1335 Fit      -0.011405
 1336 Fit      -0.008392
 1337 Fit      -0.011998
 1338 Fit      -0.020815
 1339 Fit      -0.024094
 1340 Fit      -0.004831
 1341 Fit      -0.013346
 1342 Fit      -0.021709
 1343 Fit      -0.029592
 1344 Fit      -0.004269
 1345 Fit      -0.009509
 1346 Fit      -0.015313
 1347 Fit      -0.021560
 1348 Fit      -0.028308
 1349 Fit      -0.009865
 1350 Fit      -0.013677
 1351 Fit      -0.017184
 1352 Fit      -0.020818
 1353 Fit      -0.024867
 1354 Fit      -0.010279
 1355 Fit      -0.014573
 1356 Fit      -0.016679
 1357 Fit      -0.017831
 1358 Fit      -0.018499
 1359 Fit      -0.018844
 1360 Fit       0.000647
 1361 Fit      -0.006847
 1362 Fit      -0.012627
 1363 Fit      -0.016086
 1364 Fit      -0.016904
 1365 Fit      -0.015638
 1366 Fit      -0.012546
 1367 Fit      -0.006374
 1368 Fit      -0.002990
 1369 Fit      -0.011389
 1370 Fit      -0.013114
 1371 Fit      -0.007838
 1372 Fit      -0.004882
 1373 Fit      -0.006171
 1374 Fit      -0.007337
 1375 Fit      -0.003992
 1376 Fit      -0.000872
 1377 Fit      -0.002740
 1378 Fit       0.000255
 1379 Fit       0.003667
 1380 Fit      -0.005782
 1381 Fit       0.001301
 1382 Fit      -0.005979
 1383 Fit      -0.004660
 1384 Fit      -0.003584
 1385 Fit      -0.003630
 1386 Fit      -0.004795
 1387 Fit      -0.002087
 1388 Fit      -0.004267
 1389 Fit      -0.008538
 1390 Fit      -0.001843
 1391 Fit      -0.001927
 1392 Fit      -0.006019
 1393 Fit       0.000074
 1394 Fit      -0.000644
 1395 Fit       0.010098
 1396 Fit       0.012332
 1397 Fit       0.008766
 1398 Fit       0.006014
 1399 Fit      -0.001343
 1400 Fit       0.003127
 1401 Fit       0.000273
 1402 Fit       0.009142
 1403 Fit       0.004371
 1404 Fit      -0.001429
 1405 Fit       0.006970
 1406 Fit       0.005739
 1407 Fit       0.000100
 1408 Fit      -0.000984
 1409 Fit      -0.015679
 1410 Fit      -0.015899
 1411 Fit      -0.012560
 1412 Fit      -0.012558
 1413 Fit      -0.016800
 1414 Fit      -0.016637
 1415 Fit      -0.015761
 1416 Fit      -0.017043
 1417 Fit      -0.013862
 1418 Fit      -0.008119
 1419 Fit      -0.004384
 1420 Fit      -0.006819
 1421 Fit      -0.013400
 1422 Fit      -0.018226
 1423 Fit      -0.018102
 1424 Fit      -0.014507
 1425 Fit      -0.011802
 1426 Fit      -0.012322
 1427 Fit      -0.015610
 1428 Fit      -0.017445
 1429 Fit      -0.014543
 1430 Fit      -0.007891
 1431 Fit      -0.000433
 1432 Fit      -0.004934
 1433 Fit      -0.013317
 1434 Fit      -0.018062
 1435 Fit      -0.017547
 1436 Fit      -0.011862
 1437 Fit      -0.008108
 1438 Fit      -0.014865
 1439 Fit      -0.015135
 1440 Fit      -0.011856
 1441 Fit      -0.010181
 1442 Fit      -0.014574
 1443 Fit      -0.013637
 1444 Fit      -0.011513
 1445 Fit      -0.009150
 1446 Fit      -0.007056
 1447 Fit      -0.006306
 1448 Fit      -0.004251
 1449 Fit       0.000059
 1450 Fit      -0.004297
 1451 Fit       0.006136
 1452 Fit       0.001107
 1453 Fit      -0.004325
 1454 Fit       0.005860
 1455 Fit       0.004752
 1456 Fit       0.003270
 1457 Fit       0.008911
 1458 Fit       0.007695
 1459 Fit       0.007295
 1460 Fit       0.007155
 1461 Fit       0.008512
 1462 Fit       0.008505
 1463 Fit       0.009775
 1464 Fit       0.008901
 1465 Fit      -0.000456
 1466 Fit       0.003817
 1467 Fit       0.003885
 1468 Fit      -0.001109
 1469 Fit       0.004031
 1470 Fit       0.006207
 1471 Fit       0.006711
 1472 Fit       0.005421
 1473 Fit       0.001968
 1474 Fit       0.007719
 1475 Fit       0.007340
 1476 Fit       0.005817
 1477 Fit       0.003281
 1478 Fit       0.004286
 1479 Fit       0.002785
 1480 Fit       0.001002
 1481 Fit       0.002606
 1482 Fit       0.002428
 1483 Fit       0.003263
 1484 Fit       0.007547
 1485 Fit       0.008794
 1486 Fit       0.004610
 1487 Fit       0.006293
 1488 Fit      -0.002666
 1489 Fit       0.001298
 1490 Fit       0.000447
 1491 Fit       0.002457
 1492 Fit       0.003021
 1493 Fit      -0.005044
 1494 Fit       0.002074
 1495 Fit       0.002951
 1496 Fit       0.002990
 1497 Fit      -0.004065
 1498 Fit      -0.000096
 1499 Fit       0.002433
 1500 Fit       0.002566
 1501 Fit       0.002260
 1502 Fit       0.005470
 1503 Fit       0.005327
 1504 Fit       0.009342
 1505 Fit       0.008848
 1506 Fit       0.006836
 1507 Fit       0.005190
 1508 Fit       0.005623
 1509 Fit       0.007085
 1510 Fit       0.008508
 1511 Fit       0.009326
 1512 Fit       0.007142
 1513 Fit       0.004608
 1514 Fit       0.006612
 1515 Fit       0.008327
 1516 Fit       0.004692
 1517 Fit       0.006416
 1518 Fit       0.007542
 1519 Fit       0.008111
 1520 Fit       0.004060
 1521 Fit       0.005879
 1522 Fit       0.007206
 1523 Fit       0.007698
 1524 Fit       0.007889
 1525 Fit       0.005563
 1526 Fit       0.006640
 1527 Fit       0.006444
 1528 Fit       0.005311
 1529 Fit       0.006351
 1530 Fit       0.005387
 1531 Fit       0.003565
 1532 Fit       0.002855
 1533 Fit       0.002105
 1534 Fit       0.000240
 1535 Fit      -0.004378
 1536 Fit       0.004759
 1537 Fit       0.004284
 1538 Fit       0.003514
 1539 Fit       0.005440
 1540 Fit       0.004965
 1541 Fit       0.006579
 1542 Fit       0.007774
 1543 Fit       0.009453
 1544 Fit       0.010842
 1545 Fit       0.004334
 1546 Fit       0.004200
 1547 Fit       0.003090
 1548 Fit       0.005781
 1549 Fit       0.006136
 1550 Fit       0.006561
 1551 Fit       0.006967
 1552 Fit       0.007305
 1553 Fit       0.007945
 1554 Fit       0.009064
 1555 Fit       0.008989
 1556 Fit       0.010169
 1557 Fit       0.011268
 1558 Fit       0.003363
 1559 Fit       0.003877
 1560 Fit       0.002788
 1561 Fit       0.001413
 1562 Fit       0.001783
 1563 Fit       0.003970
 1564 Fit       0.004412
 1565 Fit       0.003708
 1566 Fit       0.002953
 1567 Fit       0.001639
 1568 Fit      -0.000350
 1569 Fit       0.004738
 1570 Fit       0.005682
 1571 Fit       0.005052
 1572 Fit       0.004350
 1573 Fit       0.001829
 1574 Fit      -0.000408
 1575 Fit       0.006944
 1576 Fit       0.005956
 1577 Fit       0.005600
 1578 Fit       0.010075
 1579 Fit       0.008718
 1580 Fit       0.007904
 1581 Fit       0.006903
 1582 Fit       0.006593
 1583 Fit       0.010907
 1584 Fit       0.009647
 1585 Fit       0.008817
 1586 Fit       0.007823
 1587 Fit       0.007495
 1588 Fit       0.010976
 1589 Fit       0.009702
 1590 Fit       0.008647
 1591 Fit       0.008571
 1592 Fit       0.009818
 1593 Fit       0.002576
 1594 Fit       0.011182
 1595 Fit       0.003870
 1596 Fit       0.005637
 1597 Fit       0.007701
 1598 Fit       0.009322
 1599 Fit       0.010575
 1600 Fit       0.007369
 1601 Fit       0.008919
 1602 Fit       0.010230
 1603 Fit       0.010860
 1604 Fit       0.011783
 1605 Fit       0.008820
 1606 Fit       0.008667
 1607 Fit       0.009386
 1608 Fit       0.010204
 1609 Fit       0.010751
 1610 Fit       0.010997
 1611 Fit       0.012024
 1612 Fit       0.011059
 1613 Fit       0.010063
 1614 Fit       0.010444
 1615 Fit       0.011132
 1616 Fit       0.004027
 1617 Fit       0.002194
 1618 Fit       0.005654
 1619 Fit       0.006696
 1620 Fit       0.003001
 1621 Fit       0.006137
 1622 Fit       0.007614
 1623 Fit       0.008243
 1624 Fit       0.003729
 1625 Fit       0.006617
 1626 Fit       0.008118
 1627 Fit       0.009022
 1628 Fit       0.009804
 1629 Fit       0.003668
 1630 Fit       0.006703
 1631 Fit       0.008350
 1632 Fit       0.009549
 1633 Fit       0.000154
 1634 Fit      -0.000708
 1635 Fit      -0.001650
 1636 Fit      -0.000034
 1637 Fit       0.008043
 1638 Fit       0.011771
 1639 Fit       0.010782
 1640 Fit       0.010674
 1641 Fit       0.009226
 1642 Fit       0.007213
 1643 Fit       0.011971
 1644 Fit       0.012445
 1645 Fit       0.010750
 1646 Fit       0.009810
 1647 Fit       0.010768
 1648 Fit       0.011287
 1649 Fit       0.011339
 1650 Fit       0.011830
 1651 Fit       0.011281
 1652 Fit       0.010850
 1653 Fit       0.011399
 1654 Fit       0.011188
 1655 Fit      -0.002310
 1656 Fit      -0.000767
 1657 Fit       0.007907
 1658 Fit       0.004393
 1659 Fit       0.001473
 1660 Fit       0.008871
 1661 Fit       0.007394
 1662 Fit       0.011226
 1663 Fit       0.010316
 1664 Fit       0.007462
 1665 Fit       0.010266
 1666 Fit       0.011779
 1667 Fit      -0.003980
 1668 Fit       0.001307
 1669 Fit       0.001006
 1670 Fit       0.001368
 1671 Fit       0.003287
 1672 Fit       0.005625
 1673 Fit       0.007885
 1674 Fit       0.008463
 1675 Fit       0.006761
 1676 Fit       0.007155
 1677 Fit       0.008365
 1678 Fit       0.009734
 1679 Fit       0.011261
 1680 Fit       0.012783
 1681 Fit       0.010159
 1682 Fit       0.010087
 1683 Fit       0.011302
 1684 Fit       0.013522
 1685 Fit       0.012154
 1686 Fit       0.014416
 1687 Fit       0.010388
 1688 Fit       0.011040
 1689 Fit       0.011995
 1690 Fit       0.011259
 1691 Fit       0.008583
 1692 Fit       0.002005
 1693 Fit       0.010829
 1694 Fit       0.010754
 1695 Fit       0.009562
 1696 Fit      -0.010129
 1697 Fit      -0.011793
 1698 Fit      -0.011414
 1699 Fit      -0.011502
 1700 Fit      -0.013902
 1701 Fit      -0.014467
 1702 Fit      -0.013197
 1703 Fit      -0.009929
 1704 Fit      -0.007694
 1705 Fit      -0.011230
 1706 Fit      -0.011632
 1707 Fit      -0.009623
 1708 Fit      -0.005493
 1709 Fit      -0.003385
 1710 Fit      -0.006335
 1711 Fit      -0.003361
 1712 Fit      -0.004246
 1713 Fit      -0.006513
 1714 Fit      -0.000666
 1715 Fit      -0.001058
 1716 Fit      -0.001728
 1717 Fit      -0.002239
 1718 Fit      -0.001044
 1719 Fit      -0.000828
 1720 Fit      -0.001780
 1721 Fit      -0.002753
 1722 Fit      -0.002917
 1723 Fit      -0.000247
 1724 Fit      -0.003924
 1725 Fit      -0.006168
 1726 Fit      -0.008705
 1727 Fit       0.001011
 1728 Fit      -0.000484
 1729 Fit       0.009129
 1730 Fit       0.005356
 1731 Fit       0.013781
 1732 Fit       0.009019
 1733 Fit       0.012005
 1734 Fit       0.013982
 1735 Fit       0.015086
 1736 Fit      -0.003938
 1737 Fit      -0.001679
 1738 Fit       0.001033
 1739 Fit       0.004813
 1740 Fit      -0.000371
 1741 Fit       0.002748
 1742 Fit       0.006263
 1743 Fit      -0.005257
 1744 Fit       0.000428
 1745 Fit       0.004596
 1746 Fit       0.007653
 1747 Fit       0.010146
 1748 Fit       0.000370
 1749 Fit       0.005050
 1750 Fit      -0.015080
 1751 Fit      -0.014189
 1752 Fit      -0.013755
 1753 Fit      -0.014187
 1754 Fit      -0.011968
 1755 Fit      -0.008334
 1756 Fit      -0.005285
 1757 Fit      -0.007841
 1758 Fit       0.006617
 1759 Fit       0.000385
 1760 Fit      -0.006588
 1761 Fit      -0.012957
 1762 Fit      -0.005122
 1763 Fit      -0.004230
 1764 Fit      -0.011108
 1765 Fit      -0.002253
 1766 Fit      -0.000028
 1767 Fit      -0.000727
 1768 Fit      -0.003431
 1769 Fit       0.003108
 1770 Fit       0.003454
 1771 Fit       0.002841
 1772 Fit       0.000884
 1773 Fit       0.007202
 1774 Fit       0.005167
 1775 Fit       0.009536
 1776 Fit       0.006726
 1777 Fit       0.003528
 1778 Fit       0.011369
 1779 Fit       0.007733
 1780 Fit       0.001751
 1781 Fit       0.015016
 1782 Fit       0.009165
 1783 Fit      -0.000845
 1784 Fit       0.011200
 1785 Fit       0.013935
 1786 Fit       0.000144
 1787 Fit       0.003806
 1788 Fit       0.006149
 1789 Fit      -0.000609
 1790 Fit       0.003643
 1791 Fit       0.006504
 1792 Fit       0.008548
 1793 Fit       0.003233
 1794 Fit       0.006003
 1795 Fit       0.008446
 1796 Fit       0.010546
 1797 Fit       0.008859
 1798 Fit       0.011469
 1799 Fit      -0.002473
 1800 Fit       0.006903
 1801 Fit       0.004972
 1802 Fit       0.013356
 1803 Fit       0.010178
 1804 Fit       0.010884
 1805 Fit       0.014936
 1806 Fit       0.014536
 1807 Fit      -0.012980
 1808 Fit      -0.013715
 1809 Fit      -0.008016
 1810 Fit      -0.008080
 1811 Fit      -0.013775
 1812 Fit      -0.016015
 1813 Fit      -0.016131
 1814 Fit      -0.014527
 1815 Fit      -0.009760
 1816 Fit      -0.012523
 1817 Fit      -0.017146
 1818 Fit      -0.017826
 1819 Fit      -0.017200
 1820 Fit      -0.016664
 1821 Fit      -0.016563
 1822 Fit      -0.016239
 1823 Fit      -0.014261
 1824 Fit      -0.011788
 1825 Fit      -0.023391
 1826 Fit      -0.020991
 1827 Fit      -0.018318
 1828 Fit      -0.015859
 1829 Fit      -0.014261
 1830 Fit      -0.013639
 1831 Fit      -0.013468
 1832 Fit      -0.013729
 1833 Fit      -0.027139
 1834 Fit      -0.021772
 1835 Fit      -0.017194
 1836 Fit      -0.013104
 1837 Fit      -0.010029
 1838 Fit      -0.008195
 1839 Fit      -0.006893
 1840 Fit      -0.022122
 1841 Fit      -0.016288
 1842 Fit      -0.010671
 1843 Fit      -0.005701
 1844 Fit      -0.002034
 1845 Fit       0.000381
 1846 Fit      -0.017757
 1847 Fit      -0.010663
 1848 Fit      -0.002969
 1849 Fit      -0.013082
 1850 Fit      -0.005935
 1851 Fit      -0.004751
 1852 Fit      -0.006383
 1853 Fit       0.000724
 1854 Fit       0.003740
 1855 Fit       0.005394
 1856 Fit      -0.001354
 1857 Fit      -0.002494
 1858 Fit       0.000764
 1859 Fit      -0.001187
 1860 Fit      -0.006348
 1861 Fit      -0.004326
 1862 Fit      -0.000534
 1863 Fit       0.001798
 1864 Fit      -0.010406
 1865 Fit      -0.004030
 1866 Fit      -0.007274
 1867 Fit       0.000074
 1868 Fit       0.002391
 1869 Fit       0.009937
 1870 Fit       0.004538
 1871 Fit       0.002507
 1872 Fit       0.009107
 1873 Fit       0.005172
 1874 Fit       0.004084
 1875 Fit       0.009231
 1876 Fit       0.009888
 1877 Fit       0.005933
 1878 Fit       0.006999
 1879 Fit       0.008123
 1880 Fit       0.008590
 1881 Fit       0.009674
 1882 Fit       0.009440
 1883 Fit       0.009862
 1884 Fit       0.009797
 1885 Fit       0.008484
 1886 Fit      -0.009416
 1887 Fit      -0.007174
 1888 Fit      -0.009980
 1889 Fit      -0.016398
 1890 Fit      -0.018730
 1891 Fit      -0.011025
 1892 Fit      -0.017629
 1893 Fit      -0.023713
 1894 Fit      -0.005113
 1895 Fit      -0.009755
 1896 Fit      -0.014879
 1897 Fit      -0.020238
 1898 Fit      -0.026324
 1899 Fit      -0.004627
 1900 Fit      -0.008449
 1901 Fit      -0.011799
 1902 Fit      -0.015248
 1903 Fit      -0.018873
 1904 Fit      -0.023035
 1905 Fit      -0.007758
 1906 Fit      -0.011214
 1907 Fit      -0.013602
 1908 Fit      -0.015699
 1909 Fit      -0.017720
 1910 Fit      -0.020092
 1911 Fit      -0.008474
 1912 Fit      -0.011896
 1913 Fit      -0.013674
 1914 Fit      -0.014433
 1915 Fit      -0.014499
 1916 Fit      -0.013824
 1917 Fit       0.001431
 1918 Fit      -0.004176
 1919 Fit      -0.008794
 1920 Fit      -0.011818
 1921 Fit      -0.012831
 1922 Fit      -0.012000
 1923 Fit      -0.009326
 1924 Fit      -0.003580
 1925 Fit      -0.001115
 1926 Fit      -0.007526
 1927 Fit      -0.009322
 1928 Fit      -0.005510
 1929 Fit      -0.002893
 1930 Fit      -0.006784
 1931 Fit      -0.005289
 1932 Fit      -0.002931
 1933 Fit      -0.003834
 1934 Fit      -0.001767
 1935 Fit       0.000449
 1936 Fit      -0.005478
 1937 Fit      -0.007014
 1938 Fit      -0.006108
 1939 Fit      -0.004773
 1940 Fit      -0.006598
 1941 Fit      -0.003737
 1942 Fit      -0.005004
 1943 Fit      -0.007643
 1944 Fit      -0.006245
 1945 Fit      -0.003093
 1946 Fit      -0.004001
 1947 Fit      -0.002093
 1948 Fit      -0.002633
 1949 Fit       0.005024
 1950 Fit       0.007267
 1951 Fit       0.005053
 1952 Fit      -0.000757
 1953 Fit      -0.001234
 1954 Fit       0.004600
 1955 Fit       0.000857
 1956 Fit      -0.003493
 1957 Fit       0.006949
 1958 Fit       0.002810
 1959 Fit      -0.002973
 1960 Fit       0.004183
 1961 Fit      -0.001005
 1962 Fit      -0.001373
 1963 Fit      -0.013055
 1964 Fit      -0.013074
 1965 Fit      -0.010838
 1966 Fit      -0.010859
 1967 Fit      -0.013677
 1968 Fit      -0.013821
 1969 Fit      -0.013252
 1970 Fit      -0.013540
 1971 Fit      -0.011343
 1972 Fit      -0.007607
 1973 Fit      -0.005291
 1974 Fit      -0.006891
 1975 Fit      -0.011162
 1976 Fit      -0.014442
 1977 Fit      -0.014646
 1978 Fit      -0.012646
 1979 Fit      -0.010989
 1980 Fit      -0.011153
 1981 Fit      -0.012910
 1982 Fit      -0.013636
 1983 Fit      -0.011572
 1984 Fit      -0.007069
 1985 Fit      -0.002055
 1986 Fit      -0.005275
 1987 Fit      -0.010991
 1988 Fit      -0.014400
 1989 Fit      -0.014361
 1990 Fit      -0.011179
 1991 Fit      -0.008247
 1992 Fit      -0.012196
 1993 Fit      -0.012291
 1994 Fit      -0.010242
 1995 Fit      -0.006901
 1996 Fit      -0.011381
 1997 Fit      -0.012931
 1998 Fit      -0.010603
 1999 Fit      -0.010198
 2000 Fit      -0.008735
 2001 Fit      -0.003395
 2002 Fit      -0.007308
 2003 Fit      -0.008796
 2004 Fit      -0.006669
 2005 Fit      -0.006154
 2006 Fit      -0.003010
 2007 Fit      -0.002571
 2008 Fit       0.001459
 2009 Fit      -0.002206
 2010 Fit       0.003535
 2011 Fit       0.006238
 2012 Fit       0.007699
 2013 Fit       0.003143
 2014 Fit       0.001082
 2015 Fit       0.006052
 2016 Fit       0.005186
 2017 Fit       0.004335
 2018 Fit       0.003833
 2019 Fit       0.006928
 2020 Fit       0.006426
 2021 Fit       0.006290
 2022 Fit       0.007478
 2023 Fit       0.007261
 2024 Fit       0.007815
 2025 Fit       0.001898
 2026 Fit       0.001954
 2027 Fit       0.002277
 2028 Fit       0.004380
 2029 Fit       0.004816
 2030 Fit       0.003651
 2031 Fit       0.000481
 2032 Fit       0.005015
 2033 Fit       0.006004
 2034 Fit       0.006003
 2035 Fit       0.005007
 2036 Fit       0.002971
 2037 Fit       0.006998
 2038 Fit       0.005980
 2039 Fit       0.003570
 2040 Fit       0.005692
 2041 Fit       0.003297
 2042 Fit       0.002626
 2043 Fit       0.002285
 2044 Fit       0.002964
 2045 Fit       0.002605
 2046 Fit       0.003301
 2047 Fit       0.003487
 2048 Fit       0.006529
 2049 Fit       0.007300
 2050 Fit       0.004536
 2051 Fit       0.005221
 2052 Fit       0.005825
 2053 Fit      -0.003897
 2054 Fit       0.000121
 2055 Fit      -0.001134
 2056 Fit       0.001177
 2057 Fit       0.002236
 2058 Fit      -0.006798
 2059 Fit       0.000836
 2060 Fit       0.002055
 2061 Fit       0.002537
 2062 Fit      -0.001688
 2063 Fit       0.001859
 2064 Fit       0.002369
 2065 Fit       0.002586
 2066 Fit       0.001032
 2067 Fit       0.006298
 2068 Fit       0.005287
 2069 Fit       0.007538
 2070 Fit       0.008042
 2071 Fit       0.006165
 2072 Fit       0.005041
 2073 Fit       0.005396
 2074 Fit       0.006280
 2075 Fit       0.007157
 2076 Fit       0.007873
 2077 Fit       0.006312
 2078 Fit       0.005941
 2079 Fit       0.003672
 2080 Fit       0.005017
 2081 Fit       0.006159
 2082 Fit       0.006992
 2083 Fit       0.004186
 2084 Fit       0.005441
 2085 Fit       0.006354
 2086 Fit       0.006864
 2087 Fit       0.007326
 2088 Fit       0.003905
 2089 Fit       0.005128
 2090 Fit       0.006091
 2091 Fit       0.006528
 2092 Fit       0.006791
 2093 Fit       0.004955
 2094 Fit       0.005729
 2095 Fit       0.005810
 2096 Fit       0.005037
 Job cpu time:       0 days  0 hours 12 minutes 35.9 seconds.
 Normal termination of Gaussian 16 at Sun Jul  9 07:56:14 2023.
