 Copyright (c) 1988-2019, Gaussian, Inc.  All Rights Reserved.
  
 This is part of the Gaussian(R) 16 program.  It is based on
 the Gaussian(R) 09 system (copyright 2009, Gaussian, Inc.),
 the Gaussian(R) 03 system (copyright 2003, Gaussian, Inc.),
 the Gaussian(R) 98 system (copyright 1998, Gaussian, Inc.),
 the Gaussian(R) 94 system (copyright 1995, Gaussian, Inc.),
 the Gaussian 92(TM) system (copyright 1992, Gaussian, Inc.),
 the Gaussian 90(TM) system (copyright 1990, Gaussian, Inc.),
 the Gaussian 88(TM) system (copyright 1988, Gaussian, Inc.),
 the Gaussian 86(TM) system (copyright 1986, Carnegie Mellon
 University), and the Gaussian 82(TM) system (copyright 1983,
 Carnegie Mellon University). Gaussian is a federally registered
 trademark of Gaussian, Inc.
 Cite this work as:
 Gaussian 16, Revision C.01,
 M. J. Frisch, G. W. Trucks, H. B. Schlegel, G. E. Scuseria, 
 M. A. Robb, J. R. Cheeseman, G. Scalmani, V. Barone, 
 G. A. Petersson, H. Nakatsuji, X. Li, M. Caricato, A. V. Marenich, 
 J. Bloino, B. G. Janesko, R. Gomperts, B. Mennucci, H. P. Hratchian, 
 J. V. Ortiz, A. F. Izmaylov, J. L. Sonnenberg, D. Williams-Young, 
 F. Ding, F. Lipparini, F. Egidi, J. Goings, B. Peng, A. Petrone, 
 T. Henderson, D. Ranasinghe, V. G. Zakrzewski, J. Gao, N. Rega, 
 G. Zheng, W. Liang, M. Hada, M. Ehara, K. Toyota, R. Fukuda, 
 J. Hasegawa, M. Ishida, T. Nakajima, Y. Honda, O. Kitao, H. Nakai, 
 T. Vreven, K. Throssell, J. A. Montgomery, Jr., J. E. Peralta, 
 F. Ogliaro, M. J. Bearpark, J. J. Heyd, E. N. Brothers, K. N. Kudin, 
 V. N. Staroverov, T. A. Keith, R. Kobayashi, J. Normand, 
 K. Raghavachari, A. P. Rendell, J. C. Burant, S. S. Iyengar, 
 J. Tomasi, M. Cossi, J. M. Millam, M. Klene, C. Adamo, R. Cammi, 
 J. W. Ochterski, R. L. Martin, K. Morokuma, O. Farkas, 
 J. B. Foresman, and D. J. Fox, Gaussian, Inc., Wallingford CT, 2019.
 
 ******************************************
 Gaussian 16:  EM64L-G16RevC.01  3-Jul-2019
                 9-Jul-2023 
 ******************************************
 ----------------------------------------------------------------------
 #P B3LYP/6-31G(d) Integral=Ultrafine SCF(Conver=8,XQC,MaxConventionalC
 ycles=64,MaxCycle=128) NoSymm Test Pop=mk IOp(6/33=2) GFInput GFPrint
 ----------------------------------------------------------------------
 1/38=1,172=1/1;
 2/12=2,15=1,17=6,18=5,40=1/2;
 3/5=1,6=6,7=1,11=2,24=110,25=1,30=1,74=-5,75=-5/1,2,3;
 4//1;
 5/5=2,6=8,7=128,8=3,13=1,38=5,85=64/2,8;
 6/7=2,8=2,9=2,10=2,15=8,20=1,28=1,33=2/1,2;
 99/5=1,9=1/99;
 -------------------------------------------------
 MEP step - Input generated by PyRED DVE-DMDS-OPLS
 -------------------------------------------------
 Symbolic Z-matrix:
 Charge =  0 Multiplicity = 1
 C                    -2.19774   3.109     7.56962 
 H                    -2.7294    3.90916   7.04457 
 H                    -2.93184   2.49238   8.10008 
 H                    -1.53023   3.56718   8.30636 
 C                    -1.40356   2.26186   6.58907 
 H                    -0.87798   1.44803   7.1148 
 H                    -2.07992   1.79168   5.8571 
 O                    -0.45821   3.10679   5.94276 
 C                     0.40407   2.44502   5.03361 
 H                     0.67749   1.44246   5.39604 
 H                     1.32107   3.0432    4.9872 
 C                    -0.21987   2.33248   3.63549 
 H                    -1.12076   1.71116   3.67072 
 H                    -0.51416   3.3298    3.27903 
 O                     0.66845   1.70097   2.71561 
 C                     1.57174   2.5967    2.07575 
 H                     2.13935   3.1741    2.82246 
 H                     1.01786   3.30979   1.44604 
 C                     2.56722   1.82707   1.2175 
 H                     3.0132    1.01944   1.81729 
 H                     3.36969   2.52243   0.94038 
 O                     2.0449    1.32745   0. 
 C                     1.52904   0.        0. 
 H                     1.91796  -0.55719   0.86278 
 H                     1.89579  -0.49093  -0.90899 
 C                     0.        0.        0. 
 H                    -0.36632   0.51067  -0.8965 
 H                    -0.37584   0.54176   0.87008 
 S                    -0.73587  -1.68145  -0.0918 
 C                    -0.28944  -2.40999   1.54096 
 H                    -0.65615  -3.43892   1.46881 
 H                     0.79694  -2.46419   1.65429 
 C                    -0.91497  -1.68678   2.73357 
 H                    -1.9971   -1.58579   2.60137 
 H                    -0.4968   -0.68008   2.82579 
 S                    -0.54485  -2.4731    4.3574 
 C                    -1.58585  -3.98703   4.29308 
 H                    -1.19666  -4.622     5.09449 
 H                    -1.39291  -4.50934   3.34782 
 C                    -3.09643  -3.79459   4.4699 
 H                    -3.498    -3.07076   3.75229 
 H                    -3.58872  -4.7513    4.25718 
 S                    -3.65855  -3.33101   6.15661 
 C                    -3.73438  -1.49303   6.05876 
 H                    -2.72916  -1.10513   5.8745 
 H                    -4.37469  -1.2178    5.21273 
 C                    -4.30606  -0.93915   7.3633 
 H                    -5.31355  -1.32424   7.55333 
 H                    -3.67389  -1.2038    8.21765 
 H                    -4.36525   0.15445   7.31233 
 
 ITRead=  0  0  0  0  0  0  0  0  0  0  0  0  0  0  0  0  0  0  0  0
 ITRead=  0  0  0  0  0  0  0  0  0  0  0  0  0  0  0  0  0  0  0  0
 ITRead=  0  0  0  0  0  0  0  0  0  0
 MicOpt= -1 -1 -1 -1 -1 -1 -1 -1 -1 -1 -1 -1 -1 -1 -1 -1 -1 -1 -1 -1
 MicOpt= -1 -1 -1 -1 -1 -1 -1 -1 -1 -1 -1 -1 -1 -1 -1 -1 -1 -1 -1 -1
 MicOpt= -1 -1 -1 -1 -1 -1 -1 -1 -1 -1
 NAtoms=     50 NQM=       50 NQMF=       0 NMMI=      0 NMMIF=      0
                NMic=       0 NMicF=      0.
                          Input orientation:                          
 ---------------------------------------------------------------------
 Center     Atomic      Atomic             Coordinates (Angstroms)
 Number     Number       Type             X           Y           Z
 ---------------------------------------------------------------------
      1          6           0       -2.197742    3.109001    7.569618
      2          1           0       -2.729404    3.909163    7.044573
      3          1           0       -2.931840    2.492376    8.100083
      4          1           0       -1.530232    3.567177    8.306364
      5          6           0       -1.403564    2.261856    6.589072
      6          1           0       -0.877976    1.448034    7.114801
      7          1           0       -2.079916    1.791683    5.857101
      8          8           0       -0.458212    3.106788    5.942760
      9          6           0        0.404067    2.445022    5.033608
     10          1           0        0.677487    1.442461    5.396042
     11          1           0        1.321074    3.043197    4.987199
     12          6           0       -0.219869    2.332483    3.635490
     13          1           0       -1.120758    1.711158    3.670715
     14          1           0       -0.514155    3.329801    3.279034
     15          8           0        0.668447    1.700974    2.715606
     16          6           0        1.571741    2.596699    2.075752
     17          1           0        2.139348    3.174105    2.822459
     18          1           0        1.017858    3.309794    1.446040
     19          6           0        2.567221    1.827072    1.217500
     20          1           0        3.013200    1.019438    1.817287
     21          1           0        3.369685    2.522428    0.940384
     22          8           0        2.044899    1.327449    0.000000
     23          6           0        1.529042    0.000000    0.000000
     24          1           0        1.917958   -0.557191    0.862776
     25          1           0        1.895793   -0.490929   -0.908987
     26          6           0        0.000000    0.000000    0.000000
     27          1           0       -0.366323    0.510673   -0.896500
     28          1           0       -0.375837    0.541764    0.870081
     29         16           0       -0.735865   -1.681452   -0.091798
     30          6           0       -0.289440   -2.409986    1.540959
     31          1           0       -0.656151   -3.438917    1.468807
     32          1           0        0.796942   -2.464193    1.654292
     33          6           0       -0.914967   -1.686780    2.733574
     34          1           0       -1.997095   -1.585787    2.601373
     35          1           0       -0.496796   -0.680077    2.825791
     36         16           0       -0.544847   -2.473104    4.357398
     37          6           0       -1.585847   -3.987026    4.293079
     38          1           0       -1.196658   -4.622003    5.094492
     39          1           0       -1.392910   -4.509335    3.347817
     40          6           0       -3.096429   -3.794589    4.469901
     41          1           0       -3.498004   -3.070755    3.752293
     42          1           0       -3.588719   -4.751298    4.257179
     43         16           0       -3.658553   -3.331008    6.156607
     44          6           0       -3.734382   -1.493028    6.058763
     45          1           0       -2.729164   -1.105133    5.874502
     46          1           0       -4.374692   -1.217800    5.212732
     47          6           0       -4.306063   -0.939154    7.363300
     48          1           0       -5.313552   -1.324238    7.553326
     49          1           0       -3.673891   -1.203800    8.217651
     50          1           0       -4.365254    0.154446    7.312327
 ---------------------------------------------------------------------
 Stoichiometry    C14H30O3S3
 Framework group  C1[X(C14H30O3S3)]
 Standard basis: 6-31G(d) (6D, 7F)
   372 basis functions,   752 primitive gaussians,   372 cartesian basis functions
    93 alpha electrons       93 beta electrons
 Requested convergence on RMS density matrix=1.00D-08 within  64 cycles.
 Requested convergence on MAX density matrix=1.00D-06.
 Requested convergence on             energy=1.00D-06.
 SCF Done:  E(RB3LYP) =  -1971.75314448     A.U. after   13 cycles
            NFock= 13  Conv=0.56D-08     -V/T= 2.0058
 Mulliken charges:
     1  C   -0.456359
     2  H    0.158034
     3  H    0.146748
     4  H    0.161160
     5  C   -0.018662
     6  H    0.131280
     7  H    0.122530
     8  O   -0.471933
     9  C   -0.039918
    10  H    0.139065
    11  H    0.144723
    12  C   -0.046152
    13  H    0.145817
    14  H    0.140980
    15  O   -0.481776
    16  C   -0.030189
    17  H    0.125202
    18  H    0.141704
    19  C   -0.043753
    20  H    0.138331
    21  H    0.146761
    22  O   -0.472685
    23  C   -0.016057
    24  H    0.132138
    25  H    0.153703
    26  C   -0.438828
    27  H    0.180967
    28  H    0.195397
    29  S    0.070694
    30  C   -0.410730
    31  H    0.177244
    32  H    0.186636
    33  C   -0.436954
    34  H    0.178241
    35  H    0.205459
    36  S    0.085923
    37  C   -0.407909
    38  H    0.193076
    39  H    0.169508
    40  C   -0.416738
    41  H    0.174515
    42  H    0.180350
    43  S    0.085245
    44  C   -0.401802
    45  H    0.195563
    46  H    0.160492
    47  C   -0.459585
    48  H    0.165022
    49  H    0.165342
    50  H    0.152176
 Sum of Mulliken charges =  -0.00000
 Dipole moment (field-independent basis, Debye):
    X=              0.2912    Y=              1.2490    Z=              0.3488  Tot=              1.3291
 Quadrupole moment (field-independent basis, Debye-Ang):
   XX=           -145.5105   YY=           -146.6714   ZZ=           -160.6285
   XY=             -1.8151   XZ=              2.0358   YZ=              7.5950
 Traceless Quadrupole moment (field-independent basis, Debye-Ang):
   XX=              5.4263   YY=              4.2654   ZZ=             -9.6917
   XY=             -1.8151   XZ=              2.0358   YZ=              7.5950
 Octapole moment (field-independent basis, Debye-Ang**2):
  XXX=            424.8875  YYY=            145.5272  ZZZ=          -1702.0490  XYY=            147.6874
  XXY=             97.6462  XXZ=           -534.1389  XZZ=            147.7214  YZZ=            133.7924
  YYZ=           -570.4888  XYZ=            -29.3212
 Hexadecapole moment (field-independent basis, Debye-Ang**3):
 XXXX=          -4243.2519 YYYY=          -5224.5986 ZZZZ=         -18151.5852 XXXY=          -1295.3055
 XXXZ=           3113.8010 YYYX=          -1113.5143 YYYZ=            480.7679 ZZZX=           3094.3451
 ZZZY=           1187.0502 XXYY=          -1649.6078 XXZZ=          -3728.7833 YYZZ=          -4295.7944
 XXYZ=            463.9380 YYXZ=           1146.2492 ZZXY=           -734.1062
 Merz-Kollman atomic radii used.
 Atom Element Radius
    1     6    1.50
    2     1    1.20
    3     1    1.20
    4     1    1.20
    5     6    1.50
    6     1    1.20
    7     1    1.20
    8     8    1.40
    9     6    1.50
   10     1    1.20
   11     1    1.20
   12     6    1.50
   13     1    1.20
   14     1    1.20
   15     8    1.40
   16     6    1.50
   17     1    1.20
   18     1    1.20
   19     6    1.50
   20     1    1.20
   21     1    1.20
   22     8    1.40
   23     6    1.50
   24     1    1.20
   25     1    1.20
   26     6    1.50
   27     1    1.20
   28     1    1.20
   29    16    1.75
   30     6    1.50
   31     1    1.20
   32     1    1.20
   33     6    1.50
   34     1    1.20
   35     1    1.20
   36    16    1.75
   37     6    1.50
   38     1    1.20
   39     1    1.20
   40     6    1.50
   41     1    1.20
   42     1    1.20
   43    16    1.75
   44     6    1.50
   45     1    1.20
   46     1    1.20
   47     6    1.50
   48     1    1.20
   49     1    1.20
   50     1    1.20
 Generate VDW surfaces: Layer= 4 Dens= 1 Start= 1.400 Inc= 0.200
            Electrostatic Properties Using The SCF Density.


       Atomic Center    1 is at  -2.197742  3.109001  7.569618
       Atomic Center    2 is at  -2.729404  3.909163  7.044573
       Atomic Center    3 is at  -2.931840  2.492376  8.100083
       Atomic Center    4 is at  -1.530232  3.567177  8.306364
       Atomic Center    5 is at  -1.403564  2.261856  6.589072
       Atomic Center    6 is at  -0.877976  1.448034  7.114801
       Atomic Center    7 is at  -2.079916  1.791683  5.857101
       Atomic Center    8 is at  -0.458212  3.106788  5.942760
       Atomic Center    9 is at   0.404067  2.445022  5.033608
       Atomic Center   10 is at   0.677487  1.442461  5.396042
       Atomic Center   11 is at   1.321074  3.043197  4.987199
       Atomic Center   12 is at  -0.219869  2.332483  3.635490
       Atomic Center   13 is at  -1.120758  1.711158  3.670715
       Atomic Center   14 is at  -0.514155  3.329801  3.279034
       Atomic Center   15 is at   0.668447  1.700974  2.715606
       Atomic Center   16 is at   1.571741  2.596699  2.075752
       Atomic Center   17 is at   2.139348  3.174105  2.822459
       Atomic Center   18 is at   1.017858  3.309794  1.446040
       Atomic Center   19 is at   2.567221  1.827072  1.217500
       Atomic Center   20 is at   3.013200  1.019438  1.817287
       Atomic Center   21 is at   3.369685  2.522428  0.940384
       Atomic Center   22 is at   2.044899  1.327449  0.000000
       Atomic Center   23 is at   1.529042  0.000000  0.000000
       Atomic Center   24 is at   1.917958 -0.557191  0.862776
       Atomic Center   25 is at   1.895793 -0.490929 -0.908987
       Atomic Center   26 is at   0.000000  0.000000  0.000000
       Atomic Center   27 is at  -0.366323  0.510673 -0.896500
       Atomic Center   28 is at  -0.375837  0.541764  0.870081
       Atomic Center   29 is at  -0.735865 -1.681452 -0.091798
       Atomic Center   30 is at  -0.289440 -2.409986  1.540959
       Atomic Center   31 is at  -0.656151 -3.438917  1.468807
       Atomic Center   32 is at   0.796942 -2.464193  1.654292
       Atomic Center   33 is at  -0.914967 -1.686780  2.733574
       Atomic Center   34 is at  -1.997095 -1.585787  2.601373
       Atomic Center   35 is at  -0.496796 -0.680077  2.825791
       Atomic Center   36 is at  -0.544847 -2.473104  4.357398
       Atomic Center   37 is at  -1.585847 -3.987026  4.293079
       Atomic Center   38 is at  -1.196658 -4.622003  5.094492
       Atomic Center   39 is at  -1.392910 -4.509335  3.347817
       Atomic Center   40 is at  -3.096429 -3.794589  4.469901
       Atomic Center   41 is at  -3.498004 -3.070755  3.752293
       Atomic Center   42 is at  -3.588719 -4.751298  4.257179
       Atomic Center   43 is at  -3.658553 -3.331008  6.156607
       Atomic Center   44 is at  -3.734382 -1.493028  6.058763
       Atomic Center   45 is at  -2.729164 -1.105133  5.874502
       Atomic Center   46 is at  -4.374692 -1.217800  5.212732
       Atomic Center   47 is at  -4.306063 -0.939154  7.363300
       Atomic Center   48 is at  -5.313552 -1.324238  7.553326
       Atomic Center   49 is at  -3.673891 -1.203800  8.217651
       Atomic Center   50 is at  -4.365254  0.154446  7.312327
      ESP Fit Center   51 is at  -1.672742  2.199674  9.388271
      ESP Fit Center   52 is at  -3.388707  4.483447  8.619618
      ESP Fit Center   53 is at  -3.942727  2.596627  6.519618
      ESP Fit Center   54 is at  -2.451953  5.482664  7.563722
      ESP Fit Center   55 is at  -3.528291  5.292877  7.563722
      ESP Fit Center   56 is at  -4.230821  4.455634  7.563722
      ESP Fit Center   57 is at  -1.505437  4.936193  6.525424
      ESP Fit Center   58 is at  -2.451953  5.482664  6.525424
      ESP Fit Center   59 is at  -3.528291  5.292877  6.525424
      ESP Fit Center   60 is at  -4.230821  4.455634  6.525424
      ESP Fit Center   61 is at  -4.230821  3.362692  6.525424
      ESP Fit Center   62 is at  -2.424256  4.848312  5.685424
      ESP Fit Center   63 is at  -3.528291  4.489589  5.685424
      ESP Fit Center   64 is at  -3.528291  3.328737  5.685424
      ESP Fit Center   65 is at  -2.729404  3.909163  5.364573
      ESP Fit Center   66 is at  -2.931840  2.492376  9.780083
      ESP Fit Center   67 is at  -3.730727  3.072802  9.459232
      ESP Fit Center   68 is at  -3.730727  1.911950  9.459232
      ESP Fit Center   69 is at  -2.626692  1.553227  9.459232
      ESP Fit Center   70 is at  -4.433257  3.038847  8.619232
      ESP Fit Center   71 is at  -4.433257  1.945905  8.619232
      ESP Fit Center   72 is at  -3.730727  1.108662  8.619232
      ESP Fit Center   73 is at  -2.654389  0.918875  8.619232
      ESP Fit Center   74 is at  -4.433257  3.038847  7.580934
      ESP Fit Center   75 is at  -4.433257  1.945905  7.580934
      ESP Fit Center   76 is at  -3.730727  1.911950  6.740934
      ESP Fit Center   77 is at  -1.530232  3.567177  9.986364
      ESP Fit Center   78 is at  -0.542753  3.567177  9.665513
      ESP Fit Center   79 is at  -1.225084  4.506326  9.665513
      ESP Fit Center   80 is at  -2.329119  4.147603  9.665513
      ESP Fit Center   81 is at  -2.329119  2.986751  9.665513
      ESP Fit Center   82 is at  -1.225084  2.628028  9.665513
      ESP Fit Center   83 is at   0.067543  3.567177  8.825513
      ESP Fit Center   84 is at  -0.306265  4.594207  8.825513
      ESP Fit Center   85 is at  -1.252781  5.140678  8.825513
      ESP Fit Center   86 is at  -2.329119  4.950891  8.825513
      ESP Fit Center   87 is at  -0.306265  2.540147  8.825513
      ESP Fit Center   88 is at   0.067543  3.567177  7.787215
      ESP Fit Center   89 is at  -0.306265  4.594207  7.787215
      ESP Fit Center   90 is at  -1.252781  5.140678  7.787215
      ESP Fit Center   91 is at  -2.594529  0.887410  7.639072
      ESP Fit Center   92 is at  -0.877976  1.448034  8.794801
      ESP Fit Center   93 is at   0.109503  1.448034  8.473950
      ESP Fit Center   94 is at  -1.676863  0.867608  8.473950
      ESP Fit Center   95 is at  -0.572828  0.508885  8.473950
      ESP Fit Center   96 is at   0.719799  1.448034  7.633950
      ESP Fit Center   97 is at  -1.676863  0.064320  7.633950
      ESP Fit Center   98 is at  -0.600525 -0.125467  7.633950
      ESP Fit Center   99 is at   0.345991  0.421004  7.633950
      ESP Fit Center  100 is at  -1.676863  0.064320  6.595652
      ESP Fit Center  101 is at  -0.600525 -0.125467  6.595652
      ESP Fit Center  102 is at  -2.878803  3.175397  5.337952
      ESP Fit Center  103 is at  -3.581333  2.338154  5.337952
      ESP Fit Center  104 is at  -3.581333  1.245212  5.337952
      ESP Fit Center  105 is at  -1.802465  0.218182  5.337952
      ESP Fit Center  106 is at  -2.878803  2.372109  4.497952
      ESP Fit Center  107 is at  -2.878803  1.211257  4.497952
      ESP Fit Center  108 is at   0.521788  3.106788  7.640170
      ESP Fit Center  109 is at   0.031788  3.955493  7.640170
      ESP Fit Center  110 is at   1.239198  3.106788  6.922760
      ESP Fit Center  111 is at   0.915021  4.104500  6.922760
      ESP Fit Center  112 is at   0.066316  4.721121  6.922760
      ESP Fit Center  113 is at  -0.982740  4.721121  6.922760
      ESP Fit Center  114 is at   0.521788  4.804198  5.942760
      ESP Fit Center  115 is at  -0.458212  5.066788  5.942760
      ESP Fit Center  116 is at  -1.438212  4.804198  5.942760
      ESP Fit Center  117 is at   0.066316  4.721121  4.962760
      ESP Fit Center  118 is at  -0.982740  4.721121  4.962760
      ESP Fit Center  119 is at  -1.831445  4.104500  4.962760
      ESP Fit Center  120 is at   1.454067  2.445022  6.852261
      ESP Fit Center  121 is at   1.664966  1.442461  6.755191
      ESP Fit Center  122 is at   0.982635  0.503312  6.755191
      ESP Fit Center  123 is at   2.275262  1.442461  5.915191
      ESP Fit Center  124 is at  -0.121400  0.058747  5.915191
      ESP Fit Center  125 is at   0.954938 -0.131040  5.915191
      ESP Fit Center  126 is at   1.901454  0.415431  5.915191
      ESP Fit Center  127 is at   2.275262  1.442461  4.876893
      ESP Fit Center  128 is at  -0.121400  0.058747  4.876893
      ESP Fit Center  129 is at   0.954938 -0.131040  4.876893
      ESP Fit Center  130 is at   1.901454  0.415431  4.876893
      ESP Fit Center  131 is at   2.308553  3.043197  6.346348
      ESP Fit Center  132 is at   1.626222  3.982346  6.346348
      ESP Fit Center  133 is at   2.918849  3.043197  5.506348
      ESP Fit Center  134 is at   2.545041  4.070227  5.506348
      ESP Fit Center  135 is at   1.598525  4.616698  5.506348
      ESP Fit Center  136 is at   2.545041  2.016167  5.506348
      ESP Fit Center  137 is at   2.918849  3.043197  4.468050
      ESP Fit Center  138 is at   2.545041  4.070227  4.468050
      ESP Fit Center  139 is at   1.598525  4.616698  4.468050
      ESP Fit Center  140 is at   2.545041  2.016167  4.468050
      ESP Fit Center  141 is at  -1.269869  2.332483  1.816837
      ESP Fit Center  142 is at  -2.622175  2.257629  4.189864
      ESP Fit Center  143 is at  -2.622175  1.164687  4.189864
      ESP Fit Center  144 is at  -1.919645  0.327444  4.189864
      ESP Fit Center  145 is at  -2.622175  2.257629  3.151566
      ESP Fit Center  146 is at  -2.622175  1.164687  3.151566
      ESP Fit Center  147 is at  -1.919645  0.327444  3.151566
      ESP Fit Center  148 is at  -1.919645  2.291584  2.311566
      ESP Fit Center  149 is at  -1.919645  1.130732  2.311566
      ESP Fit Center  150 is at   0.709812  4.356831  3.798183
      ESP Fit Center  151 is at  -0.236704  4.903302  3.798183
      ESP Fit Center  152 is at  -1.313042  4.713515  3.798183
      ESP Fit Center  153 is at  -2.015572  3.876272  3.798183
      ESP Fit Center  154 is at  -0.236704  4.903302  2.759885
      ESP Fit Center  155 is at  -1.313042  4.713515  2.759885
      ESP Fit Center  156 is at  -2.015572  3.876272  2.759885
      ESP Fit Center  157 is at  -1.313042  3.910227  1.919885
      ESP Fit Center  158 is at   1.192975  0.086641  3.695606
      ESP Fit Center  159 is at   2.041680  0.703262  3.695606
      ESP Fit Center  160 is at   1.648447  0.003564  2.715606
      ESP Fit Center  161 is at   1.824868  4.681388  2.075752
      ESP Fit Center  162 is at   3.126827  3.174105  4.181608
      ESP Fit Center  163 is at   2.444496  4.113254  4.181608
      ESP Fit Center  164 is at   3.737123  3.174105  3.341608
      ESP Fit Center  165 is at   3.363315  4.201135  3.341608
      ESP Fit Center  166 is at   2.416799  4.747606  3.341608
      ESP Fit Center  167 is at   1.340461  4.557819  3.341608
      ESP Fit Center  168 is at   3.363315  2.147075  3.341608
      ESP Fit Center  169 is at   3.363315  4.201135  2.303310
      ESP Fit Center  170 is at   2.416799  4.747606  2.303310
      ESP Fit Center  171 is at   1.295309  4.883295  1.965189
      ESP Fit Center  172 is at   0.218971  4.693508  1.965189
      ESP Fit Center  173 is at   2.241825  4.336824  0.926891
      ESP Fit Center  174 is at   1.295309  4.883295  0.926891
      ESP Fit Center  175 is at   0.218971  4.693508  0.926891
      ESP Fit Center  176 is at  -0.483559  3.856265  0.926891
      ESP Fit Center  177 is at  -0.483559  2.763323  0.926891
      ESP Fit Center  178 is at   1.323006  4.248943  0.086891
      ESP Fit Center  179 is at   0.218971  3.890220  0.086891
      ESP Fit Center  180 is at   0.218971  2.729368  0.086891
      ESP Fit Center  181 is at   1.017858  3.309794 -0.233960
      ESP Fit Center  182 is at   2.308400  3.627214  0.167500
      ESP Fit Center  183 is at   4.097170  0.843834  0.167500
      ESP Fit Center  184 is at   3.013200  1.019438  3.497287
      ESP Fit Center  185 is at   4.000679  1.019438  3.176436
      ESP Fit Center  186 is at   3.318348  1.958587  3.176436
      ESP Fit Center  187 is at   2.214313  0.439012  3.176436
      ESP Fit Center  188 is at   3.318348  0.080289  3.176436
      ESP Fit Center  189 is at   4.610975  1.019438  2.336436
      ESP Fit Center  190 is at   3.290651 -0.554063  2.336436
      ESP Fit Center  191 is at   4.237167 -0.007592  2.336436
      ESP Fit Center  192 is at   4.610975  1.019438  1.298138
      ESP Fit Center  193 is at   4.237167 -0.007592  1.298138
      ESP Fit Center  194 is at   4.357164  2.522428  2.299533
      ESP Fit Center  195 is at   4.967460  2.522428  1.459533
      ESP Fit Center  196 is at   4.593652  3.549458  1.459533
      ESP Fit Center  197 is at   3.647136  4.095929  1.459533
      ESP Fit Center  198 is at   4.967460  2.522428  0.421235
      ESP Fit Center  199 is at   4.593652  3.549458  0.421235
      ESP Fit Center  200 is at   3.647136  4.095929  0.421235
      ESP Fit Center  201 is at   2.570798  3.906142  0.421235
      ESP Fit Center  202 is at   4.593652  1.495398  0.421235
      ESP Fit Center  203 is at   4.357164  2.522428 -0.418765
      ESP Fit Center  204 is at   3.674833  3.461577 -0.418765
      ESP Fit Center  205 is at   0.347489  2.307449  0.000000
      ESP Fit Center  206 is at   3.742309  0.347449  0.000000
      ESP Fit Center  207 is at   3.742309  1.327449 -0.980000
      ESP Fit Center  208 is at   3.418132  2.325161 -0.980000
      ESP Fit Center  209 is at   2.569427  2.941782 -0.980000
      ESP Fit Center  210 is at   1.520371  2.941782 -0.980000
      ESP Fit Center  211 is at   0.671666  2.325161 -0.980000
      ESP Fit Center  212 is at   3.418132  0.329737 -0.980000
      ESP Fit Center  213 is at   3.024899  1.327449 -1.697410
      ESP Fit Center  214 is at   2.534899  2.176154 -1.697410
      ESP Fit Center  215 is at   1.554899  2.176154 -1.697410
      ESP Fit Center  216 is at   1.064899  1.327449 -1.697410
      ESP Fit Center  217 is at   2.044899  1.327449 -1.960000
      ESP Fit Center  218 is at   3.629042  0.000000  0.000000
      ESP Fit Center  219 is at   1.782169 -2.084689  0.000000
      ESP Fit Center  220 is at   3.388500 -0.975919  0.000000
      ESP Fit Center  221 is at   1.004042  0.909327 -1.818653
      ESP Fit Center  222 is at   1.917958 -0.557191  2.542776
      ESP Fit Center  223 is at   2.223106 -1.496340  2.221925
      ESP Fit Center  224 is at   3.515733 -0.557191  1.381925
      ESP Fit Center  225 is at   3.141925 -1.584221  1.381925
      ESP Fit Center  226 is at   2.195409 -2.130692  0.343627
      ESP Fit Center  227 is at   3.141925 -1.584221  0.343627
      ESP Fit Center  228 is at   2.173244 -2.064430 -0.389838
      ESP Fit Center  229 is at   3.119760 -1.517959 -0.389838
      ESP Fit Center  230 is at   3.493568 -0.490929 -1.428136
      ESP Fit Center  231 is at   2.173244 -2.064430 -1.428136
      ESP Fit Center  232 is at   3.119760 -1.517959 -1.428136
      ESP Fit Center  233 is at   2.883272 -0.490929 -2.268136
      ESP Fit Center  234 is at   2.200941  0.448220 -2.268136
      ESP Fit Center  235 is at   1.096906  0.089497 -2.268136
      ESP Fit Center  236 is at   1.096906 -1.071355 -2.268136
      ESP Fit Center  237 is at   2.200941 -1.430078 -2.268136
      ESP Fit Center  238 is at   1.895793 -0.490929 -2.588987
      ESP Fit Center  239 is at  -0.744670  1.963534  0.000000
      ESP Fit Center  240 is at  -1.571873  1.392558  0.000000
      ESP Fit Center  241 is at  -2.038978  0.502563  0.000000
      ESP Fit Center  242 is at  -0.088872  2.084174 -0.377351
      ESP Fit Center  243 is at  -1.165210  1.894387 -0.377351
      ESP Fit Center  244 is at  -1.867740  1.057144 -0.377351
      ESP Fit Center  245 is at  -0.088872  2.084174 -1.415649
      ESP Fit Center  246 is at  -1.165210  1.894387 -1.415649
      ESP Fit Center  247 is at  -1.867740  1.057144 -1.415649
      ESP Fit Center  248 is at   0.621156  0.510673 -2.255649
      ESP Fit Center  249 is at  -0.061175  1.449822 -2.255649
      ESP Fit Center  250 is at  -1.165210  1.091099 -2.255649
      ESP Fit Center  251 is at  -1.165210 -0.069753 -2.255649
      ESP Fit Center  252 is at  -0.061175 -0.428476 -2.255649
      ESP Fit Center  253 is at  -0.366323  0.510673 -2.576500
      ESP Fit Center  254 is at  -1.174724  1.925478  1.389230
      ESP Fit Center  255 is at  -1.877254  1.088235  1.389230
      ESP Fit Center  256 is at  -1.877254 -0.004707  1.389230
      ESP Fit Center  257 is at  -0.098386  2.115265  0.350932
      ESP Fit Center  258 is at  -1.174724  1.925478  0.350932
      ESP Fit Center  259 is at  -1.877254  1.088235  0.350932
      ESP Fit Center  260 is at  -1.990242 -0.233823  1.435752
      ESP Fit Center  261 is at  -2.225116  0.186010  0.453378
      ESP Fit Center  262 is at  -2.887895 -0.645089  0.453378
      ESP Fit Center  263 is at  -3.124438 -1.681452  0.453378
      ESP Fit Center  264 is at  -2.887895 -2.717815  0.453378
      ESP Fit Center  265 is at  -2.225116 -3.548914  0.453378
      ESP Fit Center  266 is at  -2.225116  0.186010 -0.636974
      ESP Fit Center  267 is at  -2.887895 -0.645089 -0.636974
      ESP Fit Center  268 is at  -3.124438 -1.681452 -0.636974
      ESP Fit Center  269 is at  -2.887895 -2.717815 -0.636974
      ESP Fit Center  270 is at  -2.225116 -3.548914 -0.636974
      ESP Fit Center  271 is at  -1.267373 -4.010139 -0.636974
      ESP Fit Center  272 is at  -0.204357 -4.010139 -0.636974
      ESP Fit Center  273 is at   0.753386 -3.548914 -0.636974
      ESP Fit Center  274 is at   1.416165 -2.717815 -0.636974
      ESP Fit Center  275 is at  -1.990242 -0.233823 -1.619348
      ESP Fit Center  276 is at  -2.573761 -1.141797 -1.619348
      ESP Fit Center  277 is at  -2.573761 -2.221107 -1.619348
      ESP Fit Center  278 is at  -1.990242 -3.129081 -1.619348
      ESP Fit Center  279 is at  -1.008467 -3.577442 -1.619348
      ESP Fit Center  280 is at   0.059857 -3.423840 -1.619348
      ESP Fit Center  281 is at   0.875545 -2.717043 -1.619348
      ESP Fit Center  282 is at   0.327150 -1.681452 -2.299172
      ESP Fit Center  283 is at  -0.204357 -0.760854 -2.299172
      ESP Fit Center  284 is at  -1.267373 -0.760854 -2.299172
      ESP Fit Center  285 is at  -1.798880 -1.681452 -2.299172
      ESP Fit Center  286 is at  -1.267373 -2.602050 -2.299172
      ESP Fit Center  287 is at  -0.204357 -2.602050 -2.299172
      ESP Fit Center  288 is at  -0.735865 -1.681452 -2.541798
      ESP Fit Center  289 is at   0.466056 -4.064291  2.590959
      ESP Fit Center  290 is at  -2.328418 -2.912549  1.540959
      ESP Fit Center  291 is at   0.903496 -4.138252  1.540959
      ESP Fit Center  292 is at  -0.378700 -5.012418  1.987956
      ESP Fit Center  293 is at   0.567816 -4.465947  1.987956
      ESP Fit Center  294 is at  -2.157568 -3.985388  0.949658
      ESP Fit Center  295 is at  -1.455038 -4.822631  0.949658
      ESP Fit Center  296 is at  -0.378700 -5.012418  0.949658
      ESP Fit Center  297 is at   0.567816 -4.465947  0.949658
      ESP Fit Center  298 is at  -1.455038 -4.019343  0.109658
      ESP Fit Center  299 is at  -0.351003 -4.378066  0.109658
      ESP Fit Center  300 is at   1.784421 -2.464193  3.013441
      ESP Fit Center  301 is at   2.394717 -2.464193  2.173441
      ESP Fit Center  302 is at   1.074393 -4.037694  2.173441
      ESP Fit Center  303 is at   2.020909 -3.491223  2.173441
      ESP Fit Center  304 is at   2.394717 -2.464193  1.135143
      ESP Fit Center  305 is at   1.074393 -4.037694  1.135143
      ESP Fit Center  306 is at   2.020909 -3.491223  1.135143
      ESP Fit Center  307 is at   1.784421 -2.464193  0.295143
      ESP Fit Center  308 is at   1.102090 -3.403342  0.295143
      ESP Fit Center  309 is at  -2.105932 -0.312334  3.783574
      ESP Fit Center  310 is at  -2.795982 -1.005361  3.960522
      ESP Fit Center  311 is at  -2.795982 -0.202073  3.120522
      ESP Fit Center  312 is at  -3.498512 -1.039316  3.120522
      ESP Fit Center  313 is at  -2.795982 -0.202073  2.082224
      ESP Fit Center  314 is at  -3.498512 -1.039316  2.082224
      ESP Fit Center  315 is at  -3.498512 -2.132258  2.082224
      ESP Fit Center  316 is at  -2.795982 -2.969501  2.082224
      ESP Fit Center  317 is at  -2.795982 -1.005361  1.242224
      ESP Fit Center  318 is at  -2.795982 -2.166213  1.242224
      ESP Fit Center  319 is at  -0.191648  0.259072  4.184940
      ESP Fit Center  320 is at  -1.295683 -0.099651  4.184940
      ESP Fit Center  321 is at   1.100979 -0.680077  3.344940
      ESP Fit Center  322 is at  -1.295683  0.703637  2.306642
      ESP Fit Center  323 is at  -0.544847 -2.473104  6.807398
      ESP Fit Center  324 is at   0.518168 -2.473104  6.564772
      ESP Fit Center  325 is at  -0.013339 -1.552506  6.564772
      ESP Fit Center  326 is at  -1.076355 -1.552506  6.564772
      ESP Fit Center  327 is at  -1.076355 -3.393702  6.564772
      ESP Fit Center  328 is at  -0.013339 -3.393702  6.564772
      ESP Fit Center  329 is at   1.370640 -2.473104  5.884948
      ESP Fit Center  330 is at   1.066563 -1.437513  5.884948
      ESP Fit Center  331 is at   0.250875 -0.730716  5.884948
      ESP Fit Center  332 is at  -0.817449 -0.577114  5.884948
      ESP Fit Center  333 is at   0.250875 -4.215492  5.884948
      ESP Fit Center  334 is at   1.066563 -3.508695  5.884948
      ESP Fit Center  335 is at   1.843726 -2.473104  4.902574
      ESP Fit Center  336 is at   1.607183 -1.436741  4.902574
      ESP Fit Center  337 is at   0.944404 -0.605642  4.902574
      ESP Fit Center  338 is at  -0.013339 -0.144417  4.902574
      ESP Fit Center  339 is at  -1.076355 -0.144417  4.902574
      ESP Fit Center  340 is at   0.944404 -4.340566  4.902574
      ESP Fit Center  341 is at   1.607183 -3.509467  4.902574
      ESP Fit Center  342 is at   1.843726 -2.473104  3.812222
      ESP Fit Center  343 is at   1.607183 -1.436741  3.812222
      ESP Fit Center  344 is at   0.944404 -0.605642  3.812222
      ESP Fit Center  345 is at   0.944404 -4.340566  3.812222
      ESP Fit Center  346 is at   1.607183 -3.509467  3.812222
      ESP Fit Center  347 is at   0.250875 -4.215492  2.829848
      ESP Fit Center  348 is at  -2.330517 -5.950560  4.293079
      ESP Fit Center  349 is at   0.273611 -4.962945  4.293079
      ESP Fit Center  350 is at  -1.196658 -4.622003  6.774492
      ESP Fit Center  351 is at  -0.209179 -4.622003  6.453641
      ESP Fit Center  352 is at  -1.995545 -5.202429  6.453641
      ESP Fit Center  353 is at  -0.891510 -5.561152  6.453641
      ESP Fit Center  354 is at   0.401117 -4.622003  5.613641
      ESP Fit Center  355 is at  -1.995545 -6.005717  5.613641
      ESP Fit Center  356 is at  -0.919207 -6.195504  5.613641
      ESP Fit Center  357 is at   0.027309 -5.649033  5.613641
      ESP Fit Center  358 is at  -0.919207 -6.195504  4.575343
      ESP Fit Center  359 is at   0.027309 -5.649033  4.575343
      ESP Fit Center  360 is at  -1.115459 -6.082836  3.866966
      ESP Fit Center  361 is at  -0.168943 -5.536365  3.866966
      ESP Fit Center  362 is at   0.204865 -4.509335  2.828668
      ESP Fit Center  363 is at  -2.191797 -5.893049  2.828668
      ESP Fit Center  364 is at  -1.115459 -6.082836  2.828668
      ESP Fit Center  365 is at  -0.168943 -5.536365  2.828668
      ESP Fit Center  366 is at  -2.191797 -3.928909  1.988668
      ESP Fit Center  367 is at  -2.191797 -5.089761  1.988668
      ESP Fit Center  368 is at  -1.087762 -5.448484  1.988668
      ESP Fit Center  369 is at  -4.999421 -2.524284  4.271442
      ESP Fit Center  370 is at  -4.296891 -1.687041  3.233144
      ESP Fit Center  371 is at  -4.999421 -2.524284  3.233144
      ESP Fit Center  372 is at  -4.999421 -3.617226  3.233144
      ESP Fit Center  373 is at  -4.296891 -2.490329  2.393144
      ESP Fit Center  374 is at  -4.296891 -3.651181  2.393144
      ESP Fit Center  375 is at  -3.498004 -3.070755  2.072293
      ESP Fit Center  376 is at  -5.090136 -5.297769  4.776328
      ESP Fit Center  377 is at  -4.387606 -6.135012  4.776328
      ESP Fit Center  378 is at  -3.311268 -6.324799  4.776328
      ESP Fit Center  379 is at  -5.090136 -4.204827  3.738030
      ESP Fit Center  380 is at  -5.090136 -5.297769  3.738030
      ESP Fit Center  381 is at  -4.387606 -6.135012  3.738030
      ESP Fit Center  382 is at  -3.311268 -6.324799  3.738030
      ESP Fit Center  383 is at  -4.387606 -5.331724  2.898030
      ESP Fit Center  384 is at  -3.283571 -5.690447  2.898030
      ESP Fit Center  385 is at  -3.588719 -4.751298  2.577179
      ESP Fit Center  386 is at  -3.658553 -3.331008  8.606607
      ESP Fit Center  387 is at  -2.595538 -3.331008  8.363981
      ESP Fit Center  388 is at  -4.721568 -3.331008  8.363981
      ESP Fit Center  389 is at  -4.190061 -4.251606  8.363981
      ESP Fit Center  390 is at  -3.127045 -4.251606  8.363981
      ESP Fit Center  391 is at  -1.743066 -3.331008  7.684157
      ESP Fit Center  392 is at  -2.047143 -2.295417  7.684157
      ESP Fit Center  393 is at  -5.496449 -3.870663  7.684157
      ESP Fit Center  394 is at  -4.912930 -4.778637  7.684157
      ESP Fit Center  395 is at  -3.931155 -5.226998  7.684157
      ESP Fit Center  396 is at  -2.862831 -5.073396  7.684157
      ESP Fit Center  397 is at  -2.047143 -4.366599  7.684157
      ESP Fit Center  398 is at  -1.269980 -3.331008  6.701783
      ESP Fit Center  399 is at  -1.506523 -2.294645  6.701783
      ESP Fit Center  400 is at  -6.047126 -3.331008  6.701783
      ESP Fit Center  401 is at  -5.810583 -4.367371  6.701783
      ESP Fit Center  402 is at  -5.147804 -5.198470  6.701783
      ESP Fit Center  403 is at  -4.190061 -5.659695  6.701783
      ESP Fit Center  404 is at  -3.127045 -5.659695  6.701783
      ESP Fit Center  405 is at  -2.169302 -5.198470  6.701783
      ESP Fit Center  406 is at  -5.810583 -2.294645  5.611431
      ESP Fit Center  407 is at  -6.047126 -3.331008  5.611431
      ESP Fit Center  408 is at  -5.810583 -4.367371  5.611431
      ESP Fit Center  409 is at  -5.147804 -5.198470  5.611431
      ESP Fit Center  410 is at  -4.190061 -5.659695  5.611431
      ESP Fit Center  411 is at  -3.127045 -5.659695  5.611431
      ESP Fit Center  412 is at  -5.496449 -2.791353  4.629057
      ESP Fit Center  413 is at  -5.496449 -3.870663  4.629057
      ESP Fit Center  414 is at  -5.773360 -1.995591  6.058763
      ESP Fit Center  415 is at  -1.741685 -1.105133  7.233651
      ESP Fit Center  416 is at  -1.131389 -1.105133  6.393651
      ESP Fit Center  417 is at  -1.505197 -0.078103  6.393651
      ESP Fit Center  418 is at  -1.505197 -0.078103  5.355353
      ESP Fit Center  419 is at  -2.424016 -0.165984  4.515353
      ESP Fit Center  420 is at  -2.729164 -1.105133  4.194502
      ESP Fit Center  421 is at  -5.173579  0.165914  5.731881
      ESP Fit Center  422 is at  -5.876109 -0.671329  5.731881
      ESP Fit Center  423 is at  -5.876109 -1.764271  5.731881
      ESP Fit Center  424 is at  -4.097241  0.355701  4.693583
      ESP Fit Center  425 is at  -5.173579  0.165914  4.693583
      ESP Fit Center  426 is at  -5.876109 -0.671329  4.693583
      ESP Fit Center  427 is at  -5.876109 -1.764271  4.693583
      ESP Fit Center  428 is at  -3.387213 -1.217800  3.853583
      ESP Fit Center  429 is at  -4.069544 -0.278651  3.853583
      ESP Fit Center  430 is at  -5.173579 -0.637374  3.853583
      ESP Fit Center  431 is at  -5.173579 -1.798226  3.853583
      ESP Fit Center  432 is at  -4.374692 -1.217800  3.532732
      ESP Fit Center  433 is at  -4.831063 -0.029827  9.181953
      ESP Fit Center  434 is at  -4.564884 -2.739296  8.413300
      ESP Fit Center  435 is at  -2.446605  0.036765  7.363300
      ESP Fit Center  436 is at  -6.051048 -0.426780  6.313300
      ESP Fit Center  437 is at  -5.313552 -1.324238  9.233326
      ESP Fit Center  438 is at  -6.112439 -0.743812  8.912475
      ESP Fit Center  439 is at  -6.112439 -1.904664  8.912475
      ESP Fit Center  440 is at  -5.008404 -2.263387  8.912475
      ESP Fit Center  441 is at  -6.112439  0.059476  8.072475
      ESP Fit Center  442 is at  -6.814969 -0.777767  8.072475
      ESP Fit Center  443 is at  -6.814969 -1.870709  8.072475
      ESP Fit Center  444 is at  -6.112439 -2.707952  8.072475
      ESP Fit Center  445 is at  -6.814969 -0.777767  7.034177
      ESP Fit Center  446 is at  -6.814969 -1.870709  7.034177
      ESP Fit Center  447 is at  -6.112439 -2.707952  7.034177
      ESP Fit Center  448 is at  -6.112439 -0.743812  6.194177
      ESP Fit Center  449 is at  -6.112439 -1.904664  6.194177
      ESP Fit Center  450 is at  -3.673891 -1.203800  9.897651
      ESP Fit Center  451 is at  -2.686412 -1.203800  9.576800
      ESP Fit Center  452 is at  -3.368743 -0.264651  9.576800
      ESP Fit Center  453 is at  -4.472778 -0.623374  9.576800
      ESP Fit Center  454 is at  -4.472778 -1.784226  9.576800
      ESP Fit Center  455 is at  -3.368743 -2.142949  9.576800
      ESP Fit Center  456 is at  -2.076116 -1.203800  8.736800
      ESP Fit Center  457 is at  -2.449924 -0.176770  8.736800
      ESP Fit Center  458 is at  -3.396440  0.369701  8.736800
      ESP Fit Center  459 is at  -4.472778 -2.587514  8.736800
      ESP Fit Center  460 is at  -3.396440 -2.777301  8.736800
      ESP Fit Center  461 is at  -2.449924 -2.230830  8.736800
      ESP Fit Center  462 is at  -2.076116 -1.203800  7.698502
      ESP Fit Center  463 is at  -4.060106  1.093595  8.671476
      ESP Fit Center  464 is at  -5.164141  0.734872  8.671476
      ESP Fit Center  465 is at  -5.164141  1.538160  7.831476
      ESP Fit Center  466 is at  -5.866671  0.700917  7.831476
      ESP Fit Center  467 is at  -4.087803  1.727947  6.793178
      ESP Fit Center  468 is at  -5.164141  1.538160  6.793178
      ESP Fit Center  469 is at  -5.866671  0.700917  6.793178
      ESP Fit Center  470 is at  -4.060106  1.093595  5.953178
      ESP Fit Center  471 is at  -5.164141  0.734872  5.953178
      ESP Fit Center  472 is at  -1.677082  2.207191  9.731943
      ESP Fit Center  473 is at  -3.426520  4.527086  9.065994
      ESP Fit Center  474 is at  -1.418259  1.402172  9.065994
      ESP Fit Center  475 is at  -4.537569  3.109001  7.035568
      ESP Fit Center  476 is at  -3.998130  2.580359  6.073242
      ESP Fit Center  477 is at  -2.215580  5.490550  8.004573
      ESP Fit Center  478 is at  -3.243228  5.490550  8.004573
      ESP Fit Center  479 is at  -4.074612  4.886514  8.004573
      ESP Fit Center  480 is at  -1.769404  5.571932  7.044573
      ESP Fit Center  481 is at  -2.729404  5.829163  7.044573
      ESP Fit Center  482 is at  -3.689404  5.571932  7.044573
      ESP Fit Center  483 is at  -4.392173  4.869163  7.044573
      ESP Fit Center  484 is at  -4.649404  3.909163  7.044573
      ESP Fit Center  485 is at  -2.215580  5.490550  6.084573
      ESP Fit Center  486 is at  -3.243228  5.490550  6.084573
      ESP Fit Center  487 is at  -4.074612  4.886514  6.084573
      ESP Fit Center  488 is at  -4.392173  3.909163  6.084573
      ESP Fit Center  489 is at  -2.249404  4.740547  5.381804
      ESP Fit Center  490 is at  -3.209404  4.740547  5.381804
      ESP Fit Center  491 is at  -3.689404  3.909163  5.381804
      ESP Fit Center  492 is at  -2.729404  3.909163  5.124573
      ESP Fit Center  493 is at  -2.931840  2.492376 10.020083
      ESP Fit Center  494 is at  -3.411840  3.323760  9.762852
      ESP Fit Center  495 is at  -3.891840  2.492376  9.762852
      ESP Fit Center  496 is at  -3.411840  1.660992  9.762852
      ESP Fit Center  497 is at  -2.451840  1.660992  9.762852
      ESP Fit Center  498 is at  -4.277048  3.469727  9.060083
      ESP Fit Center  499 is at  -4.594609  2.492376  9.060083
      ESP Fit Center  500 is at  -4.277048  1.515025  9.060083
      ESP Fit Center  501 is at  -3.445664  0.910989  9.060083
      ESP Fit Center  502 is at  -2.418016  0.910989  9.060083
      ESP Fit Center  503 is at  -4.594609  3.452376  8.100083
      ESP Fit Center  504 is at  -4.851840  2.492376  8.100083
      ESP Fit Center  505 is at  -4.594609  2.492376  7.140083
      ESP Fit Center  506 is at  -1.530232  3.567177 10.226364
      ESP Fit Center  507 is at  -0.570232  3.567177  9.969133
      ESP Fit Center  508 is at  -1.050232  4.398561  9.969133
      ESP Fit Center  509 is at  -2.010232  4.398561  9.969133
      ESP Fit Center  510 is at  -2.490232  3.567177  9.969133
      ESP Fit Center  511 is at  -2.010232  2.735793  9.969133
      ESP Fit Center  512 is at  -1.050232  2.735793  9.969133
      ESP Fit Center  513 is at   0.132537  3.567177  9.266364
      ESP Fit Center  514 is at  -0.185024  4.544528  9.266364
      ESP Fit Center  515 is at  -1.016408  5.148564  9.266364
      ESP Fit Center  516 is at  -2.044056  5.148564  9.266364
      ESP Fit Center  517 is at  -0.185024  2.589826  9.266364
      ESP Fit Center  518 is at   0.389768  3.567177  8.306364
      ESP Fit Center  519 is at   0.132537  4.527177  8.306364
      ESP Fit Center  520 is at  -0.570232  5.229946  8.306364
      ESP Fit Center  521 is at  -1.530232  5.487177  8.306364
      ESP Fit Center  522 is at  -2.632342  3.679941  5.092696
      ESP Fit Center  523 is at  -0.877976  1.448034  9.034801
      ESP Fit Center  524 is at   0.082024  1.448034  8.777570
      ESP Fit Center  525 is at  -1.357976  0.616650  8.777570
      ESP Fit Center  526 is at  -0.397976  0.616650  8.777570
      ESP Fit Center  527 is at   0.784793  1.448034  8.074801
      ESP Fit Center  528 is at  -2.223184  0.470683  8.074801
      ESP Fit Center  529 is at  -1.391800 -0.133353  8.074801
      ESP Fit Center  530 is at  -0.364152 -0.133353  8.074801
      ESP Fit Center  531 is at   0.467232  0.470683  8.074801
      ESP Fit Center  532 is at  -0.877976 -0.471966  7.114801
      ESP Fit Center  533 is at   0.082024 -0.214735  7.114801
      ESP Fit Center  534 is at   0.784793  0.488034  7.114801
      ESP Fit Center  535 is at  -0.364152 -0.133353  6.154801
      ESP Fit Center  536 is at  -3.999916  1.791683  5.857101
      ESP Fit Center  537 is at  -3.425124  2.769034  4.897101
      ESP Fit Center  538 is at  -3.742685  1.791683  4.897101
      ESP Fit Center  539 is at  -3.425124  0.814332  4.897101
      ESP Fit Center  540 is at  -1.566092  0.210296  4.897101
      ESP Fit Center  541 is at  -3.039916  1.791683  4.194332
      ESP Fit Center  542 is at   0.513688  3.106788  7.960930
      ESP Fit Center  543 is at   1.293091  3.106788  7.339377
      ESP Fit Center  544 is at   0.958622  4.136178  7.339377
      ESP Fit Center  545 is at   0.082970  4.772376  7.339377
      ESP Fit Center  546 is at   0.782350  4.904052  6.441207
      ESP Fit Center  547 is at  -0.194979  5.274704  6.441207
      ESP Fit Center  548 is at  -1.232612  5.148712  6.441207
      ESP Fit Center  549 is at   0.782350  4.904052  5.444313
      ESP Fit Center  550 is at  -0.194979  5.274704  5.444313
      ESP Fit Center  551 is at  -1.232612  5.148712  5.444313
      ESP Fit Center  552 is at  -0.999394  4.772376  4.546143
      ESP Fit Center  553 is at  -1.875046  4.136178  4.546143
      ESP Fit Center  554 is at   1.445388  2.445022  7.195933
      ESP Fit Center  555 is at   2.512178  1.429809  4.499558
      ESP Fit Center  556 is at   1.637487  1.442461  7.058811
      ESP Fit Center  557 is at   1.157487  0.611077  7.058811
      ESP Fit Center  558 is at   2.340256  1.442461  6.356042
      ESP Fit Center  559 is at   0.163663 -0.138926  6.356042
      ESP Fit Center  560 is at   1.191311 -0.138926  6.356042
      ESP Fit Center  561 is at   2.022695  0.465110  6.356042
      ESP Fit Center  562 is at   2.597487  1.442461  5.396042
      ESP Fit Center  563 is at   1.637487 -0.220308  5.396042
      ESP Fit Center  564 is at   2.340256  0.482461  5.396042
      ESP Fit Center  565 is at   1.191311 -0.138926  4.436042
      ESP Fit Center  566 is at   2.022695  0.465110  4.436042
      ESP Fit Center  567 is at   2.281074  3.043197  6.649968
      ESP Fit Center  568 is at   1.801074  3.874581  6.649968
      ESP Fit Center  569 is at   2.983843  3.043197  5.947199
      ESP Fit Center  570 is at   2.666282  4.020548  5.947199
      ESP Fit Center  571 is at   1.834898  4.624584  5.947199
      ESP Fit Center  572 is at   2.666282  2.065846  5.947199
      ESP Fit Center  573 is at   3.241074  3.043197  4.987199
      ESP Fit Center  574 is at   2.983843  4.003197  4.987199
      ESP Fit Center  575 is at   2.281074  4.705966  4.987199
      ESP Fit Center  576 is at   1.321074  4.963197  4.987199
      ESP Fit Center  577 is at   2.983843  2.083197  4.987199
      ESP Fit Center  578 is at   0.807250  4.624584  4.027199
      ESP Fit Center  579 is at  -2.327980  3.347696  4.169540
      ESP Fit Center  580 is at  -2.020257  2.861125  2.139114
      ESP Fit Center  581 is at  -1.261190  2.332483  1.473165
      ESP Fit Center  582 is at  -1.634582  0.129771  4.630715
      ESP Fit Center  583 is at  -2.783527  2.671158  3.670715
      ESP Fit Center  584 is at  -3.040758  1.711158  3.670715
      ESP Fit Center  585 is at  -2.783527  0.751158  3.670715
      ESP Fit Center  586 is at  -2.465966  2.688509  2.710715
      ESP Fit Center  587 is at  -2.783527  1.711158  2.710715
      ESP Fit Center  588 is at  -2.465966  0.733807  2.710715
      ESP Fit Center  589 is at  -2.080758  1.711158  2.007946
      ESP Fit Center  590 is at  -0.000331  4.911188  4.239034
      ESP Fit Center  591 is at  -1.027979  4.911188  4.239034
      ESP Fit Center  592 is at  -1.859363  4.307152  4.239034
      ESP Fit Center  593 is at   0.445845  4.992570  3.279034
      ESP Fit Center  594 is at  -0.514155  5.249801  3.279034
      ESP Fit Center  595 is at  -1.474155  4.992570  3.279034
      ESP Fit Center  596 is at  -2.176924  4.289801  3.279034
      ESP Fit Center  597 is at  -2.434155  3.329801  3.279034
      ESP Fit Center  598 is at  -0.000331  4.911188  2.319034
      ESP Fit Center  599 is at  -1.027979  4.911188  2.319034
      ESP Fit Center  600 is at  -1.859363  4.307152  2.319034
      ESP Fit Center  601 is at  -2.176924  3.329801  2.319034
      ESP Fit Center  602 is at  -0.994155  4.161185  1.616265
      ESP Fit Center  603 is at  -1.474155  3.329801  1.616265
      ESP Fit Center  604 is at   1.209629  0.035386  4.112223
      ESP Fit Center  605 is at   2.085281  0.671584  4.112223
      ESP Fit Center  606 is at   1.909009 -0.096290  3.214053
      ESP Fit Center  607 is at   1.051081  4.877862  2.609802
      ESP Fit Center  608 is at   3.030599  4.426049  1.541702
      ESP Fit Center  609 is at   3.802117  3.174105  3.782459
      ESP Fit Center  610 is at   3.484556  4.151456  3.782459
      ESP Fit Center  611 is at   2.653172  4.755492  3.782459
      ESP Fit Center  612 is at   1.625524  4.755492  3.782459
      ESP Fit Center  613 is at   3.484556  2.196754  3.782459
      ESP Fit Center  614 is at   4.059348  3.174105  2.822459
      ESP Fit Center  615 is at   3.802117  4.134105  2.822459
      ESP Fit Center  616 is at   3.099348  4.836874  2.822459
      ESP Fit Center  617 is at   2.139348  5.094105  2.822459
      ESP Fit Center  618 is at   2.653172  4.755492  1.862459
      ESP Fit Center  619 is at   0.504034  4.891181  2.406040
      ESP Fit Center  620 is at   1.977858  4.972563  1.446040
      ESP Fit Center  621 is at   1.017858  5.229794  1.446040
      ESP Fit Center  622 is at   0.057858  4.972563  1.446040
      ESP Fit Center  623 is at  -0.644911  4.269794  1.446040
      ESP Fit Center  624 is at   2.363066  4.287145  0.486040
      ESP Fit Center  625 is at   1.531682  4.891181  0.486040
      ESP Fit Center  626 is at   0.504034  4.891181  0.486040
      ESP Fit Center  627 is at  -0.327350  4.287145  0.486040
      ESP Fit Center  628 is at  -0.644911  3.309794  0.486040
      ESP Fit Center  629 is at   1.497858  4.141178 -0.216729
      ESP Fit Center  630 is at   0.537858  4.141178 -0.216729
      ESP Fit Center  631 is at   0.057858  3.309794 -0.216729
      ESP Fit Center  632 is at   1.017858  3.309794 -0.473960
      ESP Fit Center  633 is at   4.145745  2.841528  2.713876
      ESP Fit Center  634 is at   4.675332  0.811859  0.683450
      ESP Fit Center  635 is at   2.300182  3.684369 -0.278876
      ESP Fit Center  636 is at   3.013200  1.019438  3.737287
      ESP Fit Center  637 is at   3.973200  1.019438  3.480056
      ESP Fit Center  638 is at   3.493200  1.850822  3.480056
      ESP Fit Center  639 is at   2.533200  0.188054  3.480056
      ESP Fit Center  640 is at   3.493200  0.188054  3.480056
      ESP Fit Center  641 is at   4.675969  1.019438  2.777287
      ESP Fit Center  642 is at   2.499376 -0.561949  2.777287
      ESP Fit Center  643 is at   3.527024 -0.561949  2.777287
      ESP Fit Center  644 is at   4.358408  0.042087  2.777287
      ESP Fit Center  645 is at   4.933200  1.019438  1.817287
      ESP Fit Center  646 is at   3.973200 -0.643331  1.817287
      ESP Fit Center  647 is at   4.675969  0.059438  1.817287
      ESP Fit Center  648 is at   4.358408  0.042087  0.857287
      ESP Fit Center  649 is at   5.032454  2.522428  1.900384
      ESP Fit Center  650 is at   4.714893  3.499779  1.900384
      ESP Fit Center  651 is at   3.883509  4.103815  1.900384
      ESP Fit Center  652 is at   5.289685  2.522428  0.940384
      ESP Fit Center  653 is at   5.032454  3.482428  0.940384
      ESP Fit Center  654 is at   4.329685  4.185197  0.940384
      ESP Fit Center  655 is at   3.369685  4.442428  0.940384
      ESP Fit Center  656 is at   5.032454  1.562428  0.940384
      ESP Fit Center  657 is at   5.032454  2.522428 -0.019616
      ESP Fit Center  658 is at   4.714893  3.499779 -0.019616
      ESP Fit Center  659 is at   3.883509  4.103815 -0.019616
      ESP Fit Center  660 is at   2.855861  4.103815 -0.019616
      ESP Fit Center  661 is at   4.714893  1.545077 -0.019616
      ESP Fit Center  662 is at   4.329685  2.522428 -0.722385
      ESP Fit Center  663 is at   3.849685  3.353812 -0.722385
      ESP Fit Center  664 is at   2.889685  3.353812 -0.722385
      ESP Fit Center  665 is at   4.228738  1.327449 -0.498447
      ESP Fit Center  666 is at   2.308132  3.495365 -0.498447
      ESP Fit Center  667 is at   1.270499  3.369373 -0.498447
      ESP Fit Center  668 is at   0.410272  2.775602 -0.498447
      ESP Fit Center  669 is at   3.978592  0.312569 -0.498447
      ESP Fit Center  670 is at   3.796202  1.327449 -1.396617
      ESP Fit Center  671 is at   3.461733  2.356839 -1.396617
      ESP Fit Center  672 is at   2.586081  2.993037 -1.396617
      ESP Fit Center  673 is at   1.503717  2.993037 -1.396617
      ESP Fit Center  674 is at   0.628065  2.356839 -1.396617
      ESP Fit Center  675 is at   3.016799  1.327449 -2.018170
      ESP Fit Center  676 is at   2.530849  2.169139 -2.018170
      ESP Fit Center  677 is at   1.558949  2.169139 -2.018170
      ESP Fit Center  678 is at   1.072999  1.327449 -2.018170
      ESP Fit Center  679 is at   2.044899  1.327449 -2.240000
      ESP Fit Center  680 is at   3.868869  0.000000 -0.534050
      ESP Fit Center  681 is at   1.917958 -0.557191  2.782776
      ESP Fit Center  682 is at   2.397958 -1.388575  2.525545
      ESP Fit Center  683 is at   3.263166 -1.534542  1.822776
      ESP Fit Center  684 is at   3.837958 -0.557191  0.862776
      ESP Fit Center  685 is at   2.877958 -2.219960  0.862776
      ESP Fit Center  686 is at   3.580727 -1.517191  0.862776
      ESP Fit Center  687 is at   3.815793 -0.490929 -0.908987
      ESP Fit Center  688 is at   1.895793 -2.410929 -0.908987
      ESP Fit Center  689 is at   2.855793 -2.153698 -0.908987
      ESP Fit Center  690 is at   3.558562 -1.450929 -0.908987
      ESP Fit Center  691 is at   3.558562 -0.490929 -1.868987
      ESP Fit Center  692 is at   3.241001  0.486422 -1.868987
      ESP Fit Center  693 is at   2.409617 -2.072316 -1.868987
      ESP Fit Center  694 is at   3.241001 -1.468280 -1.868987
      ESP Fit Center  695 is at   2.855793 -0.490929 -2.571756
      ESP Fit Center  696 is at   2.375793  0.340455 -2.571756
      ESP Fit Center  697 is at   1.415793  0.340455 -2.571756
      ESP Fit Center  698 is at   0.935793 -0.490929 -2.571756
      ESP Fit Center  699 is at   1.415793 -1.322313 -2.571756
      ESP Fit Center  700 is at   2.375793 -1.322313 -2.571756
      ESP Fit Center  701 is at   1.895793 -0.490929 -2.828987
      ESP Fit Center  702 is at  -0.366323  2.430673 -0.896500
      ESP Fit Center  703 is at  -1.326323  2.173442 -0.896500
      ESP Fit Center  704 is at  -2.029092  1.470673 -0.896500
      ESP Fit Center  705 is at  -2.286323  0.510673 -0.896500
      ESP Fit Center  706 is at   0.147501  2.092060 -1.856500
      ESP Fit Center  707 is at  -0.880147  2.092060 -1.856500
      ESP Fit Center  708 is at  -1.711531  1.488024 -1.856500
      ESP Fit Center  709 is at  -2.029092  0.510673 -1.856500
      ESP Fit Center  710 is at   0.593677  0.510673 -2.559269
      ESP Fit Center  711 is at   0.113677  1.342057 -2.559269
      ESP Fit Center  712 is at  -0.846323  1.342057 -2.559269
      ESP Fit Center  713 is at  -1.326323  0.510673 -2.559269
      ESP Fit Center  714 is at  -0.846323 -0.320711 -2.559269
      ESP Fit Center  715 is at   0.113677 -0.320711 -2.559269
      ESP Fit Center  716 is at  -0.366323  0.510673 -2.816500
      ESP Fit Center  717 is at  -1.721045  1.519115  1.830081
      ESP Fit Center  718 is at  -2.038606  0.541764  1.830081
      ESP Fit Center  719 is at  -1.335837  2.204533  0.870081
      ESP Fit Center  720 is at  -2.038606  1.501764  0.870081
      ESP Fit Center  721 is at  -2.295837  0.541764  0.870081
      ESP Fit Center  722 is at  -2.828681 -0.160932  0.979716
      ESP Fit Center  723 is at  -3.266199 -1.143613  0.979716
      ESP Fit Center  724 is at  -3.266199 -2.219291  0.979716
      ESP Fit Center  725 is at  -2.828681 -3.201972  0.979716
      ESP Fit Center  726 is at  -2.423242  0.552996 -0.091798
      ESP Fit Center  727 is at  -3.116473 -0.207442 -0.091798
      ESP Fit Center  728 is at  -3.488190 -1.166953 -0.091798
      ESP Fit Center  729 is at  -3.488190 -2.195951 -0.091798
      ESP Fit Center  730 is at  -3.116473 -3.155462 -0.091798
      ESP Fit Center  731 is at  -2.423242 -3.915900 -0.091798
      ESP Fit Center  732 is at  -1.502121 -4.374564 -0.091798
      ESP Fit Center  733 is at   0.512202 -4.187909 -0.091798
      ESP Fit Center  734 is at   1.333360 -3.567800 -0.091798
      ESP Fit Center  735 is at   1.875057 -2.692929 -0.091798
      ESP Fit Center  736 is at  -2.828681 -0.160932 -1.163312
      ESP Fit Center  737 is at  -3.266199 -1.143613 -1.163312
      ESP Fit Center  738 is at  -3.266199 -2.219291 -1.163312
      ESP Fit Center  739 is at  -2.828681 -3.201972 -1.163312
      ESP Fit Center  740 is at  -2.029296 -3.921741 -1.163312
      ESP Fit Center  741 is at  -1.006266 -4.254144 -1.163312
      ESP Fit Center  742 is at   0.063520 -4.141705 -1.163312
      ESP Fit Center  743 is at   0.995084 -3.603866 -1.163312
      ESP Fit Center  744 is at   1.627352 -2.733624 -1.163312
      ESP Fit Center  745 is at  -2.450508 -0.691503 -2.071697
      ESP Fit Center  746 is at  -2.715764 -1.681452 -2.071697
      ESP Fit Center  747 is at  -2.450508 -2.671401 -2.071697
      ESP Fit Center  748 is at  -1.725814 -3.396095 -2.071697
      ESP Fit Center  749 is at  -0.735865 -3.661351 -2.071697
      ESP Fit Center  750 is at   0.254084 -3.396095 -2.071697
      ESP Fit Center  751 is at   0.978778 -2.671401 -2.071697
      ESP Fit Center  752 is at   0.335649 -1.681452 -2.678661
      ESP Fit Center  753 is at  -0.200108 -0.753494 -2.678661
      ESP Fit Center  754 is at  -1.271622 -0.753494 -2.678661
      ESP Fit Center  755 is at  -1.807379 -1.681452 -2.678661
      ESP Fit Center  756 is at  -1.271622 -2.609410 -2.678661
      ESP Fit Center  757 is at  -0.200108 -2.609410 -2.678661
      ESP Fit Center  758 is at  -0.735865 -1.681452 -2.891798
      ESP Fit Center  759 is at   1.169418 -4.239336  1.006909
      ESP Fit Center  760 is at   0.689057 -4.416268  2.428807
      ESP Fit Center  761 is at  -2.576151 -3.438917  1.468807
      ESP Fit Center  762 is at  -2.318920 -4.398917  1.468807
      ESP Fit Center  763 is at  -1.616151 -5.101686  1.468807
      ESP Fit Center  764 is at  -0.656151 -5.358917  1.468807
      ESP Fit Center  765 is at   0.303849 -5.101686  1.468807
      ESP Fit Center  766 is at  -2.001359 -4.416268  0.508807
      ESP Fit Center  767 is at  -1.169975 -5.020304  0.508807
      ESP Fit Center  768 is at  -0.142327 -5.020304  0.508807
      ESP Fit Center  769 is at   0.689057 -4.416268  0.508807
      ESP Fit Center  770 is at   2.459711 -2.464193  2.614292
      ESP Fit Center  771 is at   2.142150 -1.486842  2.614292
      ESP Fit Center  772 is at   1.310766 -4.045580  2.614292
      ESP Fit Center  773 is at   2.142150 -3.441544  2.614292
      ESP Fit Center  774 is at   2.716942 -2.464193  1.654292
      ESP Fit Center  775 is at   1.756942 -4.126962  1.654292
      ESP Fit Center  776 is at   2.459711 -3.424193  1.654292
      ESP Fit Center  777 is at   2.459711 -2.464193  0.694292
      ESP Fit Center  778 is at   1.310766 -4.045580  0.694292
      ESP Fit Center  779 is at   2.142150 -3.441544  0.694292
      ESP Fit Center  780 is at  -2.510919 -0.004400  3.561373
      ESP Fit Center  781 is at  -3.342303 -0.608436  3.561373
      ESP Fit Center  782 is at  -2.957095  0.076982  2.601373
      ESP Fit Center  783 is at  -3.659864 -0.625787  2.601373
      ESP Fit Center  784 is at  -3.917095 -1.585787  2.601373
      ESP Fit Center  785 is at  -2.510919 -0.004400  1.641373
      ESP Fit Center  786 is at  -3.342303 -0.608436  1.641373
      ESP Fit Center  787 is at  -3.659864 -1.585787  1.641373
      ESP Fit Center  788 is at  -3.342303 -2.563138  1.641373
      ESP Fit Center  789 is at   1.423204 -0.680077  2.825791
      ESP Fit Center  790 is at  -0.544847 -2.473104  7.157398
      ESP Fit Center  791 is at   0.526667 -2.473104  6.944261
      ESP Fit Center  792 is at  -0.009090 -1.545146  6.944261
      ESP Fit Center  793 is at  -1.080604 -1.545146  6.944261
      ESP Fit Center  794 is at  -0.009090 -3.401062  6.944261
      ESP Fit Center  795 is at   1.435052 -2.473104  6.337297
      ESP Fit Center  796 is at   1.169796 -1.483155  6.337297
      ESP Fit Center  797 is at   0.445102 -0.758461  6.337297
      ESP Fit Center  798 is at  -0.544847 -0.493205  6.337297
      ESP Fit Center  799 is at   0.445102 -4.187747  6.337297
      ESP Fit Center  800 is at   1.169796 -3.463053  6.337297
      ESP Fit Center  801 is at   2.042016 -2.473104  5.428912
      ESP Fit Center  802 is at   1.818370 -1.420932  5.428912
      ESP Fit Center  803 is at   1.186102 -0.550690  5.428912
      ESP Fit Center  804 is at  -0.815248  0.099588  5.428912
      ESP Fit Center  805 is at   1.186102 -4.395518  5.428912
      ESP Fit Center  806 is at   1.818370 -3.525276  5.428912
      ESP Fit Center  807 is at   2.255153 -2.473104  4.357398
      ESP Fit Center  808 is at   2.066075 -1.461627  4.357398
      ESP Fit Center  809 is at   1.524378 -0.586756  4.357398
      ESP Fit Center  810 is at   0.703220 -4.979561  4.357398
      ESP Fit Center  811 is at   1.524378 -4.359452  4.357398
      ESP Fit Center  812 is at   2.066075 -3.484581  4.357398
      ESP Fit Center  813 is at   2.042016 -2.473104  3.285884
      ESP Fit Center  814 is at   1.818370 -1.420932  3.285884
      ESP Fit Center  815 is at   1.186102 -4.395518  3.285884
      ESP Fit Center  816 is at   1.818370 -3.525276  3.285884
      ESP Fit Center  817 is at  -2.106507 -6.268189  3.759029
      ESP Fit Center  818 is at   0.522264 -5.002239  3.759029
      ESP Fit Center  819 is at  -1.196658 -4.622003  7.014492
      ESP Fit Center  820 is at  -0.236658 -4.622003  6.757261
      ESP Fit Center  821 is at  -1.676658 -5.453387  6.757261
      ESP Fit Center  822 is at  -0.716658 -5.453387  6.757261
      ESP Fit Center  823 is at   0.466111 -4.622003  6.054492
      ESP Fit Center  824 is at  -1.710482 -6.203390  6.054492
      ESP Fit Center  825 is at  -0.682834 -6.203390  6.054492
      ESP Fit Center  826 is at   0.148550 -5.599354  6.054492
      ESP Fit Center  827 is at  -2.156658 -6.284772  5.094492
      ESP Fit Center  828 is at  -1.196658 -6.542003  5.094492
      ESP Fit Center  829 is at  -0.236658 -6.284772  5.094492
      ESP Fit Center  830 is at   0.466111 -5.582003  5.094492
      ESP Fit Center  831 is at  -2.352910 -6.172104  3.347817
      ESP Fit Center  832 is at  -1.392910 -6.429335  3.347817
      ESP Fit Center  833 is at  -0.432910 -6.172104  3.347817
      ESP Fit Center  834 is at   0.269859 -5.469335  3.347817
      ESP Fit Center  835 is at  -2.738118 -5.486686  2.387817
      ESP Fit Center  836 is at  -1.906734 -6.090722  2.387817
      ESP Fit Center  837 is at  -0.879086 -6.090722  2.387817
      ESP Fit Center  838 is at  -0.047702 -5.486686  2.387817
      ESP Fit Center  839 is at  -2.352910 -4.509335  1.685048
      ESP Fit Center  840 is at  -1.872910 -5.340719  1.685048
      ESP Fit Center  841 is at  -0.912910 -5.340719  1.685048
      ESP Fit Center  842 is at  -5.436256 -3.794589  3.935851
      ESP Fit Center  843 is at  -3.617089 -4.696399  2.307576
      ESP Fit Center  844 is at  -5.418004 -3.070755  3.752293
      ESP Fit Center  845 is at  -4.011828 -1.489368  2.792293
      ESP Fit Center  846 is at  -4.843212 -2.093404  2.792293
      ESP Fit Center  847 is at  -5.160773 -3.070755  2.792293
      ESP Fit Center  848 is at  -4.843212 -4.048106  2.792293
      ESP Fit Center  849 is at  -3.978004 -2.239371  2.089524
      ESP Fit Center  850 is at  -4.458004 -3.070755  2.089524
      ESP Fit Center  851 is at  -3.978004 -3.902139  2.089524
      ESP Fit Center  852 is at  -3.498004 -3.070755  1.832293
      ESP Fit Center  853 is at  -4.933927 -5.728649  5.217179
      ESP Fit Center  854 is at  -4.102543 -6.332685  5.217179
      ESP Fit Center  855 is at  -3.074895 -6.332685  5.217179
      ESP Fit Center  856 is at  -5.508719 -4.751298  4.257179
      ESP Fit Center  857 is at  -5.251488 -5.711298  4.257179
      ESP Fit Center  858 is at  -4.548719 -6.414067  4.257179
      ESP Fit Center  859 is at  -3.588719 -6.671298  4.257179
      ESP Fit Center  860 is at  -2.628719 -6.414067  4.257179
      ESP Fit Center  861 is at  -5.251488 -4.751298  3.297179
      ESP Fit Center  862 is at  -4.933927 -5.728649  3.297179
      ESP Fit Center  863 is at  -4.102543 -6.332685  3.297179
      ESP Fit Center  864 is at  -3.074895 -6.332685  3.297179
      ESP Fit Center  865 is at  -4.548719 -4.751298  2.594410
      ESP Fit Center  866 is at  -4.068719 -5.582682  2.594410
      ESP Fit Center  867 is at  -3.108719 -5.582682  2.594410
      ESP Fit Center  868 is at  -3.658553 -3.331008  8.956607
      ESP Fit Center  869 is at  -2.587039 -3.331008  8.743470
      ESP Fit Center  870 is at  -4.730067 -3.331008  8.743470
      ESP Fit Center  871 is at  -4.194310 -4.258966  8.743470
      ESP Fit Center  872 is at  -3.122796 -4.258966  8.743470
      ESP Fit Center  873 is at  -1.678654 -3.331008  8.136506
      ESP Fit Center  874 is at  -1.943910 -2.341059  8.136506
      ESP Fit Center  875 is at  -5.638452 -3.331008  8.136506
      ESP Fit Center  876 is at  -5.373196 -4.320957  8.136506
      ESP Fit Center  877 is at  -4.648502 -5.045651  8.136506
      ESP Fit Center  878 is at  -3.658553 -5.310907  8.136506
      ESP Fit Center  879 is at  -2.668604 -5.045651  8.136506
      ESP Fit Center  880 is at  -1.943910 -4.320957  8.136506
      ESP Fit Center  881 is at  -1.071690 -3.331008  7.228121
      ESP Fit Center  882 is at  -1.295336 -2.278836  7.228121
      ESP Fit Center  883 is at  -6.188887 -3.868847  7.228121
      ESP Fit Center  884 is at  -5.751369 -4.851528  7.228121
      ESP Fit Center  885 is at  -4.951984 -5.571297  7.228121
      ESP Fit Center  886 is at  -3.928954 -5.903700  7.228121
      ESP Fit Center  887 is at  -2.859168 -5.791261  7.228121
      ESP Fit Center  888 is at  -1.927604 -5.253422  7.228121
      ESP Fit Center  889 is at  -1.295336 -4.383180  7.228121
      ESP Fit Center  890 is at  -6.410878 -2.816509  6.156607
      ESP Fit Center  891 is at  -6.410878 -3.845507  6.156607
      ESP Fit Center  892 is at  -6.039161 -4.805018  6.156607
      ESP Fit Center  893 is at  -5.345930 -5.565456  6.156607
      ESP Fit Center  894 is at  -4.424809 -6.024120  6.156607
      ESP Fit Center  895 is at  -3.400202 -6.119064  6.156607
      ESP Fit Center  896 is at  -2.410486 -5.837465  6.156607
      ESP Fit Center  897 is at  -6.188887 -2.793169  5.085093
      ESP Fit Center  898 is at  -6.188887 -3.868847  5.085093
      ESP Fit Center  899 is at  -5.751369 -4.851528  5.085093
      ESP Fit Center  900 is at  -5.638452 -3.331008  4.176708
      ESP Fit Center  901 is at  -1.857986 -1.493028  7.555139
      ESP Fit Center  902 is at  -1.769164 -1.105133  7.537271
      ESP Fit Center  903 is at  -1.066395 -1.105133  6.834502
      ESP Fit Center  904 is at  -1.066395 -0.145133  5.874502
      ESP Fit Center  905 is at  -4.374692  0.702200  5.212732
      ESP Fit Center  906 is at  -5.334692  0.444969  5.212732
      ESP Fit Center  907 is at  -6.037461 -0.257800  5.212732
      ESP Fit Center  908 is at  -6.294692 -1.217800  5.212732
      ESP Fit Center  909 is at  -6.037461 -2.177800  5.212732
      ESP Fit Center  910 is at  -3.860868  0.363587  4.252732
      ESP Fit Center  911 is at  -4.888516  0.363587  4.252732
      ESP Fit Center  912 is at  -5.719900 -0.240449  4.252732
      ESP Fit Center  913 is at  -6.037461 -1.217800  4.252732
      ESP Fit Center  914 is at  -5.719900 -2.195151  4.252732
      ESP Fit Center  915 is at  -3.894692 -0.386416  3.549963
      ESP Fit Center  916 is at  -4.854692 -0.386416  3.549963
      ESP Fit Center  917 is at  -5.334692 -1.217800  3.549963
      ESP Fit Center  918 is at  -4.374692 -1.217800  3.292732
      ESP Fit Center  919 is at  -4.826723 -0.037344  9.525625
      ESP Fit Center  920 is at  -5.347384 -0.939154  9.525625
      ESP Fit Center  921 is at  -5.534841  0.478931  8.859676
      ESP Fit Center  922 is at  -4.573102 -2.796451  8.859676
      ESP Fit Center  923 is at  -2.197952  0.076059  7.897350
      ESP Fit Center  924 is at  -6.414174  0.076059  6.829250
      ESP Fit Center  925 is at  -6.106451 -0.410512  5.866924
      ESP Fit Center  926 is at  -5.793552 -0.492854  9.216095
      ESP Fit Center  927 is at  -6.273552 -1.324238  9.216095
      ESP Fit Center  928 is at  -5.793552 -2.155622  9.216095
      ESP Fit Center  929 is at  -6.658760 -0.346887  8.513326
      ESP Fit Center  930 is at  -6.976321 -1.324238  8.513326
      ESP Fit Center  931 is at  -6.658760 -2.301589  8.513326
      ESP Fit Center  932 is at  -5.827376 -2.905625  8.513326
      ESP Fit Center  933 is at  -6.976321 -0.364238  7.553326
      ESP Fit Center  934 is at  -7.233552 -1.324238  7.553326
      ESP Fit Center  935 is at  -6.976321 -2.284238  7.553326
      ESP Fit Center  936 is at  -6.273552 -2.987007  7.553326
      ESP Fit Center  937 is at  -6.658760 -0.346887  6.593326
      ESP Fit Center  938 is at  -6.976321 -1.324238  6.593326
      ESP Fit Center  939 is at  -6.658760 -2.301589  6.593326
      ESP Fit Center  940 is at  -6.273552 -1.324238  5.890557
      ESP Fit Center  941 is at  -3.673891 -1.203800 10.137651
      ESP Fit Center  942 is at  -2.713891 -1.203800  9.880420
      ESP Fit Center  943 is at  -3.193891 -0.372416  9.880420
      ESP Fit Center  944 is at  -4.153891 -0.372416  9.880420
      ESP Fit Center  945 is at  -4.633891 -1.203800  9.880420
      ESP Fit Center  946 is at  -4.153891 -2.035184  9.880420
      ESP Fit Center  947 is at  -3.193891 -2.035184  9.880420
      ESP Fit Center  948 is at  -2.011122 -1.203800  9.177651
      ESP Fit Center  949 is at  -2.328683 -0.226449  9.177651
      ESP Fit Center  950 is at  -3.160067  0.377587  9.177651
      ESP Fit Center  951 is at  -4.187715 -2.785187  9.177651
      ESP Fit Center  952 is at  -3.160067 -2.785187  9.177651
      ESP Fit Center  953 is at  -2.328683 -2.181151  9.177651
      ESP Fit Center  954 is at  -1.753891 -1.203800  8.217651
      ESP Fit Center  955 is at  -2.011122 -0.243800  8.217651
      ESP Fit Center  956 is at  -2.011122 -2.163800  8.217651
      ESP Fit Center  957 is at  -3.885254  0.985830  8.975096
      ESP Fit Center  958 is at  -4.845254  0.985830  8.975096
      ESP Fit Center  959 is at  -4.879078  1.735833  8.272327
      ESP Fit Center  960 is at  -5.710462  1.131797  8.272327
      ESP Fit Center  961 is at  -5.325254  1.817215  7.312327
      ESP Fit Center  962 is at  -6.028023  1.114446  7.312327
      ESP Fit Center  963 is at  -4.879078  1.735833  6.352327
      ESP Fit Center  964 is at  -5.710462  1.131797  6.352327
      ESP Fit Center  965 is at  -3.885254  0.985830  5.649558
      ESP Fit Center  966 is at  -4.845254  0.985830  5.649558
      ESP Fit Center  967 is at  -2.714365  4.003818 10.064093
      ESP Fit Center  968 is at  -1.681119  2.214184 10.064093
      ESP Fit Center  969 is at  -3.447994  4.551869  9.478806
      ESP Fit Center  970 is at  -1.404637  1.372342  9.478806
      ESP Fit Center  971 is at  -2.752815  5.540934  8.602863
      ESP Fit Center  972 is at  -3.753022  5.059260  8.602863
      ESP Fit Center  973 is at  -4.445186  4.191313  8.602863
      ESP Fit Center  974 is at  -1.164497  5.603476  7.569618
      ESP Fit Center  975 is at  -4.692217  3.109001  6.536373
      ESP Fit Center  976 is at  -2.995620  5.760738  8.124573
      ESP Fit Center  977 is at  -3.954396  5.322879  8.124573
      ESP Fit Center  978 is at  -4.524246  4.436176  8.124573
      ESP Fit Center  979 is at  -1.502384  5.686808  7.044573
      ESP Fit Center  980 is at  -2.469045  6.053414  7.044573
      ESP Fit Center  981 is at  -3.495351  5.928798  7.044573
      ESP Fit Center  982 is at  -4.346187  5.341508  7.044573
      ESP Fit Center  983 is at  -4.826638  4.426085  7.044573
      ESP Fit Center  984 is at  -1.952322  5.610734  5.964573
      ESP Fit Center  985 is at  -2.995620  5.760738  5.964573
      ESP Fit Center  986 is at  -3.954396  5.322879  5.964573
      ESP Fit Center  987 is at  -4.524246  4.436176  5.964573
      ESP Fit Center  988 is at  -4.524246  3.382150  5.964573
      ESP Fit Center  989 is at  -2.189404  4.844470  5.173958
      ESP Fit Center  990 is at  -3.269404  4.844470  5.173958
      ESP Fit Center  991 is at  -3.809404  3.909163  5.173958
      ESP Fit Center  992 is at  -2.729404  3.909163  4.884573
      ESP Fit Center  993 is at  -2.931840  2.492376 10.260083
      ESP Fit Center  994 is at  -3.471840  3.427683  9.970698
      ESP Fit Center  995 is at  -4.011840  2.492376  9.970698
      ESP Fit Center  996 is at  -3.471840  1.557069  9.970698
      ESP Fit Center  997 is at  -2.391840  1.557069  9.970698
      ESP Fit Center  998 is at  -4.726682  3.019389  9.180083
      ESP Fit Center  999 is at  -4.726682  1.965363  9.180083
      ESP Fit Center 1000 is at  -2.154758  0.790805  9.180083
      ESP Fit Center 1001 is at  -5.029074  3.009298  8.100083
      ESP Fit Center 1002 is at  -1.530232  3.567177 10.466364
      ESP Fit Center 1003 is at  -0.450232  3.567177 10.176979
      ESP Fit Center 1004 is at  -0.990232  4.502484 10.176979
      ESP Fit Center 1005 is at  -2.070232  4.502484 10.176979
      ESP Fit Center 1006 is at  -0.990232  2.631870 10.176979
      ESP Fit Center 1007 is at   0.340383  3.567177  9.386364
      ESP Fit Center 1008 is at   0.043429  4.578508  9.386364
      ESP Fit Center 1009 is at  -0.753150  5.268748  9.386364
      ESP Fit Center 1010 is at  -1.796448  5.418752  9.386364
      ESP Fit Center 1011 is at   0.043429  2.555846  9.386364
      ESP Fit Center 1012 is at   0.629768  3.567177  8.306364
      ESP Fit Center 1013 is at   0.382353  4.570979  8.306364
      ESP Fit Center 1014 is at  -0.303212  5.344822  8.306364
      ESP Fit Center 1015 is at  -1.269873  5.711428  8.306364
      ESP Fit Center 1016 is at  -2.653816  3.704724  4.679884
      ESP Fit Center 1017 is at  -0.877976  1.448034  9.274801
      ESP Fit Center 1018 is at   0.202024  1.448034  8.985416
      ESP Fit Center 1019 is at  -1.417976  0.512727  8.985416
      ESP Fit Center 1020 is at  -0.337976  0.512727  8.985416
      ESP Fit Center 1021 is at   0.992639  1.448034  8.194801
      ESP Fit Center 1022 is at  -1.144192 -0.403541  8.194801
      ESP Fit Center 1023 is at  -0.100894 -0.253537  8.194801
      ESP Fit Center 1024 is at   0.695685  0.436703  8.194801
      ESP Fit Center 1025 is at  -0.617617 -0.696217  7.114801
      ESP Fit Center 1026 is at   0.349044 -0.329611  7.114801
      ESP Fit Center 1027 is at  -4.177150  2.308605  5.857101
      ESP Fit Center 1028 is at  -3.304908  3.205399  4.777101
      ESP Fit Center 1029 is at  -3.874758  2.318696  4.777101
      ESP Fit Center 1030 is at  -3.874758  1.264670  4.777101
      ESP Fit Center 1031 is at   0.635175  3.106788  8.213202
      ESP Fit Center 1032 is at   1.512003  3.106788  7.513954
      ESP Fit Center 1033 is at   1.199239  4.171967  7.513954
      ESP Fit Center 1034 is at   0.360245  4.898959  7.513954
      ESP Fit Center 1035 is at   1.073589  5.027606  6.503513
      ESP Fit Center 1036 is at   0.088482  5.502009  6.503513
      ESP Fit Center 1037 is at  -1.004906  5.502009  6.503513
      ESP Fit Center 1038 is at   0.088482  5.502009  5.382007
      ESP Fit Center 1039 is at  -1.004906  5.502009  5.382007
      ESP Fit Center 1040 is at   1.437312  2.445022  7.528083
      ESP Fit Center 1041 is at   2.313255  2.445022  6.942796
      ESP Fit Center 1042 is at   2.898542  1.411777  5.033608
      ESP Fit Center 1043 is at   1.757487  1.442461  7.266657
      ESP Fit Center 1044 is at   1.217487  0.507154  7.266657
      ESP Fit Center 1045 is at   2.548102  1.442461  6.476042
      ESP Fit Center 1046 is at   1.454569 -0.259110  6.476042
      ESP Fit Center 1047 is at   2.251148  0.431130  6.476042
[...]
 1121 Fit       0.011487
 1122 Fit       0.013110
 1123 Fit       0.015331
 1124 Fit       0.008472
 1125 Fit       0.010107
 1126 Fit       0.011306
 1127 Fit       0.012392
 1128 Fit       0.006816
 1129 Fit       0.004329
 1130 Fit       0.006459
 1131 Fit       0.007074
 1132 Fit       0.006336
 1133 Fit       0.000470
 1134 Fit      -0.003394
 1135 Fit      -0.000859
 1136 Fit      -0.005699
 1137 Fit      -0.014426
 1138 Fit      -0.014458
 1139 Fit      -0.014461
 1140 Fit      -0.015501
 1141 Fit      -0.014287
 1142 Fit      -0.016494
 1143 Fit      -0.018753
 1144 Fit      -0.016735
 1145 Fit      -0.014022
 1146 Fit      -0.000466
 1147 Fit       0.002419
 1148 Fit       0.003905
 1149 Fit       0.003025
 1150 Fit      -0.006026
 1151 Fit       0.001106
 1152 Fit       0.006763
 1153 Fit       0.008726
 1154 Fit       0.006993
 1155 Fit       0.006546
 1156 Fit      -0.001931
 1157 Fit      -0.006102
 1158 Fit       0.000439
 1159 Fit       0.001259
 1160 Fit      -0.002614
 1161 Fit      -0.011027
 1162 Fit      -0.002283
 1163 Fit      -0.000102
 1164 Fit      -0.002255
 1165 Fit      -0.006324
 1166 Fit      -0.003405
 1167 Fit      -0.002295
 1168 Fit      -0.005670
 1169 Fit      -0.001857
 1170 Fit      -0.002310
 1171 Fit       0.001381
 1172 Fit       0.002082
 1173 Fit      -0.001918
 1174 Fit      -0.006139
 1175 Fit       0.001219
 1176 Fit       0.002071
 1177 Fit      -0.001279
 1178 Fit      -0.007979
 1179 Fit       0.000152
 1180 Fit       0.002628
 1181 Fit       0.001105
 1182 Fit      -0.001002
 1183 Fit      -0.001037
 1184 Fit       0.002126
 1185 Fit       0.001179
 1186 Fit       0.000877
 1187 Fit       0.003936
 1188 Fit       0.004215
 1189 Fit       0.001545
 1190 Fit       0.001690
 1191 Fit      -0.006238
 1192 Fit      -0.009568
 1193 Fit      -0.008989
 1194 Fit      -0.004977
 1195 Fit       0.001110
 1196 Fit      -0.008100
 1197 Fit      -0.012749
 1198 Fit      -0.013726
 1199 Fit      -0.011213
 1200 Fit      -0.006799
 1201 Fit      -0.002793
 1202 Fit      -0.001431
 1203 Fit      -0.003643
 1204 Fit      -0.007143
 1205 Fit      -0.008199
 1206 Fit      -0.004953
 1207 Fit      -0.005190
 1208 Fit      -0.011361
 1209 Fit      -0.013968
 1210 Fit      -0.013301
 1211 Fit      -0.011126
 1212 Fit      -0.009820
 1213 Fit      -0.010809
 1214 Fit      -0.013266
 1215 Fit      -0.014416
 1216 Fit      -0.011334
 1217 Fit      -0.000874
 1218 Fit      -0.008075
 1219 Fit      -0.012351
 1220 Fit      -0.013622
 1221 Fit      -0.013914
 1222 Fit      -0.015180
 1223 Fit      -0.016597
 1224 Fit      -0.015008
 1225 Fit      -0.010886
 1226 Fit      -0.004883
 1227 Fit      -0.005562
 1228 Fit      -0.010992
 1229 Fit      -0.014102
 1230 Fit      -0.015091
 1231 Fit      -0.010795
 1232 Fit       0.001433
 1233 Fit       0.014212
 1234 Fit       0.012363
 1235 Fit       0.007513
 1236 Fit       0.008709
 1237 Fit       0.008293
 1238 Fit       0.005221
 1239 Fit       0.002738
 1240 Fit      -0.003184
 1241 Fit      -0.001199
 1242 Fit       0.008430
 1243 Fit       0.003191
 1244 Fit       0.004762
 1245 Fit       0.001612
 1246 Fit       0.003123
 1247 Fit       0.014321
 1248 Fit       0.011815
 1249 Fit       0.011309
 1250 Fit       0.013789
 1251 Fit       0.001522
 1252 Fit       0.003229
 1253 Fit       0.006148
 1254 Fit       0.009764
 1255 Fit      -0.014683
 1256 Fit      -0.011317
 1257 Fit      -0.010544
 1258 Fit      -0.011074
 1259 Fit      -0.010831
 1260 Fit      -0.011293
 1261 Fit      -0.009565
 1262 Fit      -0.005883
 1263 Fit      -0.005034
 1264 Fit      -0.009670
 1265 Fit      -0.012283
 1266 Fit      -0.009194
 1267 Fit      -0.003348
 1268 Fit      -0.007454
 1269 Fit      -0.011992
 1270 Fit      -0.012121
 1271 Fit      -0.007971
 1272 Fit      -0.002917
 1273 Fit      -0.002499
 1274 Fit      -0.010180
 1275 Fit      -0.013355
 1276 Fit      -0.008467
 1277 Fit      -0.003812
 1278 Fit      -0.003496
 1279 Fit      -0.002360
 1280 Fit      -0.009190
 1281 Fit      -0.011143
 1282 Fit      -0.002772
 1283 Fit       0.010390
 1284 Fit      -0.003111
 1285 Fit      -0.000135
 1286 Fit       0.004786
 1287 Fit       0.004878
 1288 Fit       0.002706
 1289 Fit       0.009361
 1290 Fit       0.007799
 1291 Fit       0.005987
 1292 Fit       0.002053
 1293 Fit       0.013205
 1294 Fit       0.010499
 1295 Fit       0.008242
 1296 Fit       0.004179
 1297 Fit       0.014601
 1298 Fit       0.012777
 1299 Fit       0.011405
 1300 Fit       0.009877
 1301 Fit       0.015264
 1302 Fit       0.003328
 1303 Fit       0.008451
 1304 Fit       0.012658
 1305 Fit       0.005864
 1306 Fit       0.012954
 1307 Fit       0.009405
 1308 Fit       0.007456
 1309 Fit       0.010809
 1310 Fit       0.009312
 1311 Fit       0.010756
 1312 Fit       0.010218
 1313 Fit       0.000541
 1314 Fit       0.005411
 1315 Fit       0.008645
 1316 Fit       0.000261
 1317 Fit       0.004904
 1318 Fit       0.008085
 1319 Fit       0.010334
 1320 Fit       0.006284
 1321 Fit       0.008792
 1322 Fit       0.011124
 1323 Fit       0.013850
 1324 Fit       0.009294
 1325 Fit       0.010997
 1326 Fit       0.015168
 1327 Fit      -0.009808
 1328 Fit      -0.012768
 1329 Fit      -0.009144
 1330 Fit      -0.013425
 1331 Fit      -0.015024
 1332 Fit      -0.016377
 1333 Fit      -0.009436
 1334 Fit      -0.014041
 1335 Fit      -0.014940
 1336 Fit      -0.014886
 1337 Fit      -0.015890
 1338 Fit      -0.017331
 1339 Fit      -0.017549
 1340 Fit      -0.015096
 1341 Fit      -0.011029
 1342 Fit      -0.015913
 1343 Fit      -0.015826
 1344 Fit      -0.013407
 1345 Fit      -0.011361
 1346 Fit      -0.011128
 1347 Fit      -0.012527
 1348 Fit      -0.015195
 1349 Fit      -0.013352
 1350 Fit      -0.017001
 1351 Fit      -0.015538
 1352 Fit      -0.011061
 1353 Fit      -0.006387
 1354 Fit      -0.003468
 1355 Fit      -0.001806
 1356 Fit      -0.005346
 1357 Fit      -0.012729
 1358 Fit      -0.014845
 1359 Fit      -0.011552
 1360 Fit      -0.004780
 1361 Fit       0.002064
 1362 Fit       0.006231
 1363 Fit      -0.000446
 1364 Fit      -0.007519
 1365 Fit      -0.008115
 1366 Fit       0.001569
 1367 Fit       0.013184
 1368 Fit       0.014458
 1369 Fit       0.011137
 1370 Fit       0.008609
 1371 Fit       0.006014
 1372 Fit       0.000949
 1373 Fit       0.013899
 1374 Fit       0.011911
 1375 Fit       0.010162
 1376 Fit       0.008266
 1377 Fit       0.005417
 1378 Fit       0.014084
 1379 Fit       0.011693
 1380 Fit       0.010723
 1381 Fit       0.015789
 1382 Fit       0.002711
 1383 Fit       0.000935
 1384 Fit       0.003602
 1385 Fit       0.005190
 1386 Fit       0.001373
 1387 Fit      -0.001561
 1388 Fit       0.003352
 1389 Fit       0.003022
 1390 Fit       0.001332
 1391 Fit      -0.002792
 1392 Fit       0.004003
 1393 Fit       0.003353
 1394 Fit       0.001147
 1395 Fit      -0.004374
 1396 Fit       0.003405
 1397 Fit      -0.000360
 1398 Fit       0.002209
 1399 Fit       0.002534
 1400 Fit       0.004221
 1401 Fit       0.003124
 1402 Fit       0.000938
 1403 Fit      -0.000921
 1404 Fit      -0.000422
 1405 Fit       0.001251
 1406 Fit       0.004818
 1407 Fit       0.006662
 1408 Fit      -0.007576
 1409 Fit      -0.007740
 1410 Fit      -0.003646
 1411 Fit      -0.001712
 1412 Fit       0.005461
 1413 Fit       0.006291
 1414 Fit       0.007233
 1415 Fit       0.009910
 1416 Fit       0.007520
 1417 Fit       0.011546
 1418 Fit       0.009265
 1419 Fit       0.006862
 1420 Fit       0.011673
 1421 Fit       0.002866
 1422 Fit       0.002320
 1423 Fit       0.003217
 1424 Fit       0.001872
 1425 Fit       0.004019
 1426 Fit       0.000381
 1427 Fit       0.001324
 1428 Fit       0.002441
 1429 Fit      -0.001951
 1430 Fit       0.004810
 1431 Fit      -0.010959
 1432 Fit       0.008359
 1433 Fit       0.008997
 1434 Fit      -0.001708
 1435 Fit       0.001267
 1436 Fit       0.002982
 1437 Fit       0.003918
 1438 Fit      -0.002594
 1439 Fit       0.001534
 1440 Fit       0.003692
 1441 Fit       0.004833
 1442 Fit       0.005774
 1443 Fit      -0.006540
 1444 Fit       0.000747
 1445 Fit       0.003924
 1446 Fit       0.005586
 1447 Fit       0.007316
 1448 Fit       0.002544
 1449 Fit       0.005857
 1450 Fit       0.003788
 1451 Fit       0.004786
 1452 Fit       0.005240
 1453 Fit       0.004345
 1454 Fit       0.004975
 1455 Fit       0.006343
 1456 Fit       0.006441
 1457 Fit       0.005463
 1458 Fit       0.004788
 1459 Fit       0.006808
 1460 Fit       0.008057
 1461 Fit       0.002802
 1462 Fit       0.002658
 1463 Fit       0.002462
 1464 Fit       0.002313
 1465 Fit       0.002962
 1466 Fit       0.001315
 1467 Fit       0.001019
 1468 Fit       0.001155
 1469 Fit       0.001305
 1470 Fit       0.002340
 1471 Fit      -0.002740
 1472 Fit      -0.003184
 1473 Fit      -0.002356
 1474 Fit      -0.001296
 1475 Fit      -0.000314
 1476 Fit       0.000019
 1477 Fit      -0.009773
 1478 Fit       0.001050
 1479 Fit      -0.001745
 1480 Fit       0.003020
 1481 Fit       0.005038
 1482 Fit       0.003483
 1483 Fit       0.001812
 1484 Fit       0.002677
 1485 Fit       0.001599
 1486 Fit       0.002317
 1487 Fit      -0.003077
 1488 Fit      -0.000358
 1489 Fit       0.002440
 1490 Fit       0.009150
 1491 Fit       0.011634
 1492 Fit       0.007844
 1493 Fit       0.010662
 1494 Fit       0.013111
 1495 Fit      -0.005685
 1496 Fit      -0.009251
 1497 Fit      -0.010842
 1498 Fit      -0.010270
 1499 Fit      -0.012930
 1500 Fit      -0.012484
 1501 Fit      -0.009004
 1502 Fit      -0.011917
 1503 Fit      -0.011286
 1504 Fit      -0.004409
 1505 Fit      -0.007865
 1506 Fit      -0.006911
 1507 Fit       0.000463
 1508 Fit      -0.004118
 1509 Fit       0.006061
 1510 Fit       0.001271
 1511 Fit       0.008333
 1512 Fit       0.001925
 1513 Fit       0.003148
 1514 Fit      -0.000387
 1515 Fit       0.002143
 1516 Fit      -0.001075
 1517 Fit       0.002892
 1518 Fit       0.003160
 1519 Fit       0.004702
 1520 Fit       0.003142
 1521 Fit      -0.001868
 1522 Fit       0.008815
 1523 Fit       0.008391
 1524 Fit       0.006048
 1525 Fit       0.001273
 1526 Fit       0.007686
 1527 Fit       0.011458
 1528 Fit       0.007648
 1529 Fit       0.004036
 1530 Fit       0.007720
 1531 Fit       0.006257
 1532 Fit       0.009357
 1533 Fit       0.011190
 1534 Fit       0.012955
 1535 Fit       0.008249
 1536 Fit       0.008797
 1537 Fit       0.009134
 1538 Fit       0.003875
 1539 Fit       0.001710
 1540 Fit       0.001853
 1541 Fit       0.003882
 1542 Fit       0.008614
 1543 Fit       0.006694
 1544 Fit       0.006114
 1545 Fit       0.006545
 1546 Fit       0.009195
 1547 Fit       0.007736
 1548 Fit       0.007257
 1549 Fit       0.006774
 1550 Fit      -0.000502
 1551 Fit       0.009725
 1552 Fit       0.010720
 1553 Fit       0.011857
 1554 Fit       0.012719
 1555 Fit       0.012493
 1556 Fit       0.011731
 1557 Fit       0.012114
 1558 Fit       0.013696
 1559 Fit       0.012935
 1560 Fit       0.012012
 1561 Fit       0.011066
 1562 Fit       0.010476
 1563 Fit       0.012826
 1564 Fit       0.011685
 1565 Fit       0.009812
 1566 Fit       0.008844
 1567 Fit       0.008211
 1568 Fit       0.008101
 1569 Fit       0.007831
 1570 Fit       0.006345
 1571 Fit       0.005938
 1572 Fit       0.005712
 1573 Fit       0.005251
 1574 Fit       0.003896
 1575 Fit      -0.001176
 1576 Fit       0.000336
 1577 Fit      -0.003260
 1578 Fit       0.010471
 1579 Fit       0.004171
 1580 Fit       0.003873
 1581 Fit      -0.001421
 1582 Fit       0.006648
 1583 Fit       0.009085
 1584 Fit       0.005653
 1585 Fit       0.009310
 1586 Fit       0.003402
 1587 Fit       0.006012
 1588 Fit       0.007605
 1589 Fit       0.008526
 1590 Fit       0.007334
 1591 Fit       0.007481
 1592 Fit       0.006720
 1593 Fit       0.005931
 1594 Fit       0.011122
 1595 Fit       0.012478
 1596 Fit       0.008543
 1597 Fit       0.009737
 1598 Fit       0.010934
 1599 Fit       0.012342
 1600 Fit       0.005824
 1601 Fit       0.007236
 1602 Fit       0.008164
 1603 Fit       0.008727
 1604 Fit       0.009372
 1605 Fit       0.004098
 1606 Fit       0.001769
 1607 Fit       0.003714
 1608 Fit       0.004123
 1609 Fit       0.002895
 1610 Fit      -0.005280
 1611 Fit      -0.003115
 1612 Fit      -0.007116
 1613 Fit      -0.004909
 1614 Fit      -0.006346
 1615 Fit      -0.007271
 1616 Fit      -0.005959
 1617 Fit      -0.011627
 1618 Fit      -0.012234
 1619 Fit      -0.012282
 1620 Fit      -0.012588
 1621 Fit      -0.011858
 1622 Fit      -0.012671
 1623 Fit      -0.014362
 1624 Fit      -0.012657
 1625 Fit      -0.010949
 1626 Fit       0.004504
 1627 Fit      -0.002626
 1628 Fit       0.000947
 1629 Fit       0.007136
 1630 Fit       0.006609
 1631 Fit       0.006646
 1632 Fit       0.004092
 1633 Fit      -0.002566
 1634 Fit      -0.005107
 1635 Fit      -0.000572
 1636 Fit      -0.000009
 1637 Fit      -0.002876
 1638 Fit      -0.008502
 1639 Fit      -0.002965
 1640 Fit      -0.001090
 1641 Fit      -0.002795
 1642 Fit      -0.005533
 1643 Fit      -0.003638
 1644 Fit      -0.003084
 1645 Fit      -0.005371
 1646 Fit      -0.002641
 1647 Fit      -0.002956
 1648 Fit       0.000070
 1649 Fit       0.000217
 1650 Fit      -0.000137
 1651 Fit       0.001729
 1652 Fit       0.000494
 1653 Fit      -0.006008
 1654 Fit      -0.000363
 1655 Fit       0.001540
 1656 Fit       0.000321
 1657 Fit      -0.001826
 1658 Fit      -0.001534
 1659 Fit       0.000780
 1660 Fit      -0.000077
 1661 Fit      -0.000394
 1662 Fit       0.005494
 1663 Fit       0.003051
 1664 Fit       0.000267
 1665 Fit      -0.002311
 1666 Fit      -0.002303
 1667 Fit      -0.000049
 1668 Fit       0.003623
 1669 Fit       0.008534
 1670 Fit      -0.004234
 1671 Fit      -0.007291
 1672 Fit      -0.008371
 1673 Fit      -0.007300
 1674 Fit      -0.004537
 1675 Fit      -0.000914
 1676 Fit       0.002488
 1677 Fit       0.004284
 1678 Fit      -0.000005
 1679 Fit      -0.002244
 1680 Fit      -0.001762
 1681 Fit      -0.003713
 1682 Fit      -0.008049
 1683 Fit      -0.010296
 1684 Fit      -0.010210
 1685 Fit      -0.008335
 1686 Fit      -0.005844
 1687 Fit      -0.004120
 1688 Fit      -0.004181
 1689 Fit      -0.005912
 1690 Fit      -0.007743
 1691 Fit      -0.007766
 1692 Fit      -0.003905
 1693 Fit      -0.008408
 1694 Fit      -0.010591
 1695 Fit      -0.010642
 1696 Fit      -0.009653
 1697 Fit      -0.009089
 1698 Fit      -0.009788
 1699 Fit      -0.011185
 1700 Fit      -0.011537
 1701 Fit      -0.008982
 1702 Fit      -0.007083
 1703 Fit      -0.001922
 1704 Fit      -0.006624
 1705 Fit      -0.009740
 1706 Fit      -0.010955
 1707 Fit      -0.011409
 1708 Fit      -0.012213
 1709 Fit      -0.012836
 1710 Fit      -0.011419
 1711 Fit      -0.008759
 1712 Fit      -0.004925
 1713 Fit      -0.005364
 1714 Fit      -0.009043
 1715 Fit      -0.011245
 1716 Fit      -0.011697
 1717 Fit      -0.008888
 1718 Fit       0.004438
 1719 Fit       0.005826
 1720 Fit       0.009689
 1721 Fit       0.011348
 1722 Fit       0.010463
 1723 Fit       0.007794
 1724 Fit       0.004701
 1725 Fit       0.004482
 1726 Fit       0.001983
 1727 Fit       0.005598
 1728 Fit       0.001036
 1729 Fit       0.002462
 1730 Fit       0.002559
 1731 Fit       0.003946
 1732 Fit       0.000510
 1733 Fit       0.012708
 1734 Fit       0.007056
 1735 Fit       0.007729
 1736 Fit      -0.012354
 1737 Fit      -0.009367
 1738 Fit      -0.007965
 1739 Fit      -0.010305
 1740 Fit      -0.008821
 1741 Fit      -0.007233
 1742 Fit      -0.003787
 1743 Fit      -0.005823
 1744 Fit      -0.008086
 1745 Fit      -0.009154
 1746 Fit      -0.006869
 1747 Fit      -0.005875
 1748 Fit      -0.008933
 1749 Fit      -0.009100
 1750 Fit      -0.006236
 1751 Fit      -0.002516
 1752 Fit      -0.007664
 1753 Fit      -0.009810
 1754 Fit      -0.007340
 1755 Fit      -0.004192
 1756 Fit      -0.001868
 1757 Fit      -0.004213
 1758 Fit      -0.008011
 1759 Fit      -0.008976
 1760 Fit      -0.002293
 1761 Fit       0.001560
 1762 Fit      -0.000714
 1763 Fit      -0.004871
 1764 Fit      -0.005175
 1765 Fit       0.009239
 1766 Fit       0.011260
 1767 Fit       0.009110
 1768 Fit       0.007176
 1769 Fit       0.003677
 1770 Fit      -0.005071
 1771 Fit      -0.002639
 1772 Fit       0.001719
 1773 Fit       0.002377
 1774 Fit       0.000766
 1775 Fit       0.005850
 1776 Fit       0.005280
 1777 Fit       0.003861
 1778 Fit       0.000649
 1779 Fit       0.007091
 1780 Fit       0.004897
 1781 Fit       0.010870
 1782 Fit       0.009184
 1783 Fit       0.007439
 1784 Fit       0.004531
 1785 Fit       0.012479
 1786 Fit       0.011290
 1787 Fit       0.010373
 1788 Fit       0.004535
 1789 Fit       0.007521
 1790 Fit       0.010784
 1791 Fit       0.011757
 1792 Fit       0.008530
 1793 Fit       0.004489
 1794 Fit       0.010028
 1795 Fit       0.007826
 1796 Fit       0.006812
 1797 Fit       0.007217
 1798 Fit       0.008998
 1799 Fit       0.002777
 1800 Fit       0.005710
 1801 Fit       0.007923
 1802 Fit       0.000813
 1803 Fit       0.003414
 1804 Fit       0.006017
 1805 Fit       0.008112
 1806 Fit       0.010043
 1807 Fit       0.006031
 1808 Fit       0.007767
 1809 Fit       0.009804
 1810 Fit       0.012649
 1811 Fit       0.009710
 1812 Fit      -0.007744
 1813 Fit      -0.009539
 1814 Fit      -0.007358
 1815 Fit      -0.010632
 1816 Fit      -0.011637
 1817 Fit      -0.012043
 1818 Fit      -0.007333
 1819 Fit      -0.010865
 1820 Fit      -0.011948
 1821 Fit      -0.012145
 1822 Fit      -0.012702
 1823 Fit      -0.013289
 1824 Fit      -0.013559
 1825 Fit      -0.010675
 1826 Fit      -0.007758
 1827 Fit      -0.011852
 1828 Fit      -0.012475
 1829 Fit      -0.011379
 1830 Fit      -0.010281
 1831 Fit      -0.010161
 1832 Fit      -0.011062
 1833 Fit      -0.012653
 1834 Fit      -0.011438
 1835 Fit      -0.013046
 1836 Fit      -0.011770
 1837 Fit      -0.009108
 1838 Fit      -0.006605
 1839 Fit      -0.005103
 1840 Fit      -0.004395
 1841 Fit      -0.007311
 1842 Fit      -0.011348
 1843 Fit      -0.012130
 1844 Fit      -0.010099
 1845 Fit      -0.006393
 1846 Fit      -0.002506
 1847 Fit       0.000439
 1848 Fit       0.002716
 1849 Fit      -0.005559
 1850 Fit      -0.008916
 1851 Fit      -0.008404
 1852 Fit      -0.004416
 1853 Fit       0.002230
 1854 Fit      -0.002887
 1855 Fit      -0.003254
 1856 Fit       0.013175
 1857 Fit       0.010896
 1858 Fit       0.008782
 1859 Fit       0.006824
 1860 Fit       0.004123
 1861 Fit       0.013405
 1862 Fit       0.010953
 1863 Fit       0.009179
 1864 Fit       0.007594
 1865 Fit       0.005820
 1866 Fit       0.010510
 1867 Fit       0.009811
 1868 Fit       0.002496
 1869 Fit       0.000869
 1870 Fit       0.005280
 1871 Fit       0.003204
 1872 Fit       0.001884
 1873 Fit       0.003477
 1874 Fit       0.004003
 1875 Fit       0.004713
 1876 Fit       0.006373
 1877 Fit       0.004471
 1878 Fit       0.000786
 1879 Fit      -0.001588
 1880 Fit       0.002166
 1881 Fit       0.000551
 1882 Fit      -0.002690
 1883 Fit       0.003037
 1884 Fit       0.001838
 1885 Fit      -0.000875
 1886 Fit      -0.006068
 1887 Fit       0.003342
 1888 Fit       0.001634
 1889 Fit      -0.002178
 1890 Fit       0.003166
 1891 Fit      -0.000965
 1892 Fit       0.001536
 1893 Fit       0.001718
 1894 Fit       0.003341
 1895 Fit       0.002666
 1896 Fit       0.000804
 1897 Fit      -0.000926
 1898 Fit      -0.000676
 1899 Fit       0.000942
 1900 Fit       0.003911
 1901 Fit       0.005555
 1902 Fit      -0.005930
 1903 Fit      -0.005803
 1904 Fit      -0.002822
 1905 Fit      -0.001014
 1906 Fit       0.004424
 1907 Fit      -0.007411
 1908 Fit       0.006121
 1909 Fit       0.007104
 1910 Fit       0.005088
 1911 Fit       0.007838
 1912 Fit       0.005961
 1913 Fit       0.010956
 1914 Fit       0.008848
 Job cpu time:       0 days  0 hours 15 minutes 48.3 seconds.
 Normal termination of Gaussian 16 at Sun Jul  9 07:25:37 2023.
