 Copyright (c) 1988-2019, Gaussian, Inc.  All Rights Reserved.
  
 This is part of the Gaussian(R) 16 program.  It is based on
 the Gaussian(R) 09 system (copyright 2009, Gaussian, Inc.),
 the Gaussian(R) 03 system (copyright 2003, Gaussian, Inc.),
 the Gaussian(R) 98 system (copyright 1998, Gaussian, Inc.),
 the Gaussian(R) 94 system (copyright 1995, Gaussian, Inc.),
 the Gaussian 92(TM) system (copyright 1992, Gaussian, Inc.),
 the Gaussian 90(TM) system (copyright 1990, Gaussian, Inc.),
 the Gaussian 88(TM) system (copyright 1988, Gaussian, Inc.),
 the Gaussian 86(TM) system (copyright 1986, Carnegie Mellon
 University), and the Gaussian 82(TM) system (copyright 1983,
 Carnegie Mellon University). Gaussian is a federally registered
 trademark of Gaussian, Inc.
 Cite this work as:
 Gaussian 16, Revision C.01,
 M. J. Frisch, G. W. Trucks, H. B. Schlegel, G. E. Scuseria, 
 M. A. Robb, J. R. Cheeseman, G. Scalmani, V. Barone, 
 G. A. Petersson, H. Nakatsuji, X. Li, M. Caricato, A. V. Marenich, 
 J. Bloino, B. G. Janesko, R. Gomperts, B. Mennucci, H. P. Hratchian, 
 J. V. Ortiz, A. F. Izmaylov, J. L. Sonnenberg, D. Williams-Young, 
 F. Ding, F. Lipparini, F. Egidi, J. Goings, B. Peng, A. Petrone, 
 T. Henderson, D. Ranasinghe, V. G. Zakrzewski, J. Gao, N. Rega, 
 G. Zheng, W. Liang, M. Hada, M. Ehara, K. Toyota, R. Fukuda, 
 J. Hasegawa, M. Ishida, T. Nakajima, Y. Honda, O. Kitao, H. Nakai, 
 T. Vreven, K. Throssell, J. A. Montgomery, Jr., J. E. Peralta, 
 F. Ogliaro, M. J. Bearpark, J. J. Heyd, E. N. Brothers, K. N. Kudin, 
 V. N. Staroverov, T. A. Keith, R. Kobayashi, J. Normand, 
 K. Raghavachari, A. P. Rendell, J. C. Burant, S. S. Iyengar, 
 J. Tomasi, M. Cossi, J. M. Millam, M. Klene, C. Adamo, R. Cammi, 
 J. W. Ochterski, R. L. Martin, K. Morokuma, O. Farkas, 
 J. B. Foresman, and D. J. Fox, Gaussian, Inc., Wallingford CT, 2019.
 
 ******************************************
 Gaussian 16:  EM64L-G16RevC.01  3-Jul-2019
                 9-Jul-2023 
 ******************************************
 ----------------------------------------------------------------------
 #P B3LYP/6-31G(d) Integral=Ultrafine SCF(Conver=8,XQC,MaxConventionalC
 ycles=64,MaxCycle=128) NoSymm Test Pop=mk IOp(6/33=2) GFInput GFPrint
 ----------------------------------------------------------------------
 1/38=1,172=1/1;
 2/12=2,15=1,17=6,18=5,40=1/2;
 3/5=1,6=6,7=1,11=2,24=110,25=1,30=1,74=-5,75=-5/1,2,3;
 4//1;
 5/5=2,6=8,7=128,8=3,13=1,38=5,85=64/2,8;
 6/7=2,8=2,9=2,10=2,15=8,20=1,28=1,33=2/1,2;
 99/5=1,9=1/99;
 -------------------------------------------------
 MEP step - Input generated by PyRED DVE-DMDS-OPLS
 -------------------------------------------------
 Symbolic Z-matrix:
 Charge =  0 Multiplicity = 1
 C                    -7.98116  -5.09034  0. 
 H                    -8.44681  -6.08199   0.00001 
 H                    -8.3213   -4.54629   0.88707 
 H                    -8.32128  -4.54632  -0.8871 
 C                    -6.46649  -5.21521   0.00001 
 H                    -6.12254  -5.7739    0.88732 
 H                    -6.12252  -5.77394  -0.88727 
 O                    -5.90835  -3.91152  0. 
 C                    -4.4957   -3.90998   0.00001 
 H                    -4.09564  -4.42489  -0.8889 
 H                    -4.09566  -4.42487   0.88894 
 C                    -4.03891  -2.45837  -0.00001 
 H                    -4.43632  -1.94312  -0.88907 
 H                    -4.43633  -1.9431    0.88904 
 O                    -2.62388  -2.4546    0. 
 C                    -2.06987  -1.15395  0. 
 H                    -2.38829  -0.58626   0.88908 
 H                    -2.38828  -0.58627  -0.8891 
 C                    -0.55534  -1.30221   0. 
 H                    -0.23683  -1.86943  -0.8892 
 H                    -0.23684  -1.86942   0.88921 
 O                     0.        0.        0. 
 C                     1.41598   0.        0. 
 H                     1.80333  -0.52355  -0.88917 
 H                     1.80333  -0.52354   0.88917 
 C                     1.86857   1.45587   0. 
 H                     1.47515   1.96004   0.88879 
 H                     1.47515   1.96004  -0.88879 
 S                     3.70283   1.53758   0. 
 C                     3.90853   3.36564   0.00002 
 H                     3.42223   3.78195  -0.88848 
 H                     3.42223   3.78194   0.88852 
 C                     5.39781   3.70566   0.00002 
 H                     5.88367   3.28882  -0.88855 
 H                     5.88366   3.28881   0.88859 
 S                     5.60357   5.53404   0.00004 
 C                     7.44168   5.62258   0.00004 
 H                     7.82607   5.1107   -0.8885 
 H                     7.82607   5.11067   0.88857 
 C                     7.87797   7.08667   0.00007 
 H                     7.4916    7.59816  -0.8882 
 H                     7.49159   7.59813   0.88836 
 S                     9.71487   7.17619   0.00008 
 C                     9.9293    9.00255   0.00012 
 H                     9.43579   9.41611  -0.88668 
 H                     9.43579   9.41607   0.88694 
 C                     11.41615   9.35601   0.00013 
 H                     11.54273   10.4445   0.00015 
 H                     11.91914   8.95621   0.88684 
 H                     11.91913   8.95625  -0.88661 
 
 ITRead=  0  0  0  0  0  0  0  0  0  0  0  0  0  0  0  0  0  0  0  0
 ITRead=  0  0  0  0  0  0  0  0  0  0  0  0  0  0  0  0  0  0  0  0
 ITRead=  0  0  0  0  0  0  0  0  0  0
 MicOpt= -1 -1 -1 -1 -1 -1 -1 -1 -1 -1 -1 -1 -1 -1 -1 -1 -1 -1 -1 -1
 MicOpt= -1 -1 -1 -1 -1 -1 -1 -1 -1 -1 -1 -1 -1 -1 -1 -1 -1 -1 -1 -1
 MicOpt= -1 -1 -1 -1 -1 -1 -1 -1 -1 -1
 NAtoms=     50 NQM=       50 NQMF=       0 NMMI=      0 NMMIF=      0
                NMic=       0 NMicF=      0.
                          Input orientation:                          
 ---------------------------------------------------------------------
 Center     Atomic      Atomic             Coordinates (Angstroms)
 Number     Number       Type             X           Y           Z
 ---------------------------------------------------------------------
      1          6           0       -7.981161   -5.090339   -0.000004
      2          1           0       -8.446809   -6.081991    0.000012
      3          1           0       -8.321303   -4.546286    0.887067
      4          1           0       -8.321285   -4.546322   -0.887103
      5          6           0       -6.466492   -5.215215    0.000014
      6          1           0       -6.122538   -5.773904    0.887324
      7          1           0       -6.122519   -5.773936   -0.887268
      8          8           0       -5.908353   -3.911521   -0.000004
      9          6           0       -4.495697   -3.909982    0.000008
     10          1           0       -4.095642   -4.424893   -0.888904
     11          1           0       -4.095657   -4.424871    0.888939
     12          6           0       -4.038914   -2.458371   -0.000006
     13          1           0       -4.436321   -1.943120   -0.889073
     14          1           0       -4.436333   -1.943099    0.889043
     15          8           0       -2.623878   -2.454595    0.000004
     16          6           0       -2.069865   -1.153952   -0.000004
     17          1           0       -2.388288   -0.586259    0.889076
     18          1           0       -2.388282   -0.586272   -0.889095
     19          6           0       -0.555343   -1.302211    0.000003
     20          1           0       -0.236831   -1.869427   -0.889197
     21          1           0       -0.236838   -1.869419    0.889210
     22          8           0        0.000000    0.000000    0.000000
     23          6           0        1.415983    0.000000    0.000000
     24          1           0        1.803328   -0.523545   -0.889168
     25          1           0        1.803327   -0.523543    0.889170
     26          6           0        1.868566    1.455873    0.000000
     27          1           0        1.475148    1.960036    0.888786
     28          1           0        1.475151    1.960035   -0.888788
     29         16           0        3.702828    1.537578    0.000002
     30          6           0        3.908525    3.365640    0.000015
     31          1           0        3.422232    3.781953   -0.888482
     32          1           0        3.422229    3.781941    0.888516
     33          6           0        5.397807    3.705656    0.000021
     34          1           0        5.883666    3.288824   -0.888550
     35          1           0        5.883663    3.288806    0.888585
     36         16           0        5.603573    5.534039    0.000040
     37          6           0        7.441682    5.622580    0.000044
     38          1           0        7.826073    5.110703   -0.888501
     39          1           0        7.826072    5.110670    0.888570
     40          6           0        7.877967    7.086671    0.000072
     41          1           0        7.491595    7.598164   -0.888200
     42          1           0        7.491594    7.598130    0.888360
     43         16           0        9.714867    7.176194    0.000076
     44          6           0        9.929303    9.002553    0.000119
     45          1           0        9.435786    9.416109   -0.886682
     46          1           0        9.435788    9.416066    0.886941
     47          6           0       11.416152    9.356006    0.000126
     48          1           0       11.542733   10.444505    0.000152
     49          1           0       11.919136    8.956209    0.886839
     50          1           0       11.919134    8.956251   -0.886609
 ---------------------------------------------------------------------
 Stoichiometry    C14H30O3S3
 Framework group  C1[X(C14H30O3S3)]
 Standard basis: 6-31G(d) (6D, 7F)
   372 basis functions,   752 primitive gaussians,   372 cartesian basis functions
    93 alpha electrons       93 beta electrons
 Requested convergence on RMS density matrix=1.00D-08 within  64 cycles.
 Requested convergence on MAX density matrix=1.00D-06.
 Requested convergence on             energy=1.00D-06.
 SCF Done:  E(RB3LYP) =  -1971.75688453     A.U. after   13 cycles
            NFock= 13  Conv=0.26D-08     -V/T= 2.0058
 Mulliken charges:
     1  C   -0.453658
     2  H    0.143506
     3  H    0.158422
     4  H    0.158422
     5  C   -0.001381
     6  H    0.120128
     7  H    0.120128
     8  O   -0.479673
     9  C   -0.021411
    10  H    0.129657
    11  H    0.129657
    12  C   -0.021538
    13  H    0.133230
    14  H    0.133230
    15  O   -0.491827
    16  C   -0.019934
    17  H    0.133274
    18  H    0.133274
    19  C   -0.024828
    20  H    0.134125
    21  H    0.134125
    22  O   -0.488588
    23  C   -0.014517
    24  H    0.138868
    25  H    0.138868
    26  C   -0.420182
    27  H    0.179522
    28  H    0.179522
    29  S    0.085105
    30  C   -0.415654
    31  H    0.185232
    32  H    0.185232
    33  C   -0.417748
    34  H    0.185411
    35  H    0.185411
    36  S    0.087670
    37  C   -0.416387
    38  H    0.185032
    39  H    0.185032
    40  C   -0.416992
    41  H    0.182120
    42  H    0.182121
    43  S    0.084639
    44  C   -0.393835
    45  H    0.168216
    46  H    0.168216
    47  C   -0.455189
    48  H    0.154693
    49  H    0.165628
    50  H    0.165627
 Sum of Mulliken charges =  -0.00000
 Dipole moment (field-independent basis, Debye):
    X=             -0.5443    Y=              0.4114    Z=              0.0000  Tot=              0.6823
 Quadrupole moment (field-independent basis, Debye-Ang):
   XX=           -147.3522   YY=           -119.7778   ZZ=           -148.2238
   XY=             19.9753   XZ=              0.0002   YZ=              0.0004
 Traceless Quadrupole moment (field-independent basis, Debye-Ang):
   XX=             -8.9009   YY=             18.6735   ZZ=             -9.7726
   XY=             19.9753   XZ=              0.0002   YZ=              0.0004
 Octapole moment (field-independent basis, Debye-Ang**2):
  XXX=          -1117.7181  YYY=           -655.5932  ZZZ=             -0.0131  XYY=           -191.4850
  XXY=           -196.6655  XXZ=              0.0000  XZZ=           -371.8534  YZZ=           -295.4952
  YYZ=              0.0009  XYZ=              0.0050
 Hexadecapole moment (field-independent basis, Debye-Ang**3):
 XXXX=         -34797.3515 YYYY=         -18577.2018 ZZZZ=           -258.0170 XXXY=         -11789.3433
 XXXZ=             -0.0810 YYYX=         -10207.0259 YYYZ=             -0.0431 ZZZX=             -0.1132
 ZZZY=             -0.0935 XXYY=          -6697.6231 XXZZ=          -5875.4811 YYZZ=          -3743.6294
 XXYZ=              0.0120 YYXZ=              0.0109 ZZXY=          -4539.7065
 Merz-Kollman atomic radii used.
 Atom Element Radius
    1     6    1.50
    2     1    1.20
    3     1    1.20
    4     1    1.20
    5     6    1.50
    6     1    1.20
    7     1    1.20
    8     8    1.40
    9     6    1.50
   10     1    1.20
   11     1    1.20
   12     6    1.50
   13     1    1.20
   14     1    1.20
   15     8    1.40
   16     6    1.50
   17     1    1.20
   18     1    1.20
   19     6    1.50
   20     1    1.20
   21     1    1.20
   22     8    1.40
   23     6    1.50
   24     1    1.20
   25     1    1.20
   26     6    1.50
   27     1    1.20
   28     1    1.20
   29    16    1.75
   30     6    1.50
   31     1    1.20
   32     1    1.20
   33     6    1.50
   34     1    1.20
   35     1    1.20
   36    16    1.75
   37     6    1.50
   38     1    1.20
   39     1    1.20
   40     6    1.50
   41     1    1.20
   42     1    1.20
   43    16    1.75
   44     6    1.50
   45     1    1.20
   46     1    1.20
   47     6    1.50
   48     1    1.20
   49     1    1.20
   50     1    1.20
 Generate VDW surfaces: Layer= 4 Dens= 1 Start= 1.400 Inc= 0.200
            Electrostatic Properties Using The SCF Density.


       Atomic Center    1 is at  -7.981161 -5.090339 -0.000004
       Atomic Center    2 is at  -8.446809 -6.081991  0.000012
       Atomic Center    3 is at  -8.321303 -4.546286  0.887067
       Atomic Center    4 is at  -8.321285 -4.546322 -0.887103
       Atomic Center    5 is at  -6.466492 -5.215215  0.000014
       Atomic Center    6 is at  -6.122538 -5.773904  0.887324
       Atomic Center    7 is at  -6.122519 -5.773936 -0.887268
       Atomic Center    8 is at  -5.908353 -3.911521 -0.000004
       Atomic Center    9 is at  -4.495697 -3.909982  0.000008
       Atomic Center   10 is at  -4.095642 -4.424893 -0.888904
       Atomic Center   11 is at  -4.095657 -4.424871  0.888939
       Atomic Center   12 is at  -4.038914 -2.458371 -0.000006
       Atomic Center   13 is at  -4.436321 -1.943120 -0.889073
       Atomic Center   14 is at  -4.436333 -1.943099  0.889043
       Atomic Center   15 is at  -2.623878 -2.454595  0.000004
       Atomic Center   16 is at  -2.069865 -1.153952 -0.000004
       Atomic Center   17 is at  -2.388288 -0.586259  0.889076
       Atomic Center   18 is at  -2.388282 -0.586272 -0.889095
       Atomic Center   19 is at  -0.555343 -1.302211  0.000003
       Atomic Center   20 is at  -0.236831 -1.869427 -0.889197
       Atomic Center   21 is at  -0.236838 -1.869419  0.889210
       Atomic Center   22 is at   0.000000  0.000000  0.000000
       Atomic Center   23 is at   1.415983  0.000000  0.000000
       Atomic Center   24 is at   1.803328 -0.523545 -0.889168
       Atomic Center   25 is at   1.803327 -0.523543  0.889170
       Atomic Center   26 is at   1.868566  1.455873  0.000000
       Atomic Center   27 is at   1.475148  1.960036  0.888786
       Atomic Center   28 is at   1.475151  1.960035 -0.888788
       Atomic Center   29 is at   3.702828  1.537578  0.000002
       Atomic Center   30 is at   3.908525  3.365640  0.000015
       Atomic Center   31 is at   3.422232  3.781953 -0.888482
       Atomic Center   32 is at   3.422229  3.781941  0.888516
       Atomic Center   33 is at   5.397807  3.705656  0.000021
       Atomic Center   34 is at   5.883666  3.288824 -0.888550
       Atomic Center   35 is at   5.883663  3.288806  0.888585
       Atomic Center   36 is at   5.603573  5.534039  0.000040
       Atomic Center   37 is at   7.441682  5.622580  0.000044
       Atomic Center   38 is at   7.826073  5.110703 -0.888501
       Atomic Center   39 is at   7.826072  5.110670  0.888570
       Atomic Center   40 is at   7.877967  7.086671  0.000072
       Atomic Center   41 is at   7.491595  7.598164 -0.888200
       Atomic Center   42 is at   7.491594  7.598130  0.888360
       Atomic Center   43 is at   9.714867  7.176194  0.000076
       Atomic Center   44 is at   9.929303  9.002553  0.000119
       Atomic Center   45 is at   9.435786  9.416109 -0.886682
       Atomic Center   46 is at   9.435788  9.416066  0.886941
       Atomic Center   47 is at  11.416152  9.356006  0.000126
       Atomic Center   48 is at  11.542733 10.444505  0.000152
       Atomic Center   49 is at  11.919136  8.956209  0.886839
       Atomic Center   50 is at  11.919134  8.956251 -0.886609
      ESP Fit Center   51 is at  -8.506161 -5.999666  1.818649
      ESP Fit Center   52 is at  -9.726146 -5.602713  1.049996
      ESP Fit Center   53 is at  -7.728034 -3.005650 -0.000004
      ESP Fit Center   54 is at  -8.725831 -3.126805 -0.000004
      ESP Fit Center   55 is at  -9.553034 -3.697781 -0.000004
      ESP Fit Center   56 is at -10.020139 -4.587776 -0.000004
      ESP Fit Center   57 is at  -9.726146 -5.602713 -1.050004
      ESP Fit Center   58 is at  -8.506161 -5.999666 -1.818657
      ESP Fit Center   59 is at  -9.245696 -6.662417  1.359161
      ESP Fit Center   60 is at  -8.141661 -7.021140  1.359161
      ESP Fit Center   61 is at  -9.948226 -6.628462  0.519161
      ESP Fit Center   62 is at  -9.245696 -7.465705  0.519161
      ESP Fit Center   63 is at  -8.169358 -7.655492  0.519161
      ESP Fit Center   64 is at  -7.222842 -7.109021  0.519161
      ESP Fit Center   65 is at  -9.948226 -6.628462 -0.519137
      ESP Fit Center   66 is at  -9.245696 -7.465705 -0.519137
      ESP Fit Center   67 is at  -8.169358 -7.655492 -0.519137
      ESP Fit Center   68 is at  -7.222842 -7.109021 -0.519137
      ESP Fit Center   69 is at  -9.245696 -6.662417 -1.359137
      ESP Fit Center   70 is at  -8.141661 -7.021140 -1.359137
      ESP Fit Center   71 is at  -8.321303 -4.546286  2.567067
      ESP Fit Center   72 is at  -7.333824 -4.546286  2.246216
      ESP Fit Center   73 is at  -8.016155 -3.607137  2.246216
      ESP Fit Center   74 is at  -9.120190 -3.965860  2.246216
      ESP Fit Center   75 is at  -9.120190 -5.126712  2.246216
      ESP Fit Center   76 is at  -8.016155 -5.485435  2.246216
      ESP Fit Center   77 is at  -8.043852 -2.972785  1.406216
      ESP Fit Center   78 is at  -9.120190 -3.162572  1.406216
      ESP Fit Center   79 is at  -9.822720 -3.999815  1.406216
      ESP Fit Center   80 is at  -9.822720 -5.092757  1.406216
      ESP Fit Center   81 is at  -8.043852 -2.972785  0.367918
      ESP Fit Center   82 is at  -9.120190 -3.162572  0.367918
      ESP Fit Center   83 is at  -9.822720 -3.999815  0.367918
      ESP Fit Center   84 is at  -8.043834 -2.972821 -0.367954
      ESP Fit Center   85 is at  -9.120172 -3.162608 -0.367954
      ESP Fit Center   86 is at  -9.822702 -3.999851 -0.367954
      ESP Fit Center   87 is at  -8.043834 -2.972821 -1.406252
      ESP Fit Center   88 is at  -9.120172 -3.162608 -1.406252
      ESP Fit Center   89 is at  -9.822702 -3.999851 -1.406252
      ESP Fit Center   90 is at  -9.822702 -5.092793 -1.406252
      ESP Fit Center   91 is at  -7.333806 -4.546322 -2.246252
      ESP Fit Center   92 is at  -8.016137 -3.607173 -2.246252
      ESP Fit Center   93 is at  -9.120172 -3.965896 -2.246252
      ESP Fit Center   94 is at  -9.120172 -5.126748 -2.246252
      ESP Fit Center   95 is at  -8.016137 -5.485471 -2.246252
      ESP Fit Center   96 is at  -8.321285 -4.546322 -2.567103
      ESP Fit Center   97 is at  -6.213365 -7.299904  0.000014
      ESP Fit Center   98 is at  -5.273556 -6.943481  0.000014
      ESP Fit Center   99 is at  -4.607034 -6.191134  0.000014
      ESP Fit Center  100 is at  -6.122538 -5.773904  2.567324
      ESP Fit Center  101 is at  -5.135059 -5.773904  2.246473
      ESP Fit Center  102 is at  -5.817390 -4.834755  2.246473
      ESP Fit Center  103 is at  -6.921425 -5.193478  2.246473
      ESP Fit Center  104 is at  -6.921425 -6.354330  2.246473
      ESP Fit Center  105 is at  -5.817390 -6.713053  2.246473
      ESP Fit Center  106 is at  -6.921425 -7.157618  1.406473
      ESP Fit Center  107 is at  -5.845087 -7.347405  1.406473
      ESP Fit Center  108 is at  -4.898571 -6.800934  1.406473
      ESP Fit Center  109 is at  -5.845087 -7.347405  0.368175
      ESP Fit Center  110 is at  -4.898571 -6.800934  0.368175
      ESP Fit Center  111 is at  -5.845068 -7.347437 -0.368119
      ESP Fit Center  112 is at  -4.898552 -6.800966 -0.368119
      ESP Fit Center  113 is at  -6.921406 -7.157650 -1.406417
      ESP Fit Center  114 is at  -5.845068 -7.347437 -1.406417
      ESP Fit Center  115 is at  -4.898552 -6.800966 -1.406417
      ESP Fit Center  116 is at  -5.135040 -5.773936 -2.246417
      ESP Fit Center  117 is at  -5.817371 -4.834787 -2.246417
      ESP Fit Center  118 is at  -6.921406 -5.193510 -2.246417
      ESP Fit Center  119 is at  -6.921406 -6.354362 -2.246417
      ESP Fit Center  120 is at  -5.817371 -6.713085 -2.246417
      ESP Fit Center  121 is at  -6.122519 -5.773936 -2.567268
      ESP Fit Center  122 is at  -5.908353 -3.911521  1.959996
      ESP Fit Center  123 is at  -5.418353 -3.062816  1.697406
      ESP Fit Center  124 is at  -6.398353 -3.062816  1.697406
      ESP Fit Center  125 is at  -6.888353 -3.911521  1.697406
      ESP Fit Center  126 is at  -6.432881 -2.297188  0.979996
      ESP Fit Center  127 is at  -7.281586 -2.913809  0.979996
      ESP Fit Center  128 is at  -6.888353 -2.214111 -0.000004
      ESP Fit Center  129 is at  -7.605763 -2.931521 -0.000004
      ESP Fit Center  130 is at  -6.432881 -2.297188 -0.980004
      ESP Fit Center  131 is at  -7.281586 -2.913809 -0.980004
      ESP Fit Center  132 is at  -5.418353 -3.062816 -1.697414
      ESP Fit Center  133 is at  -6.398353 -3.062816 -1.697414
      ESP Fit Center  134 is at  -6.888353 -3.911521 -1.697414
      ESP Fit Center  135 is at  -5.908353 -3.911521 -1.960004
      ESP Fit Center  136 is at  -4.242570 -5.994671  0.000008
      ESP Fit Center  137 is at  -3.302761 -5.638248  0.000008
      ESP Fit Center  138 is at  -2.636239 -4.885901  0.000008
      ESP Fit Center  139 is at  -3.818191 -5.998394 -0.369755
      ESP Fit Center  140 is at  -2.871675 -5.451923 -0.369755
      ESP Fit Center  141 is at  -2.497867 -4.424893 -1.408053
      ESP Fit Center  142 is at  -3.818191 -5.998394 -1.408053
      ESP Fit Center  143 is at  -2.871675 -5.451923 -1.408053
      ESP Fit Center  144 is at  -3.108163 -4.424893 -2.248053
      ESP Fit Center  145 is at  -3.790494 -3.485744 -2.248053
      ESP Fit Center  146 is at  -4.894529 -3.844467 -2.248053
      ESP Fit Center  147 is at  -4.894529 -5.005319 -2.248053
      ESP Fit Center  148 is at  -3.790494 -5.364042 -2.248053
      ESP Fit Center  149 is at  -4.095642 -4.424893 -2.568904
      ESP Fit Center  150 is at  -4.095657 -4.424871  2.568939
      ESP Fit Center  151 is at  -3.108178 -4.424871  2.248088
      ESP Fit Center  152 is at  -3.790509 -3.485722  2.248088
      ESP Fit Center  153 is at  -4.894544 -3.844445  2.248088
      ESP Fit Center  154 is at  -4.894544 -5.005297  2.248088
      ESP Fit Center  155 is at  -3.790509 -5.364020  2.248088
      ESP Fit Center  156 is at  -2.497882 -4.424871  1.408088
      ESP Fit Center  157 is at  -3.818206 -5.998372  1.408088
      ESP Fit Center  158 is at  -2.871690 -5.451901  1.408088
      ESP Fit Center  159 is at  -3.818206 -5.998372  0.369790
      ESP Fit Center  160 is at  -2.871690 -5.451901  0.369790
      ESP Fit Center  161 is at  -4.783584 -0.494837 -0.000006
      ESP Fit Center  162 is at  -5.610787 -1.065813 -0.000006
      ESP Fit Center  163 is at  -6.077892 -1.955808 -0.000006
      ESP Fit Center  164 is at  -4.158870 -0.369619 -0.369924
      ESP Fit Center  165 is at  -5.235208 -0.559406 -0.369924
      ESP Fit Center  166 is at  -5.937738 -1.396649 -0.369924
      ESP Fit Center  167 is at  -4.158870 -0.369619 -1.408222
      ESP Fit Center  168 is at  -5.235208 -0.559406 -1.408222
      ESP Fit Center  169 is at  -5.937738 -1.396649 -1.408222
      ESP Fit Center  170 is at  -5.937738 -2.489591 -1.408222
      ESP Fit Center  171 is at  -3.448842 -1.943120 -2.248222
      ESP Fit Center  172 is at  -4.131173 -1.003971 -2.248222
      ESP Fit Center  173 is at  -5.235208 -1.362694 -2.248222
      ESP Fit Center  174 is at  -5.235208 -2.523546 -2.248222
      ESP Fit Center  175 is at  -4.131173 -2.882269 -2.248222
      ESP Fit Center  176 is at  -4.436321 -1.943120 -2.569073
      ESP Fit Center  177 is at  -4.436333 -1.943099  2.569043
      ESP Fit Center  178 is at  -3.448854 -1.943099  2.248192
      ESP Fit Center  179 is at  -4.131185 -1.003950  2.248192
      ESP Fit Center  180 is at  -5.235220 -1.362673  2.248192
      ESP Fit Center  181 is at  -5.235220 -2.523525  2.248192
      ESP Fit Center  182 is at  -4.131185 -2.882248  2.248192
      ESP Fit Center  183 is at  -4.158882 -0.369598  1.408192
      ESP Fit Center  184 is at  -5.235220 -0.559385  1.408192
      ESP Fit Center  185 is at  -5.937750 -1.396628  1.408192
      ESP Fit Center  186 is at  -5.937750 -2.489570  1.408192
      ESP Fit Center  187 is at  -4.158882 -0.369598  0.369894
      ESP Fit Center  188 is at  -5.235220 -0.559385  0.369894
      ESP Fit Center  189 is at  -5.937750 -1.396628  0.369894
      ESP Fit Center  190 is at  -2.623878 -2.454595  1.960004
      ESP Fit Center  191 is at  -1.643878 -2.454595  1.697414
      ESP Fit Center  192 is at  -3.113878 -3.303300  1.697414
      ESP Fit Center  193 is at  -2.133878 -3.303300  1.697414
      ESP Fit Center  194 is at  -2.099350 -4.068928  0.980004
      ESP Fit Center  195 is at  -1.250645 -3.452307  0.980004
      ESP Fit Center  196 is at  -1.643878 -4.152005  0.000004
      ESP Fit Center  197 is at  -0.926468 -3.434595  0.000004
      ESP Fit Center  198 is at  -2.099350 -4.068928 -0.979996
      ESP Fit Center  199 is at  -1.250645 -3.452307 -0.979996
      ESP Fit Center  200 is at  -1.643878 -2.454595 -1.697406
      ESP Fit Center  201 is at  -3.113878 -3.303300 -1.697406
      ESP Fit Center  202 is at  -2.133878 -3.303300 -1.697406
      ESP Fit Center  203 is at  -2.623878 -2.454595 -1.959996
      ESP Fit Center  204 is at  -1.816738  0.930737 -0.000004
      ESP Fit Center  205 is at  -2.814535  0.809582 -0.000004
      ESP Fit Center  206 is at  -3.641738  0.238606 -0.000004
      ESP Fit Center  207 is at  -2.388288 -0.586259  2.569076
      ESP Fit Center  208 is at  -1.400809 -0.586259  2.248225
      ESP Fit Center  209 is at  -2.083140  0.352890  2.248225
      ESP Fit Center  210 is at  -3.187175 -0.005833  2.248225
      ESP Fit Center  211 is at  -3.187175 -1.166685  2.248225
      ESP Fit Center  212 is at  -2.083140 -1.525408  2.248225
      ESP Fit Center  213 is at  -2.110837  0.987242  1.408225
      ESP Fit Center  214 is at  -3.187175  0.797455  1.408225
      ESP Fit Center  215 is at  -3.889705 -0.039788  1.408225
      ESP Fit Center  216 is at  -2.110837  0.987242  0.369927
      ESP Fit Center  217 is at  -3.187175  0.797455  0.369927
      ESP Fit Center  218 is at  -3.889705 -0.039788  0.369927
      ESP Fit Center  219 is at  -2.110831  0.987229 -0.369946
      ESP Fit Center  220 is at  -3.187169  0.797442 -0.369946
      ESP Fit Center  221 is at  -3.889699 -0.039801 -0.369946
      ESP Fit Center  222 is at  -2.110831  0.987229 -1.408244
      ESP Fit Center  223 is at  -3.187169  0.797442 -1.408244
      ESP Fit Center  224 is at  -3.889699 -0.039801 -1.408244
      ESP Fit Center  225 is at  -1.400803 -0.586272 -2.248244
      ESP Fit Center  226 is at  -2.083134  0.352877 -2.248244
      ESP Fit Center  227 is at  -3.187169 -0.005846 -2.248244
      ESP Fit Center  228 is at  -3.187169 -1.166698 -2.248244
      ESP Fit Center  229 is at  -2.083134 -1.525421 -2.248244
      ESP Fit Center  230 is at  -2.388282 -0.586272 -2.569095
      ESP Fit Center  231 is at  -0.302216 -3.386900  0.000003
      ESP Fit Center  232 is at   0.637593 -3.030477  0.000003
      ESP Fit Center  233 is at   1.304115 -2.278130  0.000003
      ESP Fit Center  234 is at   0.040620 -3.442928 -0.370048
      ESP Fit Center  235 is at   0.987136 -2.896457 -0.370048
      ESP Fit Center  236 is at  -1.035718 -3.253141 -1.408346
      ESP Fit Center  237 is at   0.040620 -3.442928 -1.408346
      ESP Fit Center  238 is at   0.987136 -2.896457 -1.408346
      ESP Fit Center  239 is at   0.750648 -1.869427 -2.248346
      ESP Fit Center  240 is at   0.068317 -0.930278 -2.248346
      ESP Fit Center  241 is at  -1.035718 -1.289001 -2.248346
      ESP Fit Center  242 is at  -1.035718 -2.449853 -2.248346
      ESP Fit Center  243 is at   0.068317 -2.808576 -2.248346
      ESP Fit Center  244 is at  -0.236831 -1.869427 -2.569197
      ESP Fit Center  245 is at  -0.236838 -1.869419  2.569210
      ESP Fit Center  246 is at   0.750641 -1.869419  2.248359
      ESP Fit Center  247 is at   0.068310 -0.930270  2.248359
      ESP Fit Center  248 is at  -1.035725 -1.288993  2.248359
      ESP Fit Center  249 is at  -1.035725 -2.449845  2.248359
      ESP Fit Center  250 is at   0.068310 -2.808568  2.248359
      ESP Fit Center  251 is at  -1.035725 -3.253133  1.408359
      ESP Fit Center  252 is at   0.040613 -3.442920  1.408359
      ESP Fit Center  253 is at   0.987129 -2.896449  1.408359
      ESP Fit Center  254 is at   0.040613 -3.442920  0.370061
      ESP Fit Center  255 is at   0.987129 -2.896449  0.370061
      ESP Fit Center  256 is at   0.000000  0.000000  1.960000
      ESP Fit Center  257 is at   0.490000  0.848705  1.697410
      ESP Fit Center  258 is at  -0.490000  0.848705  1.697410
      ESP Fit Center  259 is at  -0.980000  0.000000  1.697410
      ESP Fit Center  260 is at  -0.524528  1.614333  0.980000
      ESP Fit Center  261 is at  -1.373233  0.997712  0.980000
      ESP Fit Center  262 is at  -0.980000  1.697410  0.000000
      ESP Fit Center  263 is at  -1.697410  0.980000  0.000000
      ESP Fit Center  264 is at  -0.524528  1.614333 -0.980000
      ESP Fit Center  265 is at  -1.373233  0.997712 -0.980000
      ESP Fit Center  266 is at   0.490000  0.848705 -1.697410
      ESP Fit Center  267 is at  -0.490000  0.848705 -1.697410
      ESP Fit Center  268 is at  -0.980000  0.000000 -1.697410
      ESP Fit Center  269 is at   0.000000  0.000000 -1.960000
      ESP Fit Center  270 is at   1.669110 -2.084689  0.000000
      ESP Fit Center  271 is at   2.608919 -1.728266  0.000000
      ESP Fit Center  272 is at   3.275441 -0.975919  0.000000
      ESP Fit Center  273 is at   2.080779 -2.097046 -0.370019
      ESP Fit Center  274 is at   3.027295 -1.550575 -0.370019
      ESP Fit Center  275 is at   3.401103 -0.523545 -1.408317
      ESP Fit Center  276 is at   2.080779 -2.097046 -1.408317
      ESP Fit Center  277 is at   3.027295 -1.550575 -1.408317
      ESP Fit Center  278 is at   2.790807 -0.523545 -2.248317
      ESP Fit Center  279 is at   2.108476  0.415604 -2.248317
      ESP Fit Center  280 is at   1.004441  0.056881 -2.248317
      ESP Fit Center  281 is at   1.004441 -1.103971 -2.248317
      ESP Fit Center  282 is at   2.108476 -1.462694 -2.248317
      ESP Fit Center  283 is at   1.803328 -0.523545 -2.569168
      ESP Fit Center  284 is at   1.803327 -0.523543  2.569170
      ESP Fit Center  285 is at   2.790806 -0.523543  2.248319
      ESP Fit Center  286 is at   2.108475  0.415606  2.248319
      ESP Fit Center  287 is at   1.004440  0.056883  2.248319
      ESP Fit Center  288 is at   1.004440 -1.103969  2.248319
      ESP Fit Center  289 is at   2.108475 -1.462692  2.248319
      ESP Fit Center  290 is at   3.401102 -0.523543  1.408319
      ESP Fit Center  291 is at   2.080778 -2.097044  1.408319
      ESP Fit Center  292 is at   3.027294 -1.550573  1.408319
      ESP Fit Center  293 is at   2.080778 -2.097044  0.370021
      ESP Fit Center  294 is at   3.027294 -1.550573  0.370021
      ESP Fit Center  295 is at   1.123896  3.419407  0.000000
      ESP Fit Center  296 is at   0.296693  2.848431  0.000000
      ESP Fit Center  297 is at  -0.170412  1.958436  0.000000
      ESP Fit Center  298 is at   1.475148  1.960036  2.568786
      ESP Fit Center  299 is at   2.462627  1.960036  2.247935
      ESP Fit Center  300 is at   1.780296  2.899185  2.247935
      ESP Fit Center  301 is at   0.676261  2.540462  2.247935
      ESP Fit Center  302 is at   0.676261  1.379610  2.247935
      ESP Fit Center  303 is at   1.780296  1.020887  2.247935
      ESP Fit Center  304 is at   1.752599  3.533537  1.407935
      ESP Fit Center  305 is at   0.676261  3.343750  1.407935
      ESP Fit Center  306 is at  -0.026269  2.506507  1.407935
      ESP Fit Center  307 is at  -0.026269  1.413565  1.407935
      ESP Fit Center  308 is at   1.752599  3.533537  0.369637
      ESP Fit Center  309 is at   0.676261  3.343750  0.369637
      ESP Fit Center  310 is at  -0.026269  2.506507  0.369637
      ESP Fit Center  311 is at   1.752602  3.533536 -0.369639
      ESP Fit Center  312 is at   0.676264  3.343749 -0.369639
      ESP Fit Center  313 is at  -0.026266  2.506506 -0.369639
      ESP Fit Center  314 is at   1.752602  3.533536 -1.407937
      ESP Fit Center  315 is at   0.676264  3.343749 -1.407937
      ESP Fit Center  316 is at  -0.026266  2.506506 -1.407937
      ESP Fit Center  317 is at  -0.026266  1.413564 -1.407937
      ESP Fit Center  318 is at   2.462630  1.960035 -2.247937
      ESP Fit Center  319 is at   1.780299  2.899184 -2.247937
      ESP Fit Center  320 is at   0.676264  2.540461 -2.247937
      ESP Fit Center  321 is at   0.676264  1.379609 -2.247937
      ESP Fit Center  322 is at   1.780299  1.020886 -2.247937
      ESP Fit Center  323 is at   1.475151  1.960035 -2.568788
      ESP Fit Center  324 is at   3.702828  1.537578  2.450002
      ESP Fit Center  325 is at   4.765843  1.537578  2.207376
      ESP Fit Center  326 is at   4.234336  2.458176  2.207376
      ESP Fit Center  327 is at   3.171320  2.458176  2.207376
      ESP Fit Center  328 is at   2.639813  1.537578  2.207376
      ESP Fit Center  329 is at   3.171320  0.616980  2.207376
      ESP Fit Center  330 is at   4.234336  0.616980  2.207376
      ESP Fit Center  331 is at   5.618315  1.537578  1.527552
      ESP Fit Center  332 is at   3.430226 -0.358412  1.527552
      ESP Fit Center  333 is at   4.498550 -0.204810  1.527552
      ESP Fit Center  334 is at   5.314238  0.501987  1.527552
      ESP Fit Center  335 is at   6.091401  1.537578  0.545178
      ESP Fit Center  336 is at   4.234336 -0.791109  0.545178
      ESP Fit Center  337 is at   5.192079 -0.329884  0.545178
      ESP Fit Center  338 is at   5.854858  0.501215  0.545178
      ESP Fit Center  339 is at   6.091401  1.537578 -0.545174
      ESP Fit Center  340 is at   4.234336 -0.791109 -0.545174
      ESP Fit Center  341 is at   5.192079 -0.329884 -0.545174
      ESP Fit Center  342 is at   5.854858  0.501215 -0.545174
      ESP Fit Center  343 is at   5.618315  1.537578 -1.527548
      ESP Fit Center  344 is at   3.430226 -0.358412 -1.527548
      ESP Fit Center  345 is at   4.498550 -0.204810 -1.527548
      ESP Fit Center  346 is at   5.314238  0.501987 -1.527548
      ESP Fit Center  347 is at   4.765843  1.537578 -2.207372
      ESP Fit Center  348 is at   4.234336  2.458176 -2.207372
      ESP Fit Center  349 is at   3.171320  2.458176 -2.207372
      ESP Fit Center  350 is at   2.639813  1.537578 -2.207372
      ESP Fit Center  351 is at   3.171320  0.616980 -2.207372
      ESP Fit Center  352 is at   4.234336  0.616980 -2.207372
      ESP Fit Center  353 is at   3.702828  1.537578 -2.449998
      ESP Fit Center  354 is at   2.336652  4.758198  0.000015
      ESP Fit Center  355 is at   1.869547  3.868203  0.000015
      ESP Fit Center  356 is at   2.623345  5.165667 -0.369333
      ESP Fit Center  357 is at   1.920815  4.328424 -0.369333
      ESP Fit Center  358 is at   2.623345  5.165667 -1.407631
      ESP Fit Center  359 is at   1.920815  4.328424 -1.407631
      ESP Fit Center  360 is at   4.409711  3.781953 -2.247631
      ESP Fit Center  361 is at   3.727380  4.721102 -2.247631
      ESP Fit Center  362 is at   2.623345  4.362379 -2.247631
      ESP Fit Center  363 is at   2.623345  3.201527 -2.247631
      ESP Fit Center  364 is at   3.727380  2.842804 -2.247631
      ESP Fit Center  365 is at   3.422232  3.781953 -2.568482
      ESP Fit Center  366 is at   3.422229  3.781941  2.568516
      ESP Fit Center  367 is at   4.409708  3.781941  2.247665
      ESP Fit Center  368 is at   3.727377  4.721090  2.247665
      ESP Fit Center  369 is at   2.623342  4.362367  2.247665
      ESP Fit Center  370 is at   2.623342  3.201515  2.247665
      ESP Fit Center  371 is at   3.727377  2.842792  2.247665
      ESP Fit Center  372 is at   2.623342  5.165655  1.407665
      ESP Fit Center  373 is at   1.920812  4.328412  1.407665
      ESP Fit Center  374 is at   2.623342  5.165655  0.369367
      ESP Fit Center  375 is at   1.920812  4.328412  0.369367
      ESP Fit Center  376 is at   6.590743  1.977390  0.000021
      ESP Fit Center  377 is at   7.257265  2.729737  0.000021
      ESP Fit Center  378 is at   7.481441  3.288824 -0.369401
      ESP Fit Center  379 is at   6.161117  1.715323 -0.369401
      ESP Fit Center  380 is at   7.107633  2.261794 -0.369401
      ESP Fit Center  381 is at   7.481441  3.288824 -1.407699
      ESP Fit Center  382 is at   6.161117  1.715323 -1.407699
      ESP Fit Center  383 is at   7.107633  2.261794 -1.407699
      ESP Fit Center  384 is at   6.871145  3.288824 -2.247699
      ESP Fit Center  385 is at   6.188814  4.227973 -2.247699
      ESP Fit Center  386 is at   5.084779  3.869250 -2.247699
      ESP Fit Center  387 is at   5.084779  2.708398 -2.247699
      ESP Fit Center  388 is at   6.188814  2.349675 -2.247699
      ESP Fit Center  389 is at   5.883666  3.288824 -2.568550
      ESP Fit Center  390 is at   5.883663  3.288806  2.568585
      ESP Fit Center  391 is at   6.871142  3.288806  2.247734
      ESP Fit Center  392 is at   6.188811  4.227955  2.247734
      ESP Fit Center  393 is at   5.084776  3.869232  2.247734
      ESP Fit Center  394 is at   5.084776  2.708380  2.247734
      ESP Fit Center  395 is at   6.188811  2.349657  2.247734
      ESP Fit Center  396 is at   7.481438  3.288806  1.407734
      ESP Fit Center  397 is at   6.161114  1.715305  1.407734
      ESP Fit Center  398 is at   7.107630  2.261776  1.407734
      ESP Fit Center  399 is at   7.481438  3.288806  0.369436
      ESP Fit Center  400 is at   6.161114  1.715305  0.369436
      ESP Fit Center  401 is at   7.107630  2.261776  0.369436
      ESP Fit Center  402 is at   5.603573  5.534039  2.450040
      ESP Fit Center  403 is at   6.666588  5.534039  2.207414
      ESP Fit Center  404 is at   6.135081  6.454637  2.207414
      ESP Fit Center  405 is at   5.072065  6.454637  2.207414
      ESP Fit Center  406 is at   4.540558  5.534039  2.207414
      ESP Fit Center  407 is at   5.072065  4.613441  2.207414
      ESP Fit Center  408 is at   6.135081  4.613441  2.207414
      ESP Fit Center  409 is at   5.330971  7.430029  1.527590
      ESP Fit Center  410 is at   4.349196  6.981668  1.527590
      ESP Fit Center  411 is at   3.765677  6.073694  1.527590
      ESP Fit Center  412 is at   5.072065  7.862726  0.545216
      ESP Fit Center  413 is at   4.114322  7.401501  0.545216
      ESP Fit Center  414 is at   3.451543  6.570402  0.545216
      ESP Fit Center  415 is at   3.215000  5.534039  0.545216
      ESP Fit Center  416 is at   5.072065  7.862726 -0.545136
      ESP Fit Center  417 is at   4.114322  7.401501 -0.545136
      ESP Fit Center  418 is at   3.451543  6.570402 -0.545136
      ESP Fit Center  419 is at   3.215000  5.534039 -0.545136
      ESP Fit Center  420 is at   5.330971  7.430029 -1.527510
      ESP Fit Center  421 is at   4.349196  6.981668 -1.527510
      ESP Fit Center  422 is at   3.765677  6.073694 -1.527510
      ESP Fit Center  423 is at   6.666588  5.534039 -2.207334
      ESP Fit Center  424 is at   6.135081  6.454637 -2.207334
      ESP Fit Center  425 is at   5.072065  6.454637 -2.207334
      ESP Fit Center  426 is at   4.540558  5.534039 -2.207334
      ESP Fit Center  427 is at   5.072065  4.613441 -2.207334
      ESP Fit Center  428 is at   6.135081  4.613441 -2.207334
      ESP Fit Center  429 is at   5.603573  5.534039 -2.449960
      ESP Fit Center  430 is at   7.694809  3.537891  0.000044
      ESP Fit Center  431 is at   8.634618  3.894314  0.000044
      ESP Fit Center  432 is at   9.301140  4.646661  0.000044
      ESP Fit Center  433 is at   8.103524  3.537202 -0.369352
      ESP Fit Center  434 is at   9.050040  4.083673 -0.369352
      ESP Fit Center  435 is at   9.423848  5.110703 -1.407650
      ESP Fit Center  436 is at   8.103524  3.537202 -1.407650
      ESP Fit Center  437 is at   9.050040  4.083673 -1.407650
      ESP Fit Center  438 is at   8.813552  5.110703 -2.247650
      ESP Fit Center  439 is at   8.131221  6.049852 -2.247650
      ESP Fit Center  440 is at   7.027186  5.691129 -2.247650
      ESP Fit Center  441 is at   7.027186  4.530277 -2.247650
      ESP Fit Center  442 is at   8.131221  4.171554 -2.247650
      ESP Fit Center  443 is at   7.826073  5.110703 -2.568501
      ESP Fit Center  444 is at   7.826072  5.110670  2.568570
      ESP Fit Center  445 is at   8.813551  5.110670  2.247719
      ESP Fit Center  446 is at   8.131220  6.049819  2.247719
      ESP Fit Center  447 is at   7.027185  5.691096  2.247719
      ESP Fit Center  448 is at   7.027185  4.530244  2.247719
      ESP Fit Center  449 is at   8.131220  4.171521  2.247719
      ESP Fit Center  450 is at   9.423847  5.110670  1.407719
      ESP Fit Center  451 is at   8.103523  3.537169  1.407719
      ESP Fit Center  452 is at   9.050039  4.083640  1.407719
      ESP Fit Center  453 is at   8.103523  3.537169  0.369421
      ESP Fit Center  454 is at   9.050039  4.083640  0.369421
      ESP Fit Center  455 is at   7.133297  9.050205  0.000072
      ESP Fit Center  456 is at   6.306094  8.479229  0.000072
      ESP Fit Center  457 is at   7.769046  9.171665 -0.369051
      ESP Fit Center  458 is at   6.692708  8.981878 -0.369051
      ESP Fit Center  459 is at   5.990178  8.144635 -0.369051
      ESP Fit Center  460 is at   7.769046  9.171665 -1.407349
      ESP Fit Center  461 is at   6.692708  8.981878 -1.407349
      ESP Fit Center  462 is at   5.990178  8.144635 -1.407349
      ESP Fit Center  463 is at   8.479074  7.598164 -2.247349
      ESP Fit Center  464 is at   7.796743  8.537313 -2.247349
      ESP Fit Center  465 is at   6.692708  8.178590 -2.247349
      ESP Fit Center  466 is at   6.692708  7.017738 -2.247349
      ESP Fit Center  467 is at   7.796743  6.659015 -2.247349
      ESP Fit Center  468 is at   7.491595  7.598164 -2.568200
      ESP Fit Center  469 is at   7.491594  7.598130  2.568360
      ESP Fit Center  470 is at   8.479073  7.598130  2.247509
      ESP Fit Center  471 is at   7.796742  8.537279  2.247509
      ESP Fit Center  472 is at   6.692707  8.178556  2.247509
      ESP Fit Center  473 is at   6.692707  7.017704  2.247509
      ESP Fit Center  474 is at   7.796742  6.658981  2.247509
      ESP Fit Center  475 is at   7.769045  9.171631  1.407509
      ESP Fit Center  476 is at   6.692707  8.981844  1.407509
      ESP Fit Center  477 is at   5.990177  8.144601  1.407509
      ESP Fit Center  478 is at   7.769045  9.171631  0.369211
      ESP Fit Center  479 is at   6.692707  8.981844  0.369211
      ESP Fit Center  480 is at   5.990177  8.144601  0.369211
      ESP Fit Center  481 is at   9.714867  7.176194  2.450076
      ESP Fit Center  482 is at  10.777882  7.176194  2.207450
      ESP Fit Center  483 is at  10.246375  8.096792  2.207450
      ESP Fit Center  484 is at   9.183359  8.096792  2.207450
      ESP Fit Center  485 is at   8.651852  7.176194  2.207450
      ESP Fit Center  486 is at   9.183359  6.255596  2.207450
      ESP Fit Center  487 is at  10.246375  6.255596  2.207450
      ESP Fit Center  488 is at  11.630354  7.176194  1.527626
      ESP Fit Center  489 is at   9.442265  5.280204  1.527626
      ESP Fit Center  490 is at  10.510589  5.433806  1.527626
      ESP Fit Center  491 is at  11.326277  6.140603  1.527626
      ESP Fit Center  492 is at  12.103440  7.176194  0.545252
      ESP Fit Center  493 is at  10.246375  4.847507  0.545252
      ESP Fit Center  494 is at  11.204118  5.308732  0.545252
      ESP Fit Center  495 is at  11.866897  6.139831  0.545252
      ESP Fit Center  496 is at  12.103440  7.176194 -0.545100
      ESP Fit Center  497 is at  10.246375  4.847507 -0.545100
      ESP Fit Center  498 is at  11.204118  5.308732 -0.545100
      ESP Fit Center  499 is at  11.866897  6.139831 -0.545100
      ESP Fit Center  500 is at  11.630354  7.176194 -1.527474
      ESP Fit Center  501 is at   9.442265  5.280204 -1.527474
      ESP Fit Center  502 is at  10.510589  5.433806 -1.527474
      ESP Fit Center  503 is at  11.326277  6.140603 -1.527474
      ESP Fit Center  504 is at  10.777882  7.176194 -2.207298
      ESP Fit Center  505 is at  10.246375  8.096792 -2.207298
      ESP Fit Center  506 is at   9.183359  8.096792 -2.207298
      ESP Fit Center  507 is at   8.651852  7.176194 -2.207298
      ESP Fit Center  508 is at   9.183359  6.255596 -2.207298
      ESP Fit Center  509 is at  10.246375  6.255596 -2.207298
      ESP Fit Center  510 is at   9.714867  7.176194 -2.449924
      ESP Fit Center  511 is at   9.184633 10.966087  0.000119
      ESP Fit Center  512 is at   8.357430 10.395111  0.000119
      ESP Fit Center  513 is at   7.890325  9.505116  0.000119
      ESP Fit Center  514 is at   8.636899 10.799823 -0.367533
      ESP Fit Center  515 is at   7.934369  9.962580 -0.367533
      ESP Fit Center  516 is at   9.713237 10.989610 -1.405831
      ESP Fit Center  517 is at   8.636899 10.799823 -1.405831
      ESP Fit Center  518 is at   7.934369  9.962580 -1.405831
      ESP Fit Center  519 is at  10.423265  9.416109 -2.245831
      ESP Fit Center  520 is at   9.740934 10.355258 -2.245831
      ESP Fit Center  521 is at   8.636899  9.996535 -2.245831
      ESP Fit Center  522 is at   8.636899  8.835683 -2.245831
      ESP Fit Center  523 is at   9.740934  8.476960 -2.245831
      ESP Fit Center  524 is at   9.435786  9.416109 -2.566682
      ESP Fit Center  525 is at   9.435788  9.416066  2.566941
      ESP Fit Center  526 is at  10.423267  9.416066  2.246090
      ESP Fit Center  527 is at   9.740936 10.355215  2.246090
      ESP Fit Center  528 is at   8.636901  9.996492  2.246090
      ESP Fit Center  529 is at   8.636901  8.835640  2.246090
      ESP Fit Center  530 is at   9.740936  8.476917  2.246090
      ESP Fit Center  531 is at   9.713239 10.989567  1.406090
      ESP Fit Center  532 is at   8.636901 10.799780  1.406090
      ESP Fit Center  533 is at   7.934371  9.962537  1.406090
      ESP Fit Center  534 is at   8.636901 10.799780  0.367792
      ESP Fit Center  535 is at   7.934371  9.962537  0.367792
      ESP Fit Center  536 is at  10.891152 10.265333  1.818779
      ESP Fit Center  537 is at  12.946101 10.339244  1.050126
      ESP Fit Center  538 is at  13.516152  9.356006  0.000126
      ESP Fit Center  539 is at  13.275610 10.331925  0.000126
      ESP Fit Center  540 is at  12.609088  7.627740  0.000126
      ESP Fit Center  541 is at  13.275610  8.380087  0.000126
      ESP Fit Center  542 is at  12.946101 10.339244 -1.049874
      ESP Fit Center  543 is at  10.891152 10.265333 -1.818527
      ESP Fit Center  544 is at  11.847881 11.383654  1.359301
      ESP Fit Center  545 is at  10.743846 11.024931  1.359301
      ESP Fit Center  546 is at  13.140508 10.444505  0.519301
      ESP Fit Center  547 is at  12.766700 11.471535  0.519301
      ESP Fit Center  548 is at  11.820184 12.018006  0.519301
      ESP Fit Center  549 is at  10.743846 11.828219  0.519301
      ESP Fit Center  550 is at  13.140508 10.444505 -0.518997
      ESP Fit Center  551 is at  12.766700 11.471535 -0.518997
      ESP Fit Center  552 is at  11.820184 12.018006 -0.518997
      ESP Fit Center  553 is at  10.743846 11.828219 -0.518997
      ESP Fit Center  554 is at  11.847881 11.383654 -1.358997
      ESP Fit Center  555 is at  10.743846 11.024931 -1.358997
      ESP Fit Center  556 is at  11.919136  8.956209  2.566839
      ESP Fit Center  557 is at  12.906615  8.956209  2.245988
      ESP Fit Center  558 is at  12.224284  9.895358  2.245988
      ESP Fit Center  559 is at  11.120249  9.536635  2.245988
      ESP Fit Center  560 is at  11.120249  8.375783  2.245988
      ESP Fit Center  561 is at  12.224284  8.017060  2.245988
      ESP Fit Center  562 is at  13.516911  8.956209  1.405988
      ESP Fit Center  563 is at  13.143103  9.983239  1.405988
      ESP Fit Center  564 is at  12.196587  7.382708  1.405988
      ESP Fit Center  565 is at  13.143103  7.929179  1.405988
      ESP Fit Center  566 is at  13.516911  8.956209  0.367690
      ESP Fit Center  567 is at  12.196587  7.382708  0.367690
      ESP Fit Center  568 is at  13.143103  7.929179  0.367690
      ESP Fit Center  569 is at  13.516909  8.956251 -0.367460
      ESP Fit Center  570 is at  12.196585  7.382750 -0.367460
      ESP Fit Center  571 is at  13.143101  7.929221 -0.367460
      ESP Fit Center  572 is at  13.516909  8.956251 -1.405758
      ESP Fit Center  573 is at  13.143101  9.983281 -1.405758
      ESP Fit Center  574 is at  12.196585  7.382750 -1.405758
      ESP Fit Center  575 is at  13.143101  7.929221 -1.405758
      ESP Fit Center  576 is at  12.906613  8.956251 -2.245758
      ESP Fit Center  577 is at  12.224282  9.895400 -2.245758
      ESP Fit Center  578 is at  11.120247  9.536677 -2.245758
      ESP Fit Center  579 is at  11.120247  8.375825 -2.245758
      ESP Fit Center  580 is at  12.224282  8.017102 -2.245758
      ESP Fit Center  581 is at  11.919134  8.956251 -2.566609
      ESP Fit Center  582 is at  -8.501821 -5.992149  2.162321
      ESP Fit Center  583 is at -10.320988 -5.090339  0.534046
      ESP Fit Center  584 is at -10.320988 -5.090339 -0.534054
      ESP Fit Center  585 is at  -8.501821 -5.992149 -2.162329
      ESP Fit Center  586 is at  -9.406809 -6.081991  1.662781
      ESP Fit Center  587 is at  -8.926809 -6.913375  1.662781
      ESP Fit Center  588 is at  -7.966809 -6.913375  1.662781
      ESP Fit Center  589 is at -10.109578 -6.081991  0.960012
      ESP Fit Center  590 is at  -9.792017 -7.059342  0.960012
      ESP Fit Center  591 is at  -8.960633 -7.663378  0.960012
      ESP Fit Center  592 is at  -7.932985 -7.663378  0.960012
      ESP Fit Center  593 is at -10.366809 -6.081991  0.000012
      ESP Fit Center  594 is at -10.109578 -7.041991  0.000012
      ESP Fit Center  595 is at  -9.406809 -7.744760  0.000012
      ESP Fit Center  596 is at  -8.446809 -8.001991  0.000012
      ESP Fit Center  597 is at  -7.486809 -7.744760  0.000012
      ESP Fit Center  598 is at -10.109578 -6.081991 -0.959988
      ESP Fit Center  599 is at  -9.792017 -7.059342 -0.959988
      ESP Fit Center  600 is at  -8.960633 -7.663378 -0.959988
      ESP Fit Center  601 is at  -7.932985 -7.663378 -0.959988
      ESP Fit Center  602 is at  -9.406809 -6.081991 -1.662757
      ESP Fit Center  603 is at  -8.926809 -6.913375 -1.662757
      ESP Fit Center  604 is at  -7.966809 -6.913375 -1.662757
      ESP Fit Center  605 is at  -8.321303 -4.546286  2.807067
      ESP Fit Center  606 is at  -7.361303 -4.546286  2.549836
      ESP Fit Center  607 is at  -7.841303 -3.714902  2.549836
      ESP Fit Center  608 is at  -8.801303 -3.714902  2.549836
      ESP Fit Center  609 is at  -9.281303 -4.546286  2.549836
      ESP Fit Center  610 is at  -8.801303 -5.377670  2.549836
      ESP Fit Center  611 is at  -7.841303 -5.377670  2.549836
      ESP Fit Center  612 is at  -7.807479 -2.964899  1.847067
      ESP Fit Center  613 is at  -8.835127 -2.964899  1.847067
      ESP Fit Center  614 is at  -9.666511 -3.568935  1.847067
      ESP Fit Center  615 is at  -9.984072 -4.546286  1.847067
      ESP Fit Center  616 is at  -9.666511 -5.523637  1.847067
      ESP Fit Center  617 is at  -8.321303 -2.626286  0.887067
      ESP Fit Center  618 is at  -9.281303 -2.883517  0.887067
      ESP Fit Center  619 is at  -9.984072 -3.586286  0.887067
      ESP Fit Center  620 is at -10.241303 -4.546286  0.887067
      ESP Fit Center  621 is at  -8.321285 -2.626322 -0.887103
      ESP Fit Center  622 is at  -9.281285 -2.883553 -0.887103
      ESP Fit Center  623 is at  -9.984054 -3.586322 -0.887103
      ESP Fit Center  624 is at -10.241285 -4.546322 -0.887103
      ESP Fit Center  625 is at  -7.807461 -2.964935 -1.847103
      ESP Fit Center  626 is at  -8.835109 -2.964935 -1.847103
      ESP Fit Center  627 is at  -9.666493 -3.568971 -1.847103
      ESP Fit Center  628 is at  -9.984054 -4.546322 -1.847103
      ESP Fit Center  629 is at  -9.666493 -5.523673 -1.847103
      ESP Fit Center  630 is at  -7.361285 -4.546322 -2.549872
      ESP Fit Center  631 is at  -7.841285 -3.714938 -2.549872
      ESP Fit Center  632 is at  -8.801285 -3.714938 -2.549872
      ESP Fit Center  633 is at  -9.281285 -4.546322 -2.549872
      ESP Fit Center  634 is at  -8.801285 -5.377706 -2.549872
      ESP Fit Center  635 is at  -7.841285 -5.377706 -2.549872
      ESP Fit Center  636 is at  -8.321285 -4.546322 -2.807103
      ESP Fit Center  637 is at  -6.987152 -7.496378  0.534064
      ESP Fit Center  638 is at  -6.987152 -7.496378 -0.534036
      ESP Fit Center  639 is at  -6.122538 -5.773904  2.807324
      ESP Fit Center  640 is at  -5.162538 -5.773904  2.550093
      ESP Fit Center  641 is at  -5.642538 -4.942520  2.550093
      ESP Fit Center  642 is at  -6.602538 -4.942520  2.550093
      ESP Fit Center  643 is at  -7.082538 -5.773904  2.550093
      ESP Fit Center  644 is at  -6.602538 -6.605288  2.550093
      ESP Fit Center  645 is at  -5.642538 -6.605288  2.550093
      ESP Fit Center  646 is at  -7.467746 -6.751255  1.847324
      ESP Fit Center  647 is at  -6.636362 -7.355291  1.847324
      ESP Fit Center  648 is at  -5.608714 -7.355291  1.847324
      ESP Fit Center  649 is at  -4.777330 -6.751255  1.847324
      ESP Fit Center  650 is at  -7.082538 -7.436673  0.887324
      ESP Fit Center  651 is at  -6.122538 -7.693904  0.887324
      ESP Fit Center  652 is at  -5.162538 -7.436673  0.887324
      ESP Fit Center  653 is at  -4.459769 -6.733904  0.887324
      ESP Fit Center  654 is at  -7.082519 -7.436705 -0.887268
      ESP Fit Center  655 is at  -6.122519 -7.693936 -0.887268
      ESP Fit Center  656 is at  -5.162519 -7.436705 -0.887268
      ESP Fit Center  657 is at  -4.459750 -6.733936 -0.887268
      ESP Fit Center  658 is at  -7.467727 -6.751287 -1.847268
      ESP Fit Center  659 is at  -6.636343 -7.355323 -1.847268
      ESP Fit Center  660 is at  -5.608695 -7.355323 -1.847268
      ESP Fit Center  661 is at  -4.777311 -6.751287 -1.847268
      ESP Fit Center  662 is at  -5.162519 -5.773936 -2.550037
      ESP Fit Center  663 is at  -5.642519 -4.942552 -2.550037
      ESP Fit Center  664 is at  -6.602519 -4.942552 -2.550037
      ESP Fit Center  665 is at  -7.082519 -5.773936 -2.550037
      ESP Fit Center  666 is at  -6.602519 -6.605320 -2.550037
      ESP Fit Center  667 is at  -5.642519 -6.605320 -2.550037
      ESP Fit Center  668 is at  -6.122519 -5.773936 -2.807268
      ESP Fit Center  669 is at  -5.908353 -3.911521  2.239996
      ESP Fit Center  670 is at  -6.394303 -3.069831  2.018166
      ESP Fit Center  671 is at  -6.880253 -3.911521  2.018166
      ESP Fit Center  672 is at  -6.449535 -2.245933  1.396613
      ESP Fit Center  673 is at  -7.325187 -2.882131  1.396613
      ESP Fit Center  674 is at  -6.682753 -1.869597  0.498443
      ESP Fit Center  675 is at  -7.542980 -2.463368  0.498443
      ESP Fit Center  676 is at  -6.682753 -1.869597 -0.498451
      ESP Fit Center  677 is at  -7.542980 -2.463368 -0.498451
      ESP Fit Center  678 is at  -6.449535 -2.245933 -1.396621
      ESP Fit Center  679 is at  -7.325187 -2.882131 -1.396621
      ESP Fit Center  680 is at  -6.394303 -3.069831 -2.018174
      ESP Fit Center  681 is at  -6.880253 -3.911521 -2.018174
      ESP Fit Center  682 is at  -5.908353 -3.911521 -2.240004
      ESP Fit Center  683 is at  -4.095642 -6.344893 -0.888904
      ESP Fit Center  684 is at  -3.135642 -6.087662 -0.888904
      ESP Fit Center  685 is at  -2.432873 -5.384893 -0.888904
      ESP Fit Center  686 is at  -2.432873 -4.424893 -1.848904
      ESP Fit Center  687 is at  -3.581818 -6.006280 -1.848904
      ESP Fit Center  688 is at  -2.750434 -5.402244 -1.848904
      ESP Fit Center  689 is at  -3.135642 -4.424893 -2.551673
      ESP Fit Center  690 is at  -3.615642 -3.593509 -2.551673
      ESP Fit Center  691 is at  -4.575642 -3.593509 -2.551673
      ESP Fit Center  692 is at  -5.055642 -4.424893 -2.551673
      ESP Fit Center  693 is at  -4.575642 -5.256277 -2.551673
      ESP Fit Center  694 is at  -3.615642 -5.256277 -2.551673
      ESP Fit Center  695 is at  -4.095642 -4.424893 -2.808904
      ESP Fit Center  696 is at  -4.095657 -4.424871  2.808939
      ESP Fit Center  697 is at  -3.135657 -4.424871  2.551708
      ESP Fit Center  698 is at  -3.615657 -3.593487  2.551708
      ESP Fit Center  699 is at  -4.575657 -3.593487  2.551708
      ESP Fit Center  700 is at  -5.055657 -4.424871  2.551708
      ESP Fit Center  701 is at  -4.575657 -5.256255  2.551708
      ESP Fit Center  702 is at  -3.615657 -5.256255  2.551708
      ESP Fit Center  703 is at  -2.432888 -4.424871  1.848939
      ESP Fit Center  704 is at  -3.581833 -6.006258  1.848939
      ESP Fit Center  705 is at  -2.750449 -5.402222  1.848939
      ESP Fit Center  706 is at  -4.095657 -6.344871  0.888939
      ESP Fit Center  707 is at  -3.135657 -6.087640  0.888939
      ESP Fit Center  708 is at  -2.432888 -5.384871  0.888939
      ESP Fit Center  709 is at  -4.436321 -0.023120 -0.889073
      ESP Fit Center  710 is at  -5.396321 -0.280351 -0.889073
      ESP Fit Center  711 is at  -6.099090 -0.983120 -0.889073
      ESP Fit Center  712 is at  -4.950145 -0.361733 -1.849073
      ESP Fit Center  713 is at  -5.781529 -0.965769 -1.849073
      ESP Fit Center  714 is at  -6.099090 -1.943120 -1.849073
      ESP Fit Center  715 is at  -3.476321 -1.943120 -2.551842
      ESP Fit Center  716 is at  -3.956321 -1.111736 -2.551842
      ESP Fit Center  717 is at  -4.916321 -1.111736 -2.551842
      ESP Fit Center  718 is at  -5.396321 -1.943120 -2.551842
      ESP Fit Center  719 is at  -4.916321 -2.774504 -2.551842
      ESP Fit Center  720 is at  -3.956321 -2.774504 -2.551842
      ESP Fit Center  721 is at  -4.436321 -1.943120 -2.809073
      ESP Fit Center  722 is at  -4.436333 -1.943099  2.809043
      ESP Fit Center  723 is at  -3.476333 -1.943099  2.551812
      ESP Fit Center  724 is at  -3.956333 -1.111715  2.551812
      ESP Fit Center  725 is at  -4.916333 -1.111715  2.551812
      ESP Fit Center  726 is at  -5.396333 -1.943099  2.551812
      ESP Fit Center  727 is at  -4.916333 -2.774483  2.551812
      ESP Fit Center  728 is at  -3.956333 -2.774483  2.551812
      ESP Fit Center  729 is at  -4.950157 -0.361712  1.849043
      ESP Fit Center  730 is at  -5.781541 -0.965748  1.849043
      ESP Fit Center  731 is at  -6.099102 -1.943099  1.849043
      ESP Fit Center  732 is at  -4.436333 -0.023099  0.889043
      ESP Fit Center  733 is at  -5.396333 -0.280330  0.889043
      ESP Fit Center  734 is at  -6.099102 -0.983099  0.889043
      ESP Fit Center  735 is at  -2.623878 -2.454595  2.240004
      ESP Fit Center  736 is at  -2.137928 -3.296285  2.018174
      ESP Fit Center  737 is at  -2.082696 -4.120183  1.396621
      ESP Fit Center  738 is at  -1.207044 -3.483985  1.396621
      ESP Fit Center  739 is at  -1.383316 -4.251859  0.498451
      ESP Fit Center  740 is at  -1.383316 -4.251859 -0.498443
      ESP Fit Center  741 is at  -2.082696 -4.120183 -1.396613
      ESP Fit Center  742 is at  -1.207044 -3.483985 -1.396613
      ESP Fit Center  743 is at  -2.137928 -3.296285 -2.018166
      ESP Fit Center  744 is at  -2.623878 -2.454595 -2.239996
      ESP Fit Center  745 is at  -2.388288 -0.586259  2.809076
      ESP Fit Center  746 is at  -1.428288 -0.586259  2.551845
      ESP Fit Center  747 is at  -1.908288  0.245125  2.551845
      ESP Fit Center  748 is at  -2.868288  0.245125  2.551845
      ESP Fit Center  749 is at  -3.348288 -0.586259  2.551845
      ESP Fit Center  750 is at  -2.868288 -1.417643  2.551845
      ESP Fit Center  751 is at  -1.908288 -1.417643  2.551845
      ESP Fit Center  752 is at  -1.874464  0.995128  1.849076
      ESP Fit Center  753 is at  -2.902112  0.995128  1.849076
      ESP Fit Center  754 is at  -3.733496  0.391092  1.849076
      ESP Fit Center  755 is at  -2.388288  1.333741  0.889076
      ESP Fit Center  756 is at  -3.348288  1.076510  0.889076
      ESP Fit Center  757 is at  -4.051057  0.373741  0.889076
      ESP Fit Center  758 is at  -2.388282  1.333728 -0.889095
      ESP Fit Center  759 is at  -3.348282  1.076497 -0.889095
      ESP Fit Center  760 is at  -4.051051  0.373728 -0.889095
      ESP Fit Center  761 is at  -1.874458  0.995115 -1.849095
      ESP Fit Center  762 is at  -2.902106  0.995115 -1.849095
      ESP Fit Center  763 is at  -3.733490  0.391079 -1.849095
      ESP Fit Center  764 is at  -1.428282 -0.586272 -2.551864
      ESP Fit Center  765 is at  -1.908282  0.245112 -2.551864
      ESP Fit Center  766 is at  -2.868282  0.245112 -2.551864
      ESP Fit Center  767 is at  -3.348282 -0.586272 -2.551864
      ESP Fit Center  768 is at  -2.868282 -1.417656 -2.551864
      ESP Fit Center  769 is at  -1.908282 -1.417656 -2.551864
      ESP Fit Center  770 is at  -2.388282 -0.586272 -2.809095
      ESP Fit Center  771 is at  -0.236831 -3.789427 -0.889197
      ESP Fit Center  772 is at   0.723169 -3.532196 -0.889197
      ESP Fit Center  773 is at   1.425938 -2.829427 -0.889197
      ESP Fit Center  774 is at  -0.750655 -3.450814 -1.849197
      ESP Fit Center  775 is at   0.276993 -3.450814 -1.849197
      ESP Fit Center  776 is at   1.108377 -2.846778 -1.849197
      ESP Fit Center  777 is at   0.723169 -1.869427 -2.551966
      ESP Fit Center  778 is at   0.243169 -1.038043 -2.551966
      ESP Fit Center  779 is at  -0.716831 -1.038043 -2.551966
      ESP Fit Center  780 is at  -1.196831 -1.869427 -2.551966
      ESP Fit Center  781 is at  -0.716831 -2.700811 -2.551966
      ESP Fit Center  782 is at   0.243169 -2.700811 -2.551966
      ESP Fit Center  783 is at  -0.236831 -1.869427 -2.809197
      ESP Fit Center  784 is at  -0.236838 -1.869419  2.809210
      ESP Fit Center  785 is at   0.723162 -1.869419  2.551979
      ESP Fit Center  786 is at   0.243162 -1.038035  2.551979
      ESP Fit Center  787 is at  -0.716838 -1.038035  2.551979
      ESP Fit Center  788 is at  -1.196838 -1.869419  2.551979
      ESP Fit Center  789 is at  -0.716838 -2.700803  2.551979
      ESP Fit Center  790 is at   0.243162 -2.700803  2.551979
      ESP Fit Center  791 is at  -0.750662 -3.450806  1.849210
      ESP Fit Center  792 is at   0.276986 -3.450806  1.849210
      ESP Fit Center  793 is at   1.108370 -2.846770  1.849210
      ESP Fit Center  794 is at  -0.236838 -3.789419  0.889210
      ESP Fit Center  795 is at   0.723162 -3.532188  0.889210
      ESP Fit Center  796 is at   1.425931 -2.829419  0.889210
      ESP Fit Center  797 is at   0.000000  0.000000  2.240000
      ESP Fit Center  798 is at  -0.485950  0.841690  2.018170
      ESP Fit Center  799 is at  -0.541182  1.665588  1.396617
      ESP Fit Center  800 is at  -1.416834  1.029390  1.396617
      ESP Fit Center  801 is at  -0.774400  2.041924  0.498447
      ESP Fit Center  802 is at  -1.634627  1.448153  0.498447
      ESP Fit Center  803 is at  -0.774400  2.041924 -0.498447
      ESP Fit Center  804 is at  -1.634627  1.448153 -0.498447
      ESP Fit Center  805 is at  -0.541182  1.665588 -1.396617
      ESP Fit Center  806 is at  -1.416834  1.029390 -1.396617
      ESP Fit Center  807 is at  -0.485950  0.841690 -2.018170
      ESP Fit Center  808 is at   0.000000  0.000000 -2.240000
      ESP Fit Center  809 is at   1.803328 -2.443545 -0.889168
      ESP Fit Center  810 is at   2.763328 -2.186314 -0.889168
      ESP Fit Center  811 is at   3.466097 -1.483545 -0.889168
      ESP Fit Center  812 is at   2.317152 -2.104932 -1.849168
      ESP Fit Center  813 is at   3.148536 -1.500896 -1.849168
      ESP Fit Center  814 is at   2.763328 -0.523545 -2.551937
      ESP Fit Center  815 is at   2.283328  0.307839 -2.551937
      ESP Fit Center  816 is at   1.323328  0.307839 -2.551937
      ESP Fit Center  817 is at   0.843328 -0.523545 -2.551937
      ESP Fit Center  818 is at   1.323328 -1.354929 -2.551937
      ESP Fit Center  819 is at   2.283328 -1.354929 -2.551937
      ESP Fit Center  820 is at   1.803328 -0.523545 -2.809168
      ESP Fit Center  821 is at   1.803327 -0.523543  2.809170
      ESP Fit Center  822 is at   2.763327 -0.523543  2.551939
      ESP Fit Center  823 is at   2.283327  0.307841  2.551939
      ESP Fit Center  824 is at   1.323327  0.307841  2.551939
      ESP Fit Center  825 is at   0.843327 -0.523543  2.551939
      ESP Fit Center  826 is at   1.323327 -1.354927  2.551939
      ESP Fit Center  827 is at   2.283327 -1.354927  2.551939
      ESP Fit Center  828 is at   2.317151 -2.104930  1.849170
      ESP Fit Center  829 is at   3.148535 -1.500894  1.849170
      ESP Fit Center  830 is at   1.803327 -2.443543  0.889170
      ESP Fit Center  831 is at   2.763327 -2.186312  0.889170
      ESP Fit Center  832 is at   3.466096 -1.483543  0.889170
      ESP Fit Center  833 is at   1.475148  1.960036  2.808786
      ESP Fit Center  834 is at   2.435148  1.960036  2.551555
      ESP Fit Center  835 is at   1.955148  2.791420  2.551555
      ESP Fit Center  836 is at   0.995148  2.791420  2.551555
      ESP Fit Center  837 is at   0.515148  1.960036  2.551555
      ESP Fit Center  838 is at   0.995148  1.128652  2.551555
      ESP Fit Center  839 is at   1.955148  1.128652  2.551555
      ESP Fit Center  840 is at   0.961324  3.541423  1.848786
      ESP Fit Center  841 is at   0.129940  2.937387  1.848786
      ESP Fit Center  842 is at  -0.187621  1.960036  1.848786
      ESP Fit Center  843 is at   1.475148  3.880036  0.888786
      ESP Fit Center  844 is at   0.515148  3.622805  0.888786
      ESP Fit Center  845 is at  -0.187621  2.920036  0.888786
      ESP Fit Center  846 is at   1.475151  3.880035 -0.888788
      ESP Fit Center  847 is at   0.515151  3.622804 -0.888788
      ESP Fit Center  848 is at  -0.187618  2.920035 -0.888788
      ESP Fit Center  849 is at   0.961327  3.541422 -1.848788
      ESP Fit Center  850 is at   0.129943  2.937386 -1.848788
      ESP Fit Center  851 is at  -0.187618  1.960035 -1.848788
      ESP Fit Center  852 is at   2.435151  1.960035 -2.551557
      ESP Fit Center  853 is at   1.955151  2.791419 -2.551557
      ESP Fit Center  854 is at   0.995151  2.791419 -2.551557
      ESP Fit Center  855 is at   0.515151  1.960035 -2.551557
      ESP Fit Center  856 is at   0.995151  1.128651 -2.551557
      ESP Fit Center  857 is at   1.955151  1.128651 -2.551557
      ESP Fit Center  858 is at   1.475151  1.960035 -2.808788
      ESP Fit Center  859 is at   3.702828  1.537578  2.800002
      ESP Fit Center  860 is at   4.774342  1.537578  2.586865
      ESP Fit Center  861 is at   4.238585  2.465536  2.586865
      ESP Fit Center  862 is at   3.167071  2.465536  2.586865
      ESP Fit Center  863 is at   2.631314  1.537578  2.586865
      ESP Fit Center  864 is at   3.167071  0.609620  2.586865
      ESP Fit Center  865 is at   4.238585  0.609620  2.586865
      ESP Fit Center  866 is at   5.682727  1.537578  1.979901
      ESP Fit Center  867 is at   3.702828 -0.442321  1.979901
      ESP Fit Center  868 is at   4.692777 -0.177065  1.979901
      ESP Fit Center  869 is at   5.417471  0.547629  1.979901
      ESP Fit Center  870 is at   4.502213 -0.922675  1.071516
      ESP Fit Center  871 is at   5.433777 -0.384836  1.071516
      ESP Fit Center  872 is at   6.066045  0.485406  1.071516
      ESP Fit Center  873 is at   6.502828  1.537578  0.000002
      ESP Fit Center  874 is at   3.961179 -1.250478  0.000002
      ESP Fit Center  875 is at   4.950895 -0.968879  0.000002
      ESP Fit Center  876 is at   5.772053 -0.348770  0.000002
      ESP Fit Center  877 is at   6.313750  0.526101  0.000002
      ESP Fit Center  878 is at   4.502213 -0.922675 -1.071512
      ESP Fit Center  879 is at   5.433777 -0.384836 -1.071512
      ESP Fit Center  880 is at   6.066045  0.485406 -1.071512
      ESP Fit Center  881 is at   5.682727  1.537578 -1.979897
      ESP Fit Center  882 is at   3.702828 -0.442321 -1.979897
      ESP Fit Center  883 is at   4.692777 -0.177065 -1.979897
      ESP Fit Center  884 is at   5.417471  0.547629 -1.979897
      ESP Fit Center  885 is at   4.774342  1.537578 -2.586861
      ESP Fit Center  886 is at   4.238585  2.465536 -2.586861
      ESP Fit Center  887 is at   3.167071  2.465536 -2.586861
      ESP Fit Center  888 is at   2.631314  1.537578 -2.586861
      ESP Fit Center  889 is at   3.167071  0.609620 -2.586861
      ESP Fit Center  890 is at   4.238585  0.609620 -2.586861
      ESP Fit Center  891 is at   3.702828  1.537578 -2.799998
      ESP Fit Center  892 is at   2.462232  5.444722 -0.888482
      ESP Fit Center  893 is at   1.759463  4.741953 -0.888482
      ESP Fit Center  894 is at   2.908408  5.363340 -1.848482
      ESP Fit Center  895 is at   2.077024  4.759304 -1.848482
      ESP Fit Center  896 is at   1.759463  3.781953 -1.848482
      ESP Fit Center  897 is at   4.382232  3.781953 -2.551251
      ESP Fit Center  898 is at   3.902232  4.613337 -2.551251
      ESP Fit Center  899 is at   2.942232  4.613337 -2.551251
      ESP Fit Center  900 is at   2.462232  3.781953 -2.551251
      ESP Fit Center  901 is at   2.942232  2.950569 -2.551251
      ESP Fit Center  902 is at   3.902232  2.950569 -2.551251
      ESP Fit Center  903 is at   3.422232  3.781953 -2.808482
      ESP Fit Center  904 is at   3.422229  3.781941  2.808516
      ESP Fit Center  905 is at   4.382229  3.781941  2.551285
      ESP Fit Center  906 is at   3.902229  4.613325  2.551285
      ESP Fit Center  907 is at   2.942229  4.613325  2.551285
      ESP Fit Center  908 is at   2.462229  3.781941  2.551285
      ESP Fit Center  909 is at   2.942229  2.950557  2.551285
      ESP Fit Center  910 is at   3.902229  2.950557  2.551285
      ESP Fit Center  911 is at   2.908405  5.363328  1.848516
      ESP Fit Center  912 is at   2.077021  4.759292  1.848516
      ESP Fit Center  913 is at   1.759460  3.781941  1.848516
      ESP Fit Center  914 is at   2.462229  5.444710  0.888516
      ESP Fit Center  915 is at   1.759460  4.741941  0.888516
      ESP Fit Center  916 is at   6.843666  1.626055 -0.888550
      ESP Fit Center  917 is at   7.546435  2.328824 -0.888550
      ESP Fit Center  918 is at   7.546435  3.288824 -1.848550
      ESP Fit Center  919 is at   6.397490  1.707437 -1.848550
      ESP Fit Center  920 is at   7.228874  2.311473 -1.848550
      ESP Fit Center  921 is at   6.843666  3.288824 -2.551319
      ESP Fit Center  922 is at   6.363666  4.120208 -2.551319
      ESP Fit Center  923 is at   5.403666  4.120208 -2.551319
      ESP Fit Center  924 is at   4.923666  3.288824 -2.551319
      ESP Fit Center  925 is at   5.403666  2.457440 -2.551319
      ESP Fit Center  926 is at   6.363666  2.457440 -2.551319
      ESP Fit Center  927 is at   5.883666  3.288824 -2.808550
      ESP Fit Center  928 is at   5.883663  3.288806  2.808585
      ESP Fit Center  929 is at   6.843663  3.288806  2.551354
      ESP Fit Center  930 is at   6.363663  4.120190  2.551354
      ESP Fit Center  931 is at   5.403663  4.120190  2.551354
      ESP Fit Center  932 is at   4.923663  3.288806  2.551354
      ESP Fit Center  933 is at   5.403663  2.457422  2.551354
      ESP Fit Center  934 is at   6.363663  2.457422  2.551354
      ESP Fit Center  935 is at   7.546432  3.288806  1.848585
      ESP Fit Center  936 is at   6.397487  1.707419  1.848585
      ESP Fit Center  937 is at   7.228871  2.311455  1.848585
      ESP Fit Center  938 is at   6.843663  1.626037  0.888585
      ESP Fit Center  939 is at   7.546432  2.328806  0.888585
      ESP Fit Center  940 is at   5.603573  5.534039  2.800040
      ESP Fit Center  941 is at   6.675087  5.534039  2.586903
      ESP Fit Center  942 is at   6.139330  6.461997  2.586903
      ESP Fit Center  943 is at   5.067816  6.461997  2.586903
      ESP Fit Center  944 is at   4.532059  5.534039  2.586903
      ESP Fit Center  945 is at   5.067816  4.606081  2.586903
      ESP Fit Center  946 is at   6.139330  4.606081  2.586903
      ESP Fit Center  947 is at   5.603573  7.513938  1.979939
      ESP Fit Center  948 is at   4.613624  7.248682  1.979939
      ESP Fit Center  949 is at   3.888930  6.523988  1.979939
      ESP Fit Center  950 is at   3.623674  5.534039  1.979939
      ESP Fit Center  951 is at   5.333172  8.106731  1.071554
      ESP Fit Center  952 is at   4.310142  7.774328  1.071554
      ESP Fit Center  953 is at   3.510757  7.054559  1.071554
      ESP Fit Center  954 is at   3.073239  6.071878  1.071554
      ESP Fit Center  955 is at   4.837317  8.227151  0.000040
      ESP Fit Center  956 is at   3.916196  7.768487  0.000040
      ESP Fit Center  957 is at   3.222965  7.008049  0.000040
      ESP Fit Center  958 is at   2.851248  6.048538  0.000040
      ESP Fit Center  959 is at   5.333172  8.106731 -1.071474
      ESP Fit Center  960 is at   4.310142  7.774328 -1.071474
      ESP Fit Center  961 is at   3.510757  7.054559 -1.071474
      ESP Fit Center  962 is at   3.073239  6.071878 -1.071474
      ESP Fit Center  963 is at   5.603573  7.513938 -1.979859
      ESP Fit Center  964 is at   4.613624  7.248682 -1.979859
      ESP Fit Center  965 is at   3.888930  6.523988 -1.979859
      ESP Fit Center  966 is at   3.623674  5.534039 -1.979859
      ESP Fit Center  967 is at   6.675087  5.534039 -2.586823
      ESP Fit Center  968 is at   6.139330  6.461997 -2.586823
      ESP Fit Center  969 is at   5.067816  6.461997 -2.586823
      ESP Fit Center  970 is at   4.532059  5.534039 -2.586823
      ESP Fit Center  971 is at   5.067816  4.606081 -2.586823
      ESP Fit Center  972 is at   6.139330  4.606081 -2.586823
      ESP Fit Center  973 is at   5.603573  5.534039 -2.799960
      ESP Fit Center  974 is at   7.826073  3.190703 -0.888501
      ESP Fit Center  975 is at   8.786073  3.447934 -0.888501
      ESP Fit Center  976 is at   9.488842  4.150703 -0.888501
      ESP Fit Center  977 is at   8.339897  3.529316 -1.848501
      ESP Fit Center  978 is at   9.171281  4.133352 -1.848501
      ESP Fit Center  979 is at   8.786073  5.110703 -2.551270
      ESP Fit Center  980 is at   8.306073  5.942087 -2.551270
      ESP Fit Center  981 is at   7.346073  5.942087 -2.551270
      ESP Fit Center  982 is at   6.866073  5.110703 -2.551270
      ESP Fit Center  983 is at   7.346073  4.279319 -2.551270
      ESP Fit Center  984 is at   8.306073  4.279319 -2.551270
      ESP Fit Center  985 is at   7.826073  5.110703 -2.808501
      ESP Fit Center  986 is at   7.826072  5.110670  2.808570
      ESP Fit Center  987 is at   8.786072  5.110670  2.551339
      ESP Fit Center  988 is at   8.306072  5.942054  2.551339
      ESP Fit Center  989 is at   7.346072  5.942054  2.551339
      ESP Fit Center  990 is at   6.866072  5.110670  2.551339
      ESP Fit Center  991 is at   7.346072  4.279286  2.551339
      ESP Fit Center  992 is at   8.306072  4.279286  2.551339
      ESP Fit Center  993 is at   8.339896  3.529283  1.848570
      ESP Fit Center  994 is at   9.171280  4.133319  1.848570
      ESP Fit Center  995 is at   7.826072  3.190670  0.888570
      ESP Fit Center  996 is at   8.786072  3.447901  0.888570
      ESP Fit Center  997 is at   9.488841  4.150670  0.888570
      ESP Fit Center  998 is at   7.491595  9.518164 -0.888200
      ESP Fit Center  999 is at   6.531595  9.260933 -0.888200
      ESP Fit Center 1000 is at   5.828826  8.558164 -0.888200
      ESP Fit Center 1001 is at   6.977771  9.179551 -1.848200
      ESP Fit Center 1002 is at   6.146387  8.575515 -1.848200
      ESP Fit Center 1003 is at   8.451595  7.598164 -2.550969
      ESP Fit Center 1004 is at   7.971595  8.429548 -2.550969
      ESP Fit Center 1005 is at   7.011595  8.429548 -2.550969
      ESP Fit Center 1006 is at   6.531595  7.598164 -2.550969
      ESP Fit Center 1007 is at   7.011595  6.766780 -2.550969
      ESP Fit Center 1008 is at   7.971595  6.766780 -2.550969
      ESP Fit Center 1009 is at   7.491595  7.598164 -2.808200
      ESP Fit Center 1010 is at   7.491594  7.598130  2.808360
      ESP Fit Center 1011 is at   8.451594  7.598130  2.551129
      ESP Fit Center 1012 is at   7.971594  8.429514  2.551129
      ESP Fit Center 1013 is at   7.011594  8.429514  2.551129
      ESP Fit Center 1014 is at   6.531594  7.598130  2.551129
      ESP Fit Center 1015 is at   7.011594  6.766746  2.551129
      ESP Fit Center 1016 is at   7.971594  6.766746  2.551129
      ESP Fit Center 1017 is at   6.977770  9.179517  1.848360
      ESP Fit Center 1018 is at   6.146386  8.575481  1.848360
      ESP Fit Center 1019 is at   7.491594  9.518130  0.888360
      ESP Fit Center 1020 is at   6.531594  9.260899  0.888360
      ESP Fit Center 1021 is at   5.828825  8.558130  0.888360
      ESP Fit Center 1022 is at   9.714867  7.176194  2.800076
      ESP Fit Center 1023 is at  10.786381  7.176194  2.586939
      ESP Fit Center 1024 is at  10.250624  8.104152  2.586939
      ESP Fit Center 1025 is at   9.179110  8.104152  2.586939
      ESP Fit Center 1026 is at   8.643353  7.176194  2.586939
      ESP Fit Center 1027 is at   9.179110  6.248236  2.586939
      ESP Fit Center 1028 is at  10.250624  6.248236  2.586939
      ESP Fit Center 1029 is at  11.694766  7.176194  1.979975
      ESP Fit Center 1030 is at   9.714867  5.196295  1.979975
      ESP Fit Center 1031 is at  10.704816  5.461551  1.979975
      ESP Fit Center 1032 is at  11.429510  6.186245  1.979975
      ESP Fit Center 1033 is at  10.514252  4.715941  1.071590
      ESP Fit Center 1034 is at  11.445816  5.253780  1.071590
      ESP Fit Center 1035 is at  12.078084  6.124022  1.071590
      ESP Fit Center 1036 is at  12.514867  7.176194  0.000076
      ESP Fit Center 1037 is at   9.973218  4.388138  0.000076
      ESP Fit Center 1038 is at  10.962934  4.669737  0.000076
      ESP Fit Center 1039 is at  11.784092  5.289846  0.000076
      ESP Fit Center 1040 is at  12.325789  6.164717  0.000076
      ESP Fit Center 1041 is at  10.514252  4.715941 -1.071438
      ESP Fit Center 1042 is at  11.445816  5.253780 -1.071438
      ESP Fit Center 1043 is at  12.078084  6.124022 -1.071438
      ESP Fit Center 1044 is at  11.694766  7.176194 -1.979823
      ESP Fit Center 1045 is at   9.714867  5.196295 -1.979823
      ESP Fit Center 1046 is at  10.704816  5.461551 -1.979823
      ESP Fit Center 1047 is at  11.429510  6.186245 -1.979823
      ESP Fit Center 1048 is at  10.786381  7.176194 -2.586787
[...]
 1539 Fit      -0.012351
 1540 Fit      -0.006342
 1541 Fit      -0.004044
 1542 Fit      -0.008410
 1543 Fit      -0.013055
 1544 Fit      -0.010788
 1545 Fit      -0.005498
 1546 Fit      -0.002580
 1547 Fit      -0.009961
 1548 Fit       0.007050
 1549 Fit       0.002042
 1550 Fit       0.008788
 1551 Fit       0.004134
 1552 Fit      -0.002069
 1553 Fit       0.005612
 1554 Fit       0.000288
 1555 Fit      -0.001460
 1556 Fit      -0.001953
 1557 Fit      -0.000234
 1558 Fit       0.005504
 1559 Fit       0.004097
 1560 Fit       0.002069
 1561 Fit       0.002069
 1562 Fit      -0.001461
 1563 Fit      -0.001953
 1564 Fit      -0.000234
 1565 Fit       0.005504
 1566 Fit       0.004097
 1567 Fit       0.005612
 1568 Fit       0.000288
 1569 Fit       0.008788
 1570 Fit       0.004134
 1571 Fit      -0.002069
 1572 Fit       0.008723
 1573 Fit       0.003942
 1574 Fit       0.008274
 1575 Fit       0.003450
 1576 Fit       0.009447
 1577 Fit       0.005056
 1578 Fit      -0.002169
 1579 Fit       0.006086
 1580 Fit       0.005298
 1581 Fit      -0.000304
 1582 Fit      -0.001319
 1583 Fit      -0.000554
 1584 Fit       0.002505
 1585 Fit       0.002505
 1586 Fit       0.006086
 1587 Fit       0.005298
 1588 Fit      -0.000303
 1589 Fit      -0.001319
 1590 Fit      -0.000554
 1591 Fit       0.009447
 1592 Fit       0.005057
 1593 Fit      -0.002169
 1594 Fit       0.008274
 1595 Fit       0.003450
 1596 Fit      -0.011109
 1597 Fit      -0.012853
 1598 Fit      -0.006489
 1599 Fit      -0.002892
 1600 Fit      -0.004639
 1601 Fit      -0.009617
 1602 Fit      -0.014917
 1603 Fit      -0.009954
 1604 Fit      -0.009225
 1605 Fit      -0.015059
 1606 Fit      -0.015225
 1607 Fit      -0.011987
 1608 Fit      -0.014604
 1609 Fit      -0.012498
 1610 Fit      -0.006262
 1611 Fit      -0.011968
 1612 Fit      -0.013262
 1613 Fit      -0.010532
 1614 Fit      -0.006262
 1615 Fit      -0.011967
 1616 Fit      -0.013262
 1617 Fit      -0.010532
 1618 Fit      -0.011986
 1619 Fit      -0.014604
 1620 Fit      -0.012498
 1621 Fit      -0.009955
 1622 Fit      -0.009224
 1623 Fit      -0.015059
 1624 Fit      -0.015225
 1625 Fit      -0.012854
 1626 Fit      -0.006490
 1627 Fit      -0.002893
 1628 Fit      -0.004639
 1629 Fit      -0.009617
 1630 Fit      -0.014917
 1631 Fit      -0.011110
 1632 Fit       0.009407
 1633 Fit       0.009366
 1634 Fit       0.010051
 1635 Fit       0.010142
 1636 Fit       0.009311
 1637 Fit       0.009302
 1638 Fit       0.010327
 1639 Fit       0.008681
 1640 Fit       0.009092
 1641 Fit       0.009287
 1642 Fit       0.009896
 1643 Fit       0.004153
 1644 Fit       0.007215
 1645 Fit       0.008286
 1646 Fit       0.007853
 1647 Fit       0.002243
 1648 Fit       0.005222
 1649 Fit       0.005223
 1650 Fit       0.004154
 1651 Fit       0.007215
 1652 Fit       0.008286
 1653 Fit       0.007853
 1654 Fit       0.002244
 1655 Fit       0.008681
 1656 Fit       0.009092
 1657 Fit       0.009287
 1658 Fit       0.009896
 1659 Fit       0.010142
 1660 Fit       0.009311
 1661 Fit       0.009302
 1662 Fit       0.010327
 1663 Fit       0.005872
 1664 Fit       0.003010
 1665 Fit       0.001528
 1666 Fit       0.002598
 1667 Fit      -0.002649
 1668 Fit       0.000268
 1669 Fit       0.003010
 1670 Fit       0.005872
 1671 Fit       0.005546
 1672 Fit       0.007271
 1673 Fit       0.005029
 1674 Fit       0.006972
 1675 Fit       0.008245
 1676 Fit       0.009321
 1677 Fit       0.004880
 1678 Fit       0.006910
 1679 Fit       0.008338
 1680 Fit       0.009177
 1681 Fit       0.010106
 1682 Fit       0.005029
 1683 Fit       0.006972
 1684 Fit       0.008245
 1685 Fit       0.009321
 1686 Fit       0.005546
 1687 Fit       0.007271
 1688 Fit       0.002309
 1689 Fit       0.003191
 1690 Fit       0.003928
 1691 Fit       0.004340
 1692 Fit       0.001494
 1693 Fit      -0.004202
 1694 Fit       0.000063
 1695 Fit       0.002965
 1696 Fit       0.003512
 1697 Fit      -0.003493
 1698 Fit       0.001141
 1699 Fit       0.001855
 1700 Fit      -0.003418
 1701 Fit       0.000255
 1702 Fit       0.001855
 1703 Fit      -0.003418
 1704 Fit       0.000254
 1705 Fit       0.002965
 1706 Fit       0.003512
 1707 Fit      -0.003494
 1708 Fit       0.001141
 1709 Fit       0.003190
 1710 Fit       0.003927
 1711 Fit       0.004340
 1712 Fit       0.001493
 1713 Fit      -0.004203
 1714 Fit       0.000062
 1715 Fit       0.002308
 1716 Fit       0.002412
 1717 Fit       0.002590
 1718 Fit       0.003883
 1719 Fit       0.001160
 1720 Fit      -0.001124
 1721 Fit      -0.000213
 1722 Fit       0.000912
 1723 Fit      -0.001124
 1724 Fit      -0.000213
 1725 Fit       0.000912
 1726 Fit       0.001160
 1727 Fit       0.002589
 1728 Fit       0.003883
 1729 Fit       0.002412
 1730 Fit       0.003418
 1731 Fit       0.002590
 1732 Fit       0.004122
 1733 Fit       0.005138
 1734 Fit       0.006053
 1735 Fit       0.001691
 1736 Fit       0.003477
 1737 Fit       0.004866
 1738 Fit       0.005754
 1739 Fit       0.006405
 1740 Fit       0.001691
 1741 Fit       0.003477
 1742 Fit       0.004866
 1743 Fit       0.005754
 1744 Fit       0.006405
 1745 Fit       0.002590
 1746 Fit       0.004122
 1747 Fit       0.005138
 1748 Fit       0.006053
 1749 Fit       0.003418
 1750 Fit       0.001161
 1751 Fit      -0.000326
 1752 Fit      -0.001590
 1753 Fit       0.000454
 1754 Fit       0.001666
 1755 Fit       0.002032
 1756 Fit       0.002076
 1757 Fit      -0.007050
 1758 Fit      -0.002624
 1759 Fit      -0.000019
 1760 Fit       0.001126
 1761 Fit       0.001523
 1762 Fit      -0.011697
 1763 Fit      -0.004829
 1764 Fit      -0.001589
 1765 Fit      -0.000114
 1766 Fit       0.000498
 1767 Fit      -0.011697
 1768 Fit      -0.004830
 1769 Fit      -0.001590
 1770 Fit      -0.000114
 1771 Fit       0.000498
 1772 Fit      -0.007050
 1773 Fit      -0.002624
 1774 Fit      -0.000019
 1775 Fit       0.001126
 1776 Fit       0.001523
 1777 Fit      -0.000326
 1778 Fit      -0.001591
 1779 Fit       0.000454
 1780 Fit       0.001666
 1781 Fit       0.002032
 1782 Fit       0.002076
 1783 Fit       0.001161
 1784 Fit      -0.002870
 1785 Fit       0.006242
 1786 Fit       0.006242
 1787 Fit      -0.002871
 1788 Fit       0.002597
 1789 Fit       0.003083
 1790 Fit       0.000519
 1791 Fit       0.000074
 1792 Fit       0.002668
 1793 Fit       0.003962
 1794 Fit       0.004008
 1795 Fit       0.004850
 1796 Fit       0.005057
 1797 Fit       0.004750
 1798 Fit       0.004285
 1799 Fit       0.005949
 1800 Fit       0.005314
 1801 Fit       0.004714
 1802 Fit       0.004341
 1803 Fit       0.004958
 1804 Fit       0.004958
 1805 Fit       0.005949
 1806 Fit       0.005314
 1807 Fit       0.004714
 1808 Fit       0.004341
 1809 Fit       0.004850
 1810 Fit       0.005057
 1811 Fit       0.004750
 1812 Fit       0.004285
 1813 Fit       0.003083
 1814 Fit       0.000519
 1815 Fit       0.000073
 1816 Fit       0.002668
 1817 Fit       0.003962
 1818 Fit       0.004008
 1819 Fit       0.002597
 1820 Fit      -0.004789
 1821 Fit      -0.008922
 1822 Fit      -0.011721
 1823 Fit      -0.013624
 1824 Fit      -0.014860
 1825 Fit      -0.013624
 1826 Fit      -0.011721
 1827 Fit      -0.008922
 1828 Fit      -0.004790
 1829 Fit      -0.003417
 1830 Fit      -0.003417
 1831 Fit       0.000089
 1832 Fit       0.003312
 1833 Fit       0.000682
 1834 Fit      -0.003544
 1835 Fit      -0.004625
 1836 Fit       0.002306
 1837 Fit      -0.000403
 1838 Fit      -0.000577
 1839 Fit      -0.000833
 1840 Fit      -0.000602
 1841 Fit      -0.000152
 1842 Fit       0.002428
 1843 Fit       0.001683
 1844 Fit       0.000783
 1845 Fit       0.000783
 1846 Fit      -0.000576
 1847 Fit      -0.000833
 1848 Fit      -0.000601
 1849 Fit      -0.000151
 1850 Fit       0.002428
 1851 Fit       0.001683
 1852 Fit      -0.004625
 1853 Fit       0.002306
 1854 Fit      -0.000403
 1855 Fit       0.003312
 1856 Fit       0.000681
 1857 Fit      -0.003544
 1858 Fit       0.000089
 1859 Fit      -0.002508
 1860 Fit      -0.002508
 1861 Fit      -0.001418
 1862 Fit       0.001777
 1863 Fit      -0.000743
 1864 Fit      -0.005369
 1865 Fit       0.002148
 1866 Fit      -0.000043
 1867 Fit      -0.003731
 1868 Fit      -0.008804
 1869 Fit       0.000149
 1870 Fit       0.001983
 1871 Fit       0.000949
 1872 Fit      -0.001376
 1873 Fit      -0.001289
 1874 Fit      -0.000380
 1875 Fit       0.000512
 1876 Fit       0.000512
 1877 Fit       0.000149
 1878 Fit       0.001983
 1879 Fit       0.000949
 1880 Fit      -0.001375
 1881 Fit      -0.001289
 1882 Fit      -0.000380
 1883 Fit       0.002148
 1884 Fit      -0.000043
 1885 Fit      -0.003731
 1886 Fit      -0.008804
 1887 Fit       0.001777
 1888 Fit      -0.000743
 1889 Fit      -0.005369
 1890 Fit      -0.001418
 1891 Fit      -0.003603
 1892 Fit      -0.007011
 1893 Fit      -0.009092
 1894 Fit      -0.009848
 1895 Fit      -0.010702
 1896 Fit      -0.009334
 1897 Fit      -0.009848
 1898 Fit      -0.009091
 1899 Fit      -0.007010
 1900 Fit      -0.003603
 1901 Fit      -0.001902
 1902 Fit      -0.001901
 1903 Fit       0.001267
 1904 Fit       0.000369
 1905 Fit      -0.000102
 1906 Fit       0.001558
 1907 Fit       0.002228
 1908 Fit       0.000663
 1909 Fit       0.000303
 1910 Fit      -0.003916
 1911 Fit      -0.000233
 1912 Fit       0.001795
 1913 Fit       0.003022
 1914 Fit      -0.007096
 1915 Fit      -0.001303
 1916 Fit       0.001243
 1917 Fit       0.002647
 1918 Fit       0.000973
 1919 Fit       0.000973
 1920 Fit      -0.007096
 1921 Fit      -0.001303
 1922 Fit       0.001243
 1923 Fit       0.002647
 1924 Fit      -0.003916
 1925 Fit      -0.000233
 1926 Fit       0.001795
 1927 Fit       0.003022
 1928 Fit       0.000369
 1929 Fit      -0.000102
 1930 Fit       0.001558
 1931 Fit       0.002228
 1932 Fit       0.000664
 1933 Fit       0.000303
 1934 Fit       0.001267
 1935 Fit      -0.000822
 1936 Fit      -0.006270
 1937 Fit      -0.006270
 1938 Fit      -0.000822
 1939 Fit       0.001927
 1940 Fit      -0.007636
 1941 Fit      -0.001165
 1942 Fit       0.002005
 1943 Fit       0.004329
 1944 Fit      -0.002093
 1945 Fit       0.001288
 1946 Fit       0.003319
 1947 Fit       0.003029
 1948 Fit       0.001575
 1949 Fit       0.000689
 1950 Fit       0.000218
 1951 Fit      -0.000211
 1952 Fit       0.001899
 1953 Fit       0.001600
 1954 Fit       0.001599
 1955 Fit       0.003029
 1956 Fit       0.001575
 1957 Fit       0.000689
 1958 Fit       0.000218
 1959 Fit      -0.000211
 1960 Fit       0.001899
 1961 Fit      -0.002093
 1962 Fit       0.001287
 1963 Fit       0.003319
 1964 Fit      -0.007636
 1965 Fit      -0.001165
 1966 Fit       0.002004
 1967 Fit       0.004329
 1968 Fit       0.001927
 1969 Fit      -0.002346
 1970 Fit      -0.005668
 1971 Fit      -0.007739
 1972 Fit      -0.009279
 1973 Fit      -0.010070
 1974 Fit      -0.009279
 1975 Fit      -0.007739
 1976 Fit      -0.005668
 1977 Fit      -0.002346
 1978 Fit      -0.001025
 1979 Fit      -0.001025
 1980 Fit       0.001804
 1981 Fit       0.003587
 1982 Fit       0.001268
 1983 Fit       0.002392
 1984 Fit      -0.001058
 1985 Fit      -0.001942
 1986 Fit      -0.001705
 1987 Fit       0.000937
 1988 Fit       0.001343
 1989 Fit       0.003001
 1990 Fit       0.001618
 1991 Fit       0.001117
 1992 Fit       0.001117
 1993 Fit      -0.001942
 1994 Fit      -0.001705
 1995 Fit       0.000937
 1996 Fit       0.001343
 1997 Fit       0.003001
 1998 Fit       0.001618
 1999 Fit       0.002392
 2000 Fit      -0.001058
 2001 Fit       0.003587
 2002 Fit       0.001268
 2003 Fit       0.001804
 2004 Fit       0.006879
 2005 Fit       0.006879
 2006 Fit       0.002193
 2007 Fit       0.004001
 2008 Fit       0.003894
 2009 Fit       0.001505
 2010 Fit       0.000977
 2011 Fit      -0.000279
 2012 Fit       0.006260
 2013 Fit       0.003540
 2014 Fit      -0.000189
 2015 Fit      -0.005111
 2016 Fit       0.006412
 2017 Fit       0.003077
 2018 Fit      -0.001593
 2019 Fit       0.002519
 2020 Fit       0.002519
 2021 Fit       0.006412
 2022 Fit       0.003077
 2023 Fit      -0.001593
 2024 Fit       0.006260
 2025 Fit       0.003540
 2026 Fit      -0.000189
 2027 Fit      -0.005111
 2028 Fit       0.004001
 2029 Fit       0.003894
 2030 Fit       0.001505
 2031 Fit       0.000977
 2032 Fit      -0.000279
 2033 Fit       0.002193
 2034 Fit      -0.007123
 2035 Fit      -0.008038
 2036 Fit      -0.004316
 2037 Fit      -0.002108
 2038 Fit      -0.003042
 2039 Fit      -0.006463
 2040 Fit      -0.009725
 2041 Fit      -0.005460
 2042 Fit      -0.006805
 2043 Fit      -0.010194
 2044 Fit      -0.009776
 2045 Fit      -0.008503
 2046 Fit      -0.009901
 2047 Fit      -0.007561
 2048 Fit      -0.005479
 2049 Fit      -0.008618
 2050 Fit      -0.008625
 2051 Fit      -0.005346
 2052 Fit      -0.001938
 2053 Fit      -0.006502
 2054 Fit      -0.008531
 2055 Fit      -0.007829
 2056 Fit      -0.004330
 2057 Fit      -0.005479
 2058 Fit      -0.008618
 2059 Fit      -0.008625
 2060 Fit      -0.005346
 2061 Fit      -0.008503
 2062 Fit      -0.009901
 2063 Fit      -0.007561
 2064 Fit      -0.005460
 2065 Fit      -0.006805
 2066 Fit      -0.010194
 2067 Fit      -0.009776
 2068 Fit      -0.008038
 2069 Fit      -0.004316
 2070 Fit      -0.002108
 2071 Fit      -0.003042
 2072 Fit      -0.006463
 2073 Fit      -0.009725
 2074 Fit      -0.007123
 2075 Fit       0.001872
 2076 Fit       0.005445
 2077 Fit       0.002541
 2078 Fit       0.005879
 2079 Fit       0.000011
 2080 Fit      -0.001978
 2081 Fit       0.001781
 2082 Fit       0.004311
 2083 Fit       0.001499
 2084 Fit       0.001499
 2085 Fit       0.000011
 2086 Fit      -0.001978
 2087 Fit       0.001781
 2088 Fit       0.004310
 2089 Fit       0.002541
 2090 Fit       0.005879
 2091 Fit       0.001871
 2092 Fit       0.005445
 2093 Fit       0.001234
 2094 Fit       0.004917
 2095 Fit      -0.000584
 2096 Fit       0.003770
 2097 Fit       0.003841
 2098 Fit      -0.000054
 2099 Fit      -0.002264
 2100 Fit       0.001318
 2101 Fit       0.001243
 2102 Fit       0.001242
 2103 Fit       0.003841
 2104 Fit      -0.000054
 2105 Fit      -0.002264
 2106 Fit       0.001318
 2107 Fit      -0.000584
 2108 Fit       0.003770
 2109 Fit       0.001234
 2110 Fit       0.004917
 2111 Fit      -0.006994
 2112 Fit      -0.003308
 2113 Fit      -0.006128
 2114 Fit      -0.009201
 2115 Fit      -0.007694
 2116 Fit      -0.004237
 2117 Fit      -0.002271
 2118 Fit      -0.005601
 2119 Fit      -0.009309
 2120 Fit      -0.009108
 2121 Fit      -0.004980
 2122 Fit      -0.007259
 2123 Fit      -0.008971
 2124 Fit      -0.006818
 2125 Fit      -0.000869
 2126 Fit      -0.006102
 2127 Fit      -0.007987
 2128 Fit      -0.006554
 2129 Fit      -0.001675
 2130 Fit      -0.002939
 2131 Fit      -0.006616
 2132 Fit      -0.007520
 2133 Fit      -0.005578
 2134 Fit      -0.000861
 2135 Fit      -0.000870
 2136 Fit      -0.006103
 2137 Fit      -0.007987
 2138 Fit      -0.006554
 2139 Fit      -0.001675
 2140 Fit      -0.007259
 2141 Fit      -0.008971
 2142 Fit      -0.006818
 2143 Fit      -0.005601
 2144 Fit      -0.009309
 2145 Fit      -0.009108
 2146 Fit      -0.004980
 2147 Fit      -0.003308
 2148 Fit      -0.006129
 2149 Fit      -0.009201
 2150 Fit      -0.007694
 2151 Fit      -0.004237
 2152 Fit      -0.002271
 2153 Fit      -0.006994
 2154 Fit       0.002424
 2155 Fit       0.006033
 2156 Fit       0.002137
 2157 Fit       0.003879
 2158 Fit      -0.000608
 2159 Fit      -0.001835
 2160 Fit      -0.002185
 2161 Fit      -0.000958
 2162 Fit       0.003420
 2163 Fit       0.002429
 2164 Fit       0.000831
 2165 Fit       0.000831
 2166 Fit      -0.001835
 2167 Fit      -0.002186
 2168 Fit      -0.000958
 2169 Fit       0.003420
 2170 Fit       0.002428
 2171 Fit       0.003879
 2172 Fit      -0.000608
 2173 Fit       0.006033
 2174 Fit       0.002136
 2175 Fit       0.002424
 2176 Fit       0.004518
 2177 Fit       0.008328
 2178 Fit       0.004253
 2179 Fit       0.007492
 2180 Fit       0.003729
 2181 Fit      -0.002338
 2182 Fit       0.004219
 2183 Fit       0.003679
 2184 Fit      -0.000724
 2185 Fit      -0.001611
 2186 Fit      -0.001165
 2187 Fit       0.001350
 2188 Fit       0.001351
 2189 Fit       0.004220
 2190 Fit       0.003679
 2191 Fit      -0.000723
 2192 Fit      -0.001611
 2193 Fit      -0.001165
 2194 Fit       0.007492
 2195 Fit       0.003730
 2196 Fit      -0.002338
 2197 Fit       0.008328
 2198 Fit       0.004253
 2199 Fit       0.004518
 2200 Fit      -0.007798
 2201 Fit      -0.009235
 2202 Fit      -0.004632
 2203 Fit      -0.002157
 2204 Fit      -0.003644
 2205 Fit      -0.007120
 2206 Fit      -0.010740
 2207 Fit      -0.007749
 2208 Fit      -0.007265
 2209 Fit      -0.011390
 2210 Fit      -0.011522
 2211 Fit      -0.009617
 2212 Fit      -0.011647
 2213 Fit      -0.010064
 2214 Fit      -0.006389
 2215 Fit      -0.010183
 2216 Fit      -0.010781
 2217 Fit      -0.008507
 2218 Fit      -0.002466
 2219 Fit      -0.007768
 2220 Fit      -0.010305
 2221 Fit      -0.010206
 2222 Fit      -0.007826
 2223 Fit      -0.006389
 2224 Fit      -0.010183
 2225 Fit      -0.010781
 2226 Fit      -0.008507
 2227 Fit      -0.009617
 2228 Fit      -0.011647
 2229 Fit      -0.010064
 2230 Fit      -0.007750
 2231 Fit      -0.007265
 2232 Fit      -0.011390
 2233 Fit      -0.011522
 2234 Fit      -0.009235
 2235 Fit      -0.004633
 2236 Fit      -0.002158
 2237 Fit      -0.003645
 2238 Fit      -0.007120
 2239 Fit      -0.010740
 2240 Fit      -0.007798
 2241 Fit       0.008669
 2242 Fit       0.008669
 2243 Fit       0.008797
 2244 Fit       0.008264
 2245 Fit       0.008110
 2246 Fit       0.008383
 2247 Fit       0.007261
 2248 Fit       0.007691
 2249 Fit       0.007802
 2250 Fit       0.008075
 2251 Fit       0.003205
 2252 Fit       0.005866
 2253 Fit       0.006673
 2254 Fit       0.006034
 2255 Fit       0.004042
 2256 Fit       0.004043
 2257 Fit       0.003206
 2258 Fit       0.005866
 2259 Fit       0.006673
 2260 Fit       0.006034
 2261 Fit       0.007261
 2262 Fit       0.007691
 2263 Fit       0.007802
 2264 Fit       0.008075
 2265 Fit       0.008798
 2266 Fit       0.008264
 2267 Fit       0.008110
 2268 Fit       0.008383
 2269 Fit       0.004967
 2270 Fit       0.004407
 2271 Fit       0.005898
 2272 Fit       0.002928
 2273 Fit       0.001543
 2274 Fit       0.002444
 2275 Fit       0.001543
 2276 Fit       0.002444
 2277 Fit       0.002928
 2278 Fit       0.004407
 2279 Fit       0.005898
 2280 Fit       0.004966
 2281 Fit       0.004911
 2282 Fit       0.004361
 2283 Fit       0.005802
 2284 Fit       0.006935
 2285 Fit       0.008168
 2286 Fit       0.004116
 2287 Fit       0.005642
 2288 Fit       0.006861
 2289 Fit       0.007723
 2290 Fit       0.008607
 2291 Fit       0.004116
 2292 Fit       0.005642
 2293 Fit       0.006861
 2294 Fit       0.007723
 2295 Fit       0.008607
 2296 Fit       0.004361
 2297 Fit       0.005801
 2298 Fit       0.006935
 2299 Fit       0.008168
 2300 Fit       0.004911
 2301 Fit       0.001539
 2302 Fit       0.002245
 2303 Fit       0.003221
 2304 Fit       0.003575
 2305 Fit       0.000935
 2306 Fit      -0.003514
 2307 Fit      -0.000500
 2308 Fit       0.002337
 2309 Fit       0.003106
 2310 Fit       0.003760
 2311 Fit      -0.003495
 2312 Fit       0.000533
 2313 Fit       0.001823
 2314 Fit       0.002591
 2315 Fit      -0.002738
 2316 Fit       0.000349
 2317 Fit       0.001823
 2318 Fit       0.002591
 2319 Fit      -0.002738
 2320 Fit       0.000349
 2321 Fit       0.002337
 2322 Fit       0.003106
 2323 Fit       0.003759
 2324 Fit      -0.003496
 2325 Fit       0.000533
 2326 Fit       0.002245
 2327 Fit       0.003221
 2328 Fit       0.003575
 2329 Fit       0.000935
 2330 Fit      -0.003515
 2331 Fit      -0.000500
 2332 Fit       0.001539
 Job cpu time:       0 days  0 hours  9 minutes 28.9 seconds.
 Normal termination of Gaussian 16 at Sun Jul  9 07:01:11 2023.
