 Copyright (c) 1988-2019, Gaussian, Inc.  All Rights Reserved.
  
 This is part of the Gaussian(R) 16 program.  It is based on
 the Gaussian(R) 09 system (copyright 2009, Gaussian, Inc.),
 the Gaussian(R) 03 system (copyright 2003, Gaussian, Inc.),
 the Gaussian(R) 98 system (copyright 1998, Gaussian, Inc.),
 the Gaussian(R) 94 system (copyright 1995, Gaussian, Inc.),
 the Gaussian 92(TM) system (copyright 1992, Gaussian, Inc.),
 the Gaussian 90(TM) system (copyright 1990, Gaussian, Inc.),
 the Gaussian 88(TM) system (copyright 1988, Gaussian, Inc.),
 the Gaussian 86(TM) system (copyright 1986, Carnegie Mellon
 University), and the Gaussian 82(TM) system (copyright 1983,
 Carnegie Mellon University). Gaussian is a federally registered
 trademark of Gaussian, Inc.
 Cite this work as:
 Gaussian 16, Revision C.01,
 M. J. Frisch, G. W. Trucks, H. B. Schlegel, G. E. Scuseria, 
 M. A. Robb, J. R. Cheeseman, G. Scalmani, V. Barone, 
 G. A. Petersson, H. Nakatsuji, X. Li, M. Caricato, A. V. Marenich, 
 J. Bloino, B. G. Janesko, R. Gomperts, B. Mennucci, H. P. Hratchian, 
 J. V. Ortiz, A. F. Izmaylov, J. L. Sonnenberg, D. Williams-Young, 
 F. Ding, F. Lipparini, F. Egidi, J. Goings, B. Peng, A. Petrone, 
 T. Henderson, D. Ranasinghe, V. G. Zakrzewski, J. Gao, N. Rega, 
 G. Zheng, W. Liang, M. Hada, M. Ehara, K. Toyota, R. Fukuda, 
 J. Hasegawa, M. Ishida, T. Nakajima, Y. Honda, O. Kitao, H. Nakai, 
 T. Vreven, K. Throssell, J. A. Montgomery, Jr., J. E. Peralta, 
 F. Ogliaro, M. J. Bearpark, J. J. Heyd, E. N. Brothers, K. N. Kudin, 
 V. N. Staroverov, T. A. Keith, R. Kobayashi, J. Normand, 
 K. Raghavachari, A. P. Rendell, J. C. Burant, S. S. Iyengar, 
 J. Tomasi, M. Cossi, J. M. Millam, M. Klene, C. Adamo, R. Cammi, 
 J. W. Ochterski, R. L. Martin, K. Morokuma, O. Farkas, 
 J. B. Foresman, and D. J. Fox, Gaussian, Inc., Wallingford CT, 2019.
 
 ******************************************
 Gaussian 16:  EM64L-G16RevC.01  3-Jul-2019
                 9-Jul-2023 
 ******************************************
 ----------------------------------------------------------------------
 #P B3LYP/6-31G(d) Integral=Ultrafine SCF(Conver=8,XQC,MaxConventionalC
 ycles=64,MaxCycle=128) NoSymm Test Pop=mk IOp(6/33=2) GFInput GFPrint
 ----------------------------------------------------------------------
 1/38=1,172=1/1;
 2/12=2,15=1,17=6,18=5,40=1/2;
 3/5=1,6=6,7=1,11=2,24=110,25=1,30=1,74=-5,75=-5/1,2,3;
 4//1;
 5/5=2,6=8,7=128,8=3,13=1,38=5,85=64/2,8;
 6/7=2,8=2,9=2,10=2,15=8,20=1,28=1,33=2/1,2;
 99/5=1,9=1/99;
 -------------------------------------------------
 MEP step - Input generated by PyRED DVE-DMDS-OPLS
 -------------------------------------------------
 Symbolic Z-matrix:
 Charge =  0 Multiplicity = 1
 C                    -1.33751  -4.57802  -1.59352 
 H                    -0.25299  -4.63469  -1.74086 
 H                    -1.73616  -5.59647  -1.53703 
 H                    -1.77861  -4.08634  -2.46701 
 C                    -1.65944  -3.80253  -0.32631 
 H                    -1.21593  -4.29832   0.55405 
 H                    -1.24978  -2.7864   -0.36811 
 O                    -3.08056  -3.77076  -0.18852 
 C                    -3.56202  -3.23863   1.02825 
 H                    -2.9976   -3.6384    1.88691 
 H                    -4.60048  -3.58063   1.11549 
 C                    -3.55485  -1.71589   1.09338 
 H                    -3.96663  -1.31373   0.15394 
 H                    -4.20683  -1.37855   1.9198 
 O                    -2.22854  -1.25972   1.29277 
 C                    -2.07567   0.13819   1.16063 
 H                    -2.58922   0.66935   1.98115 
 H                    -2.5048    0.49158   0.20978 
 C                    -0.59779   0.47397   1.19585 
 H                    -0.13419  -0.0027    2.07449 
 H                    -0.48249   1.56455   1.29095 
 O                     0.        0.        0. 
 C                     1.41373   0.        0. 
 H                     1.70253  -0.53732  -0.90826 
 H                     1.79921  -0.56045   0.86911 
 C                     2.05294   1.39213   0. 
 H                     3.1341    1.27024  -0.12914 
 H                     1.88584   1.90595   0.95343 
 S                     1.36665   2.41532  -1.36685 
 C                     2.54464   3.82968  -1.3361 
 H                     2.02904   4.6312   -1.87446 
 H                     2.67937   4.17139  -0.30474 
 C                     3.89597   3.52449  -1.98579 
 H                     3.76198   3.17813  -3.01559 
 H                     4.41316   2.72619  -1.4445 
 S                     5.07157   4.9423   -1.96085 
 C                     4.39708   5.93123  -3.36145 
 H                     3.30232   5.92444  -3.30673 
 H                     4.68369   5.45826  -4.30698 
 C                     4.86647   7.38643  -3.31668 
 H                     4.41368   7.93206  -4.15393 
 H                     4.52554   7.8608   -2.39096 
 S                     6.67987   7.66591  -3.33745 
 C                     7.11708   7.0307   -5.00685 
 H                     6.92807   5.9529   -5.0478 
 H                     6.47655   7.52055  -5.7499 
 C                     8.59059   7.31725  -5.29703 
 H                     8.86029   6.9327   -6.28713 
 H                     8.79654   8.3925   -5.28073 
 H                     9.24001   6.83445  -4.55916 
 
 ITRead=  0  0  0  0  0  0  0  0  0  0  0  0  0  0  0  0  0  0  0  0
 ITRead=  0  0  0  0  0  0  0  0  0  0  0  0  0  0  0  0  0  0  0  0
 ITRead=  0  0  0  0  0  0  0  0  0  0
 MicOpt= -1 -1 -1 -1 -1 -1 -1 -1 -1 -1 -1 -1 -1 -1 -1 -1 -1 -1 -1 -1
 MicOpt= -1 -1 -1 -1 -1 -1 -1 -1 -1 -1 -1 -1 -1 -1 -1 -1 -1 -1 -1 -1
 MicOpt= -1 -1 -1 -1 -1 -1 -1 -1 -1 -1
 NAtoms=     50 NQM=       50 NQMF=       0 NMMI=      0 NMMIF=      0
                NMic=       0 NMicF=      0.
                          Input orientation:                          
 ---------------------------------------------------------------------
 Center     Atomic      Atomic             Coordinates (Angstroms)
 Number     Number       Type             X           Y           Z
 ---------------------------------------------------------------------
      1          6           0       -1.337511   -4.578017   -1.593516
      2          1           0       -0.252988   -4.634688   -1.740862
      3          1           0       -1.736162   -5.596467   -1.537031
      4          1           0       -1.778609   -4.086336   -2.467009
      5          6           0       -1.659444   -3.802534   -0.326308
      6          1           0       -1.215934   -4.298320    0.554046
      7          1           0       -1.249784   -2.786395   -0.368105
      8          8           0       -3.080562   -3.770756   -0.188516
      9          6           0       -3.562020   -3.238627    1.028252
     10          1           0       -2.997602   -3.638404    1.886913
     11          1           0       -4.600485   -3.580633    1.115485
     12          6           0       -3.554847   -1.715885    1.093383
     13          1           0       -3.966634   -1.313732    0.153935
     14          1           0       -4.206832   -1.378552    1.919797
     15          8           0       -2.228538   -1.259716    1.292771
     16          6           0       -2.075674    0.138191    1.160629
     17          1           0       -2.589222    0.669346    1.981153
     18          1           0       -2.504804    0.491580    0.209777
     19          6           0       -0.597787    0.473970    1.195845
     20          1           0       -0.134192   -0.002697    2.074489
     21          1           0       -0.482492    1.564553    1.290950
     22          8           0        0.000000    0.000000    0.000000
     23          6           0        1.413730    0.000000    0.000000
     24          1           0        1.702533   -0.537317   -0.908260
     25          1           0        1.799209   -0.560446    0.869106
     26          6           0        2.052940    1.392125    0.000000
     27          1           0        3.134101    1.270241   -0.129143
     28          1           0        1.885838    1.905954    0.953428
     29         16           0        1.366653    2.415316   -1.366852
     30          6           0        2.544638    3.829681   -1.336098
     31          1           0        2.029039    4.631204   -1.874459
     32          1           0        2.679373    4.171386   -0.304743
     33          6           0        3.895971    3.524488   -1.985785
     34          1           0        3.761975    3.178130   -3.015587
     35          1           0        4.413160    2.726187   -1.444499
     36         16           0        5.071571    4.942299   -1.960845
     37          6           0        4.397077    5.931227   -3.361447
     38          1           0        3.302320    5.924440   -3.306727
     39          1           0        4.683686    5.458262   -4.306976
     40          6           0        4.866473    7.386432   -3.316681
     41          1           0        4.413683    7.932056   -4.153930
     42          1           0        4.525543    7.860799   -2.390960
     43         16           0        6.679867    7.665906   -3.337448
     44          6           0        7.117083    7.030699   -5.006850
     45          1           0        6.928072    5.952902   -5.047799
     46          1           0        6.476554    7.520549   -5.749900
     47          6           0        8.590587    7.317252   -5.297032
     48          1           0        8.860294    6.932703   -6.287134
     49          1           0        8.796543    8.392495   -5.280725
     50          1           0        9.240011    6.834451   -4.559159
 ---------------------------------------------------------------------
 Stoichiometry    C14H30O3S3
 Framework group  C1[X(C14H30O3S3)]
 Standard basis: 6-31G(d) (6D, 7F)
   372 basis functions,   752 primitive gaussians,   372 cartesian basis functions
    93 alpha electrons       93 beta electrons
 Requested convergence on RMS density matrix=1.00D-08 within  64 cycles.
 Requested convergence on MAX density matrix=1.00D-06.
 Requested convergence on             energy=1.00D-06.
 SCF Done:  E(RB3LYP) =  -1971.75451529     A.U. after   13 cycles
            NFock= 13  Conv=0.52D-08     -V/T= 2.0058
 Mulliken charges:
     1  C   -0.451268
     2  H    0.136916
     3  H    0.150164
     4  H    0.155003
     5  C   -0.020852
     6  H    0.110027
     7  H    0.161206
     8  O   -0.473815
     9  C   -0.033379
    10  H    0.128085
    11  H    0.139402
    12  C   -0.020290
    13  H    0.134190
    14  H    0.112371
    15  O   -0.469383
    16  C   -0.020404
    17  H    0.118334
    18  H    0.143005
    19  C   -0.031843
    20  H    0.131840
    21  H    0.134728
    22  O   -0.453985
    23  C   -0.025758
    24  H    0.163941
    25  H    0.133599
    26  C   -0.435044
    27  H    0.169401
    28  H    0.171460
    29  S    0.097843
    30  C   -0.414211
    31  H    0.176591
    32  H    0.180997
    33  C   -0.419011
    34  H    0.181447
    35  H    0.177444
    36  S    0.107690
    37  C   -0.404185
    38  H    0.170572
    39  H    0.174616
    40  C   -0.426547
    41  H    0.172466
    42  H    0.189920
    43  S    0.105097
    44  C   -0.397412
    45  H    0.175244
    46  H    0.162092
    47  C   -0.454226
    48  H    0.153050
    49  H    0.165049
    50  H    0.167821
 Sum of Mulliken charges =  -0.00000
 Dipole moment (field-independent basis, Debye):
    X=             -0.0147    Y=              1.0834    Z=              0.1049  Tot=              1.0886
 Quadrupole moment (field-independent basis, Debye-Ang):
   XX=           -155.9211   YY=           -156.6099   ZZ=           -130.8586
   XY=            -16.6169   XZ=            -13.9576   YZ=            -13.9593
 Traceless Quadrupole moment (field-independent basis, Debye-Ang):
   XX=             -8.1246   YY=             -8.8134   ZZ=             16.9380
   XY=            -16.6169   XZ=            -13.9576   YZ=            -13.9593
 Octapole moment (field-independent basis, Debye-Ang**2):
  XXX=           -985.4848  YYY=          -1023.5816  ZZZ=            509.9490  XYY=           -377.7207
  XXY=           -427.9856  XXZ=            162.1397  XZZ=           -197.5911  YZZ=           -218.2839
  YYZ=            131.6946  XYZ=            -47.9744
 Hexadecapole moment (field-independent basis, Debye-Ang**3):
 XXXX=         -16071.8852 YYYY=         -19546.2225 ZZZZ=          -4797.1854 XXXY=          -8731.7761
 XXXZ=           3552.1757 YYYX=          -9071.0604 YYYZ=           3649.2077 ZZZX=           3444.7907
 ZZZY=           3446.9089 XXYY=          -6732.1994 XXZZ=          -2846.9252 YYZZ=          -3313.1040
 XXYZ=            968.7889 YYXZ=            999.4883 ZZXY=          -2028.9773
 Merz-Kollman atomic radii used.
 Atom Element Radius
    1     6    1.50
    2     1    1.20
    3     1    1.20
    4     1    1.20
    5     6    1.50
    6     1    1.20
    7     1    1.20
    8     8    1.40
    9     6    1.50
   10     1    1.20
   11     1    1.20
   12     6    1.50
   13     1    1.20
   14     1    1.20
   15     8    1.40
   16     6    1.50
   17     1    1.20
   18     1    1.20
   19     6    1.50
   20     1    1.20
   21     1    1.20
   22     8    1.40
   23     6    1.50
   24     1    1.20
   25     1    1.20
   26     6    1.50
   27     1    1.20
   28     1    1.20
   29    16    1.75
   30     6    1.50
   31     1    1.20
   32     1    1.20
   33     6    1.50
   34     1    1.20
   35     1    1.20
   36    16    1.75
   37     6    1.50
   38     1    1.20
   39     1    1.20
   40     6    1.50
   41     1    1.20
   42     1    1.20
   43    16    1.75
   44     6    1.50
   45     1    1.20
   46     1    1.20
   47     6    1.50
   48     1    1.20
   49     1    1.20
   50     1    1.20
 Generate VDW surfaces: Layer= 4 Dens= 1 Start= 1.400 Inc= 0.200
            Electrostatic Properties Using The SCF Density.


       Atomic Center    1 is at  -1.337511 -4.578017 -1.593516
       Atomic Center    2 is at  -0.252988 -4.634688 -1.740862
       Atomic Center    3 is at  -1.736162 -5.596467 -1.537031
       Atomic Center    4 is at  -1.778609 -4.086336 -2.467009
       Atomic Center    5 is at  -1.659444 -3.802534 -0.326308
       Atomic Center    6 is at  -1.215934 -4.298320  0.554046
       Atomic Center    7 is at  -1.249784 -2.786395 -0.368105
       Atomic Center    8 is at  -3.080562 -3.770756 -0.188516
       Atomic Center    9 is at  -3.562020 -3.238627  1.028252
       Atomic Center   10 is at  -2.997602 -3.638404  1.886913
       Atomic Center   11 is at  -4.600485 -3.580633  1.115485
       Atomic Center   12 is at  -3.554847 -1.715885  1.093383
       Atomic Center   13 is at  -3.966634 -1.313732  0.153935
       Atomic Center   14 is at  -4.206832 -1.378552  1.919797
       Atomic Center   15 is at  -2.228538 -1.259716  1.292771
       Atomic Center   16 is at  -2.075674  0.138191  1.160629
       Atomic Center   17 is at  -2.589222  0.669346  1.981153
       Atomic Center   18 is at  -2.504804  0.491580  0.209777
       Atomic Center   19 is at  -0.597787  0.473970  1.195845
       Atomic Center   20 is at  -0.134192 -0.002697  2.074489
       Atomic Center   21 is at  -0.482492  1.564553  1.290950
       Atomic Center   22 is at   0.000000  0.000000  0.000000
       Atomic Center   23 is at   1.413730  0.000000  0.000000
       Atomic Center   24 is at   1.702533 -0.537317 -0.908260
       Atomic Center   25 is at   1.799209 -0.560446  0.869106
       Atomic Center   26 is at   2.052940  1.392125  0.000000
       Atomic Center   27 is at   3.134101  1.270241 -0.129143
       Atomic Center   28 is at   1.885838  1.905954  0.953428
       Atomic Center   29 is at   1.366653  2.415316 -1.366852
       Atomic Center   30 is at   2.544638  3.829681 -1.336098
       Atomic Center   31 is at   2.029039  4.631204 -1.874459
       Atomic Center   32 is at   2.679373  4.171386 -0.304743
       Atomic Center   33 is at   3.895971  3.524488 -1.985785
       Atomic Center   34 is at   3.761975  3.178130 -3.015587
       Atomic Center   35 is at   4.413160  2.726187 -1.444499
       Atomic Center   36 is at   5.071571  4.942299 -1.960845
       Atomic Center   37 is at   4.397077  5.931227 -3.361447
       Atomic Center   38 is at   3.302320  5.924440 -3.306727
       Atomic Center   39 is at   4.683686  5.458262 -4.306976
       Atomic Center   40 is at   4.866473  7.386432 -3.316681
       Atomic Center   41 is at   4.413683  7.932056 -4.153930
       Atomic Center   42 is at   4.525543  7.860799 -2.390960
       Atomic Center   43 is at   6.679867  7.665906 -3.337448
       Atomic Center   44 is at   7.117083  7.030699 -5.006850
       Atomic Center   45 is at   6.928072  5.952902 -5.047799
       Atomic Center   46 is at   6.476554  7.520549 -5.749900
       Atomic Center   47 is at   8.590587  7.317252 -5.297032
       Atomic Center   48 is at   8.860294  6.932703 -6.287134
       Atomic Center   49 is at   8.796543  8.392495 -5.280725
       Atomic Center   50 is at   9.240011  6.834451 -4.559159
      ESP Fit Center   51 is at  -0.144575 -6.306283 -1.593516
      ESP Fit Center   52 is at  -0.582015 -6.232322 -2.643516
      ESP Fit Center   53 is at  -1.862511 -5.487344 -3.412169
      ESP Fit Center   54 is at  -0.812511 -5.487344 -3.412169
      ESP Fit Center   55 is at   0.734491 -4.634688 -0.381713
      ESP Fit Center   56 is at   1.344787 -4.634688 -1.221713
      ESP Fit Center   57 is at   0.970979 -3.607658 -1.221713
      ESP Fit Center   58 is at   0.024463 -6.208189 -1.221713
      ESP Fit Center   59 is at   0.970979 -5.661718 -1.221713
      ESP Fit Center   60 is at   1.344787 -4.634688 -2.260011
      ESP Fit Center   61 is at   0.970979 -3.607658 -2.260011
      ESP Fit Center   62 is at   0.024463 -3.061187 -2.260011
      ESP Fit Center   63 is at   0.024463 -6.208189 -2.260011
      ESP Fit Center   64 is at   0.970979 -5.661718 -2.260011
      ESP Fit Center   65 is at   0.734491 -4.634688 -3.100011
      ESP Fit Center   66 is at   0.052160 -3.695539 -3.100011
      ESP Fit Center   67 is at   0.052160 -5.573837 -3.100011
      ESP Fit Center   68 is at  -0.252988 -4.634688 -3.420862
      ESP Fit Center   69 is at  -2.535049 -6.176893 -0.177882
      ESP Fit Center   70 is at  -1.431014 -6.535616 -0.177882
      ESP Fit Center   71 is at  -3.237579 -6.142938 -1.017882
      ESP Fit Center   72 is at  -2.535049 -6.980181 -1.017882
      ESP Fit Center   73 is at  -1.458711 -7.169968 -1.017882
      ESP Fit Center   74 is at  -0.512195 -6.623497 -1.017882
      ESP Fit Center   75 is at  -3.237579 -6.142938 -2.056180
      ESP Fit Center   76 is at  -2.535049 -6.980181 -2.056180
      ESP Fit Center   77 is at  -1.458711 -7.169968 -2.056180
      ESP Fit Center   78 is at  -0.512195 -6.623497 -2.056180
      ESP Fit Center   79 is at  -2.535049 -6.176893 -2.896180
      ESP Fit Center   80 is at  -1.431014 -6.535616 -2.896180
      ESP Fit Center   81 is at  -2.577496 -2.702622 -1.947860
      ESP Fit Center   82 is at  -0.554642 -3.059306 -2.986158
      ESP Fit Center   83 is at  -1.501158 -2.512835 -2.986158
      ESP Fit Center   84 is at  -2.577496 -2.702622 -2.986158
      ESP Fit Center   85 is at  -3.280026 -3.539865 -2.986158
      ESP Fit Center   86 is at  -3.280026 -4.632807 -2.986158
      ESP Fit Center   87 is at  -0.791130 -4.086336 -3.826158
      ESP Fit Center   88 is at  -1.473461 -3.147187 -3.826158
      ESP Fit Center   89 is at  -2.577496 -3.505910 -3.826158
      ESP Fit Center   90 is at  -2.577496 -4.666762 -3.826158
      ESP Fit Center   91 is at  -1.473461 -5.025485 -3.826158
      ESP Fit Center   92 is at  -1.778609 -4.086336 -4.147009
      ESP Fit Center   93 is at  -1.134444 -2.893207  1.492345
      ESP Fit Center   94 is at   0.440556 -3.802534 -0.326308
      ESP Fit Center   95 is at  -1.215934 -4.298320  2.234046
      ESP Fit Center   96 is at  -0.228455 -4.298320  1.913195
      ESP Fit Center   97 is at  -0.910786 -3.359171  1.913195
      ESP Fit Center   98 is at  -0.910786 -5.237469  1.913195
      ESP Fit Center   99 is at   0.381841 -4.298320  1.073195
      ESP Fit Center  100 is at   0.008033 -3.271290  1.073195
      ESP Fit Center  101 is at  -2.014821 -5.682034  1.073195
      ESP Fit Center  102 is at  -0.938483 -5.871821  1.073195
      ESP Fit Center  103 is at   0.008033 -5.325350  1.073195
      ESP Fit Center  104 is at   0.381841 -4.298320  0.034897
      ESP Fit Center  105 is at  -0.938483 -5.871821  0.034897
      ESP Fit Center  106 is at   0.008033 -5.325350  0.034897
      ESP Fit Center  107 is at  -0.262305 -2.786395  0.991044
      ESP Fit Center  108 is at   0.347991 -2.786395  0.151044
      ESP Fit Center  109 is at   0.347991 -2.786395 -0.887254
      ESP Fit Center  110 is at  -0.025817 -1.759365 -0.887254
      ESP Fit Center  111 is at  -2.048671 -1.402681 -0.887254
      ESP Fit Center  112 is at  -0.944636 -1.847246 -1.727254
      ESP Fit Center  113 is at  -2.048671 -2.205969 -1.727254
      ESP Fit Center  114 is at  -3.605090 -5.385089  0.791484
      ESP Fit Center  115 is at  -2.556034 -5.385089  0.791484
      ESP Fit Center  116 is at  -4.777972 -4.750756 -0.188516
      ESP Fit Center  117 is at  -4.060562 -5.468166 -0.188516
      ESP Fit Center  118 is at  -3.080562 -5.730756 -0.188516
      ESP Fit Center  119 is at  -4.453795 -2.773044 -1.168516
      ESP Fit Center  120 is at  -4.777972 -3.770756 -1.168516
      ESP Fit Center  121 is at  -4.453795 -4.768468 -1.168516
      ESP Fit Center  122 is at  -3.605090 -5.385089 -1.168516
      ESP Fit Center  123 is at  -3.570562 -2.922051 -1.885926
      ESP Fit Center  124 is at  -4.060562 -3.770756 -1.885926
      ESP Fit Center  125 is at  -3.570562 -4.619461 -1.885926
      ESP Fit Center  126 is at  -4.612020 -3.238627  2.846905
      ESP Fit Center  127 is at  -3.308893 -5.323316  1.028252
      ESP Fit Center  128 is at  -2.997602 -3.638404  3.566913
      ESP Fit Center  129 is at  -2.010123 -3.638404  3.246062
      ESP Fit Center  130 is at  -2.692454 -2.699255  3.246062
      ESP Fit Center  131 is at  -3.796489 -3.057978  3.246062
      ESP Fit Center  132 is at  -3.796489 -4.218830  3.246062
      ESP Fit Center  133 is at  -2.692454 -4.577553  3.246062
      ESP Fit Center  134 is at  -1.399827 -3.638404  2.406062
      ESP Fit Center  135 is at  -3.796489 -5.022118  2.406062
      ESP Fit Center  136 is at  -2.720151 -5.211905  2.406062
      ESP Fit Center  137 is at  -1.773635 -4.665434  2.406062
      ESP Fit Center  138 is at  -2.720151 -5.211905  1.367764
      ESP Fit Center  139 is at  -5.399372 -3.000207  2.474634
      ESP Fit Center  140 is at  -5.399372 -4.161059  2.474634
      ESP Fit Center  141 is at  -6.101902 -3.034162  1.634634
      ESP Fit Center  142 is at  -6.101902 -4.127104  1.634634
      ESP Fit Center  143 is at  -5.399372 -4.964347  1.634634
      ESP Fit Center  144 is at  -4.323034 -5.154134  1.634634
      ESP Fit Center  145 is at  -6.101902 -3.034162  0.596336
      ESP Fit Center  146 is at  -6.101902 -4.127104  0.596336
      ESP Fit Center  147 is at  -5.399372 -4.964347  0.596336
      ESP Fit Center  148 is at  -4.323034 -5.154134  0.596336
      ESP Fit Center  149 is at  -5.399372 -3.000207 -0.243664
      ESP Fit Center  150 is at  -5.399372 -4.161059 -0.243664
      ESP Fit Center  151 is at  -4.299517  0.247649  1.093383
      ESP Fit Center  152 is at  -5.593825 -2.218448  1.093383
      ESP Fit Center  153 is at  -2.504847 -1.715885 -0.725270
      ESP Fit Center  154 is at  -4.765521  0.069982  0.673084
      ESP Fit Center  155 is at  -5.468051 -0.767261  0.673084
      ESP Fit Center  156 is at  -4.765521  0.069982 -0.365214
      ESP Fit Center  157 is at  -5.468051 -0.767261 -0.365214
      ESP Fit Center  158 is at  -5.468051 -1.860203 -0.365214
      ESP Fit Center  159 is at  -2.979155 -1.313732 -1.205214
      ESP Fit Center  160 is at  -3.661486 -0.374583 -1.205214
      ESP Fit Center  161 is at  -4.765521 -0.733306 -1.205214
      ESP Fit Center  162 is at  -4.765521 -1.894158 -1.205214
      ESP Fit Center  163 is at  -3.966634 -1.313732 -1.526065
      ESP Fit Center  164 is at  -4.206832 -1.378552  3.599797
      ESP Fit Center  165 is at  -3.219353 -1.378552  3.278946
      ESP Fit Center  166 is at  -3.901684 -0.439403  3.278946
      ESP Fit Center  167 is at  -5.005719 -0.798126  3.278946
      ESP Fit Center  168 is at  -5.005719 -1.958978  3.278946
      ESP Fit Center  169 is at  -3.901684 -2.317701  3.278946
      ESP Fit Center  170 is at  -5.005719  0.005162  2.438946
      ESP Fit Center  171 is at  -5.708249 -0.832081  2.438946
      ESP Fit Center  172 is at  -5.708249 -1.925023  2.438946
      ESP Fit Center  173 is at  -5.005719  0.005162  1.400648
      ESP Fit Center  174 is at  -5.708249 -0.832081  1.400648
      ESP Fit Center  175 is at  -5.708249 -1.925023  1.400648
      ESP Fit Center  176 is at  -2.228538 -1.259716  3.252771
      ESP Fit Center  177 is at  -1.248538 -1.259716  2.990181
      ESP Fit Center  178 is at  -2.718538 -2.108421  2.990181
      ESP Fit Center  179 is at  -1.738538 -2.108421  2.990181
      ESP Fit Center  180 is at  -0.855305 -2.257428  2.272771
      ESP Fit Center  181 is at  -0.531128 -2.239716  1.292771
      ESP Fit Center  182 is at  -2.228538 -1.259716 -0.667229
      ESP Fit Center  183 is at  -4.114652  0.640754  1.160629
      ESP Fit Center  184 is at  -2.589222  0.669346  3.661153
      ESP Fit Center  185 is at  -1.601743  0.669346  3.340302
      ESP Fit Center  186 is at  -2.284074  1.608495  3.340302
      ESP Fit Center  187 is at  -3.388109  1.249772  3.340302
      ESP Fit Center  188 is at  -3.388109  0.088920  3.340302
      ESP Fit Center  189 is at  -2.284074 -0.269803  3.340302
      ESP Fit Center  190 is at  -2.311771  2.242847  2.500302
      ESP Fit Center  191 is at  -3.388109  2.053060  2.500302
      ESP Fit Center  192 is at  -4.090639  1.215817  2.500302
      ESP Fit Center  193 is at  -2.311771  2.242847  1.462004
      ESP Fit Center  194 is at  -3.388109  2.053060  1.462004
      ESP Fit Center  195 is at  -4.090639  1.215817  1.462004
      ESP Fit Center  196 is at  -3.303691  1.875294  0.728926
      ESP Fit Center  197 is at  -4.006221  1.038051  0.728926
      ESP Fit Center  198 is at  -2.227353  2.065081 -0.309372
      ESP Fit Center  199 is at  -3.303691  1.875294 -0.309372
      ESP Fit Center  200 is at  -4.006221  1.038051 -0.309372
      ESP Fit Center  201 is at  -1.517325  0.491580 -1.149372
      ESP Fit Center  202 is at  -2.199656  1.430729 -1.149372
      ESP Fit Center  203 is at  -3.303691  1.072006 -1.149372
      ESP Fit Center  204 is at  -3.303691 -0.088846 -1.149372
      ESP Fit Center  205 is at  -2.199656 -0.447569 -1.149372
      ESP Fit Center  206 is at  -2.504804  0.491580 -1.470223
      ESP Fit Center  207 is at  -1.122787  1.383297  3.014498
      ESP Fit Center  208 is at  -0.134192 -0.002697  3.754489
      ESP Fit Center  209 is at   0.853287 -0.002697  3.433638
      ESP Fit Center  210 is at   0.170956  0.936452  3.433638
      ESP Fit Center  211 is at  -0.933079  0.577729  3.433638
      ESP Fit Center  212 is at  -0.933079 -0.583123  3.433638
      ESP Fit Center  213 is at   0.170956 -0.941846  3.433638
      ESP Fit Center  214 is at   1.463583 -0.002697  2.593638
      ESP Fit Center  215 is at   1.089775  1.024333  2.593638
      ESP Fit Center  216 is at   0.143259 -1.576198  2.593638
      ESP Fit Center  217 is at   1.089775 -1.029727  2.593638
      ESP Fit Center  218 is at   0.143259 -1.576198  1.555340
      ESP Fit Center  219 is at   0.504987  1.564553  2.650099
      ESP Fit Center  220 is at  -0.177344  2.503702  2.650099
      ESP Fit Center  221 is at  -1.281379  2.144979  2.650099
      ESP Fit Center  222 is at  -0.205041  3.138054  1.810099
      ESP Fit Center  223 is at  -1.281379  2.948267  1.810099
      ESP Fit Center  224 is at  -0.205041  3.138054  0.771801
      ESP Fit Center  225 is at  -1.281379  2.948267  0.771801
      ESP Fit Center  226 is at  -1.281379  2.144979 -0.068199
      ESP Fit Center  227 is at  -1.373233  0.997712 -0.980000
      ESP Fit Center  228 is at  -1.373233 -0.997712 -0.980000
      ESP Fit Center  229 is at  -0.490000  0.848705 -1.697410
      ESP Fit Center  230 is at  -0.980000  0.000000 -1.697410
      ESP Fit Center  231 is at  -0.490000 -0.848705 -1.697410
      ESP Fit Center  232 is at   0.000000  0.000000 -1.960000
      ESP Fit Center  233 is at   0.669060 -1.963534  0.000000
      ESP Fit Center  234 is at   1.666857 -2.084689  0.000000
      ESP Fit Center  235 is at   3.273188 -0.975919  0.000000
      ESP Fit Center  236 is at   1.979984 -2.110818 -0.389111
      ESP Fit Center  237 is at   2.926500 -1.564347 -0.389111
      ESP Fit Center  238 is at   3.300308 -0.537317 -1.427409
      ESP Fit Center  239 is at   0.903646 -1.921031 -1.427409
      ESP Fit Center  240 is at   1.979984 -2.110818 -1.427409
      ESP Fit Center  241 is at   2.926500 -1.564347 -1.427409
      ESP Fit Center  242 is at   2.690012 -0.537317 -2.267409
      ESP Fit Center  243 is at   0.903646  0.043109 -2.267409
      ESP Fit Center  244 is at   0.903646 -1.117743 -2.267409
      ESP Fit Center  245 is at   2.007681 -1.476466 -2.267409
      ESP Fit Center  246 is at   1.702533 -0.537317 -2.588260
      ESP Fit Center  247 is at   1.799209 -0.560446  2.549106
      ESP Fit Center  248 is at   2.786688 -0.560446  2.228255
      ESP Fit Center  249 is at   2.104357  0.378703  2.228255
      ESP Fit Center  250 is at   2.104357 -1.499595  2.228255
      ESP Fit Center  251 is at   3.396984 -0.560446  1.388255
      ESP Fit Center  252 is at   1.000322 -1.944160  1.388255
      ESP Fit Center  253 is at   2.076660 -2.133947  1.388255
      ESP Fit Center  254 is at   3.023176 -1.587476  1.388255
      ESP Fit Center  255 is at   2.076660 -2.133947  0.349957
      ESP Fit Center  256 is at   3.023176 -1.587476  0.349957
      ESP Fit Center  257 is at   4.121580  1.270241  1.230006
      ESP Fit Center  258 is at   3.439249  0.331092  1.230006
      ESP Fit Center  259 is at   4.731876  1.270241  0.390006
      ESP Fit Center  260 is at   4.358068  2.297271  0.390006
      ESP Fit Center  261 is at   4.358068  0.243211  0.390006
      ESP Fit Center  262 is at   4.731876  1.270241 -0.648292
      ESP Fit Center  263 is at   3.411552 -0.303260 -0.648292
      ESP Fit Center  264 is at   4.358068  0.243211 -0.648292
      ESP Fit Center  265 is at   3.439249  0.331092 -1.488292
      ESP Fit Center  266 is at   1.885838  1.905954  2.633428
      ESP Fit Center  267 is at   2.873317  1.905954  2.312577
      ESP Fit Center  268 is at   2.190986  2.845103  2.312577
      ESP Fit Center  269 is at   1.086951  2.486380  2.312577
      ESP Fit Center  270 is at   1.086951  1.325528  2.312577
      ESP Fit Center  271 is at   2.190986  0.966805  2.312577
      ESP Fit Center  272 is at   3.483613  1.905954  1.472577
      ESP Fit Center  273 is at   3.109805  2.932984  1.472577
      ESP Fit Center  274 is at   2.163289  3.479455  1.472577
      ESP Fit Center  275 is at   1.086951  3.289668  1.472577
      ESP Fit Center  276 is at   0.835145  3.335914  0.840522
      ESP Fit Center  277 is at   0.112276  3.862945  0.160698
      ESP Fit Center  278 is at  -0.471243  2.954971  0.160698
      ESP Fit Center  279 is at  -0.122598  4.282778 -0.821676
      ESP Fit Center  280 is at  -0.785377  3.451679 -0.821676
      ESP Fit Center  281 is at  -1.021920  2.415316 -0.821676
      ESP Fit Center  282 is at  -0.122598  4.282778 -1.912028
      ESP Fit Center  283 is at  -0.785377  3.451679 -1.912028
      ESP Fit Center  284 is at  -1.021920  2.415316 -1.912028
      ESP Fit Center  285 is at  -0.785377  1.378953 -1.912028
      ESP Fit Center  286 is at  -0.122598  0.547854 -1.912028
      ESP Fit Center  287 is at   2.855904  0.547854 -1.912028
      ESP Fit Center  288 is at   3.518683  1.378953 -1.912028
      ESP Fit Center  289 is at   0.112276  3.862945 -2.894402
      ESP Fit Center  290 is at  -0.471243  2.954971 -2.894402
      ESP Fit Center  291 is at  -0.471243  1.875661 -2.894402
      ESP Fit Center  292 is at   0.112276  0.967687 -2.894402
      ESP Fit Center  293 is at   1.094051  0.519326 -2.894402
      ESP Fit Center  294 is at   2.162375  0.672928 -2.894402
      ESP Fit Center  295 is at   2.978063  1.379725 -2.894402
      ESP Fit Center  296 is at   1.898161  3.335914 -3.574226
      ESP Fit Center  297 is at   0.835145  3.335914 -3.574226
      ESP Fit Center  298 is at   0.303638  2.415316 -3.574226
      ESP Fit Center  299 is at   0.835145  1.494718 -3.574226
      ESP Fit Center  300 is at   1.898161  1.494718 -3.574226
      ESP Fit Center  301 is at   1.366653  2.415316 -3.816852
      ESP Fit Center  302 is at   1.353673  5.204127 -0.286098
      ESP Fit Center  303 is at   2.306490  6.204705 -1.355310
      ESP Fit Center  304 is at   1.230152  6.014918 -1.355310
      ESP Fit Center  305 is at   0.527622  5.177675 -1.355310
      ESP Fit Center  306 is at   1.230152  6.014918 -2.393608
      ESP Fit Center  307 is at   0.527622  5.177675 -2.393608
      ESP Fit Center  308 is at   1.230152  5.211630 -3.233608
      ESP Fit Center  309 is at   1.230152  4.050778 -3.233608
      ESP Fit Center  310 is at   2.029039  4.631204 -3.554459
      ESP Fit Center  311 is at   2.679373  4.171386  1.375257
      ESP Fit Center  312 is at   3.666852  4.171386  1.054406
      ESP Fit Center  313 is at   2.984521  5.110535  1.054406
      ESP Fit Center  314 is at   1.880486  4.751812  1.054406
      ESP Fit Center  315 is at   1.880486  3.590960  1.054406
      ESP Fit Center  316 is at   2.984521  3.232237  1.054406
      ESP Fit Center  317 is at   3.903340  5.198416  0.214406
      ESP Fit Center  318 is at   2.956824  5.744887  0.214406
      ESP Fit Center  319 is at   1.880486  5.555100  0.214406
      ESP Fit Center  320 is at   1.177956  4.717857  0.214406
      ESP Fit Center  321 is at   3.903340  3.144356  0.214406
      ESP Fit Center  322 is at   5.425920  2.541250 -3.035785
      ESP Fit Center  323 is at   2.260558  3.724601 -3.534736
      ESP Fit Center  324 is at   2.963088  1.794416 -3.534736
      ESP Fit Center  325 is at   4.039426  1.604629 -3.534736
      ESP Fit Center  326 is at   4.985942  2.151100 -3.534736
      ESP Fit Center  327 is at   4.749454  3.178130 -4.374736
      ESP Fit Center  328 is at   2.963088  3.758556 -4.374736
      ESP Fit Center  329 is at   2.963088  2.597704 -4.374736
      ESP Fit Center  330 is at   4.067123  2.238981 -4.374736
      ESP Fit Center  331 is at   3.761975  3.178130 -4.695587
      ESP Fit Center  332 is at   4.413160  2.726187  0.235501
      ESP Fit Center  333 is at   5.400639  2.726187 -0.085350
      ESP Fit Center  334 is at   6.010935  2.726187 -0.925350
      ESP Fit Center  335 is at   4.690611  1.152686 -0.925350
      ESP Fit Center  336 is at   5.637127  1.699157 -0.925350
      ESP Fit Center  337 is at   3.614273  1.342473 -1.963648
      ESP Fit Center  338 is at   4.690611  1.152686 -1.963648
      ESP Fit Center  339 is at   5.637127  1.699157 -1.963648
      ESP Fit Center  340 is at   5.071571  4.942299  0.489155
      ESP Fit Center  341 is at   6.134586  4.942299  0.246529
      ESP Fit Center  342 is at   5.603079  5.862897  0.246529
      ESP Fit Center  343 is at   4.540063  5.862897  0.246529
      ESP Fit Center  344 is at   4.540063  4.021701  0.246529
      ESP Fit Center  345 is at   5.603079  4.021701  0.246529
      ESP Fit Center  346 is at   6.987058  4.942299 -0.433295
      ESP Fit Center  347 is at   6.682981  5.977890 -0.433295
      ESP Fit Center  348 is at   5.867293  6.684687 -0.433295
      ESP Fit Center  349 is at   4.798969  6.838289 -0.433295
      ESP Fit Center  350 is at   3.817194  6.389928 -0.433295
      ESP Fit Center  351 is at   5.867293  3.199911 -0.433295
      ESP Fit Center  352 is at   6.682981  3.906708 -0.433295
      ESP Fit Center  353 is at   7.460144  4.942299 -1.415669
      ESP Fit Center  354 is at   7.223601  5.978662 -1.415669
      ESP Fit Center  355 is at   3.582320  6.809761 -1.415669
      ESP Fit Center  356 is at   6.560822  3.074837 -1.415669
      ESP Fit Center  357 is at   7.223601  3.905936 -1.415669
      ESP Fit Center  358 is at   7.460144  4.942299 -2.506021
      ESP Fit Center  359 is at   6.560822  3.074837 -2.506021
      ESP Fit Center  360 is at   7.223601  3.905936 -2.506021
      ESP Fit Center  361 is at   6.987058  4.942299 -3.488395
      ESP Fit Center  362 is at   5.867293  3.199911 -3.488395
      ESP Fit Center  363 is at   6.682981  3.906708 -3.488395
      ESP Fit Center  364 is at   5.603079  4.021701 -4.168219
      ESP Fit Center  365 is at   3.206112  4.556781 -4.411447
      ESP Fit Center  366 is at   2.503433  6.504866 -1.947578
      ESP Fit Center  367 is at   2.503433  7.308154 -2.787578
      ESP Fit Center  368 is at   1.800903  6.470911 -2.787578
      ESP Fit Center  369 is at   2.503433  7.308154 -3.825876
      ESP Fit Center  370 is at   1.800903  6.470911 -3.825876
      ESP Fit Center  371 is at   1.800903  5.377969 -3.825876
      ESP Fit Center  372 is at   2.503433  4.540726 -3.825876
      ESP Fit Center  373 is at   2.503433  6.504866 -4.665876
      ESP Fit Center  374 is at   2.503433  5.344014 -4.665876
      ESP Fit Center  375 is at   3.182269  4.911791 -4.826125
      ESP Fit Center  376 is at   3.884799  4.074548 -4.826125
      ESP Fit Center  377 is at   4.961137  3.884761 -4.826125
      ESP Fit Center  378 is at   5.907653  4.431232 -4.826125
      ESP Fit Center  379 is at   4.988834  6.397411 -5.666125
      ESP Fit Center  380 is at   3.884799  6.038688 -5.666125
      ESP Fit Center  381 is at   3.884799  4.877836 -5.666125
      ESP Fit Center  382 is at   4.988834  4.519113 -5.666125
      ESP Fit Center  383 is at   4.683686  5.458262 -5.986976
      ESP Fit Center  384 is at   2.827495  7.888995 -3.316681
      ESP Fit Center  385 is at   4.691134  9.505557 -3.634781
      ESP Fit Center  386 is at   3.614796  9.315770 -3.634781
      ESP Fit Center  387 is at   2.912266  8.478527 -3.634781
      ESP Fit Center  388 is at   4.691134  9.505557 -4.673079
      ESP Fit Center  389 is at   3.614796  9.315770 -4.673079
      ESP Fit Center  390 is at   2.912266  8.478527 -4.673079
      ESP Fit Center  391 is at   2.912266  7.385585 -4.673079
      ESP Fit Center  392 is at   4.718831  8.871205 -5.513079
      ESP Fit Center  393 is at   3.614796  8.512482 -5.513079
      ESP Fit Center  394 is at   3.614796  7.351630 -5.513079
      ESP Fit Center  395 is at   4.718831  6.992907 -5.513079
      ESP Fit Center  396 is at   4.413683  7.932056 -5.833930
      ESP Fit Center  397 is at   4.525543  7.860799 -0.710960
      ESP Fit Center  398 is at   5.513022  7.860799 -1.031811
      ESP Fit Center  399 is at   4.830691  8.799948 -1.031811
      ESP Fit Center  400 is at   3.726656  8.441225 -1.031811
      ESP Fit Center  401 is at   3.726656  7.280373 -1.031811
      ESP Fit Center  402 is at   4.802994  9.434300 -1.871811
      ESP Fit Center  403 is at   3.726656  9.244513 -1.871811
      ESP Fit Center  404 is at   3.024126  8.407270 -1.871811
      ESP Fit Center  405 is at   3.024126  7.314328 -1.871811
      ESP Fit Center  406 is at   3.726656  9.244513 -2.910109
      ESP Fit Center  407 is at   3.024126  8.407270 -2.910109
      ESP Fit Center  408 is at   6.679867  7.665906 -0.887448
      ESP Fit Center  409 is at   7.742882  7.665906 -1.130074
      ESP Fit Center  410 is at   7.211375  8.586504 -1.130074
      ESP Fit Center  411 is at   6.148359  8.586504 -1.130074
      ESP Fit Center  412 is at   7.211375  6.745308 -1.130074
      ESP Fit Center  413 is at   8.595354  7.665906 -1.809898
      ESP Fit Center  414 is at   8.291277  8.701497 -1.809898
      ESP Fit Center  415 is at   7.475589  9.408294 -1.809898
      ESP Fit Center  416 is at   6.407265  9.561896 -1.809898
      ESP Fit Center  417 is at   7.475589  5.923518 -1.809898
      ESP Fit Center  418 is at   8.291277  6.630315 -1.809898
      ESP Fit Center  419 is at   9.068440  7.665906 -2.792272
      ESP Fit Center  420 is at   8.831897  8.702269 -2.792272
      ESP Fit Center  421 is at   8.169118  9.533368 -2.792272
      ESP Fit Center  422 is at   7.211375  9.994593 -2.792272
      ESP Fit Center  423 is at   6.148359  9.994593 -2.792272
      ESP Fit Center  424 is at   5.190616  9.533368 -2.792272
      ESP Fit Center  425 is at   8.169118  5.798444 -2.792272
      ESP Fit Center  426 is at   8.831897  6.629543 -2.792272
      ESP Fit Center  427 is at   8.169118  9.533368 -3.882624
      ESP Fit Center  428 is at   7.211375  9.994593 -3.882624
      ESP Fit Center  429 is at   6.148359  9.994593 -3.882624
      ESP Fit Center  430 is at   5.190616  9.533368 -3.882624
      ESP Fit Center  431 is at   7.475589  9.408294 -4.864998
      ESP Fit Center  432 is at   6.407265  9.561896 -4.864998
      ESP Fit Center  433 is at   5.425490  9.113535 -4.864998
      ESP Fit Center  434 is at   6.592083  6.121372 -6.825503
      ESP Fit Center  435 is at   7.233220  5.013753 -3.688650
      ESP Fit Center  436 is at   6.129185  4.569188 -4.528650
      ESP Fit Center  437 is at   7.205523  4.379401 -4.528650
      ESP Fit Center  438 is at   8.152039  4.925872 -4.528650
      ESP Fit Center  439 is at   6.129185  4.569188 -5.566948
      ESP Fit Center  440 is at   7.205523  4.379401 -5.566948
      ESP Fit Center  441 is at   8.152039  4.925872 -5.566948
      ESP Fit Center  442 is at   6.129185  5.372476 -6.406948
      ESP Fit Center  443 is at   7.233220  5.013753 -6.406948
      ESP Fit Center  444 is at   5.677667  8.904263 -5.230751
      ESP Fit Center  445 is at   6.754005  9.094050 -6.269049
      ESP Fit Center  446 is at   5.677667  8.904263 -6.269049
      ESP Fit Center  447 is at   4.975137  8.067020 -6.269049
      ESP Fit Center  448 is at   4.975137  6.974078 -6.269049
      ESP Fit Center  449 is at   5.677667  6.136835 -6.269049
      ESP Fit Center  450 is at   7.464033  7.520549 -7.109049
      ESP Fit Center  451 is at   6.781702  8.459698 -7.109049
      ESP Fit Center  452 is at   5.677667  8.100975 -7.109049
      ESP Fit Center  453 is at   5.677667  6.940123 -7.109049
      ESP Fit Center  454 is at   6.781702  6.581400 -7.109049
      ESP Fit Center  455 is at   6.476554  7.520549 -7.429900
      ESP Fit Center  456 is at   9.115587  8.226579 -3.478379
      ESP Fit Center  457 is at  10.120536  8.300490 -4.247032
      ESP Fit Center  458 is at  10.690587  7.317252 -5.297032
      ESP Fit Center  459 is at   8.843714  5.232563 -5.297032
      ESP Fit Center  460 is at  10.120536  8.300490 -6.347032
      ESP Fit Center  461 is at   8.065587  8.226579 -7.115685
      ESP Fit Center  462 is at  10.084261  5.905673 -5.767985
      ESP Fit Center  463 is at  10.458069  6.932703 -6.806283
      ESP Fit Center  464 is at  10.084261  7.959733 -6.806283
      ESP Fit Center  465 is at   8.061407  5.548989 -6.806283
      ESP Fit Center  466 is at   9.137745  5.359202 -6.806283
      ESP Fit Center  467 is at  10.084261  5.905673 -6.806283
      ESP Fit Center  468 is at   9.847773  6.932703 -7.646283
      ESP Fit Center  469 is at   9.165442  7.871852 -7.646283
      ESP Fit Center  470 is at   8.061407  7.513129 -7.646283
      ESP Fit Center  471 is at   8.061407  6.352277 -7.646283
      ESP Fit Center  472 is at   9.165442  5.993554 -7.646283
      ESP Fit Center  473 is at   8.860294  6.932703 -7.967134
      ESP Fit Center  474 is at   9.784022  8.392495 -3.921576
      ESP Fit Center  475 is at   9.101691  9.331644 -3.921576
      ESP Fit Center  476 is at  10.394318  8.392495 -4.761576
      ESP Fit Center  477 is at  10.020510  9.419525 -4.761576
      ESP Fit Center  478 is at   9.073994  9.965996 -4.761576
      ESP Fit Center  479 is at   7.997656  9.776209 -4.761576
      ESP Fit Center  480 is at  10.394318  8.392495 -5.799874
      ESP Fit Center  481 is at  10.020510  9.419525 -5.799874
      ESP Fit Center  482 is at   9.073994  9.965996 -5.799874
      ESP Fit Center  483 is at   7.997656  9.776209 -5.799874
      ESP Fit Center  484 is at   9.101691  9.331644 -6.639874
      ESP Fit Center  485 is at   7.997656  8.972921 -6.639874
      ESP Fit Center  486 is at   9.240011  6.834451 -2.879159
      ESP Fit Center  487 is at  10.227490  6.834451 -3.200010
      ESP Fit Center  488 is at   9.545159  7.773600 -3.200010
      ESP Fit Center  489 is at   9.545159  5.895302 -3.200010
      ESP Fit Center  490 is at  10.837786  6.834451 -4.040010
      ESP Fit Center  491 is at  10.463978  7.861481 -4.040010
      ESP Fit Center  492 is at   8.441124  5.450737 -4.040010
      ESP Fit Center  493 is at   9.517462  5.260950 -4.040010
      ESP Fit Center  494 is at  10.463978  5.807421 -4.040010
      ESP Fit Center  495 is at  10.837786  6.834451 -5.078308
      ESP Fit Center  496 is at   9.517462  5.260950 -5.078308
      ESP Fit Center  497 is at  10.463978  5.807421 -5.078308
      ESP Fit Center  498 is at  -0.558028 -6.284846 -0.097140
      ESP Fit Center  499 is at   0.241013 -5.592473 -0.097140
      ESP Fit Center  500 is at   0.121347 -6.407367 -1.059466
      ESP Fit Center  501 is at   0.121347 -2.748667 -2.127566
      ESP Fit Center  502 is at  -0.558028 -6.284846 -3.089892
      ESP Fit Center  503 is at  -0.296190 -4.578017 -3.755841
      ESP Fit Center  504 is at  -0.816851 -5.479827 -3.755841
      ESP Fit Center  505 is at   0.707012 -4.634688 -0.078093
      ESP Fit Center  506 is at   1.409781 -4.634688 -0.780862
      ESP Fit Center  507 is at   1.092220 -3.657337 -0.780862
      ESP Fit Center  508 is at   0.260836 -6.216075 -0.780862
      ESP Fit Center  509 is at   1.092220 -5.612039 -0.780862
      ESP Fit Center  510 is at   1.667012 -4.634688 -1.740862
      ESP Fit Center  511 is at   1.409781 -3.674688 -1.740862
      ESP Fit Center  512 is at   0.707012 -2.971919 -1.740862
      ESP Fit Center  513 is at   0.707012 -6.297457 -1.740862
      ESP Fit Center  514 is at   1.409781 -5.594688 -1.740862
      ESP Fit Center  515 is at   1.409781 -4.634688 -2.700862
      ESP Fit Center  516 is at   1.092220 -3.657337 -2.700862
      ESP Fit Center  517 is at   0.260836 -3.053301 -2.700862
      ESP Fit Center  518 is at   0.260836 -6.216075 -2.700862
      ESP Fit Center  519 is at   1.092220 -5.612039 -2.700862
      ESP Fit Center  520 is at   0.707012 -4.634688 -3.403631
      ESP Fit Center  521 is at   0.227012 -3.803304 -3.403631
      ESP Fit Center  522 is at   0.227012 -5.466072 -3.403631
      ESP Fit Center  523 is at  -2.216162 -6.427851  0.125738
      ESP Fit Center  524 is at  -1.256162 -6.427851  0.125738
      ESP Fit Center  525 is at  -3.081370 -6.573818 -0.577031
      ESP Fit Center  526 is at  -2.249986 -7.177854 -0.577031
      ESP Fit Center  527 is at  -1.222338 -7.177854 -0.577031
      ESP Fit Center  528 is at  -0.390954 -6.573818 -0.577031
      ESP Fit Center  529 is at  -3.656162 -5.596467 -1.537031
      ESP Fit Center  530 is at  -3.398931 -6.556467 -1.537031
      ESP Fit Center  531 is at  -2.696162 -7.259236 -1.537031
      ESP Fit Center  532 is at  -1.736162 -7.516467 -1.537031
      ESP Fit Center  533 is at  -0.776162 -7.259236 -1.537031
      ESP Fit Center  534 is at  -3.398931 -5.596467 -2.497031
      ESP Fit Center  535 is at  -3.081370 -6.573818 -2.497031
      ESP Fit Center  536 is at  -2.249986 -7.177854 -2.497031
      ESP Fit Center  537 is at  -1.222338 -7.177854 -2.497031
      ESP Fit Center  538 is at  -2.216162 -6.427851 -3.199800
      ESP Fit Center  539 is at  -1.256162 -6.427851 -3.199800
      ESP Fit Center  540 is at  -1.778609 -2.166336 -2.467009
      ESP Fit Center  541 is at  -2.738609 -2.423567 -2.467009
      ESP Fit Center  542 is at  -3.441378 -3.126336 -2.467009
      ESP Fit Center  543 is at  -3.698609 -4.086336 -2.467009
      ESP Fit Center  544 is at  -0.433401 -3.108985 -3.427009
      ESP Fit Center  545 is at  -1.264785 -2.504949 -3.427009
      ESP Fit Center  546 is at  -2.292433 -2.504949 -3.427009
      ESP Fit Center  547 is at  -3.123817 -3.108985 -3.427009
      ESP Fit Center  548 is at  -3.441378 -4.086336 -3.427009
      ESP Fit Center  549 is at  -3.123817 -5.063687 -3.427009
      ESP Fit Center  550 is at  -0.818609 -4.086336 -4.129778
      ESP Fit Center  551 is at  -1.298609 -3.254952 -4.129778
      ESP Fit Center  552 is at  -2.258609 -3.254952 -4.129778
      ESP Fit Center  553 is at  -2.738609 -4.086336 -4.129778
      ESP Fit Center  554 is at  -2.258609 -4.917720 -4.129778
      ESP Fit Center  555 is at  -1.298609 -4.917720 -4.129778
      ESP Fit Center  556 is at  -1.778609 -4.086336 -4.387009
      ESP Fit Center  557 is at  -0.080920 -2.788078  1.170068
      ESP Fit Center  558 is at   0.680383 -3.802534  0.207742
      ESP Fit Center  559 is at  -1.215934 -4.298320  2.474046
      ESP Fit Center  560 is at  -0.255934 -4.298320  2.216815
      ESP Fit Center  561 is at  -0.735934 -3.466936  2.216815
      ESP Fit Center  562 is at  -1.695934 -5.129704  2.216815
      ESP Fit Center  563 is at  -0.735934 -5.129704  2.216815
      ESP Fit Center  564 is at   0.446835 -4.298320  1.514046
      ESP Fit Center  565 is at   0.129274 -3.320969  1.514046
      ESP Fit Center  566 is at  -1.729758 -5.879707  1.514046
      ESP Fit Center  567 is at  -0.702110 -5.879707  1.514046
      ESP Fit Center  568 is at   0.129274 -5.275671  1.514046
      ESP Fit Center  569 is at   0.704066 -4.298320  0.554046
      ESP Fit Center  570 is at  -1.215934 -6.218320  0.554046
      ESP Fit Center  571 is at  -0.255934 -5.961089  0.554046
      ESP Fit Center  572 is at   0.446835 -5.258320  0.554046
      ESP Fit Center  573 is at   0.412985 -2.786395  0.591895
      ESP Fit Center  574 is at   0.670216 -2.786395 -0.368105
      ESP Fit Center  575 is at   0.412985 -2.786395 -1.328105
      ESP Fit Center  576 is at   0.095424 -1.809044 -1.328105
      ESP Fit Center  577 is at  -1.763608 -1.205008 -1.328105
      ESP Fit Center  578 is at  -2.594992 -1.809044 -1.328105
      ESP Fit Center  579 is at  -0.769784 -1.955011 -2.030874
      ESP Fit Center  580 is at  -1.729784 -1.955011 -2.030874
      ESP Fit Center  581 is at  -3.854962 -5.812680  0.309931
      ESP Fit Center  582 is at  -2.817329 -5.938672  0.309931
      ESP Fit Center  583 is at  -5.200942 -4.293383 -0.686963
      ESP Fit Center  584 is at  -4.715189 -5.218909 -0.686963
      ESP Fit Center  585 is at  -3.854962 -5.812680 -0.686963
      ESP Fit Center  586 is at  -3.621744 -2.105168 -1.585133
      ESP Fit Center  587 is at  -4.497396 -2.741366 -1.585133
      ESP Fit Center  588 is at  -4.831865 -3.770756 -1.585133
      ESP Fit Center  589 is at  -4.497396 -4.800146 -1.585133
      ESP Fit Center  590 is at  -3.566512 -2.929066 -2.206686
      ESP Fit Center  591 is at  -4.052462 -3.770756 -2.206686
      ESP Fit Center  592 is at  -4.603341 -3.238627  3.190577
      ESP Fit Center  593 is at  -4.082680 -5.519790  1.562302
      ESP Fit Center  594 is at  -5.362408 -2.709985 -0.468124
      ESP Fit Center  595 is at  -2.997602 -3.638404  3.806913
      ESP Fit Center  596 is at  -2.037602 -3.638404  3.549682
      ESP Fit Center  597 is at  -2.517602 -2.807020  3.549682
      ESP Fit Center  598 is at  -3.477602 -2.807020  3.549682
      ESP Fit Center  599 is at  -3.957602 -3.638404  3.549682
      ESP Fit Center  600 is at  -3.477602 -4.469788  3.549682
      ESP Fit Center  601 is at  -2.517602 -4.469788  3.549682
      ESP Fit Center  602 is at  -1.334833 -3.638404  2.846913
      ESP Fit Center  603 is at  -4.342810 -4.615755  2.846913
      ESP Fit Center  604 is at  -3.511426 -5.219791  2.846913
      ESP Fit Center  605 is at  -2.483778 -5.219791  2.846913
      ESP Fit Center  606 is at  -1.652394 -4.615755  2.846913
      ESP Fit Center  607 is at  -2.997602 -5.558404  1.886913
      ESP Fit Center  608 is at  -5.560485 -3.580633  2.778254
      ESP Fit Center  609 is at  -5.080485 -4.412017  2.778254
      ESP Fit Center  610 is at  -5.945693 -2.603282  2.075485
      ESP Fit Center  611 is at  -6.263254 -3.580633  2.075485
      ESP Fit Center  612 is at  -5.945693 -4.557984  2.075485
      ESP Fit Center  613 is at  -5.114309 -5.162020  2.075485
      ESP Fit Center  614 is at  -6.263254 -2.620633  1.115485
      ESP Fit Center  615 is at  -6.520485 -3.580633  1.115485
      ESP Fit Center  616 is at  -6.263254 -4.540633  1.115485
      ESP Fit Center  617 is at  -5.560485 -5.243402  1.115485
      ESP Fit Center  618 is at  -4.600485 -5.500633  1.115485
      ESP Fit Center  619 is at  -5.945693 -2.603282  0.155485
      ESP Fit Center  620 is at  -6.263254 -3.580633  0.155485
      ESP Fit Center  621 is at  -5.945693 -4.557984  0.155485
      ESP Fit Center  622 is at  -5.114309 -5.162020  0.155485
      ESP Fit Center  623 is at  -5.560485 -3.580633 -0.547284
      ESP Fit Center  624 is at  -5.894674 -1.715885  0.559333
      ESP Fit Center  625 is at  -4.926634  0.349037  0.153935
      ESP Fit Center  626 is at  -5.629403 -0.353732  0.153935
      ESP Fit Center  627 is at  -5.886634 -1.313732  0.153935
      ESP Fit Center  628 is at  -4.480458  0.267655 -0.806065
      ESP Fit Center  629 is at  -5.311842 -0.336381 -0.806065
      ESP Fit Center  630 is at  -5.629403 -1.313732 -0.806065
      ESP Fit Center  631 is at  -5.311842 -2.291083 -0.806065
      ESP Fit Center  632 is at  -3.006634 -1.313732 -1.508834
      ESP Fit Center  633 is at  -3.486634 -0.482348 -1.508834
      ESP Fit Center  634 is at  -4.446634 -0.482348 -1.508834
      ESP Fit Center  635 is at  -4.926634 -1.313732 -1.508834
      ESP Fit Center  636 is at  -4.446634 -2.145116 -1.508834
      ESP Fit Center  637 is at  -3.966634 -1.313732 -1.766065
      ESP Fit Center  638 is at  -4.206832 -1.378552  3.839797
      ESP Fit Center  639 is at  -3.246832 -1.378552  3.582566
      ESP Fit Center  640 is at  -3.726832 -0.547168  3.582566
      ESP Fit Center  641 is at  -4.686832 -0.547168  3.582566
      ESP Fit Center  642 is at  -5.166832 -1.378552  3.582566
      ESP Fit Center  643 is at  -4.686832 -2.209936  3.582566
      ESP Fit Center  644 is at  -3.726832 -2.209936  3.582566
      ESP Fit Center  645 is at  -4.720656  0.202835  2.879797
      ESP Fit Center  646 is at  -5.552040 -0.401201  2.879797
      ESP Fit Center  647 is at  -5.869601 -1.378552  2.879797
      ESP Fit Center  648 is at  -5.552040 -2.355903  2.879797
      ESP Fit Center  649 is at  -5.166832  0.284217  1.919797
      ESP Fit Center  650 is at  -5.869601 -0.418552  1.919797
      ESP Fit Center  651 is at  -6.126832 -1.378552  1.919797
      ESP Fit Center  652 is at  -5.869601 -2.338552  1.919797
      ESP Fit Center  653 is at  -2.228538 -1.259716  3.532771
      ESP Fit Center  654 is at  -1.256638 -1.259716  3.310941
      ESP Fit Center  655 is at  -2.714488 -2.101406  3.310941
      ESP Fit Center  656 is at  -1.742588 -2.101406  3.310941
      ESP Fit Center  657 is at  -0.811704 -2.289106  2.689388
      ESP Fit Center  658 is at  -0.294845 -2.274596  1.791218
      ESP Fit Center  659 is at  -2.596334  2.419354  0.626579
      ESP Fit Center  660 is at  -2.589222  0.669346  3.901153
      ESP Fit Center  661 is at  -1.629222  0.669346  3.643922
      ESP Fit Center  662 is at  -2.109222  1.500730  3.643922
      ESP Fit Center  663 is at  -3.069222  1.500730  3.643922
      ESP Fit Center  664 is at  -3.549222  0.669346  3.643922
      ESP Fit Center  665 is at  -3.069222 -0.162038  3.643922
      ESP Fit Center  666 is at  -2.109222 -0.162038  3.643922
      ESP Fit Center  667 is at  -2.075398  2.250733  2.941153
      ESP Fit Center  668 is at  -3.103046  2.250733  2.941153
      ESP Fit Center  669 is at  -3.934430  1.646697  2.941153
      ESP Fit Center  670 is at  -4.251991  0.669346  2.941153
      ESP Fit Center  671 is at  -2.589222  2.589346  1.981153
      ESP Fit Center  672 is at  -3.549222  2.332115  1.981153
      ESP Fit Center  673 is at  -4.251991  1.629346  1.981153
      ESP Fit Center  674 is at  -4.509222  0.669346  1.981153
      ESP Fit Center  675 is at  -2.504804  2.411580  0.209777
      ESP Fit Center  676 is at  -3.464804  2.154349  0.209777
      ESP Fit Center  677 is at  -4.167573  1.451580  0.209777
      ESP Fit Center  678 is at  -1.990980  2.072967 -0.750223
      ESP Fit Center  679 is at  -3.018628  2.072967 -0.750223
      ESP Fit Center  680 is at  -3.850012  1.468931 -0.750223
      ESP Fit Center  681 is at  -4.167573  0.491580 -0.750223
      ESP Fit Center  682 is at  -2.024804  1.322964 -1.452992
      ESP Fit Center  683 is at  -2.984804  1.322964 -1.452992
      ESP Fit Center  684 is at  -3.464804  0.491580 -1.452992
      ESP Fit Center  685 is at  -2.984804 -0.339804 -1.452992
      ESP Fit Center  686 is at  -2.024804 -0.339804 -1.452992
      ESP Fit Center  687 is at  -2.504804  0.491580 -1.710223
      ESP Fit Center  688 is at  -1.118447  1.375780  3.358170
      ESP Fit Center  689 is at   0.980737  1.488426  2.692221
      ESP Fit Center  690 is at  -0.134192 -0.002697  3.994489
      ESP Fit Center  691 is at   0.825808 -0.002697  3.737258
      ESP Fit Center  692 is at   0.345808  0.828687  3.737258
      ESP Fit Center  693 is at  -0.614192  0.828687  3.737258
      ESP Fit Center  694 is at  -1.094192 -0.002697  3.737258
      ESP Fit Center  695 is at  -0.614192 -0.834081  3.737258
      ESP Fit Center  696 is at   0.345808 -0.834081  3.737258
      ESP Fit Center  697 is at   1.528577 -0.002697  3.034489
      ESP Fit Center  698 is at   1.211016  0.974654  3.034489
      ESP Fit Center  699 is at  -0.648016 -1.584084  3.034489
      ESP Fit Center  700 is at   0.379632 -1.584084  3.034489
      ESP Fit Center  701 is at   1.211016 -0.980048  3.034489
      ESP Fit Center  702 is at  -0.134192 -1.922697  2.074489
      ESP Fit Center  703 is at  -0.002492  2.395937  2.953719
      ESP Fit Center  704 is at  -0.962492  2.395937  2.953719
      ESP Fit Center  705 is at   0.031332  3.145940  2.250950
      ESP Fit Center  706 is at  -0.996316  3.145940  2.250950
      ESP Fit Center  707 is at  -1.827700  2.541904  2.250950
      ESP Fit Center  708 is at   0.477508  3.227322  1.290950
      ESP Fit Center  709 is at  -0.482492  3.484553  1.290950
      ESP Fit Center  710 is at  -1.442492  3.227322  1.290950
      ESP Fit Center  711 is at  -0.996316  3.145940  0.330950
      ESP Fit Center  712 is at  -1.827700  2.541904  0.330950
      ESP Fit Center  713 is at  -1.416834  1.029390 -1.396617
      ESP Fit Center  714 is at  -1.416834 -1.029390 -1.396617
      ESP Fit Center  715 is at  -0.971900  0.000000 -2.018170
      ESP Fit Center  716 is at  -0.485950 -0.841690 -2.018170
      ESP Fit Center  717 is at   0.000000  0.000000 -2.240000
      ESP Fit Center  718 is at   0.893070 -2.281163  0.534050
      ESP Fit Center  719 is at   0.893070 -2.281163 -0.534050
      ESP Fit Center  720 is at   3.622533 -0.537317 -0.908260
      ESP Fit Center  721 is at   0.742533 -2.200086 -0.908260
      ESP Fit Center  722 is at   1.702533 -2.457317 -0.908260
      ESP Fit Center  723 is at   2.662533 -2.200086 -0.908260
      ESP Fit Center  724 is at   3.365302 -1.497317 -0.908260
      ESP Fit Center  725 is at   3.365302 -0.537317 -1.868260
      ESP Fit Center  726 is at   0.357325 -1.514668 -1.868260
      ESP Fit Center  727 is at   1.188709 -2.118704 -1.868260
      ESP Fit Center  728 is at   2.216357 -2.118704 -1.868260
      ESP Fit Center  729 is at   3.047741 -1.514668 -1.868260
      ESP Fit Center  730 is at   2.662533 -0.537317 -2.571029
      ESP Fit Center  731 is at   0.742533 -0.537317 -2.571029
      ESP Fit Center  732 is at   1.222533 -1.368701 -2.571029
      ESP Fit Center  733 is at   2.182533 -1.368701 -2.571029
      ESP Fit Center  734 is at   1.702533 -0.537317 -2.828260
      ESP Fit Center  735 is at   1.799209 -0.560446  2.789106
      ESP Fit Center  736 is at   2.759209 -0.560446  2.531875
      ESP Fit Center  737 is at   2.279209  0.270938  2.531875
      ESP Fit Center  738 is at   1.319209 -1.391830  2.531875
      ESP Fit Center  739 is at   2.279209 -1.391830  2.531875
      ESP Fit Center  740 is at   3.461978 -0.560446  1.829106
      ESP Fit Center  741 is at   1.285385 -2.141833  1.829106
      ESP Fit Center  742 is at   2.313033 -2.141833  1.829106
      ESP Fit Center  743 is at   3.144417 -1.537797  1.829106
      ESP Fit Center  744 is at   3.719209 -0.560446  0.869106
      ESP Fit Center  745 is at   0.839209 -2.223215  0.869106
      ESP Fit Center  746 is at   1.799209 -2.480446  0.869106
      ESP Fit Center  747 is at   2.759209 -2.223215  0.869106
      ESP Fit Center  748 is at   3.461978 -1.520446  0.869106
      ESP Fit Center  749 is at   4.094101  1.270241  1.533626
      ESP Fit Center  750 is at   4.796870  1.270241  0.830857
      ESP Fit Center  751 is at   4.479309  2.247592  0.830857
      ESP Fit Center  752 is at   4.479309  0.292890  0.830857
      ESP Fit Center  753 is at   5.054101  1.270241 -0.129143
      ESP Fit Center  754 is at   4.094101 -0.392528 -0.129143
      ESP Fit Center  755 is at   4.796870  0.310241 -0.129143
      ESP Fit Center  756 is at   3.647925 -0.311146 -1.089143
      ESP Fit Center  757 is at   4.479309  0.292890 -1.089143
      ESP Fit Center  758 is at   3.614101  0.438857 -1.791912
      ESP Fit Center  759 is at   1.885838  1.905954  2.873428
      ESP Fit Center  760 is at   2.845838  1.905954  2.616197
      ESP Fit Center  761 is at   2.365838  2.737338  2.616197
      ESP Fit Center  762 is at   1.405838  2.737338  2.616197
      ESP Fit Center  763 is at   0.925838  1.905954  2.616197
      ESP Fit Center  764 is at   1.405838  1.074570  2.616197
      ESP Fit Center  765 is at   2.365838  1.074570  2.616197
      ESP Fit Center  766 is at   3.548607  1.905954  1.913428
      ESP Fit Center  767 is at   3.231046  2.883305  1.913428
      ESP Fit Center  768 is at   2.399662  3.487341  1.913428
      ESP Fit Center  769 is at   1.372014  3.487341  1.913428
      ESP Fit Center  770 is at   0.376704  4.129959  0.613047
      ESP Fit Center  771 is at  -0.347990  3.405265  0.613047
      ESP Fit Center  772 is at   0.073222  4.655605 -0.295338
      ESP Fit Center  773 is at  -0.726163  3.935836 -0.295338
      ESP Fit Center  774 is at  -1.163681  2.953155 -0.295338
      ESP Fit Center  775 is at  -0.320724  4.649764 -1.366852
      ESP Fit Center  776 is at  -1.013955  3.889326 -1.366852
      ESP Fit Center  777 is at  -1.385672  2.929815 -1.366852
      ESP Fit Center  778 is at  -1.385672  1.900817 -1.366852
      ESP Fit Center  779 is at   0.073222  4.655605 -2.438366
      ESP Fit Center  780 is at  -0.726163  3.935836 -2.438366
      ESP Fit Center  781 is at  -1.163681  2.953155 -2.438366
      ESP Fit Center  782 is at  -1.163681  1.877477 -2.438366
      ESP Fit Center  783 is at  -0.726163  0.894796 -2.438366
      ESP Fit Center  784 is at   0.073222  0.175027 -2.438366
      ESP Fit Center  785 is at   3.097602  0.492902 -2.438366
      ESP Fit Center  786 is at   0.376704  4.129959 -3.346751
      ESP Fit Center  787 is at  -0.347990  3.405265 -3.346751
      ESP Fit Center  788 is at  -0.613246  2.415316 -3.346751
      ESP Fit Center  789 is at  -0.347990  1.425367 -3.346751
      ESP Fit Center  790 is at   0.376704  0.700673 -3.346751
      ESP Fit Center  791 is at   1.366653  0.435417 -3.346751
      ESP Fit Center  792 is at   2.356602  0.700673 -3.346751
      ESP Fit Center  793 is at   1.902410  3.343274 -3.953715
      ESP Fit Center  794 is at   0.830896  3.343274 -3.953715
      ESP Fit Center  795 is at   0.295139  2.415316 -3.953715
      ESP Fit Center  796 is at   0.830896  1.487358 -3.953715
      ESP Fit Center  797 is at   1.902410  1.487358 -3.953715
      ESP Fit Center  798 is at   1.366653  2.415316 -4.166852
      ESP Fit Center  799 is at   2.542863  6.212591 -0.914459
      ESP Fit Center  800 is at   1.515215  6.212591 -0.914459
      ESP Fit Center  801 is at   0.683831  5.608555 -0.914459
      ESP Fit Center  802 is at   2.029039  6.551204 -1.874459
      ESP Fit Center  803 is at   1.069039  6.293973 -1.874459
      ESP Fit Center  804 is at   0.366270  5.591204 -1.874459
      ESP Fit Center  805 is at   0.683831  5.608555 -2.834459
      ESP Fit Center  806 is at   0.366270  4.631204 -2.834459
      ESP Fit Center  807 is at   1.069039  4.631204 -3.537228
      ESP Fit Center  808 is at   2.679373  4.171386  1.615257
      ESP Fit Center  809 is at   3.639373  4.171386  1.358026
      ESP Fit Center  810 is at   3.159373  5.002770  1.358026
      ESP Fit Center  811 is at   2.199373  5.002770  1.358026
      ESP Fit Center  812 is at   1.719373  4.171386  1.358026
      ESP Fit Center  813 is at   3.159373  3.340002  1.358026
      ESP Fit Center  814 is at   4.342142  4.171386  0.655257
      ESP Fit Center  815 is at   4.024581  5.148737  0.655257
      ESP Fit Center  816 is at   3.193197  5.752773  0.655257
      ESP Fit Center  817 is at   2.165549  5.752773  0.655257
      ESP Fit Center  818 is at   1.334165  5.148737  0.655257
      ESP Fit Center  819 is at   4.024581  3.194035  0.655257
      ESP Fit Center  820 is at   2.679373  6.091386 -0.304743
      ESP Fit Center  821 is at   1.719373  5.834155 -0.304743
      ESP Fit Center  822 is at   3.761975  1.258130 -3.015587
      ESP Fit Center  823 is at   4.721975  1.515361 -3.015587
      ESP Fit Center  824 is at   2.416767  4.155481 -3.975587
      ESP Fit Center  825 is at   2.099206  3.178130 -3.975587
      ESP Fit Center  826 is at   2.416767  2.200779 -3.975587
      ESP Fit Center  827 is at   3.248151  1.596743 -3.975587
      ESP Fit Center  828 is at   4.275799  1.596743 -3.975587
      ESP Fit Center  829 is at   5.107183  2.200779 -3.975587
      ESP Fit Center  830 is at   4.721975  3.178130 -4.678356
      ESP Fit Center  831 is at   3.281975  4.009514 -4.678356
      ESP Fit Center  832 is at   2.801975  3.178130 -4.678356
      ESP Fit Center  833 is at   3.281975  2.346746 -4.678356
      ESP Fit Center  834 is at   4.241975  2.346746 -4.678356
      ESP Fit Center  835 is at   3.761975  3.178130 -4.935587
      ESP Fit Center  836 is at   4.413160  2.726187  0.475501
      ESP Fit Center  837 is at   5.373160  2.726187  0.218270
      ESP Fit Center  838 is at   6.075929  2.726187 -0.484499
      ESP Fit Center  839 is at   5.758368  1.748836 -0.484499
      ESP Fit Center  840 is at   5.373160  1.063418 -1.444499
      ESP Fit Center  841 is at   6.075929  1.766187 -1.444499
      ESP Fit Center  842 is at   3.899336  1.144800 -2.404499
      ESP Fit Center  843 is at   4.926984  1.144800 -2.404499
      ESP Fit Center  844 is at   5.758368  1.748836 -2.404499
      ESP Fit Center  845 is at   5.071571  4.942299  0.839155
      ESP Fit Center  846 is at   6.143085  4.942299  0.626018
      ESP Fit Center  847 is at   5.607328  5.870257  0.626018
      ESP Fit Center  848 is at   4.535814  5.870257  0.626018
      ESP Fit Center  849 is at   4.535814  4.014341  0.626018
      ESP Fit Center  850 is at   5.607328  4.014341  0.626018
      ESP Fit Center  851 is at   7.051470  4.942299  0.019054
      ESP Fit Center  852 is at   6.786214  5.932248  0.019054
      ESP Fit Center  853 is at   6.061520  6.656942  0.019054
      ESP Fit Center  854 is at   5.071571  6.922198  0.019054
      ESP Fit Center  855 is at   4.081622  6.656942  0.019054
      ESP Fit Center  856 is at   6.061520  3.227656  0.019054
      ESP Fit Center  857 is at   6.786214  3.952350  0.019054
      ESP Fit Center  858 is at   7.658434  4.942299 -0.889331
      ESP Fit Center  859 is at   7.434788  5.994471 -0.889331
      ESP Fit Center  860 is at   2.978755  6.462819 -0.889331
      ESP Fit Center  861 is at   6.802520  3.019885 -0.889331
      ESP Fit Center  862 is at   7.434788  3.890127 -0.889331
      ESP Fit Center  863 is at   7.871571  4.942299 -1.960845
      ESP Fit Center  864 is at   6.319638  2.435842 -1.960845
      ESP Fit Center  865 is at   7.140796  3.055951 -1.960845
      ESP Fit Center  866 is at   7.682493  3.930822 -1.960845
      ESP Fit Center  867 is at   7.658434  4.942299 -3.032359
      ESP Fit Center  868 is at   5.870956  2.482046 -3.032359
      ESP Fit Center  869 is at   6.802520  3.019885 -3.032359
      ESP Fit Center  870 is at   7.434788  3.890127 -3.032359
      ESP Fit Center  871 is at   6.061520  3.227656 -3.940744
      ESP Fit Center  872 is at   6.786214  3.952350 -3.940744
      ESP Fit Center  873 is at   2.822320  6.755824 -1.643958
      ESP Fit Center  874 is at   1.957112  6.901791 -2.346727
      ESP Fit Center  875 is at   2.342320  7.587209 -3.306727
      ESP Fit Center  876 is at   1.639551  6.884440 -3.306727
      ESP Fit Center  877 is at   1.382320  5.924440 -3.306727
      ESP Fit Center  878 is at   1.957112  6.901791 -4.266727
      ESP Fit Center  879 is at   1.639551  5.924440 -4.266727
      ESP Fit Center  880 is at   1.957112  4.947089 -4.266727
      ESP Fit Center  881 is at   2.788496  4.343053 -4.266727
      ESP Fit Center  882 is at   2.342320  5.924440 -4.969496
      ESP Fit Center  883 is at   2.822320  5.093056 -4.969496
      ESP Fit Center  884 is at   3.338478  4.480911 -5.266976
      ESP Fit Center  885 is at   4.169862  3.876875 -5.266976
      ESP Fit Center  886 is at   5.197510  3.876875 -5.266976
      ESP Fit Center  887 is at   4.203686  6.289646 -5.969745
      ESP Fit Center  888 is at   3.723686  5.458262 -5.969745
      ESP Fit Center  889 is at   4.203686  4.626878 -5.969745
      ESP Fit Center  890 is at   5.163686  4.626878 -5.969745
      ESP Fit Center  891 is at   4.683686  5.458262 -6.226976
      ESP Fit Center  892 is at   4.413683  9.852056 -4.153930
      ESP Fit Center  893 is at   3.453683  9.594825 -4.153930
      ESP Fit Center  894 is at   2.750914  8.892056 -4.153930
      ESP Fit Center  895 is at   2.493683  7.932056 -4.153930
      ESP Fit Center  896 is at   4.927507  9.513443 -5.113930
      ESP Fit Center  897 is at   3.899859  9.513443 -5.113930
      ESP Fit Center  898 is at   3.068475  8.909407 -5.113930
      ESP Fit Center  899 is at   2.750914  7.932056 -5.113930
      ESP Fit Center  900 is at   3.068475  6.954705 -5.113930
      ESP Fit Center  901 is at   4.893683  8.763440 -5.816699
      ESP Fit Center  902 is at   3.933683  8.763440 -5.816699
      ESP Fit Center  903 is at   3.453683  7.932056 -5.816699
      ESP Fit Center  904 is at   3.933683  7.100672 -5.816699
      ESP Fit Center  905 is at   4.413683  7.932056 -6.073930
      ESP Fit Center  906 is at   4.525543  7.860799 -0.470960
      ESP Fit Center  907 is at   5.485543  7.860799 -0.728191
      ESP Fit Center  908 is at   5.005543  8.692183 -0.728191
      ESP Fit Center  909 is at   4.045543  8.692183 -0.728191
      ESP Fit Center  910 is at   3.565543  7.860799 -0.728191
      ESP Fit Center  911 is at   5.039367  9.442186 -1.430960
      ESP Fit Center  912 is at   4.011719  9.442186 -1.430960
      ESP Fit Center  913 is at   3.180335  8.838150 -1.430960
      ESP Fit Center  914 is at   2.862774  7.860799 -1.430960
      ESP Fit Center  915 is at   4.525543  9.780799 -2.390960
      ESP Fit Center  916 is at   3.565543  9.523568 -2.390960
      ESP Fit Center  917 is at   2.862774  8.820799 -2.390960
      ESP Fit Center  918 is at   2.605543  7.860799 -2.390960
      ESP Fit Center  919 is at   6.679867  7.665906 -0.537448
      ESP Fit Center  920 is at   7.751381  7.665906 -0.750585
      ESP Fit Center  921 is at   7.215624  8.593864 -0.750585
      ESP Fit Center  922 is at   6.144110  8.593864 -0.750585
      ESP Fit Center  923 is at   5.608353  7.665906 -0.750585
      ESP Fit Center  924 is at   7.215624  6.737948 -0.750585
      ESP Fit Center  925 is at   8.659766  7.665906 -1.357549
      ESP Fit Center  926 is at   8.394510  8.655855 -1.357549
      ESP Fit Center  927 is at   7.669816  9.380549 -1.357549
      ESP Fit Center  928 is at   6.679867  9.645805 -1.357549
      ESP Fit Center  929 is at   5.689918  9.380549 -1.357549
      ESP Fit Center  930 is at   7.669816  5.951263 -1.357549
      ESP Fit Center  931 is at   8.394510  6.675957 -1.357549
      ESP Fit Center  932 is at   9.266730  7.665906 -2.265934
      ESP Fit Center  933 is at   9.043084  8.718078 -2.265934
      ESP Fit Center  934 is at   8.410816  9.588320 -2.265934
      ESP Fit Center  935 is at   7.479252 10.126159 -2.265934
      ESP Fit Center  936 is at   6.409466 10.238598 -2.265934
      ESP Fit Center  937 is at   5.386436  9.906195 -2.265934
      ESP Fit Center  938 is at   8.410816  5.743492 -2.265934
      ESP Fit Center  939 is at   9.043084  6.613734 -2.265934
      ESP Fit Center  940 is at   9.290789  8.677383 -3.337448
      ESP Fit Center  941 is at   8.749092  9.552254 -3.337448
      ESP Fit Center  942 is at   7.927934 10.172363 -3.337448
      ESP Fit Center  943 is at   6.938218 10.453962 -3.337448
      ESP Fit Center  944 is at   5.913611 10.359018 -3.337448
      ESP Fit Center  945 is at   4.992490  9.900354 -3.337448
      ESP Fit Center  946 is at   7.927934  5.159449 -3.337448
      ESP Fit Center  947 is at   7.479252 10.126159 -4.408962
      ESP Fit Center  948 is at   6.409466 10.238598 -4.408962
      ESP Fit Center  949 is at   5.386436  9.906195 -4.408962
      ESP Fit Center  950 is at   6.679867  9.645805 -5.317347
      ESP Fit Center  951 is at   5.689918  9.380549 -5.317347
      ESP Fit Center  952 is at   6.596423  6.128889 -7.169175
      ESP Fit Center  953 is at   7.441896  4.371515 -4.087799
      ESP Fit Center  954 is at   8.273280  4.975551 -4.087799
      ESP Fit Center  955 is at   6.928072  4.032902 -5.047799
      ESP Fit Center  956 is at   7.888072  4.290133 -5.047799
      ESP Fit Center  957 is at   5.582864  4.975551 -6.007799
      ESP Fit Center  958 is at   6.414248  4.371515 -6.007799
      ESP Fit Center  959 is at   7.441896  4.371515 -6.007799
      ESP Fit Center  960 is at   8.273280  4.975551 -6.007799
      ESP Fit Center  961 is at   6.448072  5.121518 -6.710568
      ESP Fit Center  962 is at   7.408072  5.121518 -6.710568
      ESP Fit Center  963 is at   6.476554  9.440549 -5.749900
      ESP Fit Center  964 is at   5.516554  9.183318 -5.749900
      ESP Fit Center  965 is at   6.990378  9.101936 -6.709900
      ESP Fit Center  966 is at   5.962730  9.101936 -6.709900
      ESP Fit Center  967 is at   5.131346  8.497900 -6.709900
      ESP Fit Center  968 is at   4.813785  7.520549 -6.709900
      ESP Fit Center  969 is at   5.131346  6.543198 -6.709900
      ESP Fit Center  970 is at   6.956554  8.351933 -7.412669
      ESP Fit Center  971 is at   5.996554  8.351933 -7.412669
      ESP Fit Center  972 is at   5.516554  7.520549 -7.412669
      ESP Fit Center  973 is at   5.996554  6.689165 -7.412669
      ESP Fit Center  974 is at   6.956554  6.689165 -7.412669
      ESP Fit Center  975 is at   6.476554  7.520549 -7.669900
      ESP Fit Center  976 is at  10.698698  8.332465 -4.762982
      ESP Fit Center  977 is at  10.930414  7.317252 -5.831082
      ESP Fit Center  978 is at  10.698698  8.332465 -5.831082
      ESP Fit Center  979 is at   9.111247  5.036089 -5.831082
      ESP Fit Center  980 is at  10.049445  5.487902 -5.831082
      ESP Fit Center  981 is at  10.698698  6.302039 -5.831082
      ESP Fit Center  982 is at  10.169111  8.331708 -6.793408
      ESP Fit Center  983 is at  10.780294  6.932703 -6.287134
      ESP Fit Center  984 is at   8.860294  5.012703 -6.287134
      ESP Fit Center  985 is at   9.820294  5.269934 -6.287134
      ESP Fit Center  986 is at  10.523063  5.972703 -6.287134
      ESP Fit Center  987 is at  10.523063  6.932703 -7.247134
      ESP Fit Center  988 is at  10.205502  7.910054 -7.247134
      ESP Fit Center  989 is at   9.374118  8.514090 -7.247134
      ESP Fit Center  990 is at   7.515086  5.955352 -7.247134
      ESP Fit Center  991 is at   8.346470  5.351316 -7.247134
      ESP Fit Center  992 is at   9.374118  5.351316 -7.247134
      ESP Fit Center  993 is at  10.205502  5.955352 -7.247134
      ESP Fit Center  994 is at   9.820294  6.932703 -7.949903
      ESP Fit Center  995 is at   9.340294  7.764087 -7.949903
      ESP Fit Center  996 is at   8.380294  7.764087 -7.949903
      ESP Fit Center  997 is at   7.900294  6.932703 -7.949903
      ESP Fit Center  998 is at   8.380294  6.101319 -7.949903
      ESP Fit Center  999 is at   9.340294  6.101319 -7.949903
      ESP Fit Center 1000 is at   8.860294  6.932703 -8.207134
      ESP Fit Center 1001 is at   9.276543  9.223879 -3.617956
      ESP Fit Center 1002 is at  10.141751  9.369846 -4.320725
      ESP Fit Center 1003 is at   9.310367  9.973882 -4.320725
      ESP Fit Center 1004 is at   8.282719  9.973882 -4.320725
      ESP Fit Center 1005 is at  10.459312  9.352495 -5.280725
      ESP Fit Center 1006 is at   9.756543 10.055264 -5.280725
      ESP Fit Center 1007 is at   8.796543 10.312495 -5.280725
      ESP Fit Center 1008 is at   7.836543 10.055264 -5.280725
      ESP Fit Center 1009 is at  10.141751  9.369846 -6.240725
      ESP Fit Center 1010 is at   9.310367  9.973882 -6.240725
      ESP Fit Center 1011 is at   8.282719  9.973882 -6.240725
      ESP Fit Center 1012 is at   7.451335  9.369846 -6.240725
      ESP Fit Center 1013 is at   9.276543  9.223879 -6.943494
      ESP Fit Center 1014 is at   8.316543  9.223879 -6.943494
      ESP Fit Center 1015 is at  10.200011  6.834451 -2.896390
      ESP Fit Center 1016 is at   9.720011  7.665835 -2.896390
      ESP Fit Center 1017 is at   9.720011  6.003067 -2.896390
      ESP Fit Center 1018 is at  10.902780  6.834451 -3.599159
      ESP Fit Center 1019 is at  10.585219  7.811802 -3.599159
      ESP Fit Center 1020 is at   8.726187  5.253064 -3.599159
      ESP Fit Center 1021 is at   9.753835  5.253064 -3.599159
      ESP Fit Center 1022 is at  10.585219  5.857100 -3.599159
      ESP Fit Center 1023 is at  11.160011  6.834451 -4.559159
      ESP Fit Center 1024 is at  10.902780  7.794451 -4.559159
      ESP Fit Center 1025 is at   9.240011  4.914451 -4.559159
      ESP Fit Center 1026 is at  10.200011  5.171682 -4.559159
      ESP Fit Center 1027 is at  10.902780  5.874451 -4.559159
      ESP Fit Center 1028 is at  10.585219  5.857100 -5.519159
      ESP Fit Center 1029 is at   0.217769 -6.528276 -0.560271
      ESP Fit Center 1030 is at   0.217769 -2.627758 -2.626761
      ESP Fit Center 1031 is at  -0.782438 -2.146084 -2.626761
      ESP Fit Center 1032 is at  -2.587763 -6.020885 -3.502704
      ESP Fit Center 1033 is at  -0.544406 -6.314676 -3.502704
      ESP Fit Center 1034 is at  -0.304266 -4.578017 -4.087991
      ESP Fit Center 1035 is at  -0.820888 -5.472834 -4.087991
      ESP Fit Center 1036 is at   1.617627 -4.634688 -0.660862
      ESP Fit Center 1037 is at   1.320673 -3.623357 -0.660862
      ESP Fit Center 1038 is at   0.524094 -6.336259 -0.660862
      ESP Fit Center 1039 is at   1.320673 -5.646019 -0.660862
      ESP Fit Center 1040 is at   1.907012 -4.634688 -1.740862
      ESP Fit Center 1041 is at   1.659597 -3.630886 -1.740862
      ESP Fit Center 1042 is at   0.974032 -2.857043 -1.740862
      ESP Fit Center 1043 is at   0.974032 -6.412333 -1.740862
      ESP Fit Center 1044 is at   1.659597 -5.638490 -1.740862
      ESP Fit Center 1045 is at   1.617627 -4.634688 -2.820862
      ESP Fit Center 1046 is at   1.320673 -3.623357 -2.820862
      ESP Fit Center 1047 is at   0.524094 -2.933117 -2.820862
[...]
 1323 Fit       0.007338
 1324 Fit       0.006404
 1325 Fit       0.012834
 1326 Fit       0.009064
 1327 Fit       0.014396
 1328 Fit       0.008061
 1329 Fit       0.010563
 1330 Fit       0.011791
 1331 Fit       0.008109
 1332 Fit       0.005405
 1333 Fit       0.008108
 1334 Fit       0.011119
 1335 Fit      -0.003381
 1336 Fit       0.003590
 1337 Fit       0.005677
 1338 Fit       0.003335
 1339 Fit       0.013833
 1340 Fit       0.004527
 1341 Fit       0.003970
 1342 Fit       0.000275
 1343 Fit       0.004616
 1344 Fit       0.003967
 1345 Fit       0.010358
 1346 Fit       0.008087
 1347 Fit       0.005129
 1348 Fit       0.007553
 1349 Fit       0.011394
 1350 Fit       0.009429
 1351 Fit       0.010159
 1352 Fit       0.010515
 1353 Fit       0.004726
 1354 Fit       0.005276
 1355 Fit       0.006893
 1356 Fit       0.002492
 1357 Fit      -0.007699
 1358 Fit      -0.011791
 1359 Fit      -0.015225
 1360 Fit      -0.011552
 1361 Fit       0.003981
 1362 Fit      -0.002735
 1363 Fit      -0.015592
 1364 Fit      -0.019260
 1365 Fit      -0.018733
 1366 Fit      -0.015336
 1367 Fit      -0.011455
 1368 Fit       0.001169
 1369 Fit      -0.008633
 1370 Fit      -0.020054
 1371 Fit      -0.024651
 1372 Fit      -0.003047
 1373 Fit      -0.005556
 1374 Fit      -0.014040
 1375 Fit      -0.024295
 1376 Fit       0.008407
 1377 Fit      -0.000975
 1378 Fit      -0.011355
 1379 Fit      -0.018402
 1380 Fit      -0.024738
 1381 Fit      -0.005407
 1382 Fit      -0.013762
 1383 Fit      -0.019327
 1384 Fit      -0.003426
 1385 Fit      -0.010566
 1386 Fit      -0.014260
 1387 Fit      -0.000728
 1388 Fit       0.016098
 1389 Fit       0.014533
 1390 Fit       0.014381
 1391 Fit       0.015536
 1392 Fit       0.016423
 1393 Fit       0.016421
 1394 Fit       0.015234
 1395 Fit       0.014673
 1396 Fit       0.014221
 1397 Fit       0.014776
 1398 Fit       0.014036
 1399 Fit       0.013415
 1400 Fit       0.012742
 1401 Fit       0.010826
 1402 Fit       0.016771
 1403 Fit       0.014418
 1404 Fit       0.013586
 1405 Fit       0.014078
 1406 Fit       0.015149
 1407 Fit       0.005145
 1408 Fit       0.009680
 1409 Fit       0.012942
 1410 Fit       0.000194
 1411 Fit       0.006881
 1412 Fit       0.010411
 1413 Fit       0.013415
 1414 Fit       0.008182
 1415 Fit       0.011393
 1416 Fit       0.013745
 1417 Fit       0.016314
 1418 Fit       0.013089
 1419 Fit       0.015125
 1420 Fit       0.017359
 1421 Fit       0.016460
 1422 Fit      -0.003853
 1423 Fit      -0.000950
 1424 Fit       0.003732
 1425 Fit       0.002699
 1426 Fit       0.003693
 1427 Fit       0.007121
 1428 Fit       0.008721
 1429 Fit       0.008223
 1430 Fit      -0.001335
 1431 Fit       0.005272
 1432 Fit       0.008892
 1433 Fit       0.011854
 1434 Fit      -0.017574
 1435 Fit      -0.020336
 1436 Fit      -0.015503
 1437 Fit      -0.009764
 1438 Fit      -0.011978
 1439 Fit      -0.025396
 1440 Fit      -0.019853
 1441 Fit      -0.017671
 1442 Fit      -0.015977
 1443 Fit      -0.012228
 1444 Fit      -0.005083
 1445 Fit      -0.024039
 1446 Fit      -0.015586
 1447 Fit      -0.015347
 1448 Fit      -0.016390
 1449 Fit      -0.016815
 1450 Fit      -0.014378
 1451 Fit      -0.007893
 1452 Fit      -0.024233
 1453 Fit      -0.018339
 1454 Fit      -0.010387
 1455 Fit      -0.013246
 1456 Fit      -0.016385
 1457 Fit      -0.017292
 1458 Fit      -0.014064
 1459 Fit      -0.006494
 1460 Fit      -0.021884
 1461 Fit      -0.012647
 1462 Fit      -0.015529
 1463 Fit      -0.013367
 1464 Fit      -0.006066
 1465 Fit      -0.009625
 1466 Fit      -0.004986
 1467 Fit      -0.000323
 1468 Fit       0.012398
 1469 Fit       0.010893
 1470 Fit      -0.007933
 1471 Fit       0.007699
 1472 Fit       0.003590
 1473 Fit       0.002761
 1474 Fit       0.013706
 1475 Fit       0.009515
 1476 Fit       0.007512
 1477 Fit       0.011097
 1478 Fit       0.009859
 1479 Fit       0.003928
 1480 Fit       0.006259
 1481 Fit       0.007484
 1482 Fit       0.010879
 1483 Fit       0.013995
 1484 Fit       0.014735
 1485 Fit       0.013896
 1486 Fit       0.008847
 1487 Fit       0.010446
 1488 Fit       0.012017
 1489 Fit       0.011448
 1490 Fit       0.010500
 1491 Fit      -0.001341
 1492 Fit       0.000899
 1493 Fit       0.000387
 1494 Fit       0.002250
 1495 Fit       0.002086
 1496 Fit       0.001734
 1497 Fit       0.005278
 1498 Fit       0.003895
 1499 Fit       0.003154
 1500 Fit       0.004742
 1501 Fit       0.003924
 1502 Fit       0.010210
 1503 Fit       0.008198
 1504 Fit       0.006715
 1505 Fit       0.005695
 1506 Fit       0.006787
 1507 Fit       0.006122
 1508 Fit       0.007338
 1509 Fit       0.009392
 1510 Fit       0.009196
 1511 Fit       0.007992
 1512 Fit       0.008149
 1513 Fit      -0.001675
 1514 Fit      -0.002853
 1515 Fit      -0.007956
 1516 Fit       0.001124
 1517 Fit       0.001472
 1518 Fit       0.000483
 1519 Fit      -0.002304
 1520 Fit       0.002605
 1521 Fit       0.003144
 1522 Fit       0.002887
 1523 Fit       0.003088
 1524 Fit       0.003639
 1525 Fit       0.004545
 1526 Fit      -0.004773
 1527 Fit      -0.008896
 1528 Fit      -0.007121
 1529 Fit      -0.000358
 1530 Fit      -0.002244
 1531 Fit      -0.006991
 1532 Fit      -0.002003
 1533 Fit      -0.000092
 1534 Fit       0.001090
 1535 Fit      -0.000151
 1536 Fit       0.000459
 1537 Fit       0.001379
 1538 Fit       0.001696
 1539 Fit       0.002233
 1540 Fit      -0.002503
 1541 Fit      -0.003617
 1542 Fit      -0.004054
 1543 Fit      -0.006562
 1544 Fit      -0.010895
 1545 Fit      -0.015610
 1546 Fit      -0.005037
 1547 Fit      -0.003881
 1548 Fit      -0.005284
 1549 Fit      -0.008434
 1550 Fit      -0.006715
 1551 Fit      -0.005608
 1552 Fit      -0.004383
 1553 Fit      -0.005481
 1554 Fit      -0.006007
 1555 Fit       0.000918
 1556 Fit      -0.000253
 1557 Fit       0.001639
 1558 Fit       0.001715
 1559 Fit      -0.001357
 1560 Fit       0.000515
 1561 Fit       0.001018
 1562 Fit       0.000747
 1563 Fit      -0.001868
 1564 Fit      -0.001683
 1565 Fit       0.000103
 1566 Fit      -0.000780
 1567 Fit      -0.001918
 1568 Fit      -0.003601
 1569 Fit      -0.001555
 1570 Fit      -0.003298
 1571 Fit      -0.010144
 1572 Fit      -0.005466
 1573 Fit      -0.003926
 1574 Fit      -0.015566
 1575 Fit      -0.008165
 1576 Fit      -0.004830
 1577 Fit      -0.003636
 1578 Fit      -0.003572
 1579 Fit      -0.012526
 1580 Fit      -0.007307
 1581 Fit      -0.004710
 1582 Fit      -0.003853
 1583 Fit      -0.004004
 1584 Fit      -0.011734
 1585 Fit      -0.007535
 1586 Fit      -0.005352
 1587 Fit      -0.004919
 1588 Fit      -0.013028
 1589 Fit      -0.012817
 1590 Fit      -0.013929
 1591 Fit      -0.016989
 1592 Fit      -0.018349
 1593 Fit      -0.006467
 1594 Fit      -0.007992
 1595 Fit      -0.008484
 1596 Fit      -0.008924
 1597 Fit      -0.009966
 1598 Fit      -0.010210
 1599 Fit      -0.009246
 1600 Fit      -0.005492
 1601 Fit      -0.005838
 1602 Fit      -0.006280
 1603 Fit      -0.006793
 1604 Fit      -0.006658
 1605 Fit      -0.006003
 1606 Fit      -0.005556
 1607 Fit      -0.006076
 1608 Fit      -0.000213
 1609 Fit      -0.002480
 1610 Fit      -0.008159
 1611 Fit      -0.001248
 1612 Fit      -0.001460
 1613 Fit      -0.005511
 1614 Fit      -0.002800
 1615 Fit      -0.001407
 1616 Fit      -0.000774
 1617 Fit      -0.000592
 1618 Fit      -0.005510
 1619 Fit      -0.002904
 1620 Fit      -0.001406
 1621 Fit      -0.000497
 1622 Fit      -0.012982
 1623 Fit      -0.017582
 1624 Fit      -0.017573
 1625 Fit      -0.013751
 1626 Fit      -0.017327
 1627 Fit      -0.020419
 1628 Fit      -0.021062
 1629 Fit      -0.017310
 1630 Fit      -0.016935
 1631 Fit      -0.018701
 1632 Fit      -0.020960
 1633 Fit      -0.022580
 1634 Fit      -0.021222
 1635 Fit       0.004491
 1636 Fit       0.002085
 1637 Fit      -0.002776
 1638 Fit      -0.007181
 1639 Fit      -0.008476
 1640 Fit       0.001307
 1641 Fit      -0.001016
 1642 Fit      -0.002099
 1643 Fit       0.002202
 1644 Fit       0.003128
 1645 Fit       0.001674
 1646 Fit       0.000735
 1647 Fit      -0.004023
 1648 Fit       0.000935
 1649 Fit      -0.000183
 1650 Fit      -0.000269
 1651 Fit      -0.000862
 1652 Fit      -0.003434
 1653 Fit      -0.002938
 1654 Fit       0.005014
 1655 Fit       0.002833
 1656 Fit       0.005788
 1657 Fit       0.003751
 1658 Fit       0.001596
 1659 Fit      -0.000576
 1660 Fit       0.005530
 1661 Fit       0.003573
 1662 Fit       0.001580
 1663 Fit      -0.000969
 1664 Fit      -0.004154
 1665 Fit       0.003048
 1666 Fit       0.000967
 1667 Fit      -0.001455
 1668 Fit      -0.005002
 1669 Fit      -0.010444
 1670 Fit      -0.002715
 1671 Fit      -0.005771
 1672 Fit      -0.011318
 1673 Fit       0.005385
 1674 Fit       0.004653
 1675 Fit       0.004283
 1676 Fit       0.003447
 1677 Fit       0.002707
 1678 Fit       0.001622
 1679 Fit       0.000651
 1680 Fit      -0.000603
 1681 Fit      -0.004356
 1682 Fit      -0.014861
 1683 Fit      -0.007332
 1684 Fit      -0.003611
 1685 Fit      -0.006041
 1686 Fit      -0.010333
 1687 Fit       0.004136
 1688 Fit       0.000204
 1689 Fit       0.004472
 1690 Fit       0.005796
 1691 Fit       0.005604
 1692 Fit       0.004922
 1693 Fit       0.002496
 1694 Fit       0.006523
 1695 Fit       0.006151
 1696 Fit       0.006145
 1697 Fit       0.006321
 1698 Fit       0.006503
 1699 Fit       0.005994
 1700 Fit       0.006064
 1701 Fit       0.006901
 1702 Fit       0.005948
 1703 Fit       0.005437
 1704 Fit       0.005663
 1705 Fit      -0.003567
 1706 Fit      -0.004076
 1707 Fit      -0.007430
 1708 Fit      -0.008753
 1709 Fit      -0.001106
 1710 Fit       0.004191
 1711 Fit       0.005195
 1712 Fit       0.005643
 1713 Fit       0.006458
 1714 Fit       0.007884
 1715 Fit       0.008809
 1716 Fit       0.007831
 1717 Fit       0.006703
 1718 Fit       0.003946
 1719 Fit       0.002746
 1720 Fit       0.010417
 1721 Fit       0.008702
 1722 Fit       0.007859
 1723 Fit       0.007493
 1724 Fit       0.009873
 1725 Fit       0.008063
 1726 Fit       0.007409
 1727 Fit       0.007276
 1728 Fit       0.006857
 1729 Fit       0.006528
 1730 Fit       0.006656
 1731 Fit      -0.005399
 1732 Fit       0.000550
 1733 Fit       0.002789
 1734 Fit       0.003740
 1735 Fit      -0.004676
 1736 Fit      -0.000356
 1737 Fit       0.000906
 1738 Fit      -0.015328
 1739 Fit      -0.005772
 1740 Fit      -0.004199
 1741 Fit      -0.009680
 1742 Fit      -0.019858
 1743 Fit      -0.011710
 1744 Fit       0.010006
 1745 Fit       0.011788
 1746 Fit       0.006916
 1747 Fit       0.008737
 1748 Fit       0.009738
 1749 Fit       0.009053
 1750 Fit       0.005393
 1751 Fit       0.001994
 1752 Fit       0.005237
 1753 Fit       0.011356
 1754 Fit       0.012650
 1755 Fit      -0.004457
 1756 Fit       0.002686
 1757 Fit       0.008127
 1758 Fit      -0.004289
 1759 Fit       0.011363
 1760 Fit       0.010866
 1761 Fit       0.010838
 1762 Fit       0.009073
 1763 Fit       0.009953
 1764 Fit       0.006620
 1765 Fit       0.005640
 1766 Fit       0.007133
 1767 Fit       0.001991
 1768 Fit      -0.022088
 1769 Fit      -0.023272
 1770 Fit      -0.020050
 1771 Fit       0.001291
 1772 Fit       0.012850
 1773 Fit       0.001360
 1774 Fit       0.008906
 1775 Fit       0.012129
 1776 Fit       0.011352
 1777 Fit       0.003330
 1778 Fit       0.006084
 1779 Fit       0.008452
 1780 Fit       0.005179
 1781 Fit      -0.008554
 1782 Fit      -0.001037
 1783 Fit       0.002998
 1784 Fit       0.004987
 1785 Fit      -0.001211
 1786 Fit      -0.005174
 1787 Fit      -0.000160
 1788 Fit      -0.007274
 1789 Fit       0.011439
 1790 Fit       0.013988
 1791 Fit       0.008777
 1792 Fit       0.012185
 1793 Fit       0.003315
 1794 Fit       0.007068
 1795 Fit       0.009737
 1796 Fit       0.013664
 1797 Fit      -0.000468
 1798 Fit       0.004667
 1799 Fit       0.007810
 1800 Fit       0.010493
 1801 Fit       0.004268
 1802 Fit       0.007771
 1803 Fit       0.012690
 1804 Fit       0.013878
 1805 Fit       0.012380
 1806 Fit       0.012047
 1807 Fit       0.013211
 1808 Fit       0.013100
 1809 Fit       0.013484
 1810 Fit       0.012892
 1811 Fit       0.012619
 1812 Fit       0.012894
 1813 Fit       0.011339
 1814 Fit       0.013259
 1815 Fit       0.012461
 1816 Fit       0.012074
 1817 Fit       0.012764
 1818 Fit       0.013944
 1819 Fit       0.012378
 1820 Fit       0.011462
 1821 Fit       0.011594
 1822 Fit       0.011343
 1823 Fit       0.004292
 1824 Fit       0.000775
 1825 Fit      -0.002456
 1826 Fit       0.000026
 1827 Fit      -0.004861
 1828 Fit      -0.007163
 1829 Fit      -0.006007
 1830 Fit       0.000244
 1831 Fit      -0.005617
 1832 Fit      -0.009093
 1833 Fit      -0.010455
 1834 Fit      -0.002319
 1835 Fit      -0.007981
 1836 Fit      -0.011536
 1837 Fit      -0.014665
 1838 Fit      -0.020184
 1839 Fit       0.004886
 1840 Fit      -0.001661
 1841 Fit      -0.007920
 1842 Fit      -0.012308
 1843 Fit      -0.015890
 1844 Fit      -0.018034
 1845 Fit      -0.015710
 1846 Fit      -0.010058
 1847 Fit      -0.005942
 1848 Fit      -0.002831
 1849 Fit       0.010493
 1850 Fit       0.002303
 1851 Fit      -0.005070
 1852 Fit      -0.010462
 1853 Fit      -0.013820
 1854 Fit      -0.014433
 1855 Fit      -0.012170
 1856 Fit      -0.008418
 1857 Fit       0.004265
 1858 Fit      -0.001069
 1859 Fit      -0.008101
 1860 Fit      -0.010949
 1861 Fit      -0.007779
 1862 Fit      -0.004837
 1863 Fit       0.004615
 1864 Fit       0.009472
 1865 Fit       0.007495
 1866 Fit       0.002771
 1867 Fit       0.010803
 1868 Fit       0.005925
 1869 Fit       0.013546
 1870 Fit       0.007508
 1871 Fit       0.010522
 1872 Fit       0.007441
 1873 Fit       0.005115
 1874 Fit       0.007357
 1875 Fit       0.010691
 1876 Fit      -0.001388
 1877 Fit       0.003461
 1878 Fit       0.005395
 1879 Fit       0.011619
 1880 Fit       0.003024
 1881 Fit       0.005278
 1882 Fit       0.002437
 1883 Fit       0.002534
 1884 Fit       0.000899
 1885 Fit       0.004181
 1886 Fit       0.004300
 1887 Fit       0.009994
 1888 Fit       0.007414
 1889 Fit       0.004850
 1890 Fit       0.006823
 1891 Fit       0.010153
 1892 Fit       0.009366
 1893 Fit       0.010034
 1894 Fit       0.004448
 1895 Fit       0.009224
 1896 Fit       0.006576
 1897 Fit       0.001097
 1898 Fit      -0.005059
 1899 Fit      -0.008859
 1900 Fit      -0.011219
 1901 Fit      -0.007673
 1902 Fit       0.003997
 1903 Fit      -0.001723
 1904 Fit      -0.012165
 1905 Fit      -0.015130
 1906 Fit      -0.014735
 1907 Fit      -0.011810
 1908 Fit      -0.008015
 1909 Fit       0.009554
 1910 Fit       0.001190
 1911 Fit      -0.006556
 1912 Fit      -0.015630
 1913 Fit      -0.019252
 1914 Fit      -0.019733
 1915 Fit      -0.008707
 1916 Fit      -0.004878
 1917 Fit      -0.002322
 1918 Fit      -0.003544
 1919 Fit      -0.010527
 1920 Fit      -0.018960
 1921 Fit      -0.000287
 1922 Fit      -0.008287
 1923 Fit      -0.014062
 1924 Fit      -0.020434
 1925 Fit      -0.005450
 1926 Fit      -0.011391
 1927 Fit      -0.015823
 1928 Fit      -0.004937
 1929 Fit      -0.010212
 1930 Fit      -0.013634
 1931 Fit      -0.000882
 1932 Fit      -0.005520
 1933 Fit      -0.007144
 1934 Fit       0.002677
 1935 Fit       0.014171
 1936 Fit       0.012781
 1937 Fit       0.011782
 1938 Fit       0.013370
 1939 Fit       0.013896
 1940 Fit       0.014257
 1941 Fit       0.013622
 1942 Fit       0.013662
 1943 Fit       0.015016
 1944 Fit       0.013320
 1945 Fit       0.012348
 1946 Fit       0.011951
 1947 Fit       0.013478
 1948 Fit       0.012390
 1949 Fit       0.011570
 1950 Fit       0.011106
 1951 Fit       0.010441
 1952 Fit       0.015142
 1953 Fit       0.013069
 1954 Fit       0.012162
 1955 Fit       0.012638
 1956 Fit       0.013652
 1957 Fit       0.002269
 1958 Fit       0.006936
 1959 Fit       0.009820
 1960 Fit       0.013059
 1961 Fit       0.014049
 1962 Fit       0.003659
 1963 Fit       0.007703
 1964 Fit       0.010629
 1965 Fit       0.005473
 1966 Fit       0.008710
 1967 Fit       0.011069
 1968 Fit       0.013729
 1969 Fit       0.007975
 1970 Fit       0.010386
 1971 Fit       0.012355
 1972 Fit       0.014430
 1973 Fit       0.011921
 1974 Fit       0.013591
 1975 Fit       0.015680
 1976 Fit      -0.005040
 1977 Fit      -0.002526
 1978 Fit       0.001650
 1979 Fit       0.000631
 1980 Fit       0.002223
 1981 Fit       0.005140
 1982 Fit       0.006307
 1983 Fit       0.004889
 1984 Fit       0.002861
 1985 Fit       0.006266
 1986 Fit       0.008544
 1987 Fit       0.010862
 1988 Fit      -0.015460
 1989 Fit      -0.017102
 1990 Fit      -0.013367
 1991 Fit      -0.009451
 1992 Fit      -0.016884
 1993 Fit      -0.014969
 1994 Fit      -0.013261
 1995 Fit      -0.010210
 1996 Fit      -0.005181
 1997 Fit      -0.020098
 1998 Fit      -0.014331
 1999 Fit      -0.013685
 2000 Fit      -0.013790
 2001 Fit      -0.013370
 2002 Fit      -0.011023
 2003 Fit      -0.005989
 2004 Fit      -0.021195
 2005 Fit      -0.016637
 2006 Fit      -0.009467
 2007 Fit      -0.010366
 2008 Fit      -0.011801
 2009 Fit      -0.013286
 2010 Fit      -0.013543
 2011 Fit      -0.011395
 2012 Fit      -0.006434
 2013 Fit      -0.013788
 2014 Fit      -0.007677
 2015 Fit      -0.010324
 2016 Fit      -0.012459
 2017 Fit      -0.012510
 2018 Fit      -0.009787
 2019 Fit      -0.004379
 2020 Fit      -0.009585
 2021 Fit      -0.009095
 2022 Fit      -0.004792
 2023 Fit      -0.004409
 2024 Fit      -0.000927
 2025 Fit       0.011002
 2026 Fit       0.009710
 2027 Fit       0.009944
 2028 Fit      -0.001924
 2029 Fit      -0.001212
 2030 Fit       0.007287
 2031 Fit       0.004752
 2032 Fit       0.004026
 2033 Fit       0.011780
 2034 Fit       0.008787
 2035 Fit       0.007320
 2036 Fit       0.010144
 2037 Fit       0.002677
 2038 Fit       0.004293
 2039 Fit       0.008921
 2040 Fit       0.006175
 2041 Fit       0.007181
 2042 Fit       0.009619
 2043 Fit       0.011912
 2044 Fit       0.012659
 2045 Fit       0.012143
 2046 Fit       0.008129
 2047 Fit       0.009241
 2048 Fit       0.010539
 2049 Fit       0.010335
 2050 Fit       0.009446
 2051 Fit      -0.002233
 2052 Fit      -0.000359
 2053 Fit       0.000620
 2054 Fit       0.001177
 2055 Fit       0.000884
 2056 Fit       0.004034
 2057 Fit       0.002725
 2058 Fit       0.002289
 2059 Fit       0.001805
 2060 Fit       0.002633
 2061 Fit       0.002123
 2062 Fit       0.004743
 2063 Fit       0.003667
 2064 Fit       0.004537
 2065 Fit       0.002910
 2066 Fit       0.007214
 2067 Fit       0.005219
 2068 Fit       0.004212
 2069 Fit       0.003542
 2070 Fit       0.004609
 2071 Fit       0.004045
 2072 Fit       0.004023
 2073 Fit       0.009114
 2074 Fit       0.007506
 2075 Fit       0.006251
 2076 Fit       0.005364
 2077 Fit       0.006039
 2078 Fit       0.005692
 2079 Fit       0.006784
 2080 Fit       0.008333
 2081 Fit       0.008069
 2082 Fit       0.006989
 2083 Fit       0.007149
 2084 Fit      -0.003358
 2085 Fit      -0.005201
 2086 Fit      -0.000341
 2087 Fit      -0.000466
 2088 Fit      -0.001723
 2089 Fit      -0.004998
 2090 Fit       0.001325
 2091 Fit       0.001607
 2092 Fit       0.001270
 2093 Fit       0.000191
 2094 Fit      -0.000860
 2095 Fit       0.002459
 2096 Fit       0.002771
 2097 Fit       0.002851
 2098 Fit       0.003762
 2099 Fit       0.003542
 2100 Fit      -0.006711
 2101 Fit      -0.009328
 2102 Fit      -0.002017
 2103 Fit      -0.003635
 2104 Fit      -0.010691
 2105 Fit      -0.004367
 2106 Fit      -0.002053
 2107 Fit       0.000092
 2108 Fit      -0.000956
 2109 Fit      -0.003989
 2110 Fit      -0.001520
 2111 Fit      -0.000005
 2112 Fit       0.000488
 2113 Fit       0.000993
 2114 Fit       0.001449
 2115 Fit       0.001535
 2116 Fit       0.001479
 Job cpu time:       0 days  0 hours 11 minutes 46.6 seconds.
 Normal termination of Gaussian 16 at Sun Jul  9 07:23:38 2023.
