 Copyright (c) 1988-2019, Gaussian, Inc.  All Rights Reserved.
  
 This is part of the Gaussian(R) 16 program.  It is based on
 the Gaussian(R) 09 system (copyright 2009, Gaussian, Inc.),
 the Gaussian(R) 03 system (copyright 2003, Gaussian, Inc.),
 the Gaussian(R) 98 system (copyright 1998, Gaussian, Inc.),
 the Gaussian(R) 94 system (copyright 1995, Gaussian, Inc.),
 the Gaussian 92(TM) system (copyright 1992, Gaussian, Inc.),
 the Gaussian 90(TM) system (copyright 1990, Gaussian, Inc.),
 the Gaussian 88(TM) system (copyright 1988, Gaussian, Inc.),
 the Gaussian 86(TM) system (copyright 1986, Carnegie Mellon
 University), and the Gaussian 82(TM) system (copyright 1983,
 Carnegie Mellon University). Gaussian is a federally registered
 trademark of Gaussian, Inc.
 Cite this work as:
 Gaussian 16, Revision C.01,
 M. J. Frisch, G. W. Trucks, H. B. Schlegel, G. E. Scuseria, 
 M. A. Robb, J. R. Cheeseman, G. Scalmani, V. Barone, 
 G. A. Petersson, H. Nakatsuji, X. Li, M. Caricato, A. V. Marenich, 
 J. Bloino, B. G. Janesko, R. Gomperts, B. Mennucci, H. P. Hratchian, 
 J. V. Ortiz, A. F. Izmaylov, J. L. Sonnenberg, D. Williams-Young, 
 F. Ding, F. Lipparini, F. Egidi, J. Goings, B. Peng, A. Petrone, 
 T. Henderson, D. Ranasinghe, V. G. Zakrzewski, J. Gao, N. Rega, 
 G. Zheng, W. Liang, M. Hada, M. Ehara, K. Toyota, R. Fukuda, 
 J. Hasegawa, M. Ishida, T. Nakajima, Y. Honda, O. Kitao, H. Nakai, 
 T. Vreven, K. Throssell, J. A. Montgomery, Jr., J. E. Peralta, 
 F. Ogliaro, M. J. Bearpark, J. J. Heyd, E. N. Brothers, K. N. Kudin, 
 V. N. Staroverov, T. A. Keith, R. Kobayashi, J. Normand, 
 K. Raghavachari, A. P. Rendell, J. C. Burant, S. S. Iyengar, 
 J. Tomasi, M. Cossi, J. M. Millam, M. Klene, C. Adamo, R. Cammi, 
 J. W. Ochterski, R. L. Martin, K. Morokuma, O. Farkas, 
 J. B. Foresman, and D. J. Fox, Gaussian, Inc., Wallingford CT, 2019.
 
 ******************************************
 Gaussian 16:  EM64L-G16RevC.01  3-Jul-2019
                 9-Jul-2023 
 ******************************************
 ----------------------------------------------------------------------
 #P B3LYP/6-31G(d) Integral=Ultrafine SCF(Conver=8,XQC,MaxConventionalC
 ycles=64,MaxCycle=128) NoSymm Test Pop=mk IOp(6/33=2) GFInput GFPrint
 ----------------------------------------------------------------------
 1/38=1,172=1/1;
 2/12=2,15=1,17=6,18=5,40=1/2;
 3/5=1,6=6,7=1,11=2,24=110,25=1,30=1,74=-5,75=-5/1,2,3;
 4//1;
 5/5=2,6=8,7=128,8=3,13=1,38=5,85=64/2,8;
 6/7=2,8=2,9=2,10=2,15=8,20=1,28=1,33=2/1,2;
 99/5=1,9=1/99;
 -------------------------------------------------
 MEP step - Input generated by PyRED DVE-DMDS-OPLS
 -------------------------------------------------
 Symbolic Z-matrix:
 Charge =  0 Multiplicity = 1
 C                     7.86016  -3.41312   0.56617 
 H                     7.5546   -3.03111  -0.41315 
 H                     8.95462  -3.40811   0.61636 
 H                     7.51054  -4.44666   0.65456 
 C                     7.27273  -2.55671   1.67633 
 H                     7.5855   -2.93425   2.66546 
 H                     7.64395  -1.52243   1.59253 
 O                     5.85846  -2.60363   1.56662 
 C                     5.16078  -1.93207   2.59691 
 H                     5.60216  -2.15987   3.5823 
 H                     4.14061  -2.33008   2.58147 
 C                     5.09371  -0.41809   2.43139 
 H                     4.6293    0.01789   3.33331 
 H                     6.10441   0.01498   2.34492 
 O                     4.32997  -0.1137    1.27989 
 C                     4.23702   1.27421   1.02086 
 H                     5.24188   1.69813   0.84276 
 H                     3.79894   1.80629   1.88196 
 C                     3.37548   1.51338  -0.21229 
 H                     3.72382   0.86057  -1.02801 
 H                     3.50727   2.55516  -0.52697 
 O                     1.98357   1.35001   0. 
 C                     1.52174   0.        0. 
 H                     1.91439  -0.54799   0.86294 
 H                     1.88041  -0.50773  -0.91232 
 C                     0.        0.        0. 
 H                    -0.35048  -1.0266   -0.15477 
 H                    -0.3848    0.60087  -0.83037 
 S                    -0.82121   0.50204   1.56381 
 C                    -0.46142   2.30246   1.69429 
 H                    -1.02716   2.61244   2.57908 
 H                     0.60409   2.43863   1.89364 
 C                    -0.84198   3.16398   0.49204 
 H                    -0.1997    2.91418  -0.35661 
 H                    -0.66115   4.21491   0.75111 
 S                    -2.61967   2.9869    0.03897 
 C                    -2.84839   4.52231  -0.94311 
 H                    -2.46699   5.37633  -0.37162 
 H                    -3.93222   4.64736  -1.03178 
 C                    -2.21106   4.46536  -2.33158 
 H                    -1.13199   4.30244  -2.25151 
 H                    -2.64228   3.63913  -2.90644 
 S                    -2.53413   6.05068  -3.21647 
 C                    -1.8956    5.64454  -4.89249 
 H                    -2.39008   4.72997  -5.23995 
 H                    -2.25669   6.46311  -5.52433 
 C                    -0.3755    5.52195  -4.9943 
 H                     0.00587   4.70009  -4.37902 
 H                    -0.08015   5.32257  -6.03229 
 H                     0.11467   6.44461  -4.66801 
 
 ITRead=  0  0  0  0  0  0  0  0  0  0  0  0  0  0  0  0  0  0  0  0
 ITRead=  0  0  0  0  0  0  0  0  0  0  0  0  0  0  0  0  0  0  0  0
 ITRead=  0  0  0  0  0  0  0  0  0  0
 MicOpt= -1 -1 -1 -1 -1 -1 -1 -1 -1 -1 -1 -1 -1 -1 -1 -1 -1 -1 -1 -1
 MicOpt= -1 -1 -1 -1 -1 -1 -1 -1 -1 -1 -1 -1 -1 -1 -1 -1 -1 -1 -1 -1
 MicOpt= -1 -1 -1 -1 -1 -1 -1 -1 -1 -1
 NAtoms=     50 NQM=       50 NQMF=       0 NMMI=      0 NMMIF=      0
                NMic=       0 NMicF=      0.
                          Input orientation:                          
 ---------------------------------------------------------------------
 Center     Atomic      Atomic             Coordinates (Angstroms)
 Number     Number       Type             X           Y           Z
 ---------------------------------------------------------------------
      1          6           0        7.860164   -3.413117    0.566165
      2          1           0        7.554603   -3.031109   -0.413150
      3          1           0        8.954623   -3.408113    0.616358
      4          1           0        7.510536   -4.446656    0.654563
      5          6           0        7.272727   -2.556714    1.676332
      6          1           0        7.585501   -2.934253    2.665455
      7          1           0        7.643949   -1.522433    1.592528
      8          8           0        5.858460   -2.603627    1.566619
      9          6           0        5.160780   -1.932067    2.596913
     10          1           0        5.602158   -2.159867    3.582299
     11          1           0        4.140607   -2.330077    2.581470
     12          6           0        5.093706   -0.418086    2.431391
     13          1           0        4.629299    0.017894    3.333311
     14          1           0        6.104412    0.014984    2.344922
     15          8           0        4.329972   -0.113695    1.279892
     16          6           0        4.237018    1.274209    1.020856
     17          1           0        5.241875    1.698133    0.842755
     18          1           0        3.798939    1.806288    1.881957
     19          6           0        3.375484    1.513384   -0.212289
     20          1           0        3.723816    0.860570   -1.028012
     21          1           0        3.507269    2.555162   -0.526974
     22          8           0        1.983565    1.350008    0.000000
     23          6           0        1.521740    0.000000    0.000000
     24          1           0        1.914388   -0.547992    0.862937
     25          1           0        1.880412   -0.507726   -0.912319
     26          6           0        0.000000    0.000000    0.000000
     27          1           0       -0.350479   -1.026603   -0.154767
     28          1           0       -0.384795    0.600869   -0.830373
     29         16           0       -0.821210    0.502038    1.563813
     30          6           0       -0.461422    2.302463    1.694285
     31          1           0       -1.027162    2.612439    2.579082
     32          1           0        0.604087    2.438632    1.893641
     33          6           0       -0.841979    3.163976    0.492038
     34          1           0       -0.199699    2.914182   -0.356613
     35          1           0       -0.661153    4.214914    0.751112
     36         16           0       -2.619668    2.986896    0.038969
     37          6           0       -2.848392    4.522305   -0.943111
     38          1           0       -2.466994    5.376332   -0.371615
     39          1           0       -3.932222    4.647359   -1.031783
     40          6           0       -2.211060    4.465356   -2.331577
     41          1           0       -1.131986    4.302444   -2.251507
     42          1           0       -2.642284    3.639128   -2.906435
     43         16           0       -2.534127    6.050683   -3.216466
     44          6           0       -1.895600    5.644545   -4.892485
     45          1           0       -2.390082    4.729973   -5.239950
     46          1           0       -2.256685    6.463106   -5.524331
     47          6           0       -0.375496    5.521947   -4.994295
     48          1           0        0.005872    4.700090   -4.379024
     49          1           0       -0.080151    5.322573   -6.032289
     50          1           0        0.114668    6.444608   -4.668008
 ---------------------------------------------------------------------
 Stoichiometry    C14H30O3S3
 Framework group  C1[X(C14H30O3S3)]
 Standard basis: 6-31G(d) (6D, 7F)
   372 basis functions,   752 primitive gaussians,   372 cartesian basis functions
    93 alpha electrons       93 beta electrons
 Requested convergence on RMS density matrix=1.00D-08 within  64 cycles.
 Requested convergence on MAX density matrix=1.00D-06.
 Requested convergence on             energy=1.00D-06.
 SCF Done:  E(RB3LYP) =  -1971.75564982     A.U. after   13 cycles
            NFock= 13  Conv=0.35D-08     -V/T= 2.0058
 Mulliken charges:
     1  C   -0.451551
     2  H    0.160183
     3  H    0.141612
     4  H    0.159318
     5  C   -0.012377
     6  H    0.117561
     7  H    0.120106
     8  O   -0.458701
     9  C   -0.034587
    10  H    0.118403
    11  H    0.158852
    12  C   -0.025109
    13  H    0.122980
    14  H    0.123373
    15  O   -0.463803
    16  C   -0.017407
    17  H    0.117682
    18  H    0.130570
    19  C   -0.041335
    20  H    0.139230
    21  H    0.143388
    22  O   -0.476991
    23  C   -0.008192
    24  H    0.164312
    25  H    0.124546
    26  C   -0.441834
    27  H    0.177917
    28  H    0.186474
    29  S    0.089275
    30  C   -0.410958
    31  H    0.181282
    32  H    0.188103
    33  C   -0.411391
    34  H    0.188286
    35  H    0.166344
    36  S    0.108264
    37  C   -0.436774
    38  H    0.178523
    39  H    0.190350
    40  C   -0.394266
    41  H    0.174024
    42  H    0.177592
    43  S    0.072455
    44  C   -0.406974
    45  H    0.168468
    46  H    0.175617
    47  C   -0.436199
    48  H    0.152175
    49  H    0.148523
    50  H    0.162661
 Sum of Mulliken charges =  -0.00000
 Dipole moment (field-independent basis, Debye):
    X=              5.2149    Y=              0.4291    Z=             -0.5949  Tot=              5.2662
 Quadrupole moment (field-independent basis, Debye-Ang):
   XX=           -135.2690   YY=           -153.5407   ZZ=           -133.9373
   XY=             11.6588   XZ=             10.1972   YZ=             -1.3344
 Traceless Quadrupole moment (field-independent basis, Debye-Ang):
   XX=              5.6467   YY=            -12.6250   ZZ=              6.9783
   XY=             11.6588   XZ=             10.1972   YZ=             -1.3344
 Octapole moment (field-independent basis, Debye-Ang**2):
  XXX=           -297.4146  YYY=           -821.7988  ZZZ=             43.2772  XYY=           -113.1269
  XXY=           -280.7853  XXZ=             90.0112  XZZ=           -134.7225  YZZ=           -211.3661
  YYZ=             41.3777  XYZ=            -18.7136
 Hexadecapole moment (field-independent basis, Debye-Ang**3):
 XXXX=         -10729.5798 YYYY=         -10636.6165 ZZZZ=          -4111.9907 XXXY=           2799.6778
 XXXZ=          -1423.7330 YYYX=           3224.8292 YYYZ=           2468.3140 ZZZX=          -1609.7699
 ZZZY=           2006.5409 XXYY=          -3773.4017 XXZZ=          -2597.3209 YYZZ=          -2181.6888
 XXYZ=            771.9908 YYXZ=           -681.6680 ZZXY=            894.7095
 Merz-Kollman atomic radii used.
 Atom Element Radius
    1     6    1.50
    2     1    1.20
    3     1    1.20
    4     1    1.20
    5     6    1.50
    6     1    1.20
    7     1    1.20
    8     8    1.40
    9     6    1.50
   10     1    1.20
   11     1    1.20
   12     6    1.50
   13     1    1.20
   14     1    1.20
   15     8    1.40
   16     6    1.50
   17     1    1.20
   18     1    1.20
   19     6    1.50
   20     1    1.20
   21     1    1.20
   22     8    1.40
   23     6    1.50
   24     1    1.20
   25     1    1.20
   26     6    1.50
   27     1    1.20
   28     1    1.20
   29    16    1.75
   30     6    1.50
   31     1    1.20
   32     1    1.20
   33     6    1.50
   34     1    1.20
   35     1    1.20
   36    16    1.75
   37     6    1.50
   38     1    1.20
   39     1    1.20
   40     6    1.50
   41     1    1.20
   42     1    1.20
   43    16    1.75
   44     6    1.50
   45     1    1.20
   46     1    1.20
   47     6    1.50
   48     1    1.20
   49     1    1.20
   50     1    1.20
 Generate VDW surfaces: Layer= 4 Dens= 1 Start= 1.400 Inc= 0.200
            Electrostatic Properties Using The SCF Density.


       Atomic Center    1 is at   7.860164 -3.413117  0.566165
       Atomic Center    2 is at   7.554603 -3.031109 -0.413150
       Atomic Center    3 is at   8.954623 -3.408113  0.616358
       Atomic Center    4 is at   7.510536 -4.446656  0.654563
       Atomic Center    5 is at   7.272727 -2.556714  1.676332
       Atomic Center    6 is at   7.585501 -2.934253  2.665455
       Atomic Center    7 is at   7.643949 -1.522433  1.592528
       Atomic Center    8 is at   5.858460 -2.603627  1.566619
       Atomic Center    9 is at   5.160780 -1.932067  2.596913
       Atomic Center   10 is at   5.602158 -2.159867  3.582299
       Atomic Center   11 is at   4.140607 -2.330077  2.581470
       Atomic Center   12 is at   5.093706 -0.418086  2.431391
       Atomic Center   13 is at   4.629299  0.017894  3.333311
       Atomic Center   14 is at   6.104412  0.014984  2.344922
       Atomic Center   15 is at   4.329972 -0.113695  1.279892
       Atomic Center   16 is at   4.237018  1.274209  1.020856
       Atomic Center   17 is at   5.241875  1.698133  0.842755
       Atomic Center   18 is at   3.798939  1.806288  1.881957
       Atomic Center   19 is at   3.375484  1.513384 -0.212289
       Atomic Center   20 is at   3.723816  0.860570 -1.028012
       Atomic Center   21 is at   3.507269  2.555162 -0.526974
       Atomic Center   22 is at   1.983565  1.350008  0.000000
       Atomic Center   23 is at   1.521740  0.000000  0.000000
       Atomic Center   24 is at   1.914388 -0.547992  0.862937
       Atomic Center   25 is at   1.880412 -0.507726 -0.912319
       Atomic Center   26 is at   0.000000  0.000000  0.000000
       Atomic Center   27 is at  -0.350479 -1.026603 -0.154767
       Atomic Center   28 is at  -0.384795  0.600869 -0.830373
       Atomic Center   29 is at  -0.821210  0.502038  1.563813
       Atomic Center   30 is at  -0.461422  2.302463  1.694285
       Atomic Center   31 is at  -1.027162  2.612439  2.579082
       Atomic Center   32 is at   0.604087  2.438632  1.893641
       Atomic Center   33 is at  -0.841979  3.163976  0.492038
       Atomic Center   34 is at  -0.199699  2.914182 -0.356613
       Atomic Center   35 is at  -0.661153  4.214914  0.751112
       Atomic Center   36 is at  -2.619668  2.986896  0.038969
       Atomic Center   37 is at  -2.848392  4.522305 -0.943111
       Atomic Center   38 is at  -2.466994  5.376332 -0.371615
       Atomic Center   39 is at  -3.932222  4.647359 -1.031783
       Atomic Center   40 is at  -2.211060  4.465356 -2.331577
       Atomic Center   41 is at  -1.131986  4.302444 -2.251507
       Atomic Center   42 is at  -2.642284  3.639128 -2.906435
       Atomic Center   43 is at  -2.534127  6.050683 -3.216466
       Atomic Center   44 is at  -1.895600  5.644545 -4.892485
       Atomic Center   45 is at  -2.390082  4.729973 -5.239950
       Atomic Center   46 is at  -2.256685  6.463106 -5.524331
       Atomic Center   47 is at  -0.375496  5.521947 -4.994295
       Atomic Center   48 is at   0.005872  4.700090 -4.379024
       Atomic Center   49 is at  -0.080151  5.322573 -6.032289
       Atomic Center   50 is at   0.114668  6.444608 -4.668008
      ESP Fit Center   51 is at   9.053100 -1.684851  0.566165
      ESP Fit Center   52 is at   9.053100 -5.141383  0.566165
      ESP Fit Center   53 is at   6.115179 -3.925491 -0.483835
      ESP Fit Center   54 is at   8.615660 -5.067422 -0.483835
      ESP Fit Center   55 is at   8.385164 -4.322444 -1.252488
      ESP Fit Center   56 is at   8.778570 -2.004079 -0.932299
      ESP Fit Center   57 is at   7.832054 -1.457608 -0.932299
      ESP Fit Center   58 is at   6.755716 -1.647395 -0.932299
      ESP Fit Center   59 is at   6.053186 -2.484638 -0.932299
      ESP Fit Center   60 is at   6.053186 -3.577580 -0.932299
      ESP Fit Center   61 is at   6.755716 -4.414823 -0.932299
      ESP Fit Center   62 is at   8.542082 -3.031109 -1.772299
      ESP Fit Center   63 is at   7.859751 -2.091960 -1.772299
      ESP Fit Center   64 is at   6.755716 -2.450683 -1.772299
      ESP Fit Center   65 is at   6.755716 -3.611535 -1.772299
      ESP Fit Center   66 is at   7.859751 -3.970258 -1.772299
      ESP Fit Center   67 is at   7.554603 -3.031109 -2.093150
      ESP Fit Center   68 is at   9.942102 -3.408113  1.975507
      ESP Fit Center   69 is at   9.259771 -4.347262  1.975507
      ESP Fit Center   70 is at  10.552398 -3.408113  1.135507
      ESP Fit Center   71 is at  10.178590 -2.381083  1.135507
      ESP Fit Center   72 is at   9.232074 -1.834612  1.135507
      ESP Fit Center   73 is at   9.232074 -4.981614  1.135507
      ESP Fit Center   74 is at  10.178590 -4.435143  1.135507
      ESP Fit Center   75 is at  10.552398 -3.408113  0.097209
      ESP Fit Center   76 is at  10.178590 -2.381083  0.097209
      ESP Fit Center   77 is at   9.232074 -1.834612  0.097209
      ESP Fit Center   78 is at   9.232074 -4.981614  0.097209
      ESP Fit Center   79 is at  10.178590 -4.435143  0.097209
      ESP Fit Center   80 is at   9.942102 -3.408113 -0.742791
      ESP Fit Center   81 is at   9.259771 -2.468964 -0.742791
      ESP Fit Center   82 is at   9.259771 -4.347262 -0.742791
      ESP Fit Center   83 is at   6.711649 -5.027082  2.013712
      ESP Fit Center   84 is at   7.815684 -5.385805  2.013712
      ESP Fit Center   85 is at   6.009119 -4.993127  1.173712
      ESP Fit Center   86 is at   6.711649 -5.830370  1.173712
      ESP Fit Center   87 is at   7.787987 -6.020157  1.173712
      ESP Fit Center   88 is at   8.734503 -5.473686  1.173712
      ESP Fit Center   89 is at   6.009119 -4.993127  0.135414
      ESP Fit Center   90 is at   6.711649 -5.830370  0.135414
      ESP Fit Center   91 is at   7.787987 -6.020157  0.135414
      ESP Fit Center   92 is at   8.734503 -5.473686  0.135414
      ESP Fit Center   93 is at   6.711649 -5.027082 -0.704586
      ESP Fit Center   94 is at   7.815684 -5.385805 -0.704586
      ESP Fit Center   95 is at   7.585501 -2.934253  4.345455
      ESP Fit Center   96 is at   8.572980 -2.934253  4.024604
      ESP Fit Center   97 is at   7.890649 -1.995104  4.024604
      ESP Fit Center   98 is at   6.786614 -3.514679  4.024604
      ESP Fit Center   99 is at   7.890649 -3.873402  4.024604
      ESP Fit Center  100 is at   9.183276 -2.934253  3.184604
      ESP Fit Center  101 is at   8.809468 -1.907223  3.184604
      ESP Fit Center  102 is at   6.786614 -4.317967  3.184604
      ESP Fit Center  103 is at   7.862952 -4.507754  3.184604
      ESP Fit Center  104 is at   8.809468 -3.961283  3.184604
      ESP Fit Center  105 is at   8.631428 -1.522433  2.951677
      ESP Fit Center  106 is at   7.949097 -0.583284  2.951677
      ESP Fit Center  107 is at   9.241724 -1.522433  2.111677
      ESP Fit Center  108 is at   8.867916 -0.495403  2.111677
      ESP Fit Center  109 is at   7.921400  0.051068  2.111677
      ESP Fit Center  110 is at   9.241724 -1.522433  1.073379
      ESP Fit Center  111 is at   8.867916 -0.495403  1.073379
      ESP Fit Center  112 is at   7.921400  0.051068  1.073379
      ESP Fit Center  113 is at   7.949097 -0.583284  0.233379
      ESP Fit Center  114 is at   6.845062 -0.942007  0.233379
      ESP Fit Center  115 is at   5.333932 -4.217960  2.546619
      ESP Fit Center  116 is at   4.878460 -4.301037  1.566619
      ESP Fit Center  117 is at   5.858460 -4.563627  1.566619
      ESP Fit Center  118 is at   6.382988 -0.989294  0.586619
      ESP Fit Center  119 is at   4.161050 -2.603627  0.586619
      ESP Fit Center  120 is at   4.485227 -3.601339  0.586619
      ESP Fit Center  121 is at   5.333932 -4.217960  0.586619
      ESP Fit Center  122 is at   6.348460 -1.754922 -0.130791
      ESP Fit Center  123 is at   5.368460 -1.754922 -0.130791
      ESP Fit Center  124 is at   4.878460 -2.603627 -0.130791
      ESP Fit Center  125 is at   5.368460 -3.452332 -0.130791
      ESP Fit Center  126 is at   5.858460 -2.603627 -0.393381
      ESP Fit Center  127 is at   4.110780 -1.932067  4.415566
      ESP Fit Center  128 is at   4.901959 -3.732209  3.646913
      ESP Fit Center  129 is at   5.602158 -2.159867  5.262299
      ESP Fit Center  130 is at   6.589637 -2.159867  4.941448
      ESP Fit Center  131 is at   5.907306 -1.220718  4.941448
      ESP Fit Center  132 is at   4.803271 -1.579441  4.941448
      ESP Fit Center  133 is at   4.803271 -2.740293  4.941448
      ESP Fit Center  134 is at   5.907306 -3.099016  4.941448
      ESP Fit Center  135 is at   6.826125 -1.132837  4.101448
      ESP Fit Center  136 is at   4.803271 -3.543581  4.101448
      ESP Fit Center  137 is at   5.879609 -3.733368  4.101448
      ESP Fit Center  138 is at   3.341720 -1.749651  3.940619
      ESP Fit Center  139 is at   3.341720 -2.910503  3.940619
      ESP Fit Center  140 is at   2.639190 -1.783606  3.100619
      ESP Fit Center  141 is at   2.639190 -2.876548  3.100619
      ESP Fit Center  142 is at   3.341720 -3.713791  3.100619
      ESP Fit Center  143 is at   4.418058 -3.903578  3.100619
      ESP Fit Center  144 is at   2.639190 -1.783606  2.062321
      ESP Fit Center  145 is at   2.639190 -2.876548  2.062321
      ESP Fit Center  146 is at   3.341720 -3.713791  2.062321
      ESP Fit Center  147 is at   4.418058 -3.903578  2.062321
      ESP Fit Center  148 is at   3.341720 -2.910503  1.222321
      ESP Fit Center  149 is at   6.143706 -0.418086  4.250044
      ESP Fit Center  150 is at   5.849202  1.236219  3.481391
      ESP Fit Center  151 is at   4.629299  0.017894  5.013311
      ESP Fit Center  152 is at   5.616778  0.017894  4.692460
      ESP Fit Center  153 is at   4.934447  0.957043  4.692460
      ESP Fit Center  154 is at   3.830412  0.598320  4.692460
      ESP Fit Center  155 is at   3.830412 -0.562532  4.692460
      ESP Fit Center  156 is at   4.934447 -0.921255  4.692460
      ESP Fit Center  157 is at   5.853266  1.044924  3.852460
      ESP Fit Center  158 is at   4.906750  1.591395  3.852460
      ESP Fit Center  159 is at   3.830412  1.401608  3.852460
      ESP Fit Center  160 is at   3.127882  0.564365  3.852460
      ESP Fit Center  161 is at   3.127882 -0.528577  3.852460
      ESP Fit Center  162 is at   3.127882  0.564365  2.814162
      ESP Fit Center  163 is at   7.091891  0.014984  3.704071
      ESP Fit Center  164 is at   6.409560  0.954133  3.704071
      ESP Fit Center  165 is at   7.702187  0.014984  2.864071
      ESP Fit Center  166 is at   7.328379  1.042014  2.864071
      ESP Fit Center  167 is at   6.381863  1.588485  2.864071
      ESP Fit Center  168 is at   7.328379  1.042014  1.825773
      ESP Fit Center  169 is at   7.091891  0.014984  0.985773
      ESP Fit Center  170 is at   2.956739 -1.111407  2.259892
      ESP Fit Center  171 is at   6.027382 -0.113695  0.299892
      ESP Fit Center  172 is at   3.805444 -1.728028  0.299892
      ESP Fit Center  173 is at   5.703205 -1.111407  0.299892
      ESP Fit Center  174 is at   5.309972 -0.113695 -0.417518
      ESP Fit Center  175 is at   3.839972 -0.962400 -0.417518
      ESP Fit Center  176 is at   4.819972 -0.962400 -0.417518
      ESP Fit Center  177 is at   2.492033  0.761835  2.070856
      ESP Fit Center  178 is at   4.490145  3.358898  1.020856
      ESP Fit Center  179 is at   3.492348  3.237743  1.020856
      ESP Fit Center  180 is at   5.766967  0.290971 -0.029144
      ESP Fit Center  181 is at   6.229354  1.698133  2.201904
      ESP Fit Center  182 is at   5.547023  2.637282  2.201904
      ESP Fit Center  183 is at   6.839650  1.698133  1.361904
      ESP Fit Center  184 is at   6.465842  2.725163  1.361904
      ESP Fit Center  185 is at   5.519326  3.271634  1.361904
      ESP Fit Center  186 is at   6.839650  1.698133  0.323606
      ESP Fit Center  187 is at   6.465842  2.725163  0.323606
      ESP Fit Center  188 is at   5.519326  3.271634  0.323606
      ESP Fit Center  189 is at   6.465842  0.671103  0.323606
      ESP Fit Center  190 is at   6.229354  1.698133 -0.516394
      ESP Fit Center  191 is at   5.547023  2.637282 -0.516394
      ESP Fit Center  192 is at   3.798939  1.806288  3.561957
      ESP Fit Center  193 is at   4.786418  1.806288  3.241106
      ESP Fit Center  194 is at   4.104087  2.745437  3.241106
      ESP Fit Center  195 is at   3.000052  2.386714  3.241106
      ESP Fit Center  196 is at   3.000052  1.225862  3.241106
      ESP Fit Center  197 is at   5.022906  2.833318  2.401106
      ESP Fit Center  198 is at   4.076390  3.379789  2.401106
      ESP Fit Center  199 is at   3.000052  3.190002  2.401106
      ESP Fit Center  200 is at   2.297522  2.352759  2.401106
      ESP Fit Center  201 is at   2.297522  1.259817  2.401106
      ESP Fit Center  202 is at   4.076390  3.379789  1.362808
      ESP Fit Center  203 is at   3.000052  3.190002  1.362808
      ESP Fit Center  204 is at   2.325484  1.513384 -2.030942
      ESP Fit Center  205 is at   5.321591  0.860570 -1.547161
      ESP Fit Center  206 is at   4.001267 -0.712931 -1.547161
      ESP Fit Center  207 is at   4.947783 -0.166460 -1.547161
      ESP Fit Center  208 is at   4.711295  0.860570 -2.387161
      ESP Fit Center  209 is at   4.028964  1.799719 -2.387161
      ESP Fit Center  210 is at   2.924929  1.440996 -2.387161
      ESP Fit Center  211 is at   2.924929  0.280144 -2.387161
      ESP Fit Center  212 is at   4.028964 -0.078579 -2.387161
      ESP Fit Center  213 is at   3.723816  0.860570 -2.708012
      ESP Fit Center  214 is at   3.812417  3.494311  0.832175
      ESP Fit Center  215 is at   4.731236  3.582192 -0.007825
      ESP Fit Center  216 is at   3.784720  4.128663 -0.007825
      ESP Fit Center  217 is at   2.708382  3.938876 -0.007825
      ESP Fit Center  218 is at   5.105044  2.555162 -1.046123
      ESP Fit Center  219 is at   4.731236  3.582192 -1.046123
      ESP Fit Center  220 is at   3.784720  4.128663 -1.046123
      ESP Fit Center  221 is at   2.708382  3.938876 -1.046123
      ESP Fit Center  222 is at   2.005852  3.101633 -1.046123
      ESP Fit Center  223 is at   4.494748  2.555162 -1.886123
      ESP Fit Center  224 is at   3.812417  3.494311 -1.886123
      ESP Fit Center  225 is at   2.708382  3.135588 -1.886123
      ESP Fit Center  226 is at   3.507269  2.555162 -2.206974
      ESP Fit Center  227 is at   1.983565  1.350008  1.960000
      ESP Fit Center  228 is at   1.983565  3.310008  0.000000
      ESP Fit Center  229 is at   1.459037  2.964341 -0.980000
      ESP Fit Center  230 is at   1.493565  2.198713 -1.697410
      ESP Fit Center  231 is at   1.003565  1.350008 -1.697410
      ESP Fit Center  232 is at   1.983565  1.350008 -1.960000
      ESP Fit Center  233 is at   1.774867 -2.084689  0.000000
      ESP Fit Center  234 is at   0.996740  0.909327 -1.818653
      ESP Fit Center  235 is at   1.914388 -0.547992  2.542937
      ESP Fit Center  236 is at   2.219536  0.391157  2.222086
      ESP Fit Center  237 is at   1.115501 -1.128418  2.222086
      ESP Fit Center  238 is at   2.219536 -1.487141  2.222086
      ESP Fit Center  239 is at   1.115501 -1.931706  1.382086
      ESP Fit Center  240 is at   2.191839 -2.121493  1.382086
      ESP Fit Center  241 is at   2.191839 -2.121493  0.343788
      ESP Fit Center  242 is at   3.138355 -1.575022  0.343788
      ESP Fit Center  243 is at   2.157863 -2.081227 -0.393170
      ESP Fit Center  244 is at   3.104379 -1.534756 -0.393170
      ESP Fit Center  245 is at   1.081525 -1.891440 -1.431468
      ESP Fit Center  246 is at   2.157863 -2.081227 -1.431468
      ESP Fit Center  247 is at   3.104379 -1.534756 -1.431468
      ESP Fit Center  248 is at   2.867891 -0.507726 -2.271468
      ESP Fit Center  249 is at   2.185560  0.431423 -2.271468
      ESP Fit Center  250 is at   1.081525  0.072700 -2.271468
      ESP Fit Center  251 is at   1.081525 -1.088152 -2.271468
      ESP Fit Center  252 is at   2.185560 -1.446875 -2.271468
      ESP Fit Center  253 is at   1.880412 -0.507726 -2.592319
      ESP Fit Center  254 is at  -1.744985 -0.512374 -1.050000
      ESP Fit Center  255 is at  -0.045331 -1.965752  1.204382
      ESP Fit Center  256 is at  -1.851896 -1.573074  0.364382
      ESP Fit Center  257 is at  -1.149366 -2.410317  0.364382
      ESP Fit Center  258 is at  -0.073028 -2.600104  0.364382
      ESP Fit Center  259 is at   0.873488 -2.053633  0.364382
      ESP Fit Center  260 is at  -1.851896 -1.573074 -0.673916
      ESP Fit Center  261 is at  -1.149366 -2.410317 -0.673916
      ESP Fit Center  262 is at  -0.073028 -2.600104 -0.673916
      ESP Fit Center  263 is at   0.873488 -2.053633 -0.673916
      ESP Fit Center  264 is at  -1.149366 -1.607029 -1.513916
      ESP Fit Center  265 is at  -0.045331 -1.965752 -1.513916
      ESP Fit Center  266 is at  -0.350479 -1.026603 -1.834767
      ESP Fit Center  267 is at  -1.886212  0.054398 -1.349522
      ESP Fit Center  268 is at   0.602684  0.600869 -2.189522
      ESP Fit Center  269 is at  -0.079647  1.540018 -2.189522
      ESP Fit Center  270 is at  -1.183682  1.181295 -2.189522
      ESP Fit Center  271 is at  -1.183682  0.020443 -2.189522
      ESP Fit Center  272 is at  -0.079647 -0.338280 -2.189522
      ESP Fit Center  273 is at  -0.384795  0.600869 -2.510373
      ESP Fit Center  274 is at  -0.821210  0.502038  4.013813
      ESP Fit Center  275 is at   0.241805  0.502038  3.771187
      ESP Fit Center  276 is at  -0.289702  1.422636  3.771187
      ESP Fit Center  277 is at  -1.352718  1.422636  3.771187
      ESP Fit Center  278 is at  -1.884225  0.502038  3.771187
      ESP Fit Center  279 is at  -1.352718 -0.418560  3.771187
      ESP Fit Center  280 is at  -0.289702 -0.418560  3.771187
      ESP Fit Center  281 is at   1.094277  0.502038  3.091363
      ESP Fit Center  282 is at  -2.659106  1.041693  3.091363
      ESP Fit Center  283 is at  -2.659106 -0.037617  3.091363
      ESP Fit Center  284 is at  -2.075587 -0.945591  3.091363
      ESP Fit Center  285 is at  -1.093812 -1.393952  3.091363
      ESP Fit Center  286 is at  -0.025488 -1.240350  3.091363
      ESP Fit Center  287 is at   0.790200 -0.533553  3.091363
      ESP Fit Center  288 is at  -2.973240  1.538401  2.108989
      ESP Fit Center  289 is at  -3.209783  0.502038  2.108989
      ESP Fit Center  290 is at  -2.973240 -0.534325  2.108989
      ESP Fit Center  291 is at  -2.310461 -1.365424  2.108989
      ESP Fit Center  292 is at  -1.352718 -1.826649  2.108989
      ESP Fit Center  293 is at  -0.289702 -1.826649  2.108989
      ESP Fit Center  294 is at   0.668041 -1.365424  2.108989
      ESP Fit Center  295 is at  -3.209783  0.502038  1.018637
      ESP Fit Center  296 is at  -2.973240 -0.534325  1.018637
      ESP Fit Center  297 is at  -2.310461 -1.365424  1.018637
      ESP Fit Center  298 is at  -1.352718 -1.826649  1.018637
      ESP Fit Center  299 is at  -2.659106 -0.037617  0.036263
      ESP Fit Center  300 is at  -2.075587 -0.945591  0.036263
      ESP Fit Center  301 is at   0.294074  3.956768  2.744285
      ESP Fit Center  302 is at  -1.027162  2.612439  4.259082
      ESP Fit Center  303 is at  -0.039683  2.612439  3.938231
      ESP Fit Center  304 is at  -0.722014  3.551588  3.938231
      ESP Fit Center  305 is at  -1.826049  3.192865  3.938231
      ESP Fit Center  306 is at  -1.826049  2.032013  3.938231
      ESP Fit Center  307 is at  -0.722014  1.673290  3.938231
      ESP Fit Center  308 is at  -0.749711  4.185940  3.098231
      ESP Fit Center  309 is at  -1.826049  3.996153  3.098231
      ESP Fit Center  310 is at  -2.528579  3.158910  3.098231
      ESP Fit Center  311 is at  -2.528579  2.065968  3.098231
      ESP Fit Center  312 is at   0.604087  2.438632  3.573641
      ESP Fit Center  313 is at   1.591566  2.438632  3.252790
      ESP Fit Center  314 is at   0.909235  3.377781  3.252790
      ESP Fit Center  315 is at   0.909235  1.499483  3.252790
      ESP Fit Center  316 is at   2.201862  2.438632  2.412790
      ESP Fit Center  317 is at   1.828054  3.465662  2.412790
      ESP Fit Center  318 is at   0.881538  4.012133  2.412790
      ESP Fit Center  319 is at   1.828054  1.411602  2.412790
      ESP Fit Center  320 is at   1.828054  3.465662  1.374492
      ESP Fit Center  321 is at   1.258021  3.163976  0.492038
      ESP Fit Center  322 is at   1.017479  4.139895  0.492038
      ESP Fit Center  323 is at   1.024268  3.941212 -0.875762
      ESP Fit Center  324 is at   0.077752  4.487683 -0.875762
      ESP Fit Center  325 is at   0.787780  2.914182 -1.715762
      ESP Fit Center  326 is at  -0.998586  2.333756 -1.715762
      ESP Fit Center  327 is at   0.105449  1.975033 -1.715762
      ESP Fit Center  328 is at  -0.199699  2.914182 -2.036613
      ESP Fit Center  329 is at   0.326326  4.214914  2.110261
      ESP Fit Center  330 is at  -0.356005  5.154063  2.110261
      ESP Fit Center  331 is at  -1.460040  4.795340  2.110261
      ESP Fit Center  332 is at   0.936622  4.214914  1.270261
      ESP Fit Center  333 is at   0.562814  5.241944  1.270261
      ESP Fit Center  334 is at  -0.383702  5.788415  1.270261
      ESP Fit Center  335 is at  -1.460040  5.598628  1.270261
      ESP Fit Center  336 is at   0.562814  5.241944  0.231963
      ESP Fit Center  337 is at  -0.383702  5.788415  0.231963
      ESP Fit Center  338 is at  -0.356005  5.154063 -0.608037
      ESP Fit Center  339 is at  -2.088160  3.907494  2.246343
      ESP Fit Center  340 is at  -3.151176  3.907494  2.246343
      ESP Fit Center  341 is at  -3.682683  2.986896  2.246343
      ESP Fit Center  342 is at  -3.151176  2.066298  2.246343
      ESP Fit Center  343 is at  -2.892270  4.882886  1.566519
      ESP Fit Center  344 is at  -3.874045  4.434525  1.566519
      ESP Fit Center  345 is at  -4.457564  3.526551  1.566519
      ESP Fit Center  346 is at  -4.457564  2.447241  1.566519
      ESP Fit Center  347 is at  -3.874045  1.539267  1.566519
      ESP Fit Center  348 is at  -4.771698  4.023259  0.584145
      ESP Fit Center  349 is at  -5.008241  2.986896  0.584145
      ESP Fit Center  350 is at  -4.771698  1.950533  0.584145
      ESP Fit Center  351 is at  -4.108919  1.119434  0.584145
      ESP Fit Center  352 is at  -3.151176  0.658209  0.584145
      ESP Fit Center  353 is at  -5.008241  2.986896 -0.506207
      ESP Fit Center  354 is at  -4.771698  1.950533 -0.506207
      ESP Fit Center  355 is at  -4.108919  1.119434 -0.506207
      ESP Fit Center  356 is at  -3.151176  0.658209 -0.506207
      ESP Fit Center  357 is at  -4.457564  2.447241 -1.488581
      ESP Fit Center  358 is at  -3.874045  1.539267 -1.488581
      ESP Fit Center  359 is at  -2.892270  1.090906 -1.488581
      ESP Fit Center  360 is at  -1.823946  1.244508 -1.488581
      ESP Fit Center  361 is at  -3.151176  2.066298 -2.168405
      ESP Fit Center  362 is at  -2.088160  2.066298 -2.168405
      ESP Fit Center  363 is at  -4.039357  5.896751  0.106889
      ESP Fit Center  364 is at  -3.593062  6.485839 -0.943111
      ESP Fit Center  365 is at  -4.039357  3.147859 -1.993111
      ESP Fit Center  366 is at  -2.466994  5.376332  1.308385
      ESP Fit Center  367 is at  -2.161846  6.315481  0.987534
      ESP Fit Center  368 is at  -3.265881  5.956758  0.987534
      ESP Fit Center  369 is at  -1.243027  6.403362  0.147534
      ESP Fit Center  370 is at  -2.189543  6.949833  0.147534
      ESP Fit Center  371 is at  -3.265881  6.760046  0.147534
      ESP Fit Center  372 is at  -0.869219  5.376332 -0.890764
      ESP Fit Center  373 is at  -1.243027  6.403362 -0.890764
      ESP Fit Center  374 is at  -2.189543  6.949833 -0.890764
      ESP Fit Center  375 is at  -3.265881  6.760046 -0.890764
      ESP Fit Center  376 is at  -4.731109  5.227785  0.327366
      ESP Fit Center  377 is at  -4.731109  6.031073 -0.512634
      ESP Fit Center  378 is at  -5.433639  5.193830 -0.512634
      ESP Fit Center  379 is at  -5.433639  4.100888 -0.512634
      ESP Fit Center  380 is at  -4.731109  6.031073 -1.550932
      ESP Fit Center  381 is at  -5.433639  5.193830 -1.550932
      ESP Fit Center  382 is at  -5.433639  4.100888 -1.550932
      ESP Fit Center  383 is at  -4.731109  3.263645 -1.550932
      ESP Fit Center  384 is at  -4.731109  5.227785 -2.390932
      ESP Fit Center  385 is at  -4.731109  4.066933 -2.390932
      ESP Fit Center  386 is at  -0.826838  5.241593 -0.892358
      ESP Fit Center  387 is at   0.465789  4.302444 -1.732358
      ESP Fit Center  388 is at   0.091981  5.329474 -1.732358
      ESP Fit Center  389 is at   0.465789  4.302444 -2.770656
      ESP Fit Center  390 is at   0.091981  5.329474 -2.770656
      ESP Fit Center  391 is at  -0.854535  2.728943 -2.770656
      ESP Fit Center  392 is at   0.091981  3.275414 -2.770656
      ESP Fit Center  393 is at  -0.826838  3.363295 -3.610656
      ESP Fit Center  394 is at  -4.143701  3.092657 -2.387286
      ESP Fit Center  395 is at  -3.441171  2.255414 -2.387286
      ESP Fit Center  396 is at  -2.364833  2.065627 -2.387286
      ESP Fit Center  397 is at  -4.143701  4.185599 -3.425584
      ESP Fit Center  398 is at  -4.143701  3.092657 -3.425584
      ESP Fit Center  399 is at  -3.441171  2.255414 -3.425584
      ESP Fit Center  400 is at  -2.364833  2.065627 -3.425584
      ESP Fit Center  401 is at  -1.418317  2.612098 -3.425584
      ESP Fit Center  402 is at  -3.441171  3.058702 -4.265584
      ESP Fit Center  403 is at  -2.337136  2.699979 -4.265584
      ESP Fit Center  404 is at  -2.002619  6.971281 -1.009092
      ESP Fit Center  405 is at  -3.065635  6.971281 -1.009092
      ESP Fit Center  406 is at  -0.618640  6.050683 -1.688916
      ESP Fit Center  407 is at  -0.922717  7.086274 -1.688916
      ESP Fit Center  408 is at  -1.738405  7.793071 -1.688916
      ESP Fit Center  409 is at  -2.806729  7.946673 -1.688916
      ESP Fit Center  410 is at  -3.788504  7.498312 -1.688916
      ESP Fit Center  411 is at  -4.372023  6.590338 -1.688916
      ESP Fit Center  412 is at  -0.145554  6.050683 -2.671290
      ESP Fit Center  413 is at  -0.382097  7.087046 -2.671290
      ESP Fit Center  414 is at  -1.044876  7.918145 -2.671290
      ESP Fit Center  415 is at  -2.002619  8.379370 -2.671290
      ESP Fit Center  416 is at  -3.065635  8.379370 -2.671290
      ESP Fit Center  417 is at  -4.023378  7.918145 -2.671290
      ESP Fit Center  418 is at  -4.686157  7.087046 -2.671290
      ESP Fit Center  419 is at  -4.922700  6.050683 -2.671290
      ESP Fit Center  420 is at  -4.686157  5.014320 -2.671290
      ESP Fit Center  421 is at  -1.044876  7.918145 -3.761642
      ESP Fit Center  422 is at  -2.002619  8.379370 -3.761642
      ESP Fit Center  423 is at  -3.065635  8.379370 -3.761642
      ESP Fit Center  424 is at  -4.023378  7.918145 -3.761642
      ESP Fit Center  425 is at  -4.686157  7.087046 -3.761642
      ESP Fit Center  426 is at  -4.922700  6.050683 -3.761642
      ESP Fit Center  427 is at  -4.686157  5.014320 -3.761642
      ESP Fit Center  428 is at  -4.023378  4.183221 -3.761642
      ESP Fit Center  429 is at  -2.806729  7.946673 -4.744016
      ESP Fit Center  430 is at  -3.788504  7.498312 -4.744016
      ESP Fit Center  431 is at  -4.372023  6.590338 -4.744016
      ESP Fit Center  432 is at  -4.372023  5.511028 -4.744016
      ESP Fit Center  433 is at  -1.895600  5.644545 -6.992485
      ESP Fit Center  434 is at  -3.891499  4.183502 -4.720801
      ESP Fit Center  435 is at  -3.188969  3.346259 -4.720801
      ESP Fit Center  436 is at  -2.112631  3.156472 -4.720801
      ESP Fit Center  437 is at  -3.891499  5.276444 -5.759099
      ESP Fit Center  438 is at  -3.891499  4.183502 -5.759099
      ESP Fit Center  439 is at  -3.188969  3.346259 -5.759099
      ESP Fit Center  440 is at  -2.112631  3.156472 -5.759099
      ESP Fit Center  441 is at  -1.166115  3.702943 -5.759099
      ESP Fit Center  442 is at  -3.188969  5.310399 -6.599099
      ESP Fit Center  443 is at  -3.188969  4.149547 -6.599099
      ESP Fit Center  444 is at  -2.084934  3.790824 -6.599099
      ESP Fit Center  445 is at  -2.390082  4.729973 -6.919950
      ESP Fit Center  446 is at  -1.979234  8.036607 -5.005182
      ESP Fit Center  447 is at  -3.055572  7.846820 -5.005182
      ESP Fit Center  448 is at  -1.032718  7.490136 -6.043480
      ESP Fit Center  449 is at  -1.979234  8.036607 -6.043480
      ESP Fit Center  450 is at  -3.055572  7.846820 -6.043480
      ESP Fit Center  451 is at  -3.758102  7.009577 -6.043480
      ESP Fit Center  452 is at  -3.758102  5.916635 -6.043480
      ESP Fit Center  453 is at  -1.269206  6.463106 -6.883480
      ESP Fit Center  454 is at  -1.951537  7.402255 -6.883480
      ESP Fit Center  455 is at  -3.055572  7.043532 -6.883480
      ESP Fit Center  456 is at  -3.055572  5.882680 -6.883480
      ESP Fit Center  457 is at  -2.256685  6.463106 -7.204331
      ESP Fit Center  458 is at   1.443157  5.521947 -3.944295
      ESP Fit Center  459 is at   1.724504  5.521947 -4.994295
      ESP Fit Center  460 is at  -1.120166  3.558413 -4.994295
      ESP Fit Center  461 is at   1.154453  6.505185 -6.044295
      ESP Fit Center  462 is at  -0.634317  7.322089 -6.044295
      ESP Fit Center  463 is at  -0.634317  3.721805 -6.044295
      ESP Fit Center  464 is at   0.993351  4.700090 -3.019875
      ESP Fit Center  465 is at   0.311020  3.760941 -3.019875
      ESP Fit Center  466 is at   1.603647  4.700090 -3.859875
      ESP Fit Center  467 is at  -0.793015  3.316376 -3.859875
      ESP Fit Center  468 is at   0.283323  3.126589 -3.859875
      ESP Fit Center  469 is at   1.229839  3.673060 -3.859875
      ESP Fit Center  470 is at   1.603647  4.700090 -4.898173
      ESP Fit Center  471 is at  -0.793015  3.316376 -4.898173
      ESP Fit Center  472 is at   0.283323  3.126589 -4.898173
      ESP Fit Center  473 is at   1.229839  3.673060 -4.898173
      ESP Fit Center  474 is at   1.517624  5.322573 -6.551438
      ESP Fit Center  475 is at   1.143816  6.349603 -6.551438
      ESP Fit Center  476 is at   0.197300  6.896074 -6.551438
      ESP Fit Center  477 is at  -0.879038  3.938859 -6.551438
      ESP Fit Center  478 is at   0.197300  3.749072 -6.551438
      ESP Fit Center  479 is at   1.143816  4.295543 -6.551438
      ESP Fit Center  480 is at   0.907328  5.322573 -7.391438
      ESP Fit Center  481 is at   0.224997  6.261722 -7.391438
      ESP Fit Center  482 is at  -0.879038  5.902999 -7.391438
      ESP Fit Center  483 is at  -0.879038  4.742147 -7.391438
      ESP Fit Center  484 is at   0.224997  4.383424 -7.391438
      ESP Fit Center  485 is at  -0.080151  5.322573 -7.712289
      ESP Fit Center  486 is at   0.114668  6.444608 -2.988008
      ESP Fit Center  487 is at   1.102147  6.444608 -3.308859
      ESP Fit Center  488 is at   0.419816  7.383757 -3.308859
      ESP Fit Center  489 is at   1.712443  6.444608 -4.148859
      ESP Fit Center  490 is at   1.338635  7.471638 -4.148859
      ESP Fit Center  491 is at   0.392119  8.018109 -4.148859
      ESP Fit Center  492 is at  -0.684219  7.828322 -4.148859
      ESP Fit Center  493 is at   1.712443  6.444608 -5.187157
      ESP Fit Center  494 is at   1.338635  7.471638 -5.187157
      ESP Fit Center  495 is at   0.392119  8.018109 -5.187157
      ESP Fit Center  496 is at  -0.684219  7.828322 -5.187157
      ESP Fit Center  497 is at   0.419816  7.383757 -6.027157
      ESP Fit Center  498 is at   8.639647 -5.119946  2.062541
      ESP Fit Center  499 is at   9.319022 -5.242467  1.100215
      ESP Fit Center  500 is at   9.319022 -1.583767  0.032115
      ESP Fit Center  501 is at   9.319022 -5.242467  0.032115
      ESP Fit Center  502 is at   8.639647 -5.119946 -0.930211
      ESP Fit Center  503 is at   8.380824 -4.314927 -1.596160
      ESP Fit Center  504 is at   7.554603 -1.111109 -0.413150
      ESP Fit Center  505 is at   6.594603 -1.368340 -0.413150
      ESP Fit Center  506 is at   8.899811 -2.053758 -1.373150
      ESP Fit Center  507 is at   8.068427 -1.449722 -1.373150
      ESP Fit Center  508 is at   7.040779 -1.449722 -1.373150
      ESP Fit Center  509 is at   6.209395 -2.053758 -1.373150
      ESP Fit Center  510 is at   5.891834 -3.031109 -1.373150
      ESP Fit Center  511 is at   6.209395 -4.008460 -1.373150
      ESP Fit Center  512 is at   7.040779 -4.612496 -1.373150
      ESP Fit Center  513 is at   8.514603 -3.031109 -2.075919
      ESP Fit Center  514 is at   8.034603 -2.199725 -2.075919
      ESP Fit Center  515 is at   7.074603 -2.199725 -2.075919
      ESP Fit Center  516 is at   6.594603 -3.031109 -2.075919
      ESP Fit Center  517 is at   7.074603 -3.862493 -2.075919
      ESP Fit Center  518 is at   8.034603 -3.862493 -2.075919
      ESP Fit Center  519 is at   7.554603 -3.031109 -2.333150
      ESP Fit Center  520 is at   9.914623 -3.408113  2.279127
      ESP Fit Center  521 is at   9.434623 -4.239497  2.279127
      ESP Fit Center  522 is at  10.617392 -3.408113  1.576358
      ESP Fit Center  523 is at  10.299831 -2.430762  1.576358
      ESP Fit Center  524 is at   9.468447 -4.989500  1.576358
      ESP Fit Center  525 is at  10.299831 -4.385464  1.576358
      ESP Fit Center  526 is at  10.874623 -3.408113  0.616358
      ESP Fit Center  527 is at  10.617392 -2.448113  0.616358
      ESP Fit Center  528 is at   9.914623 -1.745344  0.616358
      ESP Fit Center  529 is at   9.914623 -5.070882  0.616358
      ESP Fit Center  530 is at  10.617392 -4.368113  0.616358
      ESP Fit Center  531 is at  10.617392 -3.408113 -0.343642
      ESP Fit Center  532 is at  10.299831 -2.430762 -0.343642
      ESP Fit Center  533 is at   9.468447 -1.826726 -0.343642
      ESP Fit Center  534 is at   9.468447 -4.989500 -0.343642
      ESP Fit Center  535 is at  10.299831 -4.385464 -0.343642
      ESP Fit Center  536 is at   9.914623 -3.408113 -1.046411
      ESP Fit Center  537 is at   9.434623 -2.576729 -1.046411
      ESP Fit Center  538 is at   9.434623 -4.239497 -1.046411
      ESP Fit Center  539 is at   7.030536 -5.278040  2.317332
      ESP Fit Center  540 is at   7.990536 -5.278040  2.317332
      ESP Fit Center  541 is at   6.165328 -5.424007  1.614563
      ESP Fit Center  542 is at   6.996712 -6.028043  1.614563
      ESP Fit Center  543 is at   8.024360 -6.028043  1.614563
      ESP Fit Center  544 is at   8.855744 -5.424007  1.614563
      ESP Fit Center  545 is at   5.847767 -5.406656  0.654563
      ESP Fit Center  546 is at   6.550536 -6.109425  0.654563
      ESP Fit Center  547 is at   7.510536 -6.366656  0.654563
      ESP Fit Center  548 is at   8.470536 -6.109425  0.654563
      ESP Fit Center  549 is at   5.847767 -4.446656 -0.305437
      ESP Fit Center  550 is at   6.165328 -5.424007 -0.305437
      ESP Fit Center  551 is at   6.996712 -6.028043 -0.305437
      ESP Fit Center  552 is at   8.024360 -6.028043 -0.305437
      ESP Fit Center  553 is at   8.855744 -5.424007 -0.305437
      ESP Fit Center  554 is at   7.030536 -5.278040 -1.008206
      ESP Fit Center  555 is at   7.990536 -5.278040 -1.008206
      ESP Fit Center  556 is at   8.851251 -1.542258  3.172708
      ESP Fit Center  557 is at   9.612554 -2.556714  2.210382
      ESP Fit Center  558 is at   7.585501 -2.934253  4.585455
      ESP Fit Center  559 is at   8.545501 -2.934253  4.328224
      ESP Fit Center  560 is at   8.065501 -2.102869  4.328224
      ESP Fit Center  561 is at   7.105501 -3.765637  4.328224
      ESP Fit Center  562 is at   8.065501 -3.765637  4.328224
      ESP Fit Center  563 is at   9.248270 -2.934253  3.625455
      ESP Fit Center  564 is at   8.930709 -1.956902  3.625455
      ESP Fit Center  565 is at   8.099325 -1.352866  3.625455
      ESP Fit Center  566 is at   7.071677 -4.515640  3.625455
      ESP Fit Center  567 is at   8.099325 -4.515640  3.625455
      ESP Fit Center  568 is at   8.930709 -3.911604  3.625455
      ESP Fit Center  569 is at   9.505501 -2.934253  2.665455
      ESP Fit Center  570 is at   7.585501 -4.854253  2.665455
      ESP Fit Center  571 is at   8.545501 -4.597022  2.665455
      ESP Fit Center  572 is at   9.248270 -3.894253  2.665455
      ESP Fit Center  573 is at   8.123949 -0.691049  3.255297
      ESP Fit Center  574 is at   9.306718 -1.522433  2.552528
      ESP Fit Center  575 is at   8.989157 -0.545082  2.552528
      ESP Fit Center  576 is at   8.157773  0.058954  2.552528
      ESP Fit Center  577 is at   9.563949 -1.522433  1.592528
      ESP Fit Center  578 is at   9.306718 -0.562433  1.592528
      ESP Fit Center  579 is at   8.603949  0.140336  1.592528
      ESP Fit Center  580 is at   8.989157 -0.545082  0.632528
      ESP Fit Center  581 is at   8.157773  0.058954  0.632528
      ESP Fit Center  582 is at   7.130125  0.058954  0.632528
      ESP Fit Center  583 is at   8.123949 -0.691049 -0.070241
      ESP Fit Center  584 is at   7.163949 -0.691049 -0.070241
      ESP Fit Center  585 is at   5.084060 -4.645551  2.065066
      ESP Fit Center  586 is at   6.121693 -4.771543  2.065066
      ESP Fit Center  587 is at   4.223833 -4.051780  1.068172
      ESP Fit Center  588 is at   5.084060 -4.645551  1.068172
      ESP Fit Center  589 is at   4.107157 -2.603627  0.170002
      ESP Fit Center  590 is at   4.441626 -3.633017  0.170002
      ESP Fit Center  591 is at   5.317278 -4.269215  0.170002
      ESP Fit Center  592 is at   5.372510 -1.761937 -0.451551
      ESP Fit Center  593 is at   4.886560 -2.603627 -0.451551
      ESP Fit Center  594 is at   5.372510 -3.445317 -0.451551
      ESP Fit Center  595 is at   3.360392 -1.403425  4.093289
      ESP Fit Center  596 is at   4.640120 -4.213230  3.130963
      ESP Fit Center  597 is at   5.681440 -4.213230  3.130963
      ESP Fit Center  598 is at   5.602158 -2.159867  5.502299
      ESP Fit Center  599 is at   6.562158 -2.159867  5.245068
      ESP Fit Center  600 is at   6.082158 -1.328483  5.245068
      ESP Fit Center  601 is at   5.122158 -1.328483  5.245068
      ESP Fit Center  602 is at   4.642158 -2.159867  5.245068
      ESP Fit Center  603 is at   5.122158 -2.991251  5.245068
      ESP Fit Center  604 is at   6.082158 -2.991251  5.245068
      ESP Fit Center  605 is at   7.264927 -2.159867  4.542299
      ESP Fit Center  606 is at   6.947366 -1.182516  4.542299
      ESP Fit Center  607 is at   4.256950 -3.137218  4.542299
      ESP Fit Center  608 is at   5.088334 -3.741254  4.542299
      ESP Fit Center  609 is at   6.115982 -3.741254  4.542299
      ESP Fit Center  610 is at   6.947366 -3.137218  4.542299
      ESP Fit Center  611 is at   5.602158 -4.079867  3.582299
      ESP Fit Center  612 is at   3.180607 -2.330077  4.244239
      ESP Fit Center  613 is at   3.660607 -3.161461  4.244239
      ESP Fit Center  614 is at   2.795399 -1.352726  3.541470
      ESP Fit Center  615 is at   2.477838 -2.330077  3.541470
      ESP Fit Center  616 is at   2.795399 -3.307428  3.541470
      ESP Fit Center  617 is at   3.626783 -3.911464  3.541470
      ESP Fit Center  618 is at   2.477838 -1.370077  2.581470
      ESP Fit Center  619 is at   2.220607 -2.330077  2.581470
      ESP Fit Center  620 is at   2.477838 -3.290077  2.581470
      ESP Fit Center  621 is at   3.180607 -3.992846  2.581470
      ESP Fit Center  622 is at   4.140607 -4.250077  2.581470
      ESP Fit Center  623 is at   2.477838 -2.330077  1.621470
      ESP Fit Center  624 is at   2.795399 -3.307428  1.621470
      ESP Fit Center  625 is at   3.626783 -3.911464  1.621470
      ESP Fit Center  626 is at   3.180607 -2.330077  0.918701
      ESP Fit Center  627 is at   3.660607 -3.161461  0.918701
      ESP Fit Center  628 is at   6.135027 -0.418086  4.593716
      ESP Fit Center  629 is at   5.614366  1.863077  2.965441
      ESP Fit Center  630 is at   2.753879 -0.418086  2.965441
      ESP Fit Center  631 is at   4.629299  0.017894  5.253311
      ESP Fit Center  632 is at   5.589299  0.017894  4.996080
      ESP Fit Center  633 is at   5.109299  0.849278  4.996080
      ESP Fit Center  634 is at   4.149299  0.849278  4.996080
      ESP Fit Center  635 is at   3.669299  0.017894  4.996080
      ESP Fit Center  636 is at   4.149299 -0.813490  4.996080
      ESP Fit Center  637 is at   5.109299 -0.813490  4.996080
      ESP Fit Center  638 is at   5.974507  0.995245  4.293311
      ESP Fit Center  639 is at   5.143123  1.599281  4.293311
      ESP Fit Center  640 is at   4.115475  1.599281  4.293311
      ESP Fit Center  641 is at   3.284091  0.995245  4.293311
      ESP Fit Center  642 is at   2.966530  0.017894  4.293311
      ESP Fit Center  643 is at   3.284091 -0.959457  4.293311
      ESP Fit Center  644 is at   2.709299  0.017894  3.333311
      ESP Fit Center  645 is at   7.064412  0.014984  4.007691
      ESP Fit Center  646 is at   6.584412  0.846368  4.007691
      ESP Fit Center  647 is at   7.767181  0.014984  3.304922
      ESP Fit Center  648 is at   7.449620  0.992335  3.304922
      ESP Fit Center  649 is at   6.618236  1.596371  3.304922
      ESP Fit Center  650 is at   7.767181  0.974984  2.344922
      ESP Fit Center  651 is at   7.064412  1.677753  2.344922
      ESP Fit Center  652 is at   7.449620  0.992335  1.384922
      ESP Fit Center  653 is at   2.578669 -0.113695  2.676509
      ESP Fit Center  654 is at   6.081275 -0.113695 -0.116725
      ESP Fit Center  655 is at   3.788790 -1.779283 -0.116725
      ESP Fit Center  656 is at   4.815922 -0.955385 -0.738278
      ESP Fit Center  657 is at   4.757678  3.555372  1.554906
      ESP Fit Center  658 is at   5.815542  0.259753 -0.475520
      ESP Fit Center  659 is at   5.721875  2.529517  2.505524
      ESP Fit Center  660 is at   6.904644  1.698133  1.802755
      ESP Fit Center  661 is at   6.587083  2.675484  1.802755
      ESP Fit Center  662 is at   5.755699  3.279520  1.802755
      ESP Fit Center  663 is at   7.161875  1.698133  0.842755
      ESP Fit Center  664 is at   6.904644  2.658133  0.842755
      ESP Fit Center  665 is at   6.201875  3.360902  0.842755
      ESP Fit Center  666 is at   5.241875  3.618133  0.842755
      ESP Fit Center  667 is at   6.904644  1.698133 -0.117245
      ESP Fit Center  668 is at   6.587083  2.675484 -0.117245
      ESP Fit Center  669 is at   5.755699  3.279520 -0.117245
      ESP Fit Center  670 is at   6.587083  0.720782 -0.117245
      ESP Fit Center  671 is at   6.201875  1.698133 -0.820014
      ESP Fit Center  672 is at   5.721875  2.529517 -0.820014
      ESP Fit Center  673 is at   3.798939  1.806288  3.801957
      ESP Fit Center  674 is at   4.278939  2.637672  3.544726
      ESP Fit Center  675 is at   3.318939  2.637672  3.544726
      ESP Fit Center  676 is at   2.838939  1.806288  3.544726
      ESP Fit Center  677 is at   5.144147  2.783639  2.841957
      ESP Fit Center  678 is at   4.312763  3.387675  2.841957
      ESP Fit Center  679 is at   3.285115  3.387675  2.841957
      ESP Fit Center  680 is at   2.453731  2.783639  2.841957
      ESP Fit Center  681 is at   2.453731  0.828937  2.841957
      ESP Fit Center  682 is at   4.758939  3.469057  1.881957
      ESP Fit Center  683 is at   3.798939  3.726288  1.881957
      ESP Fit Center  684 is at   2.838939  3.469057  1.881957
      ESP Fit Center  685 is at   2.854824  2.415194 -2.374614
      ESP Fit Center  686 is at   2.334163  1.513384 -2.374614
      ESP Fit Center  687 is at   5.643816  0.860570 -1.028012
      ESP Fit Center  688 is at   3.723816 -1.059430 -1.028012
      ESP Fit Center  689 is at   4.683816 -0.802199 -1.028012
      ESP Fit Center  690 is at   5.386585 -0.099430 -1.028012
      ESP Fit Center  691 is at   5.386585  0.860570 -1.988012
      ESP Fit Center  692 is at   5.069024  1.837921 -1.988012
      ESP Fit Center  693 is at   4.237640 -0.720817 -1.988012
      ESP Fit Center  694 is at   5.069024 -0.116781 -1.988012
      ESP Fit Center  695 is at   4.683816  0.860570 -2.690781
      ESP Fit Center  696 is at   4.203816  1.691954 -2.690781
      ESP Fit Center  697 is at   3.243816  1.691954 -2.690781
      ESP Fit Center  698 is at   2.763816  0.860570 -2.690781
      ESP Fit Center  699 is at   3.243816  0.029186 -2.690781
      ESP Fit Center  700 is at   4.203816  0.029186 -2.690781
      ESP Fit Center  701 is at   3.723816  0.860570 -2.948012
      ESP Fit Center  702 is at   4.021093  4.136549  0.433026
      ESP Fit Center  703 is at   2.993445  4.136549  0.433026
      ESP Fit Center  704 is at   5.170038  3.515162 -0.526974
      ESP Fit Center  705 is at   4.467269  4.217931 -0.526974
      ESP Fit Center  706 is at   3.507269  4.475162 -0.526974
      ESP Fit Center  707 is at   2.547269  4.217931 -0.526974
      ESP Fit Center  708 is at   5.170038  2.555162 -1.486974
      ESP Fit Center  709 is at   4.852477  3.532513 -1.486974
      ESP Fit Center  710 is at   4.021093  4.136549 -1.486974
      ESP Fit Center  711 is at   2.993445  4.136549 -1.486974
      ESP Fit Center  712 is at   2.162061  3.532513 -1.486974
      ESP Fit Center  713 is at   4.467269  2.555162 -2.189743
      ESP Fit Center  714 is at   3.987269  3.386546 -2.189743
      ESP Fit Center  715 is at   3.027269  3.386546 -2.189743
      ESP Fit Center  716 is at   3.507269  2.555162 -2.446974
      ESP Fit Center  717 is at   1.442383  3.015596 -1.396617
      ESP Fit Center  718 is at   1.497615  2.191698 -2.018170
      ESP Fit Center  719 is at   1.011665  1.350008 -2.018170
      ESP Fit Center  720 is at   1.983565  1.350008 -2.240000
      ESP Fit Center  721 is at   1.001080 -2.281163  0.534050
      ESP Fit Center  722 is at   1.001080  0.901810 -2.162325
      ESP Fit Center  723 is at   1.914388 -0.547992  2.782937
      ESP Fit Center  724 is at   2.394388  0.283392  2.525706
      ESP Fit Center  725 is at   1.434388 -1.379376  2.525706
      ESP Fit Center  726 is at   2.394388 -1.379376  2.525706
      ESP Fit Center  727 is at   1.400564 -2.129379  1.822937
      ESP Fit Center  728 is at   0.954388 -2.210761  0.862937
      ESP Fit Center  729 is at   1.914388 -2.467992  0.862937
      ESP Fit Center  730 is at   2.874388 -2.210761  0.862937
      ESP Fit Center  731 is at   1.880412 -2.427726 -0.912319
      ESP Fit Center  732 is at   2.840412 -2.170495 -0.912319
      ESP Fit Center  733 is at   3.543181 -1.467726 -0.912319
      ESP Fit Center  734 is at   0.535204 -1.485077 -1.872319
      ESP Fit Center  735 is at   1.366588 -2.089113 -1.872319
      ESP Fit Center  736 is at   2.394236 -2.089113 -1.872319
      ESP Fit Center  737 is at   3.225620 -1.485077 -1.872319
      ESP Fit Center  738 is at   2.840412 -0.507726 -2.575088
      ESP Fit Center  739 is at   2.360412  0.323658 -2.575088
      ESP Fit Center  740 is at   1.400412  0.323658 -2.575088
      ESP Fit Center  741 is at   0.920412 -0.507726 -2.575088
      ESP Fit Center  742 is at   1.400412 -1.339110 -2.575088
      ESP Fit Center  743 is at   2.360412 -1.339110 -2.575088
      ESP Fit Center  744 is at   1.880412 -0.507726 -2.832319
      ESP Fit Center  745 is at  -1.800388 -0.528642 -1.496376
      ESP Fit Center  746 is at  -0.520660 -0.901810 -2.162325
      ESP Fit Center  747 is at  -0.864303 -2.607990  0.805233
      ESP Fit Center  748 is at   0.163345 -2.607990  0.805233
      ESP Fit Center  749 is at  -2.013248 -1.986603 -0.154767
      ESP Fit Center  750 is at  -1.310479 -2.689372 -0.154767
      ESP Fit Center  751 is at  -0.350479 -2.946603 -0.154767
      ESP Fit Center  752 is at   0.609521 -2.689372 -0.154767
      ESP Fit Center  753 is at  -2.013248 -1.026603 -1.114767
      ESP Fit Center  754 is at  -1.695687 -2.003954 -1.114767
      ESP Fit Center  755 is at  -0.864303 -2.607990 -1.114767
      ESP Fit Center  756 is at   0.163345 -2.607990 -1.114767
      ESP Fit Center  757 is at  -1.310479 -1.026603 -1.817536
      ESP Fit Center  758 is at  -0.830479 -1.857987 -1.817536
      ESP Fit Center  759 is at   0.129521 -1.857987 -1.817536
      ESP Fit Center  760 is at  -2.047564  0.600869 -1.790373
      ESP Fit Center  761 is at  -1.730003 -0.376482 -1.790373
      ESP Fit Center  762 is at   0.575205  0.600869 -2.493142
      ESP Fit Center  763 is at   0.095205  1.432253 -2.493142
      ESP Fit Center  764 is at  -0.864795  1.432253 -2.493142
      ESP Fit Center  765 is at  -1.344795  0.600869 -2.493142
      ESP Fit Center  766 is at  -0.864795 -0.230515 -2.493142
      ESP Fit Center  767 is at   0.095205 -0.230515 -2.493142
      ESP Fit Center  768 is at  -0.384795  0.600869 -2.750373
      ESP Fit Center  769 is at  -0.821210  0.502038  4.363813
      ESP Fit Center  770 is at   0.250304  0.502038  4.150676
      ESP Fit Center  771 is at  -0.285453  1.429996  4.150676
      ESP Fit Center  772 is at  -1.356967  1.429996  4.150676
      ESP Fit Center  773 is at  -1.892724  0.502038  4.150676
      ESP Fit Center  774 is at  -1.356967 -0.425920  4.150676
      ESP Fit Center  775 is at  -0.285453 -0.425920  4.150676
      ESP Fit Center  776 is at   1.158689  0.502038  3.543712
      ESP Fit Center  777 is at   0.893433  1.491987  3.543712
      ESP Fit Center  778 is at  -2.535853  1.491987  3.543712
      ESP Fit Center  779 is at  -2.801109  0.502038  3.543712
      ESP Fit Center  780 is at  -2.535853 -0.487911  3.543712
      ESP Fit Center  781 is at  -1.811159 -1.212605  3.543712
      ESP Fit Center  782 is at  -0.821210 -1.477861  3.543712
      ESP Fit Center  783 is at   0.168739 -1.212605  3.543712
      ESP Fit Center  784 is at   0.893433 -0.487911  3.543712
      ESP Fit Center  785 is at   1.765653  0.502038  2.635327
      ESP Fit Center  786 is at  -3.351544  1.039877  2.635327
      ESP Fit Center  787 is at  -3.351544 -0.035801  2.635327
      ESP Fit Center  788 is at  -2.914026 -1.018482  2.635327
      ESP Fit Center  789 is at  -2.114641 -1.738251  2.635327
      ESP Fit Center  790 is at  -1.091611 -2.070654  2.635327
      ESP Fit Center  791 is at  -0.021825 -1.958215  2.635327
      ESP Fit Center  792 is at   0.909739 -1.420376  2.635327
      ESP Fit Center  793 is at  -3.573535 -0.012461  1.563813
      ESP Fit Center  794 is at  -3.201818 -0.971972  1.563813
      ESP Fit Center  795 is at  -2.508587 -1.732410  1.563813
      ESP Fit Center  796 is at  -1.587466 -2.191074  1.563813
      ESP Fit Center  797 is at  -0.562859 -2.286018  1.563813
      ESP Fit Center  798 is at   0.426857 -2.004419  1.563813
      ESP Fit Center  799 is at  -3.351544 -0.035801  0.492299
      ESP Fit Center  800 is at  -2.914026 -1.018482  0.492299
      ESP Fit Center  801 is at  -2.114641 -1.738251  0.492299
      ESP Fit Center  802 is at  -2.535853 -0.487911 -0.416086
      ESP Fit Center  803 is at   0.579899  2.302463  3.856610
      ESP Fit Center  804 is at   0.318061  4.009292  3.190661
      ESP Fit Center  805 is at  -1.027162  2.612439  4.499082
      ESP Fit Center  806 is at  -0.067162  2.612439  4.241851
      ESP Fit Center  807 is at  -0.547162  3.443823  4.241851
      ESP Fit Center  808 is at  -1.507162  3.443823  4.241851
      ESP Fit Center  809 is at  -1.987162  2.612439  4.241851
      ESP Fit Center  810 is at  -1.507162  1.781055  4.241851
      ESP Fit Center  811 is at  -0.547162  1.781055  4.241851
      ESP Fit Center  812 is at  -0.513338  4.193826  3.539082
      ESP Fit Center  813 is at  -1.540986  4.193826  3.539082
      ESP Fit Center  814 is at  -2.372370  3.589790  3.539082
      ESP Fit Center  815 is at  -2.689931  2.612439  3.539082
      ESP Fit Center  816 is at  -1.987162  4.275208  2.579082
      ESP Fit Center  817 is at   1.564087  2.438632  3.556410
      ESP Fit Center  818 is at   1.084087  3.270016  3.556410
      ESP Fit Center  819 is at   1.084087  1.607248  3.556410
      ESP Fit Center  820 is at   2.266856  2.438632  2.853641
      ESP Fit Center  821 is at   1.949295  3.415983  2.853641
      ESP Fit Center  822 is at   1.117911  4.020019  2.853641
      ESP Fit Center  823 is at   1.949295  1.461281  2.853641
      ESP Fit Center  824 is at   2.266856  3.398632  1.893641
      ESP Fit Center  825 is at   1.564087  4.101401  1.893641
      ESP Fit Center  826 is at   1.949295  3.415983  0.933641
      ESP Fit Center  827 is at   1.266132  4.179189  1.026088
      ESP Fit Center  828 is at   1.266132  4.179189 -0.042012
      ESP Fit Center  829 is at   1.463070  3.874182 -0.356613
      ESP Fit Center  830 is at   1.145509  3.891533 -1.316613
      ESP Fit Center  831 is at   0.760301  2.914182 -2.019382
      ESP Fit Center  832 is at  -0.679699  2.082798 -2.019382
      ESP Fit Center  833 is at   0.280301  2.082798 -2.019382
      ESP Fit Center  834 is at  -0.181153  5.046298  2.413881
      ESP Fit Center  835 is at  -1.141153  5.046298  2.413881
      ESP Fit Center  836 is at   0.684055  5.192265  1.711112
      ESP Fit Center  837 is at  -0.147329  5.796301  1.711112
      ESP Fit Center  838 is at  -1.174977  5.796301  1.711112
      ESP Fit Center  839 is at  -2.006361  5.192265  1.711112
      ESP Fit Center  840 is at   1.001616  5.174914  0.751112
      ESP Fit Center  841 is at   0.298847  5.877683  0.751112
      ESP Fit Center  842 is at  -0.661153  6.134914  0.751112
      ESP Fit Center  843 is at   0.684055  5.192265 -0.208888
      ESP Fit Center  844 is at  -0.147329  5.796301 -0.208888
      ESP Fit Center  845 is at  -3.155425  3.914854  2.625832
      ESP Fit Center  846 is at  -3.691182  2.986896  2.625832
      ESP Fit Center  847 is at  -3.155425  2.058938  2.625832
      ESP Fit Center  848 is at  -2.619668  4.966795  2.018868
      ESP Fit Center  849 is at  -3.609617  4.701539  2.018868
      ESP Fit Center  850 is at  -4.334311  3.976845  2.018868
      ESP Fit Center  851 is at  -4.599567  2.986896  2.018868
      ESP Fit Center  852 is at  -4.334311  1.996947  2.018868
      ESP Fit Center  853 is at  -3.609617  1.272253  2.018868
      ESP Fit Center  854 is at  -3.913099  5.227185  1.110483
      ESP Fit Center  855 is at  -4.712484  4.507416  1.110483
      ESP Fit Center  856 is at  -5.150002  3.524735  1.110483
      ESP Fit Center  857 is at  -5.150002  2.449057  1.110483
      ESP Fit Center  858 is at  -4.712484  1.466376  1.110483
      ESP Fit Center  859 is at  -3.913099  0.746607  1.110483
      ESP Fit Center  860 is at  -5.371993  3.501395  0.038969
      ESP Fit Center  861 is at  -5.371993  2.472397  0.038969
      ESP Fit Center  862 is at  -5.000276  1.512886  0.038969
      ESP Fit Center  863 is at  -4.307045  0.752448  0.038969
      ESP Fit Center  864 is at  -3.385924  0.293784  0.038969
      ESP Fit Center  865 is at  -5.150002  2.449057 -1.032545
      ESP Fit Center  866 is at  -4.712484  1.466376 -1.032545
      ESP Fit Center  867 is at  -3.913099  0.746607 -1.032545
      ESP Fit Center  868 is at  -2.890069  0.414204 -1.032545
      ESP Fit Center  869 is at  -4.599567  2.986896 -1.940930
      ESP Fit Center  870 is at  -4.334311  1.996947 -1.940930
      ESP Fit Center  871 is at  -3.609617  1.272253 -1.940930
      ESP Fit Center  872 is at  -2.619668  1.006997 -1.940930
      ESP Fit Center  873 is at  -4.077170  5.940390  0.553265
      ESP Fit Center  874 is at  -2.466994  5.376332  1.548385
      ESP Fit Center  875 is at  -1.986994  6.207716  1.291154
      ESP Fit Center  876 is at  -2.946994  6.207716  1.291154
      ESP Fit Center  877 is at  -3.426994  5.376332  1.291154
      ESP Fit Center  878 is at  -1.121786  6.353683  0.588385
      ESP Fit Center  879 is at  -1.953170  6.957719  0.588385
      ESP Fit Center  880 is at  -2.980818  6.957719  0.588385
      ESP Fit Center  881 is at  -3.812202  6.353683  0.588385
      ESP Fit Center  882 is at  -0.804225  6.336332 -0.371615
      ESP Fit Center  883 is at  -1.506994  7.039101 -0.371615
      ESP Fit Center  884 is at  -2.466994  7.296332 -0.371615
      ESP Fit Center  885 is at  -3.426994  7.039101 -0.371615
      ESP Fit Center  886 is at  -4.412222  5.478743  0.630986
      ESP Fit Center  887 is at  -4.892222  4.647359  0.630986
      ESP Fit Center  888 is at  -4.446046  6.228746 -0.071783
      ESP Fit Center  889 is at  -5.277430  5.624710 -0.071783
      ESP Fit Center  890 is at  -5.594991  4.647359 -0.071783
      ESP Fit Center  891 is at  -4.892222  6.310128 -1.031783
      ESP Fit Center  892 is at  -5.594991  5.607359 -1.031783
      ESP Fit Center  893 is at  -5.852222  4.647359 -1.031783
      ESP Fit Center  894 is at  -5.594991  3.687359 -1.031783
      ESP Fit Center  895 is at  -5.277430  5.624710 -1.991783
      ESP Fit Center  896 is at  -5.594991  4.647359 -1.991783
      ESP Fit Center  897 is at  -5.277430  3.670008 -1.991783
      ESP Fit Center  898 is at   0.213222  5.279795 -1.291507
      ESP Fit Center  899 is at   0.788014  4.302444 -2.251507
      ESP Fit Center  900 is at   0.530783  5.262444 -2.251507
      ESP Fit Center  901 is at   0.530783  3.342444 -2.251507
      ESP Fit Center  902 is at  -0.618162  2.721057 -3.211507
      ESP Fit Center  903 is at  -4.562284  3.639128 -2.906435
      ESP Fit Center  904 is at  -4.305053  2.679128 -2.906435
      ESP Fit Center  905 is at  -3.602284  1.976359 -2.906435
      ESP Fit Center  906 is at  -2.642284  1.719128 -2.906435
      ESP Fit Center  907 is at  -1.682284  1.976359 -2.906435
      ESP Fit Center  908 is at  -4.305053  3.639128 -3.866435
      ESP Fit Center  909 is at  -3.987492  2.661777 -3.866435
      ESP Fit Center  910 is at  -3.156108  2.057741 -3.866435
      ESP Fit Center  911 is at  -2.128460  2.057741 -3.866435
      ESP Fit Center  912 is at  -1.297076  2.661777 -3.866435
      ESP Fit Center  913 is at  -3.122284  2.807744 -4.569204
      ESP Fit Center  914 is at  -2.162284  2.807744 -4.569204
      ESP Fit Center  915 is at  -0.554228  6.050683 -1.236567
      ESP Fit Center  916 is at  -0.819484  7.040632 -1.236567
      ESP Fit Center  917 is at  -1.544178  7.765326 -1.236567
      ESP Fit Center  918 is at  -2.534127  8.030582 -1.236567
      ESP Fit Center  919 is at  -3.524076  7.765326 -1.236567
      ESP Fit Center  920 is at  -4.248770  7.040632 -1.236567
      ESP Fit Center  921 is at   0.052736  6.050683 -2.144952
      ESP Fit Center  922 is at  -0.170910  7.102855 -2.144952
      ESP Fit Center  923 is at  -0.803178  7.973097 -2.144952
      ESP Fit Center  924 is at  -1.734742  8.510936 -2.144952
      ESP Fit Center  925 is at  -2.804528  8.623375 -2.144952
      ESP Fit Center  926 is at  -3.827558  8.290972 -2.144952
      ESP Fit Center  927 is at  -4.626943  7.571203 -2.144952
      ESP Fit Center  928 is at  -5.064461  6.588522 -2.144952
      ESP Fit Center  929 is at  -0.464902  7.937031 -3.216466
      ESP Fit Center  930 is at  -1.286060  8.557140 -3.216466
      ESP Fit Center  931 is at  -2.275776  8.838739 -3.216466
      ESP Fit Center  932 is at  -3.300383  8.743795 -3.216466
      ESP Fit Center  933 is at  -4.221504  8.285131 -3.216466
      ESP Fit Center  934 is at  -4.914735  7.524693 -3.216466
      ESP Fit Center  935 is at  -5.286452  6.565182 -3.216466
      ESP Fit Center  936 is at  -5.286452  5.536184 -3.216466
      ESP Fit Center  937 is at  -4.914735  4.576673 -3.216466
      ESP Fit Center  938 is at  -1.734742  8.510936 -4.287980
      ESP Fit Center  939 is at  -2.804528  8.623375 -4.287980
      ESP Fit Center  940 is at  -3.827558  8.290972 -4.287980
      ESP Fit Center  941 is at  -4.626943  7.571203 -4.287980
      ESP Fit Center  942 is at  -5.064461  6.588522 -4.287980
      ESP Fit Center  943 is at  -5.064461  5.512844 -4.287980
      ESP Fit Center  944 is at  -4.626943  4.530163 -4.287980
      ESP Fit Center  945 is at  -4.248770  7.040632 -5.196365
      ESP Fit Center  946 is at  -4.514026  6.050683 -5.196365
      ESP Fit Center  947 is at  -4.235427  5.644545 -5.426535
      ESP Fit Center  948 is at  -1.895600  5.644545 -7.292485
      ESP Fit Center  949 is at  -4.310082  4.729973 -5.239950
      ESP Fit Center  950 is at  -4.052851  3.769973 -5.239950
      ESP Fit Center  951 is at  -3.350082  3.067204 -5.239950
      ESP Fit Center  952 is at  -2.390082  2.809973 -5.239950
      ESP Fit Center  953 is at  -1.430082  3.067204 -5.239950
      ESP Fit Center  954 is at  -4.052851  4.729973 -6.199950
      ESP Fit Center  955 is at  -3.735290  3.752622 -6.199950
      ESP Fit Center  956 is at  -2.903906  3.148586 -6.199950
      ESP Fit Center  957 is at  -1.876258  3.148586 -6.199950
      ESP Fit Center  958 is at  -3.350082  4.729973 -6.902719
      ESP Fit Center  959 is at  -2.870082  3.898589 -6.902719
      ESP Fit Center  960 is at  -1.910082  3.898589 -6.902719
      ESP Fit Center  961 is at  -2.390082  4.729973 -7.159950
      ESP Fit Center  962 is at  -1.296685  8.125875 -5.524331
      ESP Fit Center  963 is at  -2.256685  8.383106 -5.524331
      ESP Fit Center  964 is at  -3.216685  8.125875 -5.524331
      ESP Fit Center  965 is at  -3.919454  7.423106 -5.524331
      ESP Fit Center  966 is at  -4.176685  6.463106 -5.524331
      ESP Fit Center  967 is at  -0.911477  7.440457 -6.484331
      ESP Fit Center  968 is at  -1.742861  8.044493 -6.484331
      ESP Fit Center  969 is at  -2.770509  8.044493 -6.484331
      ESP Fit Center  970 is at  -3.601893  7.440457 -6.484331
      ESP Fit Center  971 is at  -3.919454  6.463106 -6.484331
      ESP Fit Center  972 is at  -1.296685  6.463106 -7.187100
      ESP Fit Center  973 is at  -1.776685  7.294490 -7.187100
      ESP Fit Center  974 is at  -2.736685  7.294490 -7.187100
      ESP Fit Center  975 is at  -3.216685  6.463106 -7.187100
      ESP Fit Center  976 is at  -2.736685  5.631722 -7.187100
      ESP Fit Center  977 is at  -2.256685  6.463106 -7.444331
      ESP Fit Center  978 is at   1.500900  5.521947 -3.497919
      ESP Fit Center  979 is at   1.964331  5.521947 -4.460245
      ESP Fit Center  980 is at   1.964331  5.521947 -5.528345
      ESP Fit Center  981 is at  -0.896156  3.240784 -5.528345
      ESP Fit Center  982 is at   1.732615  4.506734 -5.528345
      ESP Fit Center  983 is at   0.403987  7.228776 -6.490671
      ESP Fit Center  984 is at  -0.642535  7.379244 -6.490671
      ESP Fit Center  985 is at   0.965872  4.700090 -2.716255
      ESP Fit Center  986 is at   0.485872  5.531474 -2.716255
      ESP Fit Center  987 is at   1.668641  4.700090 -3.419024
      ESP Fit Center  988 is at   0.519696  3.118703 -3.419024
      ESP Fit Center  989 is at   1.351080  3.722739 -3.419024
      ESP Fit Center  990 is at   1.925872  4.700090 -4.379024
      ESP Fit Center  991 is at  -0.954128  3.037321 -4.379024
      ESP Fit Center  992 is at   0.005872  2.780090 -4.379024
      ESP Fit Center  993 is at   0.965872  3.037321 -4.379024
      ESP Fit Center  994 is at   1.668641  3.740090 -4.379024
      ESP Fit Center  995 is at  -0.507952  3.118703 -5.339024
      ESP Fit Center  996 is at   0.519696  3.118703 -5.339024
      ESP Fit Center  997 is at   1.351080  3.722739 -5.339024
      ESP Fit Center  998 is at   1.839849  5.322573 -6.032289
      ESP Fit Center  999 is at   0.879849  3.659804 -6.032289
      ESP Fit Center 1000 is at   1.582618  4.362573 -6.032289
      ESP Fit Center 1001 is at   1.582618  5.322573 -6.992289
      ESP Fit Center 1002 is at   1.265057  6.299924 -6.992289
      ESP Fit Center 1003 is at   0.433673  6.903960 -6.992289
      ESP Fit Center 1004 is at  -0.593975  6.903960 -6.992289
      ESP Fit Center 1005 is at  -1.425359  4.345222 -6.992289
      ESP Fit Center 1006 is at  -0.593975  3.741186 -6.992289
      ESP Fit Center 1007 is at   0.433673  3.741186 -6.992289
      ESP Fit Center 1008 is at   1.265057  4.345222 -6.992289
      ESP Fit Center 1009 is at   0.879849  5.322573 -7.695058
      ESP Fit Center 1010 is at   0.399849  6.153957 -7.695058
      ESP Fit Center 1011 is at  -0.560151  6.153957 -7.695058
      ESP Fit Center 1012 is at  -1.040151  5.322573 -7.695058
      ESP Fit Center 1013 is at  -0.560151  4.491189 -7.695058
      ESP Fit Center 1014 is at   0.399849  4.491189 -7.695058
      ESP Fit Center 1015 is at  -0.080151  5.322573 -7.952289
      ESP Fit Center 1016 is at   1.074668  6.444608 -3.005239
      ESP Fit Center 1017 is at   0.594668  7.275992 -3.005239
      ESP Fit Center 1018 is at   1.777437  6.444608 -3.708008
      ESP Fit Center 1019 is at   1.459876  7.421959 -3.708008
      ESP Fit Center 1020 is at   0.628492  8.025995 -3.708008
      ESP Fit Center 1021 is at  -0.399156  8.025995 -3.708008
      ESP Fit Center 1022 is at   2.034668  6.444608 -4.668008
      ESP Fit Center 1023 is at   1.777437  7.404608 -4.668008
      ESP Fit Center 1024 is at   1.074668  8.107377 -4.668008
      ESP Fit Center 1025 is at   0.114668  8.364608 -4.668008
      ESP Fit Center 1026 is at  -0.845332  8.107377 -4.668008
      ESP Fit Center 1027 is at   1.777437  6.444608 -5.628008
      ESP Fit Center 1028 is at   1.459876  7.421959 -5.628008
      ESP Fit Center 1029 is at   0.628492  8.025995 -5.628008
      ESP Fit Center 1030 is at  -0.399156  8.025995 -5.628008
      ESP Fit Center 1031 is at   0.594668  7.275992 -6.330777
      ESP Fit Center 1032 is at   8.653269 -5.149776  2.475353
      ESP Fit Center 1033 is at   9.466275 -4.445302  2.475353
      ESP Fit Center 1034 is at   9.415444 -5.363376  1.599410
      ESP Fit Center 1035 is at   9.415444 -1.462858 -0.467080
      ESP Fit Center 1036 is at   8.415237 -0.981184 -0.467080
      ESP Fit Center 1037 is at   5.612720 -4.495429 -0.467080
      ESP Fit Center 1038 is at   9.415444 -5.363376 -0.467080
      ESP Fit Center 1039 is at   9.466275 -2.380932 -1.343023
      ESP Fit Center 1040 is at   6.609912 -4.855985 -1.343023
      ESP Fit Center 1041 is at   7.588458 -5.302873 -1.343023
      ESP Fit Center 1042 is at   8.653269 -5.149776 -1.343023
      ESP Fit Center 1043 is at   9.466275 -4.445302 -1.343023
      ESP Fit Center 1044 is at   9.128264 -2.019778 -1.493150
      ESP Fit Center 1045 is at   8.331685 -1.329538 -1.493150
      ESP Fit Center 1046 is at   7.288387 -1.179534 -1.493150
      ESP Fit Center 1047 is at   6.329611 -1.617393 -1.493150
[...]
 1330 Fit       0.003066
 1331 Fit       0.001118
 1332 Fit      -0.002599
 1333 Fit      -0.005089
 1334 Fit       0.005223
 1335 Fit       0.002862
 1336 Fit      -0.002587
 1337 Fit      -0.008104
 1338 Fit      -0.010833
 1339 Fit       0.003668
 1340 Fit       0.005022
 1341 Fit       0.008785
 1342 Fit       0.007691
 1343 Fit       0.008654
 1344 Fit       0.005464
 1345 Fit       0.002923
 1346 Fit       0.006085
 1347 Fit       0.005665
 1348 Fit       0.007973
 1349 Fit       0.004777
 1350 Fit       0.009238
 1351 Fit       0.008501
 1352 Fit       0.007191
 1353 Fit       0.003482
 1354 Fit       0.008571
 1355 Fit       0.008263
 1356 Fit       0.007849
 1357 Fit       0.007555
 1358 Fit       0.006432
 1359 Fit      -0.015354
 1360 Fit      -0.021008
 1361 Fit      -0.019865
 1362 Fit      -0.007670
 1363 Fit      -0.015575
 1364 Fit      -0.020719
 1365 Fit      -0.023794
 1366 Fit      -0.026070
 1367 Fit      -0.008783
 1368 Fit      -0.014011
 1369 Fit      -0.017648
 1370 Fit      -0.020909
 1371 Fit      -0.024129
 1372 Fit      -0.028330
 1373 Fit      -0.010302
 1374 Fit      -0.015086
 1375 Fit      -0.019738
 1376 Fit      -0.024475
 1377 Fit      -0.030360
 1378 Fit      -0.009087
 1379 Fit      -0.015478
 1380 Fit      -0.021125
 1381 Fit      -0.025723
 1382 Fit      -0.028061
 1383 Fit      -0.005280
 1384 Fit      -0.012697
 1385 Fit      -0.018729
 1386 Fit      -0.021905
 1387 Fit      -0.019279
 1388 Fit      -0.002947
 1389 Fit      -0.010177
 1390 Fit      -0.015204
 1391 Fit      -0.014290
 1392 Fit      -0.004610
 1393 Fit      -0.003583
 1394 Fit       0.004493
 1395 Fit      -0.000747
 1396 Fit       0.008229
 1397 Fit       0.003028
 1398 Fit       0.000079
 1399 Fit      -0.002071
 1400 Fit       0.003319
 1401 Fit      -0.002915
 1402 Fit      -0.005692
 1403 Fit      -0.005951
 1404 Fit      -0.003618
 1405 Fit      -0.003544
 1406 Fit      -0.005785
 1407 Fit      -0.005261
 1408 Fit      -0.002894
 1409 Fit      -0.002695
 1410 Fit      -0.007051
 1411 Fit      -0.003365
 1412 Fit      -0.003094
 1413 Fit       0.006788
 1414 Fit       0.009888
 1415 Fit       0.005501
 1416 Fit       0.009074
 1417 Fit       0.008683
 1418 Fit      -0.002210
 1419 Fit      -0.004429
 1420 Fit      -0.007277
 1421 Fit      -0.005997
 1422 Fit       0.000168
 1423 Fit       0.000425
 1424 Fit       0.001975
 1425 Fit       0.002740
 1426 Fit       0.004947
 1427 Fit       0.008508
 1428 Fit       0.007974
 1429 Fit      -0.006750
 1430 Fit      -0.011201
 1431 Fit      -0.011781
 1432 Fit      -0.010778
 1433 Fit      -0.008716
 1434 Fit      -0.001730
 1435 Fit      -0.010364
 1436 Fit      -0.015176
 1437 Fit      -0.016544
 1438 Fit      -0.015958
 1439 Fit      -0.015226
 1440 Fit      -0.014996
 1441 Fit      -0.014055
 1442 Fit      -0.013492
 1443 Fit      -0.015640
 1444 Fit      -0.015550
 1445 Fit      -0.015148
 1446 Fit      -0.015762
 1447 Fit      -0.017302
 1448 Fit      -0.018301
 1449 Fit      -0.016695
 1450 Fit      -0.011260
 1451 Fit      -0.009748
 1452 Fit      -0.010437
 1453 Fit      -0.010969
 1454 Fit      -0.012856
 1455 Fit      -0.015902
 1456 Fit      -0.018520
 1457 Fit      -0.018655
 1458 Fit      -0.014990
 1459 Fit      -0.007642
 1460 Fit      -0.001797
 1461 Fit      -0.003082
 1462 Fit      -0.005595
 1463 Fit      -0.009661
 1464 Fit      -0.013555
 1465 Fit      -0.014744
 1466 Fit      -0.011348
 1467 Fit      -0.003008
 1468 Fit      -0.006326
 1469 Fit      -0.002708
 1470 Fit       0.008128
 1471 Fit      -0.001304
 1472 Fit       0.004454
 1473 Fit       0.007672
 1474 Fit       0.008905
 1475 Fit       0.000957
 1476 Fit       0.003270
 1477 Fit       0.006186
 1478 Fit       0.007949
 1479 Fit       0.008608
 1480 Fit       0.005170
 1481 Fit       0.006991
 1482 Fit       0.008366
 1483 Fit       0.007389
 1484 Fit       0.003859
 1485 Fit       0.002758
 1486 Fit       0.001553
 1487 Fit      -0.001163
 1488 Fit       0.006418
 1489 Fit       0.005755
 1490 Fit       0.004374
 1491 Fit       0.002507
 1492 Fit       0.001979
 1493 Fit       0.007706
 1494 Fit       0.006791
 1495 Fit       0.005633
 1496 Fit       0.007566
 1497 Fit       0.004209
 1498 Fit       0.004386
 1499 Fit       0.004017
 1500 Fit       0.005194
 1501 Fit       0.004260
 1502 Fit       0.003748
 1503 Fit       0.007998
 1504 Fit       0.006325
 1505 Fit       0.004649
 1506 Fit       0.006492
 1507 Fit       0.008722
 1508 Fit       0.007010
 1509 Fit       0.009703
 1510 Fit       0.008903
 1511 Fit       0.005611
 1512 Fit       0.008908
 1513 Fit       0.008414
 1514 Fit       0.008136
 1515 Fit       0.007348
 1516 Fit       0.007252
 1517 Fit       0.006549
 1518 Fit       0.005804
 1519 Fit       0.005780
 1520 Fit       0.005216
 1521 Fit       0.006015
 1522 Fit       0.005259
 1523 Fit       0.004935
 1524 Fit       0.008696
 1525 Fit       0.007443
 1526 Fit       0.006931
 1527 Fit       0.006607
 1528 Fit       0.007341
 1529 Fit       0.006873
 1530 Fit       0.007657
 1531 Fit       0.008333
 1532 Fit       0.008177
 1533 Fit       0.007841
 1534 Fit       0.007994
 1535 Fit       0.000364
 1536 Fit      -0.004883
 1537 Fit       0.003593
 1538 Fit       0.002762
 1539 Fit      -0.000082
 1540 Fit      -0.006921
 1541 Fit       0.004081
 1542 Fit       0.004263
 1543 Fit       0.003534
 1544 Fit       0.001556
 1545 Fit      -0.001118
 1546 Fit       0.004065
 1547 Fit       0.003870
 1548 Fit       0.003588
 1549 Fit       0.004807
 1550 Fit       0.006797
 1551 Fit       0.004296
 1552 Fit       0.005279
 1553 Fit       0.005385
 1554 Fit      -0.015477
 1555 Fit      -0.008360
 1556 Fit       0.000766
 1557 Fit       0.001736
 1558 Fit       0.002928
 1559 Fit       0.003668
 1560 Fit      -0.003416
 1561 Fit      -0.001038
 1562 Fit       0.000357
 1563 Fit       0.001677
 1564 Fit       0.004798
 1565 Fit       0.000331
 1566 Fit      -0.010600
 1567 Fit       0.003869
 1568 Fit       0.004131
 1569 Fit       0.002368
 1570 Fit      -0.002159
 1571 Fit      -0.006112
 1572 Fit      -0.006216
 1573 Fit      -0.003926
 1574 Fit       0.002644
 1575 Fit       0.003259
 1576 Fit       0.001605
 1577 Fit      -0.000657
 1578 Fit      -0.000302
 1579 Fit       0.001187
 1580 Fit       0.001849
 1581 Fit       0.009022
 1582 Fit       0.008160
 1583 Fit       0.009502
 1584 Fit       0.006610
 1585 Fit       0.007598
 1586 Fit       0.008410
 1587 Fit       0.009214
 1588 Fit       0.004678
 1589 Fit       0.006359
 1590 Fit       0.006668
 1591 Fit       0.007222
 1592 Fit       0.007452
 1593 Fit       0.003878
 1594 Fit       0.005541
 1595 Fit       0.005189
 1596 Fit       0.005552
 1597 Fit       0.003975
 1598 Fit       0.003365
 1599 Fit       0.000589
 1600 Fit      -0.002854
 1601 Fit       0.001255
 1602 Fit       0.002862
 1603 Fit      -0.011126
 1604 Fit      -0.002913
 1605 Fit       0.000712
 1606 Fit       0.002193
 1607 Fit       0.002663
 1608 Fit      -0.009506
 1609 Fit      -0.002903
 1610 Fit       0.000298
 1611 Fit       0.001600
 1612 Fit       0.001922
 1613 Fit      -0.008715
 1614 Fit      -0.003187
 1615 Fit      -0.000295
 1616 Fit       0.000734
 1617 Fit       0.013532
 1618 Fit       0.010444
 1619 Fit       0.010373
 1620 Fit      -0.000151
 1621 Fit       0.009916
 1622 Fit       0.009112
 1623 Fit       0.010967
 1624 Fit       0.007745
 1625 Fit       0.007821
 1626 Fit       0.008901
 1627 Fit       0.010116
 1628 Fit       0.012125
 1629 Fit       0.004769
 1630 Fit       0.006296
 1631 Fit       0.007688
 1632 Fit       0.009303
 1633 Fit       0.001669
 1634 Fit       0.004401
 1635 Fit       0.006136
 1636 Fit       0.007869
 1637 Fit       0.011442
 1638 Fit       0.013836
 1639 Fit       0.010513
 1640 Fit       0.011773
 1641 Fit       0.009635
 1642 Fit       0.010545
 1643 Fit       0.012300
 1644 Fit       0.008208
 1645 Fit       0.008796
 1646 Fit       0.007917
 1647 Fit       0.005754
 1648 Fit      -0.007901
 1649 Fit      -0.013530
 1650 Fit      -0.013107
 1651 Fit      -0.016446
 1652 Fit      -0.017022
 1653 Fit      -0.020908
 1654 Fit      -0.019294
 1655 Fit      -0.018097
 1656 Fit      -0.018411
 1657 Fit      -0.019595
 1658 Fit       0.007081
 1659 Fit       0.005369
 1660 Fit       0.004662
 1661 Fit       0.001519
 1662 Fit       0.000741
 1663 Fit      -0.004435
 1664 Fit       0.009464
 1665 Fit       0.010437
 1666 Fit       0.011676
 1667 Fit       0.010990
 1668 Fit       0.008377
 1669 Fit       0.007263
 1670 Fit       0.008453
 1671 Fit       0.011506
 1672 Fit       0.012995
 1673 Fit       0.004972
 1674 Fit       0.005080
 1675 Fit       0.006940
 1676 Fit       0.009645
 1677 Fit       0.002996
 1678 Fit       0.004982
 1679 Fit       0.000921
 1680 Fit       0.001354
 1681 Fit       0.001800
 1682 Fit      -0.002515
 1683 Fit      -0.000446
 1684 Fit      -0.000518
 1685 Fit      -0.002351
 1686 Fit      -0.001798
 1687 Fit      -0.003389
 1688 Fit      -0.007687
 1689 Fit      -0.007802
 1690 Fit       0.013976
 1691 Fit       0.014576
 1692 Fit       0.013451
 1693 Fit       0.012933
 1694 Fit       0.010260
 1695 Fit       0.012428
 1696 Fit       0.010906
 1697 Fit       0.009087
 1698 Fit       0.007661
 1699 Fit       0.009685
 1700 Fit       0.012845
 1701 Fit       0.011549
 1702 Fit       0.010295
 1703 Fit       0.007839
 1704 Fit       0.004552
 1705 Fit       0.004178
 1706 Fit       0.012825
 1707 Fit       0.002323
 1708 Fit      -0.002379
 1709 Fit       0.000851
 1710 Fit       0.014002
 1711 Fit       0.013270
 1712 Fit       0.013087
 1713 Fit       0.013458
 1714 Fit       0.013341
 1715 Fit       0.013919
 1716 Fit       0.013438
 1717 Fit       0.013927
 1718 Fit       0.012528
 1719 Fit      -0.001882
 1720 Fit       0.013301
 1721 Fit       0.002702
 1722 Fit       0.013399
 1723 Fit       0.012930
 1724 Fit       0.013790
 1725 Fit       0.012917
 1726 Fit       0.012787
 1727 Fit       0.013306
 1728 Fit       0.011746
 1729 Fit       0.012329
 1730 Fit       0.012927
 1731 Fit       0.014177
 1732 Fit       0.010044
 1733 Fit       0.010558
 1734 Fit       0.012308
 1735 Fit       0.014156
 1736 Fit       0.006711
 1737 Fit       0.011085
 1738 Fit       0.011021
 1739 Fit       0.008890
 1740 Fit       0.006080
 1741 Fit       0.012723
 1742 Fit       0.011300
 1743 Fit       0.010075
 1744 Fit       0.008567
 1745 Fit       0.011881
 1746 Fit       0.010583
 1747 Fit       0.011245
 1748 Fit       0.010378
 1749 Fit       0.012497
 1750 Fit       0.010756
 1751 Fit       0.005025
 1752 Fit       0.008733
 1753 Fit       0.006673
 1754 Fit       0.004900
 1755 Fit       0.007659
 1756 Fit      -0.007285
 1757 Fit      -0.006306
 1758 Fit       0.000751
 1759 Fit       0.007540
 1760 Fit       0.010018
 1761 Fit       0.001861
 1762 Fit       0.004066
 1763 Fit       0.007433
 1764 Fit       0.008431
 1765 Fit       0.006225
 1766 Fit       0.006348
 1767 Fit       0.005811
 1768 Fit       0.007099
 1769 Fit       0.011304
 1770 Fit       0.014130
 1771 Fit       0.012209
 1772 Fit       0.010053
 1773 Fit       0.006737
 1774 Fit       0.014032
 1775 Fit       0.012851
 1776 Fit       0.011499
 1777 Fit       0.009708
 1778 Fit       0.007209
 1779 Fit       0.011934
 1780 Fit       0.011158
 1781 Fit       0.009754
 1782 Fit       0.007657
 1783 Fit       0.010014
 1784 Fit       0.008416
 1785 Fit       0.002000
 1786 Fit      -0.001514
 1787 Fit       0.000231
 1788 Fit       0.004391
 1789 Fit      -0.003041
 1790 Fit      -0.001568
 1791 Fit       0.003620
 1792 Fit      -0.000868
 1793 Fit      -0.005731
 1794 Fit      -0.007777
 1795 Fit       0.005934
 1796 Fit       0.003887
 1797 Fit       0.001640
 1798 Fit       0.001204
 1799 Fit       0.005820
 1800 Fit       0.006225
 1801 Fit       0.005363
 1802 Fit       0.005831
 1803 Fit       0.005297
 1804 Fit       0.004464
 1805 Fit       0.005689
 1806 Fit      -0.011512
 1807 Fit       0.003525
 1808 Fit      -0.002606
 1809 Fit       0.000617
 1810 Fit       0.001921
 1811 Fit      -0.005095
 1812 Fit      -0.000097
 1813 Fit       0.002604
 1814 Fit       0.003771
 1815 Fit      -0.003128
 1816 Fit       0.001213
 1817 Fit       0.003814
 1818 Fit       0.005321
 1819 Fit       0.003137
 1820 Fit       0.005761
 1821 Fit      -0.007417
 1822 Fit       0.005246
 1823 Fit       0.005285
 1824 Fit       0.002854
 1825 Fit      -0.000357
 1826 Fit       0.002154
 1827 Fit       0.005143
 1828 Fit       0.004100
 1829 Fit      -0.010863
 1830 Fit      -0.010281
 1831 Fit      -0.006142
 1832 Fit      -0.006743
 1833 Fit      -0.011829
 1834 Fit      -0.014276
 1835 Fit      -0.013705
 1836 Fit      -0.008609
 1837 Fit      -0.004445
 1838 Fit      -0.009816
 1839 Fit      -0.014370
 1840 Fit      -0.016048
 1841 Fit      -0.016047
 1842 Fit      -0.015446
 1843 Fit      -0.014353
 1844 Fit      -0.012125
 1845 Fit      -0.005672
 1846 Fit      -0.016396
 1847 Fit      -0.018700
 1848 Fit      -0.018750
 1849 Fit      -0.017363
 1850 Fit      -0.015512
 1851 Fit      -0.014023
 1852 Fit      -0.012813
 1853 Fit      -0.011044
 1854 Fit      -0.008885
 1855 Fit      -0.024889
 1856 Fit      -0.023056
 1857 Fit      -0.020440
 1858 Fit      -0.017013
 1859 Fit      -0.013536
 1860 Fit      -0.010858
 1861 Fit      -0.009207
 1862 Fit      -0.007676
 1863 Fit      -0.026582
 1864 Fit      -0.022079
 1865 Fit      -0.017068
 1866 Fit      -0.011889
 1867 Fit      -0.007330
 1868 Fit      -0.004217
 1869 Fit      -0.002704
 1870 Fit      -0.020720
 1871 Fit      -0.013277
 1872 Fit      -0.005525
 1873 Fit      -0.021094
 1874 Fit      -0.011160
 1875 Fit      -0.000720
 1876 Fit       0.004383
 1877 Fit       0.006317
 1878 Fit      -0.000938
 1879 Fit       0.000096
 1880 Fit       0.001904
 1881 Fit       0.000049
 1882 Fit      -0.003183
 1883 Fit       0.003894
 1884 Fit       0.001792
 1885 Fit      -0.002368
 1886 Fit      -0.006646
 1887 Fit      -0.009318
 1888 Fit       0.001545
 1889 Fit       0.002867
 1890 Fit       0.004117
 1891 Fit       0.007648
 1892 Fit       0.006536
 1893 Fit       0.008467
 1894 Fit       0.007884
 1895 Fit       0.007046
 1896 Fit       0.007185
 1897 Fit       0.007014
 1898 Fit       0.006648
 1899 Fit       0.003817
 1900 Fit       0.008176
 1901 Fit       0.007045
 1902 Fit       0.005350
 1903 Fit       0.001450
 1904 Fit       0.008280
 1905 Fit       0.007506
 1906 Fit       0.006547
 1907 Fit       0.007440
 1908 Fit       0.006524
 1909 Fit       0.005231
 1910 Fit       0.004218
 1911 Fit      -0.011468
 1912 Fit      -0.016383
 1913 Fit      -0.006088
 1914 Fit      -0.012370
 1915 Fit      -0.016691
 1916 Fit      -0.019495
 1917 Fit      -0.021695
 1918 Fit      -0.002354
 1919 Fit      -0.008391
 1920 Fit      -0.012733
 1921 Fit      -0.015864
 1922 Fit      -0.018543
 1923 Fit      -0.021205
 1924 Fit      -0.024855
 1925 Fit      -0.007865
 1926 Fit      -0.010507
 1927 Fit      -0.013569
 1928 Fit      -0.016751
 1929 Fit      -0.020053
 1930 Fit      -0.024051
 1931 Fit      -0.008818
 1932 Fit      -0.012857
 1933 Fit      -0.016647
 1934 Fit      -0.020297
 1935 Fit      -0.023923
 1936 Fit      -0.009746
 1937 Fit      -0.014321
 1938 Fit      -0.018119
 1939 Fit      -0.020323
 1940 Fit      -0.005059
 1941 Fit      -0.010010
 1942 Fit      -0.014130
 1943 Fit      -0.015899
 1944 Fit      -0.013088
 1945 Fit      -0.006742
 1946 Fit      -0.009847
 1947 Fit      -0.008656
 1948 Fit      -0.005810
 1949 Fit      -0.006218
 1950 Fit       0.002985
 1951 Fit      -0.001846
 1952 Fit       0.002681
 1953 Fit      -0.000256
 1954 Fit      -0.002628
 1955 Fit       0.000622
 1956 Fit      -0.002491
 1957 Fit      -0.003905
 1958 Fit      -0.004390
 1959 Fit      -0.004625
 1960 Fit      -0.005513
 1961 Fit      -0.005479
 1962 Fit      -0.004165
 1963 Fit      -0.004076
 1964 Fit      -0.005957
 1965 Fit      -0.006340
 1966 Fit      -0.004163
 1967 Fit      -0.004156
 1968 Fit      -0.005257
 1969 Fit      -0.003569
 1970 Fit       0.003036
 1971 Fit       0.008114
 1972 Fit       0.005718
 1973 Fit       0.007322
 1974 Fit      -0.002257
 1975 Fit      -0.002904
 1976 Fit      -0.003060
 1977 Fit      -0.000650
 1978 Fit       0.003628
 1979 Fit       0.000661
 1980 Fit       0.002357
 1981 Fit       0.003451
 1982 Fit       0.005541
 1983 Fit      -0.002187
 1984 Fit      -0.006624
 1985 Fit      -0.008022
 1986 Fit      -0.007843
 1987 Fit      -0.006478
 1988 Fit       0.001405
 1989 Fit      -0.005605
 1990 Fit      -0.009997
 1991 Fit      -0.011844
 1992 Fit      -0.012071
 1993 Fit      -0.011808
 1994 Fit      -0.011463
 1995 Fit      -0.010191
 1996 Fit       0.000066
 1997 Fit      -0.005727
 1998 Fit      -0.009909
 1999 Fit      -0.012226
 2000 Fit      -0.012871
 2001 Fit      -0.012823
 2002 Fit      -0.012966
 2003 Fit      -0.013517
 2004 Fit      -0.013871
 2005 Fit      -0.012812
 2006 Fit      -0.008881
 2007 Fit      -0.010302
 2008 Fit      -0.010699
 2009 Fit      -0.011135
 2010 Fit      -0.012153
 2011 Fit      -0.013642
 2012 Fit      -0.014921
 2013 Fit      -0.015043
 2014 Fit      -0.013263
 2015 Fit      -0.009568
 2016 Fit      -0.004765
 2017 Fit      -0.004160
 2018 Fit      -0.005790
 2019 Fit      -0.006743
 2020 Fit      -0.008291
 2021 Fit      -0.010583
 2022 Fit      -0.012881
 2023 Fit      -0.013986
 2024 Fit      -0.012844
 2025 Fit      -0.009057
 2026 Fit      -0.002915
 2027 Fit      -0.000425
 2028 Fit      -0.002792
 2029 Fit      -0.006022
 2030 Fit      -0.008856
 2031 Fit      -0.009604
 2032 Fit      -0.007007
 2033 Fit       0.003802
 2034 Fit       0.005638
 2035 Fit       0.006496
 2036 Fit       0.007167
 2037 Fit      -0.002241
 2038 Fit       0.001589
 2039 Fit       0.004604
 2040 Fit       0.006463
 2041 Fit       0.007489
 2042 Fit       0.003066
 2043 Fit       0.005126
 2044 Fit       0.006633
 2045 Fit       0.007528
 2046 Fit       0.004760
 2047 Fit       0.006016
 2048 Fit       0.007425
 2049 Fit       0.003407
 2050 Fit       0.002441
 2051 Fit       0.000896
 2052 Fit      -0.001259
 2053 Fit      -0.002850
 2054 Fit       0.005693
 2055 Fit       0.004948
 2056 Fit       0.003826
 2057 Fit       0.002594
 2058 Fit       0.002490
 2059 Fit       0.006614
 2060 Fit       0.005678
 2061 Fit       0.004960
 2062 Fit       0.006577
 2063 Fit       0.004457
 2064 Fit       0.004790
 2065 Fit       0.004475
 2066 Fit       0.004161
 2067 Fit       0.003827
 2068 Fit       0.006692
 2069 Fit       0.005717
 2070 Fit       0.004927
 2071 Fit       0.004002
 2072 Fit       0.003759
 2073 Fit       0.003810
 2074 Fit       0.004895
 2075 Fit       0.006846
 2076 Fit       0.006052
 2077 Fit       0.007064
 2078 Fit       0.008764
 2079 Fit       0.008232
 2080 Fit       0.006130
 2081 Fit       0.007884
 2082 Fit       0.007882
 2083 Fit       0.007705
 2084 Fit       0.007440
 2085 Fit       0.007393
 2086 Fit       0.006964
 2087 Fit       0.006748
 2088 Fit       0.006176
 2089 Fit       0.004814
 2090 Fit       0.006081
 2091 Fit       0.005752
 2092 Fit       0.005381
 2093 Fit       0.005755
 2094 Fit       0.005212
 2095 Fit       0.005014
 2096 Fit       0.005897
 2097 Fit       0.007594
 2098 Fit       0.006856
 2099 Fit       0.006481
 2100 Fit       0.006208
 2101 Fit       0.006516
 2102 Fit       0.006223
 2103 Fit       0.006801
 2104 Fit       0.007290
 2105 Fit       0.007180
 2106 Fit       0.006902
 2107 Fit       0.006955
 2108 Fit      -0.000057
 2109 Fit       0.003169
 2110 Fit       0.001532
 2111 Fit      -0.001964
 2112 Fit       0.004016
 2113 Fit       0.003527
 2114 Fit       0.002338
 2115 Fit      -0.000042
 2116 Fit      -0.004044
 2117 Fit       0.003848
 2118 Fit       0.003364
 2119 Fit       0.002305
 2120 Fit       0.001177
 2121 Fit       0.003724
 2122 Fit       0.003526
 2123 Fit       0.003717
 Job cpu time:       0 days  0 hours 13 minutes  8.4 seconds.
 Normal termination of Gaussian 16 at Sun Jul  9 07:09:27 2023.
