 Copyright (c) 1988-2019, Gaussian, Inc.  All Rights Reserved.
  
 This is part of the Gaussian(R) 16 program.  It is based on
 the Gaussian(R) 09 system (copyright 2009, Gaussian, Inc.),
 the Gaussian(R) 03 system (copyright 2003, Gaussian, Inc.),
 the Gaussian(R) 98 system (copyright 1998, Gaussian, Inc.),
 the Gaussian(R) 94 system (copyright 1995, Gaussian, Inc.),
 the Gaussian 92(TM) system (copyright 1992, Gaussian, Inc.),
 the Gaussian 90(TM) system (copyright 1990, Gaussian, Inc.),
 the Gaussian 88(TM) system (copyright 1988, Gaussian, Inc.),
 the Gaussian 86(TM) system (copyright 1986, Carnegie Mellon
 University), and the Gaussian 82(TM) system (copyright 1983,
 Carnegie Mellon University). Gaussian is a federally registered
 trademark of Gaussian, Inc.
 Cite this work as:
 Gaussian 16, Revision C.01,
 M. J. Frisch, G. W. Trucks, H. B. Schlegel, G. E. Scuseria, 
 M. A. Robb, J. R. Cheeseman, G. Scalmani, V. Barone, 
 G. A. Petersson, H. Nakatsuji, X. Li, M. Caricato, A. V. Marenich, 
 J. Bloino, B. G. Janesko, R. Gomperts, B. Mennucci, H. P. Hratchian, 
 J. V. Ortiz, A. F. Izmaylov, J. L. Sonnenberg, D. Williams-Young, 
 F. Ding, F. Lipparini, F. Egidi, J. Goings, B. Peng, A. Petrone, 
 T. Henderson, D. Ranasinghe, V. G. Zakrzewski, J. Gao, N. Rega, 
 G. Zheng, W. Liang, M. Hada, M. Ehara, K. Toyota, R. Fukuda, 
 J. Hasegawa, M. Ishida, T. Nakajima, Y. Honda, O. Kitao, H. Nakai, 
 T. Vreven, K. Throssell, J. A. Montgomery, Jr., J. E. Peralta, 
 F. Ogliaro, M. J. Bearpark, J. J. Heyd, E. N. Brothers, K. N. Kudin, 
 V. N. Staroverov, T. A. Keith, R. Kobayashi, J. Normand, 
 K. Raghavachari, A. P. Rendell, J. C. Burant, S. S. Iyengar, 
 J. Tomasi, M. Cossi, J. M. Millam, M. Klene, C. Adamo, R. Cammi, 
 J. W. Ochterski, R. L. Martin, K. Morokuma, O. Farkas, 
 J. B. Foresman, and D. J. Fox, Gaussian, Inc., Wallingford CT, 2019.
 
 ******************************************
 Gaussian 16:  EM64L-G16RevC.01  3-Jul-2019
                 9-Jul-2023 
 ******************************************
 ----------------------------------------------------------------------
 #P B3LYP/6-31G(d) Integral=Ultrafine SCF(Conver=8,XQC,MaxConventionalC
 ycles=64,MaxCycle=128) NoSymm Test Pop=mk IOp(6/33=2) GFInput GFPrint
 ----------------------------------------------------------------------
 1/38=1,172=1/1;
 2/12=2,15=1,17=6,18=5,40=1/2;
 3/5=1,6=6,7=1,11=2,24=110,25=1,30=1,74=-5,75=-5/1,2,3;
 4//1;
 5/5=2,6=8,7=128,8=3,13=1,38=5,85=64/2,8;
 6/7=2,8=2,9=2,10=2,15=8,20=1,28=1,33=2/1,2;
 99/5=1,9=1/99;
 -------------------------------------------------
 MEP step - Input generated by PyRED DVE-DMDS-OPLS
 -------------------------------------------------
 Symbolic Z-matrix:
 Charge =  0 Multiplicity = 1
 C                     2.42788  -5.46631  -5.97785 
 H                     1.53691  -6.10204  -6.00195 
 H                     2.57696  -5.03827  -6.97525 
 H                     3.29044  -6.09492  -5.73463 
 C                     2.2675   -4.36282  -4.94513 
 H                     3.15991  -3.7149   -4.92743 
 H                     1.40746  -3.72371  -5.20152 
 O                     2.09066  -4.97233  -3.67249 
 C                     1.9944   -4.06659  -2.58869 
 H                     2.68517  -3.2182   -2.71356 
 H                     2.29564  -4.61383  -1.68938 
 C                     0.5691   -3.54583  -2.39796 
 H                     0.22599  -2.99854  -3.29133 
 H                    -0.11467  -4.39686  -2.24823 
 O                     0.57289  -2.69442  -1.26591 
 C                    -0.70493  -2.16329  -0.95842 
 H                    -1.41488  -2.98091  -0.74133 
 H                    -1.10314  -1.59133  -1.81247 
 C                    -0.60903  -1.25372   0.25857 
 H                    -0.0853   -1.78189   1.06997 
 H                    -1.62574  -1.0278    0.59966 
 O                     0.        0.        0. 
 C                     1.42216   0.        0. 
 H                     1.80691  -0.51816  -0.8898 
 H                     1.80148  -0.53024   0.88657 
 C                     1.91703   1.43993   0. 
 H                     1.48144   1.99038  -0.84157 
 H                     3.00416   1.43995  -0.13474 
 S                     1.62439   2.38691   1.54632 
 C                    -0.12941   2.90916   1.32354 
 H                    -0.18453   3.50033   0.40017 
 H                    -0.74889   2.01955   1.20272 
 C                    -0.62474   3.77053   2.48934 
 H                    -1.54763   4.2697    2.17403 
 H                     0.09106   4.56509   2.729 
 S                    -1.10589   2.88261   4.0277 
 C                     0.47296   2.78886   4.96334 
 H                     1.25651   2.41892   4.29412 
 H                     0.30125   2.01075   5.71417 
 C                     0.92428   4.09277   5.63147 
 H                     1.96021   3.98455   5.97856 
 H                     0.91974   4.91678   4.91098 
 S                    -0.09685   4.66929   7.04323 
 C                     0.51986   3.55498   8.37098 
 H                     0.33212   2.51246   8.09075 
 H                     1.6035    3.68863   8.47071 
 C                    -0.18336   3.87935   9.68878 
 H                    -1.26616   3.73939   9.60443 
 H                     0.18318   3.22046   10.48419 
 H                     0.0029    4.91488   9.9926 
 
 ITRead=  0  0  0  0  0  0  0  0  0  0  0  0  0  0  0  0  0  0  0  0
 ITRead=  0  0  0  0  0  0  0  0  0  0  0  0  0  0  0  0  0  0  0  0
 ITRead=  0  0  0  0  0  0  0  0  0  0
 MicOpt= -1 -1 -1 -1 -1 -1 -1 -1 -1 -1 -1 -1 -1 -1 -1 -1 -1 -1 -1 -1
 MicOpt= -1 -1 -1 -1 -1 -1 -1 -1 -1 -1 -1 -1 -1 -1 -1 -1 -1 -1 -1 -1
 MicOpt= -1 -1 -1 -1 -1 -1 -1 -1 -1 -1
 NAtoms=     50 NQM=       50 NQMF=       0 NMMI=      0 NMMIF=      0
                NMic=       0 NMicF=      0.
                          Input orientation:                          
 ---------------------------------------------------------------------
 Center     Atomic      Atomic             Coordinates (Angstroms)
 Number     Number       Type             X           Y           Z
 ---------------------------------------------------------------------
      1          6           0        2.427878   -5.466310   -5.977846
      2          1           0        1.536914   -6.102036   -6.001945
      3          1           0        2.576962   -5.038269   -6.975247
      4          1           0        3.290436   -6.094916   -5.734626
      5          6           0        2.267501   -4.362820   -4.945133
      6          1           0        3.159909   -3.714903   -4.927431
      7          1           0        1.407458   -3.723708   -5.201520
      8          8           0        2.090659   -4.972330   -3.672493
      9          6           0        1.994395   -4.066588   -2.588692
     10          1           0        2.685166   -3.218196   -2.713560
     11          1           0        2.295641   -4.613833   -1.689379
     12          6           0        0.569099   -3.545825   -2.397962
     13          1           0        0.225986   -2.998542   -3.291326
     14          1           0       -0.114674   -4.396862   -2.248233
     15          8           0        0.572890   -2.694422   -1.265911
     16          6           0       -0.704929   -2.163293   -0.958424
     17          1           0       -1.414877   -2.980907   -0.741328
     18          1           0       -1.103141   -1.591325   -1.812465
     19          6           0       -0.609027   -1.253719    0.258567
     20          1           0       -0.085300   -1.781888    1.069971
     21          1           0       -1.625738   -1.027797    0.599655
     22          8           0        0.000000    0.000000    0.000000
     23          6           0        1.422164    0.000000    0.000000
     24          1           0        1.806913   -0.518157   -0.889797
     25          1           0        1.801479   -0.530244    0.886574
     26          6           0        1.917028    1.439925    0.000000
     27          1           0        1.481444    1.990381   -0.841571
     28          1           0        3.004161    1.439945   -0.134742
     29         16           0        1.624393    2.386913    1.546315
     30          6           0       -0.129409    2.909157    1.323537
     31          1           0       -0.184533    3.500325    0.400174
     32          1           0       -0.748889    2.019547    1.202719
     33          6           0       -0.624740    3.770531    2.489339
     34          1           0       -1.547626    4.269696    2.174031
     35          1           0        0.091056    4.565086    2.728999
     36         16           0       -1.105892    2.882610    4.027697
     37          6           0        0.472957    2.788862    4.963337
     38          1           0        1.256505    2.418915    4.294120
     39          1           0        0.301252    2.010751    5.714167
     40          6           0        0.924277    4.092772    5.631466
     41          1           0        1.960212    3.984545    5.978563
     42          1           0        0.919737    4.916785    4.910976
     43         16           0       -0.096850    4.669291    7.043228
     44          6           0        0.519856    3.554976    8.370976
     45          1           0        0.332118    2.512459    8.090747
     46          1           0        1.603504    3.688629    8.470706
     47          6           0       -0.183361    3.879352    9.688779
     48          1           0       -1.266158    3.739393    9.604434
     49          1           0        0.183181    3.220460   10.484195
     50          1           0        0.002897    4.914880    9.992598
 ---------------------------------------------------------------------
 Stoichiometry    C14H30O3S3
 Framework group  C1[X(C14H30O3S3)]
 Standard basis: 6-31G(d) (6D, 7F)
   372 basis functions,   752 primitive gaussians,   372 cartesian basis functions
    93 alpha electrons       93 beta electrons
 Requested convergence on RMS density matrix=1.00D-08 within  64 cycles.
 Requested convergence on MAX density matrix=1.00D-06.
 Requested convergence on             energy=1.00D-06.
 SCF Done:  E(RB3LYP) =  -1971.75291740     A.U. after   13 cycles
            NFock= 13  Conv=0.38D-08     -V/T= 2.0058
 Mulliken charges:
     1  C   -0.452099
     2  H    0.158568
     3  H    0.143580
     4  H    0.160190
     5  C   -0.014124
     6  H    0.122445
     7  H    0.121649
     8  O   -0.471982
     9  C   -0.036734
    10  H    0.128581
    11  H    0.154962
    12  C   -0.025016
    13  H    0.124032
    14  H    0.132799
    15  O   -0.480498
    16  C   -0.018291
    17  H    0.121003
    18  H    0.131741
    19  C   -0.041234
    20  H    0.140367
    21  H    0.149504
    22  O   -0.473148
    23  C    0.000096
    24  H    0.144257
    25  H    0.136150
    26  C   -0.440451
    27  H    0.176138
    28  H    0.173922
    29  S    0.065130
    30  C   -0.386256
    31  H    0.161578
    32  H    0.211192
    33  C   -0.439062
    34  H    0.184487
    35  H    0.179786
    36  S    0.102908
    37  C   -0.425961
    38  H    0.206255
    39  H    0.177345
    40  C   -0.410233
    41  H    0.167251
    42  H    0.179278
    43  S    0.099304
    44  C   -0.395606
    45  H    0.165432
    46  H    0.163016
    47  C   -0.453443
    48  H    0.166123
    49  H    0.151037
    50  H    0.164033
 Sum of Mulliken charges =  -0.00000
 Dipole moment (field-independent basis, Debye):
    X=              1.1771    Y=             -1.7420    Z=             -2.7190  Tot=              3.4370
 Quadrupole moment (field-independent basis, Debye-Ang):
   XX=           -145.9307   YY=           -162.9082   ZZ=           -137.9931
   XY=              7.2773   XZ=              8.8306   YZ=            -12.5612
 Traceless Quadrupole moment (field-independent basis, Debye-Ang):
   XX=              3.0133   YY=            -13.9642   ZZ=             10.9509
   XY=              7.2773   XZ=              8.8306   YZ=            -12.5612
 Octapole moment (field-independent basis, Debye-Ang**2):
  XXX=           -256.1786  YYY=           -296.7809  ZZZ=           -681.2147  XYY=           -101.7723
  XXY=           -107.1539  XXZ=           -259.7343  XZZ=             -0.3159  YZZ=           -183.0872
  YYZ=           -316.1564  XYZ=             36.6667
 Hexadecapole moment (field-independent basis, Debye-Ang**3):
 XXXX=          -1651.5743 YYYY=         -11306.6313 ZZZZ=         -16788.4235 XXXY=            672.3522
 XXXZ=            708.6301 YYYX=            836.8955 YYYZ=          -6857.8756 ZZZX=           1033.2299
 ZZZY=          -6137.6003 XXYY=          -2096.0733 XXZZ=          -3351.1492 YYZZ=          -5401.6623
 XXYZ=          -2063.7526 YYXZ=            403.5420 ZZXY=            430.5891
 Merz-Kollman atomic radii used.
 Atom Element Radius
    1     6    1.50
    2     1    1.20
    3     1    1.20
    4     1    1.20
    5     6    1.50
    6     1    1.20
    7     1    1.20
    8     8    1.40
    9     6    1.50
   10     1    1.20
   11     1    1.20
   12     6    1.50
   13     1    1.20
   14     1    1.20
   15     8    1.40
   16     6    1.50
   17     1    1.20
   18     1    1.20
   19     6    1.50
   20     1    1.20
   21     1    1.20
   22     8    1.40
   23     6    1.50
   24     1    1.20
   25     1    1.20
   26     6    1.50
   27     1    1.20
   28     1    1.20
   29    16    1.75
   30     6    1.50
   31     1    1.20
   32     1    1.20
   33     6    1.50
   34     1    1.20
   35     1    1.20
   36    16    1.75
   37     6    1.50
   38     1    1.20
   39     1    1.20
   40     6    1.50
   41     1    1.20
   42     1    1.20
   43    16    1.75
   44     6    1.50
   45     1    1.20
   46     1    1.20
   47     6    1.50
   48     1    1.20
   49     1    1.20
   50     1    1.20
 Generate VDW surfaces: Layer= 4 Dens= 1 Start= 1.400 Inc= 0.200
            Electrostatic Properties Using The SCF Density.


       Atomic Center    1 is at   2.427878 -5.466310 -5.977846
       Atomic Center    2 is at   1.536914 -6.102036 -6.001945
       Atomic Center    3 is at   2.576962 -5.038269 -6.975247
       Atomic Center    4 is at   3.290436 -6.094916 -5.734626
       Atomic Center    5 is at   2.267501 -4.362820 -4.945133
       Atomic Center    6 is at   3.159909 -3.714903 -4.927431
       Atomic Center    7 is at   1.407458 -3.723708 -5.201520
       Atomic Center    8 is at   2.090659 -4.972330 -3.672493
       Atomic Center    9 is at   1.994395 -4.066588 -2.588692
       Atomic Center   10 is at   2.685166 -3.218196 -2.713560
       Atomic Center   11 is at   2.295641 -4.613833 -1.689379
       Atomic Center   12 is at   0.569099 -3.545825 -2.397962
       Atomic Center   13 is at   0.225986 -2.998542 -3.291326
       Atomic Center   14 is at  -0.114674 -4.396862 -2.248233
       Atomic Center   15 is at   0.572890 -2.694422 -1.265911
       Atomic Center   16 is at  -0.704929 -2.163293 -0.958424
       Atomic Center   17 is at  -1.414877 -2.980907 -0.741328
       Atomic Center   18 is at  -1.103141 -1.591325 -1.812465
       Atomic Center   19 is at  -0.609027 -1.253719  0.258567
       Atomic Center   20 is at  -0.085300 -1.781888  1.069971
       Atomic Center   21 is at  -1.625738 -1.027797  0.599655
       Atomic Center   22 is at   0.000000  0.000000  0.000000
       Atomic Center   23 is at   1.422164  0.000000  0.000000
       Atomic Center   24 is at   1.806913 -0.518157 -0.889797
       Atomic Center   25 is at   1.801479 -0.530244  0.886574
       Atomic Center   26 is at   1.917028  1.439925  0.000000
       Atomic Center   27 is at   1.481444  1.990381 -0.841571
       Atomic Center   28 is at   3.004161  1.439945 -0.134742
       Atomic Center   29 is at   1.624393  2.386913  1.546315
       Atomic Center   30 is at  -0.129409  2.909157  1.323537
       Atomic Center   31 is at  -0.184533  3.500325  0.400174
       Atomic Center   32 is at  -0.748889  2.019547  1.202719
       Atomic Center   33 is at  -0.624740  3.770531  2.489339
       Atomic Center   34 is at  -1.547626  4.269696  2.174031
       Atomic Center   35 is at   0.091056  4.565086  2.728999
       Atomic Center   36 is at  -1.105892  2.882610  4.027697
       Atomic Center   37 is at   0.472957  2.788862  4.963337
       Atomic Center   38 is at   1.256505  2.418915  4.294120
       Atomic Center   39 is at   0.301252  2.010751  5.714167
       Atomic Center   40 is at   0.924277  4.092772  5.631466
       Atomic Center   41 is at   1.960212  3.984545  5.978563
       Atomic Center   42 is at   0.919737  4.916785  4.910976
       Atomic Center   43 is at  -0.096850  4.669291  7.043228
       Atomic Center   44 is at   0.519856  3.554976  8.370976
       Atomic Center   45 is at   0.332118  2.512459  8.090747
       Atomic Center   46 is at   1.603504  3.688629  8.470706
       Atomic Center   47 is at  -0.183361  3.879352  9.688779
       Atomic Center   48 is at  -1.266158  3.739393  9.604434
       Atomic Center   49 is at   0.183181  3.220460 10.484195
       Atomic Center   50 is at   0.002897  4.914880  9.992598
      ESP Fit Center   51 is at   2.169057 -7.266452 -4.927846
      ESP Fit Center   52 is at   4.287336 -4.490391 -5.977846
      ESP Fit Center   53 is at   4.246531 -5.466310 -7.027846
      ESP Fit Center   54 is at   0.682893 -4.953936 -7.027846
      ESP Fit Center   55 is at   1.902878 -6.375637 -7.796499
      ESP Fit Center   56 is at   0.738027 -6.682462 -4.642796
      ESP Fit Center   57 is at   1.842062 -7.041185 -4.642796
      ESP Fit Center   58 is at   0.035497 -5.555565 -5.482796
      ESP Fit Center   59 is at   0.035497 -6.648507 -5.482796
      ESP Fit Center   60 is at   0.738027 -7.485750 -5.482796
      ESP Fit Center   61 is at   1.814365 -7.675537 -5.482796
      ESP Fit Center   62 is at   0.035497 -5.555565 -6.521094
      ESP Fit Center   63 is at   0.035497 -6.648507 -6.521094
      ESP Fit Center   64 is at   0.738027 -7.485750 -6.521094
      ESP Fit Center   65 is at   1.814365 -7.675537 -6.521094
      ESP Fit Center   66 is at   0.738027 -5.521610 -7.361094
      ESP Fit Center   67 is at   0.738027 -6.682462 -7.361094
      ESP Fit Center   68 is at   1.842062 -7.041185 -7.361094
      ESP Fit Center   69 is at   4.174737 -5.038269 -7.494396
      ESP Fit Center   70 is at   3.800929 -4.011239 -7.494396
      ESP Fit Center   71 is at   2.854413 -3.464768 -7.494396
      ESP Fit Center   72 is at   1.778075 -3.654555 -7.494396
      ESP Fit Center   73 is at   1.075545 -4.491798 -7.494396
      ESP Fit Center   74 is at   3.800929 -6.065299 -7.494396
      ESP Fit Center   75 is at   3.564441 -5.038269 -8.334396
      ESP Fit Center   76 is at   2.882110 -4.099120 -8.334396
      ESP Fit Center   77 is at   1.778075 -4.457843 -8.334396
      ESP Fit Center   78 is at   1.778075 -5.618695 -8.334396
      ESP Fit Center   79 is at   2.882110 -5.977418 -8.334396
      ESP Fit Center   80 is at   2.576962 -5.038269 -8.655247
      ESP Fit Center   81 is at   4.277915 -6.094916 -4.375477
      ESP Fit Center   82 is at   3.595584 -7.034065 -4.375477
      ESP Fit Center   83 is at   4.888211 -6.094916 -5.215477
      ESP Fit Center   84 is at   4.514403 -5.067886 -5.215477
      ESP Fit Center   85 is at   2.491549 -7.478630 -5.215477
      ESP Fit Center   86 is at   3.567887 -7.668417 -5.215477
      ESP Fit Center   87 is at   4.514403 -7.121946 -5.215477
      ESP Fit Center   88 is at   4.888211 -6.094916 -6.253775
      ESP Fit Center   89 is at   4.514403 -5.067886 -6.253775
      ESP Fit Center   90 is at   3.567887 -7.668417 -6.253775
      ESP Fit Center   91 is at   4.514403 -7.121946 -6.253775
      ESP Fit Center   92 is at   4.277915 -6.094916 -7.093775
      ESP Fit Center   93 is at   3.595584 -7.034065 -7.093775
      ESP Fit Center   94 is at   4.147388 -3.714903 -3.568282
      ESP Fit Center   95 is at   4.757684 -3.714903 -4.408282
      ESP Fit Center   96 is at   4.383876 -2.687873 -4.408282
      ESP Fit Center   97 is at   3.437360 -2.141402 -4.408282
      ESP Fit Center   98 is at   2.361022 -2.331189 -4.408282
      ESP Fit Center   99 is at   4.383876 -4.741933 -4.408282
      ESP Fit Center  100 is at   4.757684 -3.714903 -5.446580
      ESP Fit Center  101 is at   4.383876 -2.687873 -5.446580
      ESP Fit Center  102 is at   3.437360 -2.141402 -5.446580
      ESP Fit Center  103 is at   4.383876 -4.741933 -5.446580
      ESP Fit Center  104 is at   4.147388 -3.714903 -6.286580
      ESP Fit Center  105 is at   3.465057 -2.775754 -6.286580
      ESP Fit Center  106 is at   1.684909 -2.150207 -4.682371
      ESP Fit Center  107 is at  -0.093959 -4.270179 -4.682371
      ESP Fit Center  108 is at   1.684909 -2.150207 -5.720669
      ESP Fit Center  109 is at   0.608571 -2.339994 -5.720669
      ESP Fit Center  110 is at  -0.093959 -3.177237 -5.720669
      ESP Fit Center  111 is at  -0.093959 -4.270179 -5.720669
      ESP Fit Center  112 is at   1.712606 -2.784559 -6.560669
      ESP Fit Center  113 is at   0.608571 -3.143282 -6.560669
      ESP Fit Center  114 is at   0.608571 -4.304134 -6.560669
      ESP Fit Center  115 is at   1.407458 -3.723708 -6.881520
      ESP Fit Center  116 is at   0.717426 -5.970042 -2.692493
      ESP Fit Center  117 is at   1.566131 -6.586663 -2.692493
      ESP Fit Center  118 is at   2.615187 -6.586663 -2.692493
      ESP Fit Center  119 is at   3.463892 -5.970042 -2.692493
      ESP Fit Center  120 is at   4.050659 -4.972330 -3.672493
      ESP Fit Center  121 is at   0.393249 -5.952330 -3.672493
      ESP Fit Center  122 is at   1.110659 -6.669740 -3.672493
      ESP Fit Center  123 is at   2.090659 -6.932330 -3.672493
      ESP Fit Center  124 is at   3.070659 -6.669740 -3.672493
      ESP Fit Center  125 is at   3.788069 -5.952330 -3.672493
      ESP Fit Center  126 is at   2.519395 -3.157261 -0.770039
      ESP Fit Center  127 is at   3.853853 -5.042507 -2.588692
      ESP Fit Center  128 is at   3.672645 -3.218196 -1.354411
      ESP Fit Center  129 is at   2.990314 -2.279047 -1.354411
      ESP Fit Center  130 is at   4.282941 -3.218196 -2.194411
      ESP Fit Center  131 is at   3.909133 -2.191166 -2.194411
      ESP Fit Center  132 is at   2.962617 -1.644695 -2.194411
      ESP Fit Center  133 is at   4.282941 -3.218196 -3.232709
      ESP Fit Center  134 is at   3.909133 -2.191166 -3.232709
      ESP Fit Center  135 is at   2.962617 -1.644695 -3.232709
      ESP Fit Center  136 is at   1.886279 -1.834482 -3.232709
      ESP Fit Center  137 is at   2.295641 -4.613833 -0.009379
      ESP Fit Center  138 is at   3.283120 -4.613833 -0.330230
      ESP Fit Center  139 is at   2.600789 -3.674684 -0.330230
      ESP Fit Center  140 is at   1.496754 -5.194259 -0.330230
      ESP Fit Center  141 is at   2.600789 -5.552982 -0.330230
      ESP Fit Center  142 is at   3.893416 -4.613833 -1.170230
      ESP Fit Center  143 is at   3.519608 -3.586803 -1.170230
      ESP Fit Center  144 is at   1.496754 -5.997547 -1.170230
      ESP Fit Center  145 is at   2.573092 -6.187334 -1.170230
      ESP Fit Center  146 is at   3.519608 -5.640863 -1.170230
      ESP Fit Center  147 is at   2.573092 -6.187334 -2.208528
      ESP Fit Center  148 is at   3.519608 -5.640863 -2.208528
      ESP Fit Center  149 is at   0.044099 -4.455152 -4.216615
      ESP Fit Center  150 is at   0.503437 -1.425041 -2.772177
      ESP Fit Center  151 is at   1.449953 -1.971512 -3.810475
      ESP Fit Center  152 is at   0.503437 -1.425041 -3.810475
      ESP Fit Center  153 is at  -0.572901 -1.614828 -3.810475
      ESP Fit Center  154 is at  -1.275431 -2.452071 -3.810475
      ESP Fit Center  155 is at  -1.275431 -3.545013 -3.810475
      ESP Fit Center  156 is at   0.531134 -2.059393 -4.650475
      ESP Fit Center  157 is at  -0.572901 -2.418116 -4.650475
      ESP Fit Center  158 is at  -0.572901 -3.578968 -4.650475
      ESP Fit Center  159 is at  -0.114674 -4.396862 -0.568233
      ESP Fit Center  160 is at  -0.913561 -4.977288 -0.889084
      ESP Fit Center  161 is at   0.190474 -5.336011 -0.889084
      ESP Fit Center  162 is at  -1.616091 -4.943333 -1.729084
      ESP Fit Center  163 is at  -0.913561 -5.780576 -1.729084
      ESP Fit Center  164 is at   0.162777 -5.970363 -1.729084
      ESP Fit Center  165 is at  -1.616091 -3.850391 -2.767382
      ESP Fit Center  166 is at  -1.616091 -4.943333 -2.767382
      ESP Fit Center  167 is at  -0.913561 -5.780576 -2.767382
      ESP Fit Center  168 is at   0.162777 -5.970363 -2.767382
      ESP Fit Center  169 is at  -0.913561 -4.977288 -3.607382
      ESP Fit Center  170 is at   1.552890 -2.694422  0.431499
      ESP Fit Center  171 is at   0.082890 -3.543127  0.431499
      ESP Fit Center  172 is at   1.062890 -3.543127  0.431499
      ESP Fit Center  173 is at   2.270300 -2.694422 -0.285911
      ESP Fit Center  174 is at   0.048362 -4.308755 -0.285911
      ESP Fit Center  175 is at   1.097418 -4.308755 -0.285911
      ESP Fit Center  176 is at   1.946123 -3.692134 -0.285911
      ESP Fit Center  177 is at   1.946123 -1.696710 -2.245911
      ESP Fit Center  178 is at  -2.743907 -1.660730 -0.958424
      ESP Fit Center  179 is at  -2.213764 -3.561333  0.617821
      ESP Fit Center  180 is at  -1.109729 -3.920056  0.617821
      ESP Fit Center  181 is at  -2.916294 -2.434436 -0.222179
      ESP Fit Center  182 is at  -2.916294 -3.527378 -0.222179
      ESP Fit Center  183 is at  -2.213764 -4.364621 -0.222179
      ESP Fit Center  184 is at  -1.137426 -4.554408 -0.222179
      ESP Fit Center  185 is at  -2.916294 -2.434436 -1.260477
      ESP Fit Center  186 is at  -2.916294 -3.527378 -1.260477
      ESP Fit Center  187 is at  -2.213764 -4.364621 -1.260477
      ESP Fit Center  188 is at  -2.213764 -3.561333 -2.100477
      ESP Fit Center  189 is at  -1.902028 -0.207611 -1.293316
      ESP Fit Center  190 is at  -2.604558 -1.044854 -1.293316
      ESP Fit Center  191 is at   0.120826 -0.564295 -2.331614
      ESP Fit Center  192 is at  -0.825690 -0.017824 -2.331614
      ESP Fit Center  193 is at  -1.902028 -0.207611 -2.331614
      ESP Fit Center  194 is at  -2.604558 -1.044854 -2.331614
      ESP Fit Center  195 is at  -2.604558 -2.137796 -2.331614
      ESP Fit Center  196 is at  -0.797993 -0.652176 -3.171614
      ESP Fit Center  197 is at  -1.902028 -1.010899 -3.171614
      ESP Fit Center  198 is at  -1.902028 -2.171751 -3.171614
      ESP Fit Center  199 is at  -1.103141 -1.591325 -3.492465
      ESP Fit Center  200 is at  -0.084027 -0.344392  2.077220
      ESP Fit Center  201 is at  -1.134027 -0.344392  2.077220
      ESP Fit Center  202 is at  -1.799992 -2.628165  1.308567
      ESP Fit Center  203 is at  -1.799992  0.120727 -0.791433
      ESP Fit Center  204 is at  -0.085300 -1.781888  2.749971
      ESP Fit Center  205 is at   0.902179 -1.781888  2.429120
      ESP Fit Center  206 is at   0.219848 -0.842739  2.429120
      ESP Fit Center  207 is at  -0.884187 -1.201462  2.429120
      ESP Fit Center  208 is at  -0.884187 -2.362314  2.429120
      ESP Fit Center  209 is at   0.219848 -2.721037  2.429120
      ESP Fit Center  210 is at  -0.884187 -3.165602  1.589120
      ESP Fit Center  211 is at   0.192151 -3.355389  1.589120
      ESP Fit Center  212 is at   1.138667 -2.808918  1.589120
      ESP Fit Center  213 is at   0.192151 -3.355389  0.550822
      ESP Fit Center  214 is at  -1.625738 -1.027797  2.279655
      ESP Fit Center  215 is at  -1.320590 -0.088648  1.958804
      ESP Fit Center  216 is at  -2.424625 -0.447371  1.958804
      ESP Fit Center  217 is at  -2.424625 -1.608223  1.958804
      ESP Fit Center  218 is at  -2.424625  0.355917  1.118804
      ESP Fit Center  219 is at  -3.127155 -0.481326  1.118804
      ESP Fit Center  220 is at  -3.127155 -1.574268  1.118804
      ESP Fit Center  221 is at  -2.424625 -2.411511  1.118804
      ESP Fit Center  222 is at  -2.424625  0.355917  0.080506
      ESP Fit Center  223 is at  -3.127155 -0.481326  0.080506
      ESP Fit Center  224 is at  -3.127155 -1.574268  0.080506
      ESP Fit Center  225 is at  -2.424625 -0.447371 -0.759494
      ESP Fit Center  226 is at   0.000000  0.000000  1.960000
      ESP Fit Center  227 is at  -1.697410  0.980000  0.000000
      ESP Fit Center  228 is at  -0.524528  1.614333 -0.980000
      ESP Fit Center  229 is at  -1.373233  0.997712 -0.980000
      ESP Fit Center  230 is at   0.490000  0.848705 -1.697410
      ESP Fit Center  231 is at  -0.490000  0.848705 -1.697410
      ESP Fit Center  232 is at   0.000000  0.000000 -1.960000
      ESP Fit Center  233 is at   2.615100 -1.728266  0.000000
      ESP Fit Center  234 is at   3.281622 -0.975919  0.000000
      ESP Fit Center  235 is at   3.030880 -1.545187 -0.370648
      ESP Fit Center  236 is at   3.404688 -0.518157 -1.408946
      ESP Fit Center  237 is at   3.030880 -1.545187 -1.408946
      ESP Fit Center  238 is at   2.794392 -0.518157 -2.248946
      ESP Fit Center  239 is at   2.112061  0.420992 -2.248946
      ESP Fit Center  240 is at   1.008026  0.062269 -2.248946
      ESP Fit Center  241 is at   2.112061 -1.457306 -2.248946
      ESP Fit Center  242 is at   1.806913 -0.518157 -2.569797
      ESP Fit Center  243 is at   1.801479 -0.530244  2.566574
      ESP Fit Center  244 is at   2.788958 -0.530244  2.245723
      ESP Fit Center  245 is at   1.002592  0.050182  2.245723
      ESP Fit Center  246 is at   1.002592 -1.110670  2.245723
      ESP Fit Center  247 is at   2.106627 -1.469393  2.245723
      ESP Fit Center  248 is at   3.399254 -0.530244  1.405723
      ESP Fit Center  249 is at   2.078930 -2.103745  1.405723
      ESP Fit Center  250 is at   3.025446 -1.557274  1.405723
      ESP Fit Center  251 is at   2.078930 -2.103745  0.367425
      ESP Fit Center  252 is at   3.025446 -1.557274  0.367425
      ESP Fit Center  253 is at   2.967028  1.439925 -1.818653
      ESP Fit Center  254 is at   2.705411  3.017411 -1.360720
      ESP Fit Center  255 is at   1.758895  3.563882 -1.360720
      ESP Fit Center  256 is at   0.682557  3.374095 -1.360720
      ESP Fit Center  257 is at  -0.019973  2.536852 -1.360720
      ESP Fit Center  258 is at  -0.019973  1.443910 -1.360720
      ESP Fit Center  259 is at   2.468923  1.990381 -2.200720
      ESP Fit Center  260 is at   1.786592  2.929530 -2.200720
      ESP Fit Center  261 is at   0.682557  2.570807 -2.200720
      ESP Fit Center  262 is at   0.682557  1.409955 -2.200720
      ESP Fit Center  263 is at   1.786592  1.051232 -2.200720
      ESP Fit Center  264 is at   1.481444  1.990381 -2.521571
      ESP Fit Center  265 is at   3.991640  1.439945  1.224407
      ESP Fit Center  266 is at   4.601936  1.439945  0.384407
      ESP Fit Center  267 is at   4.228128  2.466975  0.384407
      ESP Fit Center  268 is at   4.228128  0.412915  0.384407
      ESP Fit Center  269 is at   4.601936  1.439945 -0.653891
      ESP Fit Center  270 is at   4.228128  2.466975 -0.653891
      ESP Fit Center  271 is at   3.281612  3.013446 -0.653891
      ESP Fit Center  272 is at   4.228128  0.412915 -0.653891
      ESP Fit Center  273 is at   3.991640  1.439945 -1.493891
      ESP Fit Center  274 is at   3.309309  2.379094 -1.493891
      ESP Fit Center  275 is at   3.309309  0.500796 -1.493891
      ESP Fit Center  276 is at   3.004161  1.439945 -1.814742
      ESP Fit Center  277 is at   3.539880  2.386913  3.073865
      ESP Fit Center  278 is at   3.235803  3.422504  3.073865
      ESP Fit Center  279 is at   2.420115  4.129301  3.073865
      ESP Fit Center  280 is at   0.370016  0.939284  3.073865
      ESP Fit Center  281 is at   1.351791  0.490923  3.073865
      ESP Fit Center  282 is at   2.420115  0.644525  3.073865
      ESP Fit Center  283 is at   3.235803  1.351322  3.073865
      ESP Fit Center  284 is at   4.012966  2.386913  2.091491
      ESP Fit Center  285 is at   3.776423  3.423276  2.091491
      ESP Fit Center  286 is at   3.113644  4.254375  2.091491
      ESP Fit Center  287 is at   2.155901  4.715600  2.091491
      ESP Fit Center  288 is at   0.135142  0.519451  2.091491
      ESP Fit Center  289 is at   3.113644  0.519451  2.091491
      ESP Fit Center  290 is at   3.776423  1.350550  2.091491
      ESP Fit Center  291 is at   4.012966  2.386913  1.001139
      ESP Fit Center  292 is at   3.776423  3.423276  1.001139
      ESP Fit Center  293 is at   3.113644  4.254375  1.001139
      ESP Fit Center  294 is at   2.155901  4.715600  1.001139
      ESP Fit Center  295 is at   1.092885  4.715600  1.001139
      ESP Fit Center  296 is at   3.235803  3.422504  0.018765
      ESP Fit Center  297 is at   2.420115  4.129301  0.018765
      ESP Fit Center  298 is at   1.351791  4.282903  0.018765
      ESP Fit Center  299 is at  -1.874394  3.421531  0.273537
      ESP Fit Center  300 is at  -0.654409  1.999830 -0.495116
      ESP Fit Center  301 is at   0.092918  5.073826  0.919323
      ESP Fit Center  302 is at   1.039434  4.527355 -0.118975
      ESP Fit Center  303 is at   0.092918  5.073826 -0.118975
      ESP Fit Center  304 is at  -0.983420  4.884039 -0.118975
      ESP Fit Center  305 is at  -1.685950  4.046796 -0.118975
      ESP Fit Center  306 is at  -1.685950  2.953854 -0.118975
      ESP Fit Center  307 is at   0.120615  4.439474 -0.958975
      ESP Fit Center  308 is at  -0.983420  4.080751 -0.958975
      ESP Fit Center  309 is at  -0.983420  2.919899 -0.958975
      ESP Fit Center  310 is at  -0.184533  3.500325 -1.279826
      ESP Fit Center  311 is at  -2.250306  2.566018  1.721868
      ESP Fit Center  312 is at  -2.250306  1.473076  1.721868
      ESP Fit Center  313 is at  -1.547776  0.635833  1.721868
      ESP Fit Center  314 is at  -2.250306  2.566018  0.683570
      ESP Fit Center  315 is at  -2.250306  1.473076  0.683570
      ESP Fit Center  316 is at  -1.547776  1.439121 -0.156430
      ESP Fit Center  317 is at  -0.748889  2.019547 -0.477281
      ESP Fit Center  318 is at  -1.270175  5.843197  2.693180
      ESP Fit Center  319 is at  -2.346513  5.653410  2.693180
      ESP Fit Center  320 is at  -3.049043  4.816167  2.693180
      ESP Fit Center  321 is at  -3.049043  3.723225  2.693180
      ESP Fit Center  322 is at  -1.270175  5.843197  1.654882
      ESP Fit Center  323 is at  -2.346513  5.653410  1.654882
      ESP Fit Center  324 is at  -3.049043  4.816167  1.654882
      ESP Fit Center  325 is at  -3.049043  3.723225  1.654882
      ESP Fit Center  326 is at  -2.346513  2.885982  1.654882
      ESP Fit Center  327 is at  -1.242478  5.208845  0.814882
      ESP Fit Center  328 is at  -2.346513  4.850122  0.814882
      ESP Fit Center  329 is at  -2.346513  3.689270  0.814882
      ESP Fit Center  330 is at   1.688831  4.565086  3.248148
      ESP Fit Center  331 is at   1.315023  5.592116  3.248148
      ESP Fit Center  332 is at   0.368507  6.138587  3.248148
      ESP Fit Center  333 is at  -0.707831  5.948800  3.248148
      ESP Fit Center  334 is at   1.315023  5.592116  2.209850
      ESP Fit Center  335 is at   0.368507  6.138587  2.209850
      ESP Fit Center  336 is at  -0.707831  5.948800  2.209850
      ESP Fit Center  337 is at   0.396204  5.504235  1.369850
      ESP Fit Center  338 is at  -2.168907  2.882610  6.235071
      ESP Fit Center  339 is at  -1.637400  1.962012  6.235071
      ESP Fit Center  340 is at  -2.360269  4.330239  5.555247
      ESP Fit Center  341 is at  -2.943788  3.422265  5.555247
      ESP Fit Center  342 is at  -2.943788  2.342955  5.555247
      ESP Fit Center  343 is at  -2.360269  1.434981  5.555247
      ESP Fit Center  344 is at  -1.378494  0.986620  5.555247
      ESP Fit Center  345 is at  -1.637400  5.211297  4.572873
      ESP Fit Center  346 is at  -2.595143  4.750072  4.572873
      ESP Fit Center  347 is at  -3.257922  3.918973  4.572873
      ESP Fit Center  348 is at  -3.494465  2.882610  4.572873
      ESP Fit Center  349 is at  -3.257922  1.846247  4.572873
      ESP Fit Center  350 is at  -2.595143  1.015148  4.572873
      ESP Fit Center  351 is at  -1.637400  0.553923  4.572873
      ESP Fit Center  352 is at  -0.574384  0.553923  4.572873
      ESP Fit Center  353 is at  -2.595143  4.750072  3.482521
      ESP Fit Center  354 is at  -3.257922  3.918973  3.482521
      ESP Fit Center  355 is at  -3.494465  2.882610  3.482521
      ESP Fit Center  356 is at  -3.257922  1.846247  3.482521
      ESP Fit Center  357 is at  -2.595143  1.015148  3.482521
      ESP Fit Center  358 is at  -1.637400  0.553923  3.482521
      ESP Fit Center  359 is at  -0.574384  0.553923  3.482521
      ESP Fit Center  360 is at   0.383359  1.015148  3.482521
      ESP Fit Center  361 is at  -2.943788  2.342955  2.500147
      ESP Fit Center  362 is at  -2.360269  1.434981  2.500147
      ESP Fit Center  363 is at  -1.378494  0.986620  2.500147
      ESP Fit Center  364 is at   2.002906  1.805624  6.013337
      ESP Fit Center  365 is at   2.854280  2.418915  4.813269
      ESP Fit Center  366 is at   1.533956  0.845414  4.813269
      ESP Fit Center  367 is at   2.480472  1.391885  4.813269
      ESP Fit Center  368 is at   2.854280  2.418915  3.774971
      ESP Fit Center  369 is at   2.480472  3.445945  3.774971
      ESP Fit Center  370 is at   1.533956  0.845414  3.774971
      ESP Fit Center  371 is at   2.480472  1.391885  3.774971
      ESP Fit Center  372 is at  -0.497635  1.430325  7.073316
      ESP Fit Center  373 is at   0.606400  1.071602  7.073316
      ESP Fit Center  374 is at  -1.200165  1.464280  6.233316
      ESP Fit Center  375 is at  -0.497635  0.627037  6.233316
      ESP Fit Center  376 is at   0.578703  0.437250  6.233316
      ESP Fit Center  377 is at   1.525219  0.983721  6.233316
      ESP Fit Center  378 is at  -0.497635  0.627037  5.195018
      ESP Fit Center  379 is at   0.578703  0.437250  5.195018
      ESP Fit Center  380 is at   1.525219  0.983721  5.195018
      ESP Fit Center  381 is at   1.679773  2.438467  6.681466
      ESP Fit Center  382 is at   1.974277  4.092772  3.812813
      ESP Fit Center  383 is at   2.947691  3.984545  7.337712
      ESP Fit Center  384 is at   3.557987  3.984545  6.497712
      ESP Fit Center  385 is at   3.184179  5.011575  6.497712
      ESP Fit Center  386 is at   2.237663  5.558046  6.497712
      ESP Fit Center  387 is at   2.237663  2.411044  6.497712
      ESP Fit Center  388 is at   3.184179  2.957515  6.497712
      ESP Fit Center  389 is at   3.557987  3.984545  5.459414
      ESP Fit Center  390 is at   3.184179  5.011575  5.459414
      ESP Fit Center  391 is at   3.184179  2.957515  5.459414
      ESP Fit Center  392 is at   2.947691  3.984545  4.619414
      ESP Fit Center  393 is at   2.143704  5.943815  5.430125
      ESP Fit Center  394 is at   1.197188  6.490286  5.430125
      ESP Fit Center  395 is at   2.517512  4.916785  4.391827
      ESP Fit Center  396 is at   2.143704  5.943815  4.391827
      ESP Fit Center  397 is at   1.197188  6.490286  4.391827
      ESP Fit Center  398 is at   0.120850  6.300499  4.391827
      ESP Fit Center  399 is at  -0.581680  5.463256  4.391827
      ESP Fit Center  400 is at   1.907216  4.916785  3.551827
      ESP Fit Center  401 is at   1.224885  5.855934  3.551827
      ESP Fit Center  402 is at   1.514560  5.704882  8.570778
      ESP Fit Center  403 is at   0.698872  6.411679  8.570778
      ESP Fit Center  404 is at  -0.369452  6.565281  8.570778
      ESP Fit Center  405 is at  -1.351227  6.116920  8.570778
      ESP Fit Center  406 is at  -1.934746  5.208946  8.570778
      ESP Fit Center  407 is at   2.055180  5.705654  7.588404
      ESP Fit Center  408 is at   1.392401  6.536753  7.588404
      ESP Fit Center  409 is at   0.434658  6.997978  7.588404
      ESP Fit Center  410 is at  -0.628358  6.997978  7.588404
      ESP Fit Center  411 is at  -1.586101  6.536753  7.588404
      ESP Fit Center  412 is at  -2.248880  5.705654  7.588404
      ESP Fit Center  413 is at  -2.485423  4.669291  7.588404
      ESP Fit Center  414 is at  -2.248880  3.632928  7.588404
      ESP Fit Center  415 is at  -1.586101  2.801829  7.588404
      ESP Fit Center  416 is at   2.055180  5.705654  6.498052
      ESP Fit Center  417 is at   1.392401  6.536753  6.498052
      ESP Fit Center  418 is at   0.434658  6.997978  6.498052
      ESP Fit Center  419 is at  -0.628358  6.997978  6.498052
      ESP Fit Center  420 is at  -1.586101  6.536753  6.498052
      ESP Fit Center  421 is at  -2.248880  5.705654  6.498052
      ESP Fit Center  422 is at  -2.485423  4.669291  6.498052
      ESP Fit Center  423 is at  -2.248880  3.632928  6.498052
      ESP Fit Center  424 is at  -1.586101  2.801829  6.498052
      ESP Fit Center  425 is at  -0.369452  6.565281  5.515678
      ESP Fit Center  426 is at  -1.351227  6.116920  5.515678
      ESP Fit Center  427 is at  -1.934746  5.208946  5.515678
      ESP Fit Center  428 is at  -0.628358  5.589889  4.835854
      ESP Fit Center  429 is at   1.275352  1.900671  9.420976
      ESP Fit Center  430 is at   0.637266  1.573310  9.449896
      ESP Fit Center  431 is at  -1.169299  1.965988  8.609896
      ESP Fit Center  432 is at  -0.466769  1.128745  8.609896
      ESP Fit Center  433 is at   0.609569  0.938958  8.609896
      ESP Fit Center  434 is at   1.556085  1.485429  8.609896
      ESP Fit Center  435 is at  -1.169299  1.965988  7.571598
      ESP Fit Center  436 is at  -0.466769  1.128745  7.571598
      ESP Fit Center  437 is at   0.609569  0.938958  7.571598
      ESP Fit Center  438 is at   1.556085  1.485429  7.571598
      ESP Fit Center  439 is at   2.590983  3.688629  9.829855
      ESP Fit Center  440 is at   1.908652  4.627778  9.829855
      ESP Fit Center  441 is at   1.908652  2.749480  9.829855
      ESP Fit Center  442 is at   3.201279  3.688629  8.989855
      ESP Fit Center  443 is at   2.827471  4.715659  8.989855
      ESP Fit Center  444 is at   1.880955  5.262130  8.989855
      ESP Fit Center  445 is at   2.827471  2.661599  8.989855
      ESP Fit Center  446 is at   3.201279  3.688629  7.951557
      ESP Fit Center  447 is at   2.827471  4.715659  7.951557
      ESP Fit Center  448 is at   2.827471  2.661599  7.951557
      ESP Fit Center  449 is at  -1.233361  3.879352 11.507432
      ESP Fit Center  450 is at   1.676097  4.855271  9.688779
      ESP Fit Center  451 is at  -0.928031  1.915818  9.688779
      ESP Fit Center  452 is at  -2.065045  4.319819 10.963583
      ESP Fit Center  453 is at  -2.065045  3.158967 10.963583
      ESP Fit Center  454 is at  -2.065045  5.123107 10.123583
      ESP Fit Center  455 is at  -2.767575  4.285864 10.123583
      ESP Fit Center  456 is at  -2.767575  3.192922 10.123583
      ESP Fit Center  457 is at  -2.065045  2.355679 10.123583
      ESP Fit Center  458 is at  -2.065045  5.123107  9.085285
      ESP Fit Center  459 is at  -2.767575  4.285864  9.085285
      ESP Fit Center  460 is at  -2.767575  3.192922  9.085285
      ESP Fit Center  461 is at  -2.065045  2.355679  9.085285
      ESP Fit Center  462 is at  -2.065045  3.158967  8.245285
      ESP Fit Center  463 is at   0.183181  3.220460 12.164195
      ESP Fit Center  464 is at   1.170660  3.220460 11.843344
      ESP Fit Center  465 is at   0.488329  4.159609 11.843344
      ESP Fit Center  466 is at  -0.615706  3.800886 11.843344
      ESP Fit Center  467 is at  -0.615706  2.640034 11.843344
      ESP Fit Center  468 is at   0.488329  2.281311 11.843344
      ESP Fit Center  469 is at   1.780956  3.220460 11.003344
      ESP Fit Center  470 is at  -1.318236  2.673989 11.003344
      ESP Fit Center  471 is at  -0.615706  1.836746 11.003344
      ESP Fit Center  472 is at   0.460632  1.646959 11.003344
      ESP Fit Center  473 is at   1.407148  2.193430 11.003344
      ESP Fit Center  474 is at  -0.615706  1.836746  9.965046
      ESP Fit Center  475 is at   0.460632  1.646959  9.965046
      ESP Fit Center  476 is at   1.407148  2.193430  9.965046
      ESP Fit Center  477 is at   0.002897  4.914880 11.672598
      ESP Fit Center  478 is at   0.990376  4.914880 11.351747
      ESP Fit Center  479 is at   0.308045  5.854029 11.351747
      ESP Fit Center  480 is at  -0.795990  5.495306 11.351747
      ESP Fit Center  481 is at   1.600672  4.914880 10.511747
      ESP Fit Center  482 is at   1.226864  5.941910 10.511747
      ESP Fit Center  483 is at   0.280348  6.488381 10.511747
      ESP Fit Center  484 is at  -0.795990  6.298594 10.511747
      ESP Fit Center  485 is at  -1.498520  5.461351 10.511747
      ESP Fit Center  486 is at   1.226864  5.941910  9.473449
      ESP Fit Center  487 is at   0.280348  6.488381  9.473449
      ESP Fit Center  488 is at  -0.795990  6.298594  9.473449
      ESP Fit Center  489 is at   2.160839 -7.323607 -4.481470
      ESP Fit Center  490 is at   4.535989 -4.451097 -6.511896
      ESP Fit Center  491 is at   0.627490 -4.937668 -7.474222
      ESP Fit Center  492 is at   2.160839 -7.323607 -7.474222
      ESP Fit Center  493 is at   3.207361 -7.173139 -7.474222
      ESP Fit Center  494 is at   4.006402 -6.480766 -7.474222
      ESP Fit Center  495 is at   1.056914 -6.933420 -4.339176
      ESP Fit Center  496 is at  -0.125855 -6.102036 -5.041945
      ESP Fit Center  497 is at   0.191706 -7.079387 -5.041945
      ESP Fit Center  498 is at   1.023090 -7.683423 -5.041945
      ESP Fit Center  499 is at   2.050738 -7.683423 -5.041945
      ESP Fit Center  500 is at  -0.125855 -5.142036 -6.001945
      ESP Fit Center  501 is at  -0.383086 -6.102036 -6.001945
      ESP Fit Center  502 is at  -0.125855 -7.062036 -6.001945
      ESP Fit Center  503 is at   0.576914 -7.764805 -6.001945
      ESP Fit Center  504 is at   1.536914 -8.022036 -6.001945
      ESP Fit Center  505 is at   0.191706 -5.124685 -6.961945
      ESP Fit Center  506 is at  -0.125855 -6.102036 -6.961945
      ESP Fit Center  507 is at   0.191706 -7.079387 -6.961945
      ESP Fit Center  508 is at   1.023090 -7.683423 -6.961945
      ESP Fit Center  509 is at   2.050738 -7.683423 -6.961945
      ESP Fit Center  510 is at   0.576914 -6.102036 -7.664714
      ESP Fit Center  511 is at   1.056914 -6.933420 -7.664714
      ESP Fit Center  512 is at   4.239731 -4.078269 -6.975247
      ESP Fit Center  513 is at   3.536962 -3.375500 -6.975247
      ESP Fit Center  514 is at   2.576962 -3.118269 -6.975247
      ESP Fit Center  515 is at   4.239731 -5.038269 -7.935247
      ESP Fit Center  516 is at   3.922170 -4.060918 -7.935247
      ESP Fit Center  517 is at   3.090786 -3.456882 -7.935247
      ESP Fit Center  518 is at   2.063138 -3.456882 -7.935247
      ESP Fit Center  519 is at   1.231754 -4.060918 -7.935247
      ESP Fit Center  520 is at   0.914193 -5.038269 -7.935247
      ESP Fit Center  521 is at   3.922170 -6.015620 -7.935247
      ESP Fit Center  522 is at   3.536962 -5.038269 -8.638016
      ESP Fit Center  523 is at   3.056962 -4.206885 -8.638016
      ESP Fit Center  524 is at   2.096962 -4.206885 -8.638016
      ESP Fit Center  525 is at   1.616962 -5.038269 -8.638016
      ESP Fit Center  526 is at   2.096962 -5.869653 -8.638016
      ESP Fit Center  527 is at   3.056962 -5.869653 -8.638016
      ESP Fit Center  528 is at   2.576962 -5.038269 -8.895247
      ESP Fit Center  529 is at   4.250436 -6.094916 -4.071857
      ESP Fit Center  530 is at   3.770436 -6.926300 -4.071857
      ESP Fit Center  531 is at   4.953205 -6.094916 -4.774626
      ESP Fit Center  532 is at   4.635644 -5.117565 -4.774626
      ESP Fit Center  533 is at   2.776612 -7.676303 -4.774626
      ESP Fit Center  534 is at   3.804260 -7.676303 -4.774626
      ESP Fit Center  535 is at   4.635644 -7.072267 -4.774626
      ESP Fit Center  536 is at   5.210436 -6.094916 -5.734626
      ESP Fit Center  537 is at   4.953205 -5.134916 -5.734626
      ESP Fit Center  538 is at   3.290436 -8.014916 -5.734626
      ESP Fit Center  539 is at   4.250436 -7.757685 -5.734626
      ESP Fit Center  540 is at   4.953205 -7.054916 -5.734626
      ESP Fit Center  541 is at   4.953205 -6.094916 -6.694626
      ESP Fit Center  542 is at   3.804260 -7.676303 -6.694626
      ESP Fit Center  543 is at   4.635644 -7.072267 -6.694626
      ESP Fit Center  544 is at   3.770436 -6.926300 -7.397395
      ESP Fit Center  545 is at   4.822678 -3.714903 -3.967431
      ESP Fit Center  546 is at   4.505117 -2.737552 -3.967431
      ESP Fit Center  547 is at   3.673733 -2.133516 -3.967431
      ESP Fit Center  548 is at   4.505117 -4.692254 -3.967431
      ESP Fit Center  549 is at   5.079909 -3.714903 -4.927431
      ESP Fit Center  550 is at   4.822678 -2.754903 -4.927431
      ESP Fit Center  551 is at   4.119909 -2.052134 -4.927431
      ESP Fit Center  552 is at   3.159909 -1.794903 -4.927431
      ESP Fit Center  553 is at   4.822678 -4.674903 -4.927431
      ESP Fit Center  554 is at   4.822678 -3.714903 -5.887431
      ESP Fit Center  555 is at   4.505117 -2.737552 -5.887431
      ESP Fit Center  556 is at   3.673733 -2.133516 -5.887431
      ESP Fit Center  557 is at   2.646085 -2.133516 -5.887431
      ESP Fit Center  558 is at   4.119909 -3.714903 -6.590200
      ESP Fit Center  559 is at   3.639909 -2.883519 -6.590200
      ESP Fit Center  560 is at   1.407458 -1.803708 -5.201520
      ESP Fit Center  561 is at   0.447458 -2.060939 -5.201520
      ESP Fit Center  562 is at  -0.255311 -2.763708 -5.201520
      ESP Fit Center  563 is at  -0.512542 -3.723708 -5.201520
      ESP Fit Center  564 is at  -0.255311 -4.683708 -5.201520
      ESP Fit Center  565 is at   1.921282 -2.142321 -6.161520
      ESP Fit Center  566 is at   0.893634 -2.142321 -6.161520
      ESP Fit Center  567 is at   0.062250 -2.746357 -6.161520
      ESP Fit Center  568 is at  -0.255311 -3.723708 -6.161520
      ESP Fit Center  569 is at   0.062250 -4.701059 -6.161520
      ESP Fit Center  570 is at   1.887458 -2.892324 -6.864289
      ESP Fit Center  571 is at   0.927458 -2.892324 -6.864289
      ESP Fit Center  572 is at   0.447458 -3.723708 -6.864289
      ESP Fit Center  573 is at   1.549477 -6.637918 -2.275876
      ESP Fit Center  574 is at   2.631841 -6.637918 -2.275876
      ESP Fit Center  575 is at   3.507493 -6.001720 -2.275876
      ESP Fit Center  576 is at   4.274498 -4.972330 -3.174046
      ESP Fit Center  577 is at   0.456032 -6.420483 -3.174046
      ESP Fit Center  578 is at   1.316259 -7.014254 -3.174046
      ESP Fit Center  579 is at   2.353892 -7.140246 -3.174046
      ESP Fit Center  580 is at   3.331221 -6.769594 -3.174046
      ESP Fit Center  581 is at   4.024352 -5.987210 -3.174046
      ESP Fit Center  582 is at  -0.029721 -5.494957 -4.170940
      ESP Fit Center  583 is at   0.456032 -6.420483 -4.170940
      ESP Fit Center  584 is at   1.316259 -7.014254 -4.170940
      ESP Fit Center  585 is at   2.353892 -7.140246 -4.170940
      ESP Fit Center  586 is at   4.334222 -4.066588 -2.054642
      ESP Fit Center  587 is at   3.645166 -3.218196 -1.050791
      ESP Fit Center  588 is at   3.165166 -2.386812 -1.050791
      ESP Fit Center  589 is at   4.347935 -3.218196 -1.753560
      ESP Fit Center  590 is at   4.030374 -2.240845 -1.753560
      ESP Fit Center  591 is at   3.198990 -1.636809 -1.753560
      ESP Fit Center  592 is at   4.605166 -3.218196 -2.713560
      ESP Fit Center  593 is at   4.347935 -2.258196 -2.713560
      ESP Fit Center  594 is at   3.645166 -1.555427 -2.713560
      ESP Fit Center  595 is at   2.685166 -1.298196 -2.713560
      ESP Fit Center  596 is at   4.030374 -2.240845 -3.673560
      ESP Fit Center  597 is at   3.198990 -1.636809 -3.673560
      ESP Fit Center  598 is at   2.171342 -1.636809 -3.673560
      ESP Fit Center  599 is at   2.295641 -4.613833  0.230621
      ESP Fit Center  600 is at   3.255641 -4.613833 -0.026610
      ESP Fit Center  601 is at   2.775641 -3.782449 -0.026610
      ESP Fit Center  602 is at   1.335641 -4.613833 -0.026610
      ESP Fit Center  603 is at   1.815641 -5.445217 -0.026610
      ESP Fit Center  604 is at   2.775641 -5.445217 -0.026610
      ESP Fit Center  605 is at   3.958410 -4.613833 -0.729379
      ESP Fit Center  606 is at   3.640849 -3.636482 -0.729379
      ESP Fit Center  607 is at   0.950433 -5.591184 -0.729379
      ESP Fit Center  608 is at   1.781817 -6.195220 -0.729379
      ESP Fit Center  609 is at   2.809465 -6.195220 -0.729379
      ESP Fit Center  610 is at   3.640849 -5.591184 -0.729379
      ESP Fit Center  611 is at   4.215641 -4.613833 -1.689379
      ESP Fit Center  612 is at   1.335641 -6.276602 -1.689379
      ESP Fit Center  613 is at   2.295641 -6.533833 -1.689379
      ESP Fit Center  614 is at   3.255641 -6.276602 -1.689379
      ESP Fit Center  615 is at   3.958410 -5.573833 -1.689379
      ESP Fit Center  616 is at   1.089759 -1.264662 -2.932012
      ESP Fit Center  617 is at  -1.770728 -3.545825 -2.932012
      ESP Fit Center  618 is at   1.185986 -1.335773 -3.291326
      ESP Fit Center  619 is at   0.225986 -1.078542 -3.291326
      ESP Fit Center  620 is at  -1.694014 -2.998542 -3.291326
      ESP Fit Center  621 is at   1.571194 -2.021191 -4.251326
      ESP Fit Center  622 is at   0.739810 -1.417155 -4.251326
      ESP Fit Center  623 is at  -0.287838 -1.417155 -4.251326
      ESP Fit Center  624 is at  -1.119222 -2.021191 -4.251326
      ESP Fit Center  625 is at  -1.436783 -2.998542 -4.251326
      ESP Fit Center  626 is at  -1.119222 -3.975893 -4.251326
      ESP Fit Center  627 is at  -0.254014 -2.167158 -4.954095
      ESP Fit Center  628 is at  -0.734014 -2.998542 -4.954095
      ESP Fit Center  629 is at  -0.594674 -5.228246 -0.585464
      ESP Fit Center  630 is at   0.365326 -5.228246 -0.585464
      ESP Fit Center  631 is at  -1.459882 -5.374213 -1.288233
      ESP Fit Center  632 is at  -0.628498 -5.978249 -1.288233
      ESP Fit Center  633 is at   0.399150 -5.978249 -1.288233
      ESP Fit Center  634 is at  -2.034674 -4.396862 -2.248233
      ESP Fit Center  635 is at  -1.777443 -5.356862 -2.248233
      ESP Fit Center  636 is at  -1.074674 -6.059631 -2.248233
      ESP Fit Center  637 is at  -0.114674 -6.316862 -2.248233
      ESP Fit Center  638 is at  -1.777443 -4.396862 -3.208233
      ESP Fit Center  639 is at  -1.459882 -5.374213 -3.208233
      ESP Fit Center  640 is at  -0.628498 -5.978249 -3.208233
      ESP Fit Center  641 is at  -0.594674 -5.228246 -3.911002
      ESP Fit Center  642 is at   1.058840 -3.536112  0.752259
      ESP Fit Center  643 is at   2.324193 -2.694422  0.130706
      ESP Fit Center  644 is at   0.031708 -4.360010  0.130706
      ESP Fit Center  645 is at   1.114072 -4.360010  0.130706
      ESP Fit Center  646 is at   1.989724 -3.723812  0.130706
      ESP Fit Center  647 is at   2.756729 -2.694422 -0.767464
      ESP Fit Center  648 is at   1.114072 -1.028834 -2.662528
      ESP Fit Center  649 is at  -3.044756 -2.163293 -1.492474
      ESP Fit Center  650 is at  -2.374877 -2.980907  0.921441
      ESP Fit Center  651 is at  -1.894877 -3.812291  0.921441
      ESP Fit Center  652 is at  -0.934877 -3.812291  0.921441
      ESP Fit Center  653 is at  -3.077646 -2.980907  0.218672
      ESP Fit Center  654 is at  -2.760085 -3.958258  0.218672
      ESP Fit Center  655 is at  -1.928701 -4.562294  0.218672
      ESP Fit Center  656 is at  -0.901053 -4.562294  0.218672
      ESP Fit Center  657 is at  -3.334877 -2.980907 -0.741328
      ESP Fit Center  658 is at  -3.077646 -3.940907 -0.741328
      ESP Fit Center  659 is at  -2.374877 -4.643676 -0.741328
      ESP Fit Center  660 is at  -1.414877 -4.900907 -0.741328
      ESP Fit Center  661 is at  -3.077646 -2.980907 -1.701328
      ESP Fit Center  662 is at  -2.760085 -3.958258 -1.701328
      ESP Fit Center  663 is at  -2.063141  0.071444 -1.812465
      ESP Fit Center  664 is at  -2.765910 -0.631325 -1.812465
      ESP Fit Center  665 is at  -3.023141 -1.591325 -1.812465
      ESP Fit Center  666 is at   0.242067 -0.613974 -2.772465
      ESP Fit Center  667 is at  -0.589317 -0.009938 -2.772465
      ESP Fit Center  668 is at  -1.616965 -0.009938 -2.772465
      ESP Fit Center  669 is at  -2.448349 -0.613974 -2.772465
      ESP Fit Center  670 is at  -2.765910 -1.591325 -2.772465
      ESP Fit Center  671 is at  -2.448349 -2.568676 -2.772465
      ESP Fit Center  672 is at  -0.623141 -0.759941 -3.475234
      ESP Fit Center  673 is at  -1.583141 -0.759941 -3.475234
      ESP Fit Center  674 is at  -2.063141 -1.591325 -3.475234
      ESP Fit Center  675 is at  -1.103141 -1.591325 -3.732465
      ESP Fit Center  676 is at  -0.088367 -0.351909  2.420892
      ESP Fit Center  677 is at  -1.129687 -0.351909  2.420892
      ESP Fit Center  678 is at  -1.837805 -2.671804  1.754943
      ESP Fit Center  679 is at  -0.085300 -1.781888  2.989971
      ESP Fit Center  680 is at   0.874700 -1.781888  2.732740
      ESP Fit Center  681 is at   0.394700 -0.950504  2.732740
      ESP Fit Center  682 is at  -0.565300 -0.950504  2.732740
      ESP Fit Center  683 is at  -1.045300 -1.781888  2.732740
      ESP Fit Center  684 is at  -0.565300 -2.613272  2.732740
      ESP Fit Center  685 is at   0.394700 -2.613272  2.732740
      ESP Fit Center  686 is at  -1.430508 -2.759239  2.029971
      ESP Fit Center  687 is at  -0.599124 -3.363275  2.029971
      ESP Fit Center  688 is at   0.428524 -3.363275  2.029971
      ESP Fit Center  689 is at   1.259908 -2.759239  2.029971
      ESP Fit Center  690 is at  -0.085300 -3.701888  1.069971
      ESP Fit Center  691 is at   0.874700 -3.444657  1.069971
      ESP Fit Center  692 is at   1.577469 -2.741888  1.069971
      ESP Fit Center  693 is at  -1.625738 -1.027797  2.519655
      ESP Fit Center  694 is at  -2.105738 -0.196413  2.262424
      ESP Fit Center  695 is at  -2.585738 -1.027797  2.262424
      ESP Fit Center  696 is at  -2.105738 -1.859181  2.262424
      ESP Fit Center  697 is at  -2.139562  0.553590  1.559655
      ESP Fit Center  698 is at  -2.970946 -0.050446  1.559655
      ESP Fit Center  699 is at  -3.288507 -1.027797  1.559655
      ESP Fit Center  700 is at  -2.970946 -2.005148  1.559655
      ESP Fit Center  701 is at  -2.139562 -2.609184  1.559655
      ESP Fit Center  702 is at  -2.585738  0.634972  0.599655
      ESP Fit Center  703 is at  -3.288507 -0.067797  0.599655
      ESP Fit Center  704 is at  -3.545738 -1.027797  0.599655
      ESP Fit Center  705 is at  -3.288507 -1.987797  0.599655
      ESP Fit Center  706 is at  -2.970946 -0.050446 -0.360345
      ESP Fit Center  707 is at  -3.288507 -1.027797 -0.360345
      ESP Fit Center  708 is at   0.000000  0.000000  2.240000
      ESP Fit Center  709 is at  -1.634627  1.448153 -0.498447
      ESP Fit Center  710 is at  -2.120380  0.522627 -0.498447
      ESP Fit Center  711 is at  -0.541182  1.665588 -1.396617
      ESP Fit Center  712 is at  -1.416834  1.029390 -1.396617
      ESP Fit Center  713 is at  -0.485950  0.841690 -2.018170
      ESP Fit Center  714 is at   0.000000  0.000000 -2.240000
      ESP Fit Center  715 is at   3.726913 -0.518157 -0.889797
      ESP Fit Center  716 is at   2.766913 -2.180926 -0.889797
      ESP Fit Center  717 is at   3.469682 -1.478157 -0.889797
      ESP Fit Center  718 is at   3.469682 -0.518157 -1.849797
      ESP Fit Center  719 is at   3.152121  0.459194 -1.849797
      ESP Fit Center  720 is at   3.152121 -1.495508 -1.849797
      ESP Fit Center  721 is at   2.766913 -0.518157 -2.552566
      ESP Fit Center  722 is at   2.286913  0.313227 -2.552566
      ESP Fit Center  723 is at   1.326913  0.313227 -2.552566
      ESP Fit Center  724 is at   0.846913 -0.518157 -2.552566
      ESP Fit Center  725 is at   1.806913 -0.518157 -2.809797
      ESP Fit Center  726 is at   1.801479 -0.530244  2.806574
      ESP Fit Center  727 is at   2.761479 -0.530244  2.549343
      ESP Fit Center  728 is at   0.841479 -0.530244  2.549343
      ESP Fit Center  729 is at   1.321479 -1.361628  2.549343
      ESP Fit Center  730 is at   2.281479 -1.361628  2.549343
      ESP Fit Center  731 is at   3.464248 -0.530244  1.846574
      ESP Fit Center  732 is at   2.315303 -2.111631  1.846574
      ESP Fit Center  733 is at   3.146687 -1.507595  1.846574
      ESP Fit Center  734 is at   3.721479 -0.530244  0.886574
      ESP Fit Center  735 is at   1.801479 -2.450244  0.886574
      ESP Fit Center  736 is at   2.761479 -2.193013  0.886574
      ESP Fit Center  737 is at   3.464248 -1.490244  0.886574
      ESP Fit Center  738 is at   2.958349  1.439925 -2.162325
      ESP Fit Center  739 is at   2.441444  3.653150 -0.841571
      ESP Fit Center  740 is at   1.481444  3.910381 -0.841571
      ESP Fit Center  741 is at   2.826652  2.967732 -1.801571
      ESP Fit Center  742 is at   1.995268  3.571768 -1.801571
      ESP Fit Center  743 is at   0.967620  3.571768 -1.801571
      ESP Fit Center  744 is at   0.136236  2.967732 -1.801571
      ESP Fit Center  745 is at  -0.181325  1.990381 -1.801571
      ESP Fit Center  746 is at   2.441444  1.990381 -2.504340
      ESP Fit Center  747 is at   1.961444  2.821765 -2.504340
      ESP Fit Center  748 is at   1.001444  2.821765 -2.504340
      ESP Fit Center  749 is at   0.521444  1.990381 -2.504340
      ESP Fit Center  750 is at   1.001444  1.158997 -2.504340
      ESP Fit Center  751 is at   1.961444  1.158997 -2.504340
      ESP Fit Center  752 is at   1.481444  1.990381 -2.761571
      ESP Fit Center  753 is at   4.666930  1.439945  0.825258
      ESP Fit Center  754 is at   4.349369  2.417296  0.825258
      ESP Fit Center  755 is at   4.349369  0.462594  0.825258
      ESP Fit Center  756 is at   4.924161  1.439945 -0.134742
      ESP Fit Center  757 is at   4.666930  2.399945 -0.134742
      ESP Fit Center  758 is at   3.964161  3.102714 -0.134742
      ESP Fit Center  759 is at   3.964161 -0.222824 -0.134742
      ESP Fit Center  760 is at   4.666930  0.479945 -0.134742
      ESP Fit Center  761 is at   4.666930  1.439945 -1.094742
      ESP Fit Center  762 is at   4.349369  2.417296 -1.094742
      ESP Fit Center  763 is at   3.517985  3.021332 -1.094742
      ESP Fit Center  764 is at   4.349369  0.462594 -1.094742
      ESP Fit Center  765 is at   3.964161  1.439945 -1.797511
      ESP Fit Center  766 is at   3.484161  2.271329 -1.797511
      ESP Fit Center  767 is at   3.484161  0.608561 -1.797511
      ESP Fit Center  768 is at   3.604292  2.386913  3.526214
      ESP Fit Center  769 is at   3.339036  3.376862  3.526214
      ESP Fit Center  770 is at   2.614342  4.101556  3.526214
      ESP Fit Center  771 is at   0.634444  0.672270  3.526214
      ESP Fit Center  772 is at   1.624393  0.407014  3.526214
      ESP Fit Center  773 is at   2.614342  0.672270  3.526214
      ESP Fit Center  774 is at   3.339036  1.396964  3.526214
      ESP Fit Center  775 is at   4.211256  2.386913  2.617829
      ESP Fit Center  776 is at   3.987610  3.439085  2.617829
      ESP Fit Center  777 is at   3.355342  4.309327  2.617829
      ESP Fit Center  778 is at   2.423778  4.847166  2.617829
      ESP Fit Center  779 is at   0.330962  0.146624  2.617829
      ESP Fit Center  780 is at   3.355342  0.464499  2.617829
      ESP Fit Center  781 is at   3.987610  1.334741  2.617829
      ESP Fit Center  782 is at   4.424393  2.386913  1.546315
      ESP Fit Center  783 is at   4.235315  3.398390  1.546315
      ESP Fit Center  784 is at   3.693618  4.273261  1.546315
      ESP Fit Center  785 is at   2.872460  4.893370  1.546315
      ESP Fit Center  786 is at   1.882744  5.174969  1.546315
      ESP Fit Center  787 is at   3.693618  0.500565  1.546315
      ESP Fit Center  788 is at   4.235315  1.375436  1.546315
      ESP Fit Center  789 is at   3.987610  3.439085  0.474801
      ESP Fit Center  790 is at   3.355342  4.309327  0.474801
      ESP Fit Center  791 is at   2.423778  4.847166  0.474801
      ESP Fit Center  792 is at   1.353992  4.959605  0.474801
      ESP Fit Center  793 is at   3.339036  3.376862 -0.433584
      ESP Fit Center  794 is at   2.614342  4.101556 -0.433584
      ESP Fit Center  795 is at   1.624393  4.366812 -0.433584
      ESP Fit Center  796 is at  -2.469236  2.909157  0.789487
      ESP Fit Center  797 is at  -0.650069  2.007347 -0.838788
      ESP Fit Center  798 is at   0.775467  5.163094  0.400174
      ESP Fit Center  799 is at  -0.184533  5.420325  0.400174
      ESP Fit Center  800 is at  -1.144533  5.163094  0.400174
      ESP Fit Center  801 is at   1.160675  4.477676 -0.559826
      ESP Fit Center  802 is at   0.329291  5.081712 -0.559826
      ESP Fit Center  803 is at  -0.698357  5.081712 -0.559826
      ESP Fit Center  804 is at  -1.529741  4.477676 -0.559826
      ESP Fit Center  805 is at  -1.847302  3.500325 -0.559826
      ESP Fit Center  806 is at   0.295467  4.331709 -1.262595
      ESP Fit Center  807 is at  -0.664533  4.331709 -1.262595
      ESP Fit Center  808 is at  -1.144533  3.500325 -1.262595
      ESP Fit Center  809 is at  -0.664533  2.668941 -1.262595
      ESP Fit Center  810 is at  -0.184533  3.500325 -1.519826
      ESP Fit Center  811 is at  -2.094097  1.042196  2.162719
      ESP Fit Center  812 is at  -1.262713  0.438160  2.162719
      ESP Fit Center  813 is at  -2.668889  2.019547  1.202719
      ESP Fit Center  814 is at  -2.411658  1.059547  1.202719
      ESP Fit Center  815 is at  -2.411658  2.019547  0.242719
      ESP Fit Center  816 is at  -2.094097  1.042196  0.242719
      ESP Fit Center  817 is at  -1.708889  2.019547 -0.460050
      ESP Fit Center  818 is at  -1.145400  6.051694  3.023389
      ESP Fit Center  819 is at   0.154743  5.477360  0.992963
      ESP Fit Center  820 is at  -2.061450  5.851083  3.134031
      ESP Fit Center  821 is at  -2.892834  5.247047  3.134031
      ESP Fit Center  822 is at  -1.547626  6.189696  2.174031
      ESP Fit Center  823 is at  -2.507626  5.932465  2.174031
      ESP Fit Center  824 is at  -3.210395  5.229696  2.174031
      ESP Fit Center  825 is at  -3.467626  4.269696  2.174031
      ESP Fit Center  826 is at  -3.210395  3.309696  2.174031
      ESP Fit Center  827 is at  -1.033802  5.851083  1.214031
      ESP Fit Center  828 is at  -2.061450  5.851083  1.214031
      ESP Fit Center  829 is at  -2.892834  5.247047  1.214031
      ESP Fit Center  830 is at  -3.210395  4.269696  1.214031
      ESP Fit Center  831 is at  -2.892834  3.292345  1.214031
      ESP Fit Center  832 is at  -2.027626  5.101080  0.511262
      ESP Fit Center  833 is at  -2.507626  4.269696  0.511262
      ESP Fit Center  834 is at  -0.422768  6.146473  3.688999
      ESP Fit Center  835 is at   1.753825  5.525086  2.728999
      ESP Fit Center  836 is at   1.051056  6.227855  2.728999
      ESP Fit Center  837 is at   0.091056  6.485086  2.728999
      ESP Fit Center  838 is at  -0.868944  6.227855  2.728999
      ESP Fit Center  839 is at   1.436264  5.542437  1.768999
      ESP Fit Center  840 is at   0.604880  6.146473  1.768999
      ESP Fit Center  841 is at  -0.422768  6.146473  1.768999
      ESP Fit Center  842 is at   0.571056  5.396470  1.066230
      ESP Fit Center  843 is at  -1.641649  1.954652  6.614560
      ESP Fit Center  844 is at  -2.820535  3.872559  6.007596
      ESP Fit Center  845 is at  -3.085791  2.882610  6.007596
      ESP Fit Center  846 is at  -2.820535  1.892661  6.007596
      ESP Fit Center  847 is at  -2.095841  1.167967  6.007596
      ESP Fit Center  848 is at  -2.399323  5.122899  5.099211
      ESP Fit Center  849 is at  -3.198708  4.403130  5.099211
      ESP Fit Center  850 is at  -3.636226  3.420449  5.099211
      ESP Fit Center  851 is at  -3.636226  2.344771  5.099211
      ESP Fit Center  852 is at  -3.198708  1.362090  5.099211
      ESP Fit Center  853 is at  -2.399323  0.642321  5.099211
      ESP Fit Center  854 is at  -1.376293  0.309918  5.099211
      ESP Fit Center  855 is at  -0.847541  5.670666  4.027697
      ESP Fit Center  856 is at  -1.872148  5.575722  4.027697
      ESP Fit Center  857 is at  -2.793269  5.117058  4.027697
      ESP Fit Center  858 is at  -3.486500  4.356620  4.027697
      ESP Fit Center  859 is at  -3.858217  3.397109  4.027697
      ESP Fit Center  860 is at  -3.858217  2.368111  4.027697
      ESP Fit Center  861 is at  -3.486500  1.408600  4.027697
      ESP Fit Center  862 is at  -2.793269  0.648162  4.027697
      ESP Fit Center  863 is at  -1.872148  0.189498  4.027697
      ESP Fit Center  864 is at  -0.847541  0.094554  4.027697
      ESP Fit Center  865 is at   0.142175  0.376153  4.027697
      ESP Fit Center  866 is at  -3.636226  3.420449  2.956183
      ESP Fit Center  867 is at  -3.636226  2.344771  2.956183
      ESP Fit Center  868 is at  -3.198708  1.362090  2.956183
      ESP Fit Center  869 is at  -2.399323  0.642321  2.956183
      ESP Fit Center  870 is at  -1.376293  0.309918  2.956183
      ESP Fit Center  871 is at  -0.306507  0.422357  2.956183
      ESP Fit Center  872 is at  -3.085791  2.882610  2.047798
      ESP Fit Center  873 is at  -2.820535  1.892661  2.047798
      ESP Fit Center  874 is at   1.931815  0.959512  5.497387
      ESP Fit Center  875 is at   0.993617  0.507699  4.429287
      ESP Fit Center  876 is at   2.919274  2.418915  5.254120
      ESP Fit Center  877 is at   2.601713  1.441564  5.254120
      ESP Fit Center  878 is at   3.176505  2.418915  4.294120
      ESP Fit Center  879 is at   2.919274  3.378915  4.294120
      ESP Fit Center  880 is at   1.256505  0.498915  4.294120
      ESP Fit Center  881 is at   2.216505  0.756146  4.294120
      ESP Fit Center  882 is at   2.919274  1.458915  4.294120
      ESP Fit Center  883 is at  -1.043956  1.033400  6.674167
      ESP Fit Center  884 is at  -0.212572  0.429364  6.674167
      ESP Fit Center  885 is at   0.815076  0.429364  6.674167
      ESP Fit Center  886 is at   1.646460  1.033400  6.674167
      ESP Fit Center  887 is at  -0.658748  0.347982  5.714167
      ESP Fit Center  888 is at   0.301252  0.090751  5.714167
      ESP Fit Center  889 is at   1.261252  0.347982  5.714167
      ESP Fit Center  890 is at   1.964021  1.050751  5.714167
      ESP Fit Center  891 is at   2.383135  5.922122  6.165516
      ESP Fit Center  892 is at   2.800673  4.092772  4.135090
      ESP Fit Center  893 is at   3.622981  3.984545  6.938563
      ESP Fit Center  894 is at   3.305420  4.961896  6.938563
      ESP Fit Center  895 is at   2.474036  2.403158  6.938563
      ESP Fit Center  896 is at   3.305420  3.007194  6.938563
      ESP Fit Center  897 is at   3.880212  3.984545  5.978563
      ESP Fit Center  898 is at   3.622981  4.944545  5.978563
      ESP Fit Center  899 is at   2.920212  5.647314  5.978563
      ESP Fit Center  900 is at   2.920212  2.321776  5.978563
      ESP Fit Center  901 is at   3.622981  3.024545  5.978563
      ESP Fit Center  902 is at   3.622981  3.984545  5.018563
      ESP Fit Center  903 is at   3.305420  4.961896  5.018563
      ESP Fit Center  904 is at   3.305420  3.007194  5.018563
      ESP Fit Center  905 is at   2.582506  5.876785  4.910976
      ESP Fit Center  906 is at   1.879737  6.579554  4.910976
      ESP Fit Center  907 is at   0.919737  6.836785  4.910976
      ESP Fit Center  908 is at  -0.040263  6.579554  4.910976
      ESP Fit Center  909 is at   2.582506  4.916785  3.950976
      ESP Fit Center  910 is at   2.264945  5.894136  3.950976
      ESP Fit Center  911 is at   1.433561  6.498172  3.950976
      ESP Fit Center  912 is at   0.405913  6.498172  3.950976
      ESP Fit Center  913 is at   1.617793  5.659240  9.023127
      ESP Fit Center  914 is at   0.893099  6.383934  9.023127
      ESP Fit Center  915 is at  -0.096850  6.649190  9.023127
      ESP Fit Center  916 is at  -1.086799  6.383934  9.023127
      ESP Fit Center  917 is at  -1.811493  5.659240  9.023127
      ESP Fit Center  918 is at   2.266367  5.721463  8.114742
      ESP Fit Center  919 is at   1.634099  6.591705  8.114742
      ESP Fit Center  920 is at   0.702535  7.129544  8.114742
      ESP Fit Center  921 is at  -0.367251  7.241983  8.114742
      ESP Fit Center  922 is at  -1.390281  6.909580  8.114742
      ESP Fit Center  923 is at  -2.189666  6.189811  8.114742
      ESP Fit Center  924 is at  -2.627184  5.207130  8.114742
      ESP Fit Center  925 is at  -2.627184  4.131452  8.114742
      ESP Fit Center  926 is at   2.514072  5.680768  7.043228
      ESP Fit Center  927 is at   1.972375  6.555639  7.043228
      ESP Fit Center  928 is at   1.151217  7.175748  7.043228
      ESP Fit Center  929 is at   0.161501  7.457347  7.043228
      ESP Fit Center  930 is at  -0.863106  7.362403  7.043228
      ESP Fit Center  931 is at  -1.784227  6.903739  7.043228
      ESP Fit Center  932 is at  -2.477458  6.143301  7.043228
      ESP Fit Center  933 is at  -2.849175  5.183790  7.043228
      ESP Fit Center  934 is at  -2.849175  4.154792  7.043228
      ESP Fit Center  935 is at  -2.477458  3.195281  7.043228
      ESP Fit Center  936 is at  -1.784227  2.434843  7.043228
      ESP Fit Center  937 is at   1.634099  6.591705  5.971714
      ESP Fit Center  938 is at   0.702535  7.129544  5.971714
      ESP Fit Center  939 is at  -0.367251  7.241983  5.971714
      ESP Fit Center  940 is at  -1.390281  6.909580  5.971714
      ESP Fit Center  941 is at  -2.189666  6.189811  5.971714
      ESP Fit Center  942 is at  -2.627184  5.207130  5.971714
      ESP Fit Center  943 is at  -0.096850  6.649190  5.063329
      ESP Fit Center  944 is at  -1.086799  6.383934  5.063329
      ESP Fit Center  945 is at  -1.811493  5.659240  5.063329
      ESP Fit Center  946 is at   1.978714  1.725626  8.905026
      ESP Fit Center  947 is at  -1.013090  1.535108  9.050747
      ESP Fit Center  948 is at  -0.181706  0.931072  9.050747
      ESP Fit Center  949 is at   0.845942  0.931072  9.050747
      ESP Fit Center  950 is at   1.677326  1.535108  9.050747
      ESP Fit Center  951 is at  -1.330651  1.552459  8.090747
      ESP Fit Center  952 is at  -0.627882  0.849690  8.090747
      ESP Fit Center  953 is at   0.332118  0.592459  8.090747
      ESP Fit Center  954 is at   1.292118  0.849690  8.090747
      ESP Fit Center  955 is at   1.994887  1.552459  8.090747
      ESP Fit Center  956 is at  -1.013090  1.535108  7.130747
      ESP Fit Center  957 is at   1.677326  1.535108  7.130747
      ESP Fit Center  958 is at   2.563504  3.688629 10.133475
      ESP Fit Center  959 is at   2.083504  2.857245 10.133475
      ESP Fit Center  960 is at   3.266273  3.688629  9.430706
      ESP Fit Center  961 is at   2.948712  4.665980  9.430706
      ESP Fit Center  962 is at   2.117328  5.270016  9.430706
      ESP Fit Center  963 is at   2.117328  2.107242  9.430706
      ESP Fit Center  964 is at   2.948712  2.711278  9.430706
      ESP Fit Center  965 is at   3.523504  3.688629  8.470706
      ESP Fit Center  966 is at   3.266273  4.648629  8.470706
      ESP Fit Center  967 is at   2.563504  5.351398  8.470706
      ESP Fit Center  968 is at   2.563504  2.025860  8.470706
      ESP Fit Center  969 is at   3.266273  2.728629  8.470706
      ESP Fit Center  970 is at   3.266273  3.688629  7.510706
      ESP Fit Center  971 is at   2.948712  4.665980  7.510706
      ESP Fit Center  972 is at   2.948712  2.711278  7.510706
      ESP Fit Center  973 is at  -0.704021  4.781162 11.851104
      ESP Fit Center  974 is at  -1.224682  3.879352 11.851104
      ESP Fit Center  975 is at   1.924750  4.894565 10.222829
      ESP Fit Center  976 is at  -1.642219  5.708702  9.154729
      ESP Fit Center  977 is at  -2.226158  3.739393 11.267203
      ESP Fit Center  978 is at  -1.746158  2.908009 11.267203
      ESP Fit Center  979 is at  -2.611366  4.716744 10.564434
      ESP Fit Center  980 is at  -2.928927  3.739393 10.564434
      ESP Fit Center  981 is at  -2.611366  2.762042 10.564434
      ESP Fit Center  982 is at  -1.779982  2.158006 10.564434
      ESP Fit Center  983 is at  -2.226158  5.402162  9.604434
      ESP Fit Center  984 is at  -2.928927  4.699393  9.604434
      ESP Fit Center  985 is at  -3.186158  3.739393  9.604434
      ESP Fit Center  986 is at  -2.928927  2.779393  9.604434
      ESP Fit Center  987 is at  -2.226158  2.076624  9.604434
      ESP Fit Center  988 is at  -2.611366  4.716744  8.644434
      ESP Fit Center  989 is at  -2.928927  3.739393  8.644434
      ESP Fit Center  990 is at  -2.611366  2.762042  8.644434
      ESP Fit Center  991 is at  -1.779982  2.158006  8.644434
      ESP Fit Center  992 is at   0.183181  3.220460 12.404195
      ESP Fit Center  993 is at   1.143181  3.220460 12.146964
      ESP Fit Center  994 is at   0.663181  4.051844 12.146964
      ESP Fit Center  995 is at  -0.296819  4.051844 12.146964
      ESP Fit Center  996 is at  -0.776819  3.220460 12.146964
      ESP Fit Center  997 is at  -0.296819  2.389076 12.146964
      ESP Fit Center  998 is at   0.663181  2.389076 12.146964
      ESP Fit Center  999 is at   1.845950  3.220460 11.444195
      ESP Fit Center 1000 is at   1.528389  4.197811 11.444195
      ESP Fit Center 1001 is at  -1.162027  2.243109 11.444195
      ESP Fit Center 1002 is at  -0.330643  1.639073 11.444195
      ESP Fit Center 1003 is at   0.697005  1.639073 11.444195
      ESP Fit Center 1004 is at   1.528389  2.243109 11.444195
      ESP Fit Center 1005 is at   2.103181  3.220460 10.484195
      ESP Fit Center 1006 is at  -0.776819  1.557691 10.484195
      ESP Fit Center 1007 is at   0.183181  1.300460 10.484195
      ESP Fit Center 1008 is at   1.143181  1.557691 10.484195
      ESP Fit Center 1009 is at   1.845950  2.260460 10.484195
      ESP Fit Center 1010 is at   0.002897  4.914880 11.912598
      ESP Fit Center 1011 is at   0.962897  4.914880 11.655367
      ESP Fit Center 1012 is at   0.482897  5.746264 11.655367
      ESP Fit Center 1013 is at  -0.477103  5.746264 11.655367
      ESP Fit Center 1014 is at   1.665666  4.914880 10.952598
      ESP Fit Center 1015 is at   1.348105  5.892231 10.952598
      ESP Fit Center 1016 is at   0.516721  6.496267 10.952598
      ESP Fit Center 1017 is at  -0.510927  6.496267 10.952598
      ESP Fit Center 1018 is at  -1.342311  5.892231 10.952598
      ESP Fit Center 1019 is at   1.665666  5.874880  9.992598
      ESP Fit Center 1020 is at   0.962897  6.577649  9.992598
      ESP Fit Center 1021 is at   0.002897  6.834880  9.992598
      ESP Fit Center 1022 is at  -0.957103  6.577649  9.992598
      ESP Fit Center 1023 is at  -1.659872  5.874880  9.992598
      ESP Fit Center 1024 is at   4.922353 -4.433065 -5.977846
      ESP Fit Center 1025 is at   2.427878 -8.166310 -5.977846
      ESP Fit Center 1026 is at   4.922353 -5.466310 -7.011091
      ESP Fit Center 1027 is at   4.675322 -4.383998 -7.011091
      ESP Fit Center 1028 is at   0.180434 -4.383998 -7.011091
      ESP Fit Center 1029 is at   2.982951 -7.898243 -7.011091
      ESP Fit Center 1030 is at   0.596025 -4.928429 -7.887034
      ESP Fit Center 1031 is at   2.156172 -7.356066 -7.887034
      ESP Fit Center 1032 is at   3.220983 -7.202969 -7.887034
      ESP Fit Center 1033 is at   4.033989 -6.498495 -7.887034
      ESP Fit Center 1034 is at  -0.257928 -5.575023 -4.921945
      ESP Fit Center 1035 is at  -0.257928 -6.629049 -4.921945
      ESP Fit Center 1036 is at   0.311922 -7.515752 -4.921945
      ESP Fit Center 1037 is at   1.270698 -7.953611 -4.921945
      ESP Fit Center 1038 is at  -0.560320 -5.585114 -6.001945
      ESP Fit Center 1039 is at  -0.560320 -6.618958 -6.001945
      ESP Fit Center 1040 is at  -0.079869 -7.534381 -6.001945
      ESP Fit Center 1041 is at   0.770967 -8.121671 -6.001945
      ESP Fit Center 1042 is at   1.797273 -8.246287 -6.001945
      ESP Fit Center 1043 is at  -0.257928 -5.575023 -7.081945
      ESP Fit Center 1044 is at  -0.257928 -6.629049 -7.081945
      ESP Fit Center 1045 is at   0.311922 -7.515752 -7.081945
      ESP Fit Center 1046 is at   1.270698 -7.953611 -7.081945
      ESP Fit Center 1047 is at   0.456914 -6.102036 -7.872560
[...]
 1319 Fit      -0.010422
 1320 Fit      -0.011024
 1321 Fit      -0.005470
 1322 Fit      -0.004053
 1323 Fit      -0.000153
 1324 Fit       0.003131
 1325 Fit      -0.001678
 1326 Fit      -0.001281
 1327 Fit       0.005306
 1328 Fit       0.008286
 1329 Fit       0.004326
 1330 Fit       0.006839
 1331 Fit       0.007537
 1332 Fit       0.006163
 1333 Fit       0.002153
 1334 Fit       0.007083
 1335 Fit       0.007143
 1336 Fit       0.004947
 1337 Fit       0.000824
 1338 Fit       0.007408
 1339 Fit       0.001186
 1340 Fit      -0.002523
 1341 Fit       0.001426
 1342 Fit      -0.002173
 1343 Fit      -0.005230
 1344 Fit      -0.003988
 1345 Fit       0.007683
 1346 Fit      -0.004590
 1347 Fit      -0.006980
 1348 Fit       0.002776
 1349 Fit       0.001837
 1350 Fit       0.001378
 1351 Fit       0.000526
 1352 Fit      -0.000854
 1353 Fit       0.005725
 1354 Fit       0.005703
 1355 Fit       0.005291
 1356 Fit       0.004307
 1357 Fit       0.008197
 1358 Fit       0.007482
 1359 Fit       0.000096
 1360 Fit       0.004247
 1361 Fit       0.004001
 1362 Fit       0.001980
 1363 Fit      -0.004068
 1364 Fit       0.002735
 1365 Fit       0.004256
 1366 Fit      -0.027869
 1367 Fit      -0.018980
 1368 Fit      -0.011021
 1369 Fit      -0.035684
 1370 Fit      -0.030384
 1371 Fit      -0.025154
 1372 Fit      -0.020799
 1373 Fit      -0.017140
 1374 Fit      -0.013227
 1375 Fit      -0.007746
 1376 Fit      -0.018842
 1377 Fit      -0.024019
 1378 Fit      -0.024375
 1379 Fit      -0.022766
 1380 Fit      -0.020861
 1381 Fit      -0.019517
 1382 Fit      -0.018741
 1383 Fit      -0.017894
 1384 Fit      -0.016247
 1385 Fit      -0.013495
 1386 Fit      -0.012274
 1387 Fit      -0.013545
 1388 Fit      -0.014461
 1389 Fit      -0.015640
 1390 Fit      -0.017013
 1391 Fit      -0.018025
 1392 Fit      -0.018634
 1393 Fit      -0.019321
 1394 Fit      -0.021785
 1395 Fit      -0.006783
 1396 Fit      -0.010154
 1397 Fit      -0.012710
 1398 Fit      -0.014617
 1399 Fit       0.000764
 1400 Fit       0.006245
 1401 Fit      -0.003145
 1402 Fit       0.002679
 1403 Fit      -0.002372
 1404 Fit      -0.009242
 1405 Fit      -0.006737
 1406 Fit      -0.004448
 1407 Fit       0.001164
 1408 Fit       0.004860
 1409 Fit       0.006637
 1410 Fit       0.007762
 1411 Fit      -0.002985
 1412 Fit       0.000242
 1413 Fit       0.001778
 1414 Fit      -0.001813
 1415 Fit       0.001204
 1416 Fit       0.007189
 1417 Fit       0.003149
 1418 Fit       0.009590
 1419 Fit       0.008857
 1420 Fit       0.005353
 1421 Fit       0.003121
 1422 Fit      -0.000796
 1423 Fit       0.006982
 1424 Fit       0.006399
 1425 Fit       0.002520
 1426 Fit       0.001625
 1427 Fit       0.003114
 1428 Fit       0.000448
 1429 Fit      -0.001162
 1430 Fit      -0.003037
 1431 Fit      -0.000354
 1432 Fit       0.001869
 1433 Fit       0.003218
 1434 Fit       0.003308
 1435 Fit      -0.006249
 1436 Fit      -0.014493
 1437 Fit      -0.018398
 1438 Fit      -0.018991
 1439 Fit      -0.018073
 1440 Fit      -0.017254
 1441 Fit      -0.016746
 1442 Fit      -0.006099
 1443 Fit      -0.014997
 1444 Fit      -0.020041
 1445 Fit      -0.021699
 1446 Fit      -0.021374
 1447 Fit      -0.020852
 1448 Fit      -0.021428
 1449 Fit      -0.023168
 1450 Fit      -0.024734
 1451 Fit      -0.023954
 1452 Fit      -0.018826
 1453 Fit      -0.011866
 1454 Fit      -0.016639
 1455 Fit      -0.018748
 1456 Fit      -0.019432
 1457 Fit      -0.020393
 1458 Fit      -0.022979
 1459 Fit      -0.027449
 1460 Fit      -0.032599
 1461 Fit      -0.035252
 1462 Fit      -0.009404
 1463 Fit      -0.012596
 1464 Fit      -0.015647
 1465 Fit      -0.020472
 1466 Fit      -0.028637
 1467 Fit      -0.011552
 1468 Fit       0.006467
 1469 Fit       0.007046
 1470 Fit       0.002973
 1471 Fit       0.005430
 1472 Fit       0.006452
 1473 Fit      -0.005738
 1474 Fit       0.000718
 1475 Fit       0.004913
 1476 Fit       0.006937
 1477 Fit       0.007336
 1478 Fit       0.005035
 1479 Fit       0.005848
 1480 Fit       0.003528
 1481 Fit      -0.000513
 1482 Fit       0.006631
 1483 Fit       0.006499
 1484 Fit       0.006791
 1485 Fit       0.004127
 1486 Fit      -0.002213
 1487 Fit       0.007016
 1488 Fit       0.007326
 1489 Fit       0.009342
 1490 Fit      -0.000121
 1491 Fit      -0.001255
 1492 Fit      -0.000947
 1493 Fit      -0.002640
 1494 Fit      -0.002355
 1495 Fit      -0.001123
 1496 Fit       0.003799
 1497 Fit       0.001131
 1498 Fit      -0.000063
 1499 Fit      -0.009413
 1500 Fit       0.001232
 1501 Fit      -0.001500
 1502 Fit      -0.004431
 1503 Fit      -0.002661
 1504 Fit      -0.001288
 1505 Fit      -0.000611
 1506 Fit      -0.008002
 1507 Fit      -0.005631
 1508 Fit      -0.003738
 1509 Fit      -0.002357
 1510 Fit      -0.000875
 1511 Fit      -0.014120
 1512 Fit      -0.010457
 1513 Fit      -0.006925
 1514 Fit       0.002590
 1515 Fit       0.003700
 1516 Fit       0.001274
 1517 Fit       0.000751
 1518 Fit       0.003120
 1519 Fit       0.004677
 1520 Fit       0.004296
 1521 Fit       0.001851
 1522 Fit       0.001888
 1523 Fit       0.004243
 1524 Fit       0.005666
 1525 Fit       0.005688
 1526 Fit       0.005757
 1527 Fit       0.003011
 1528 Fit       0.005337
 1529 Fit       0.006424
 1530 Fit       0.006492
 1531 Fit       0.000392
 1532 Fit       0.000059
 1533 Fit      -0.001029
 1534 Fit      -0.000009
 1535 Fit      -0.000860
 1536 Fit      -0.001902
 1537 Fit      -0.003173
 1538 Fit      -0.002104
 1539 Fit      -0.004611
 1540 Fit      -0.006040
 1541 Fit      -0.007025
 1542 Fit      -0.007826
 1543 Fit      -0.009004
 1544 Fit      -0.002897
 1545 Fit       0.005505
 1546 Fit      -0.000430
 1547 Fit       0.004027
 1548 Fit       0.007937
 1549 Fit       0.005835
 1550 Fit       0.000993
 1551 Fit       0.001043
 1552 Fit       0.004167
 1553 Fit       0.002990
 1554 Fit       0.002041
 1555 Fit       0.002135
 1556 Fit       0.003159
 1557 Fit      -0.004114
 1558 Fit      -0.005510
 1559 Fit      -0.007815
 1560 Fit       0.002835
 1561 Fit       0.001487
 1562 Fit       0.000107
 1563 Fit      -0.001546
 1564 Fit       0.006019
 1565 Fit       0.004601
 1566 Fit       0.003597
 1567 Fit       0.002454
 1568 Fit       0.001057
 1569 Fit       0.005066
 1570 Fit       0.004231
 1571 Fit       0.003241
 1572 Fit       0.001962
 1573 Fit       0.003033
 1574 Fit       0.006692
 1575 Fit       0.008632
 1576 Fit       0.009928
 1577 Fit       0.010389
 1578 Fit       0.005506
 1579 Fit       0.007150
 1580 Fit       0.008417
 1581 Fit       0.008822
 1582 Fit       0.008149
 1583 Fit       0.006550
 1584 Fit       0.004023
 1585 Fit       0.006187
 1586 Fit       0.007519
 1587 Fit       0.007518
 1588 Fit       0.006114
 1589 Fit       0.004821
 1590 Fit       0.004880
 1591 Fit       0.006400
 1592 Fit      -0.001770
 1593 Fit      -0.008958
 1594 Fit      -0.004868
 1595 Fit      -0.002683
 1596 Fit       0.002144
 1597 Fit       0.003298
 1598 Fit      -0.003715
 1599 Fit      -0.001507
 1600 Fit       0.000279
 1601 Fit       0.001415
 1602 Fit       0.003359
 1603 Fit       0.004284
 1604 Fit       0.000517
 1605 Fit       0.001852
 1606 Fit       0.002760
 1607 Fit       0.003430
 1608 Fit       0.001730
 1609 Fit       0.002721
 1610 Fit       0.010930
 1611 Fit       0.010238
 1612 Fit       0.010198
 1613 Fit       0.010324
 1614 Fit       0.004016
 1615 Fit       0.004966
 1616 Fit       0.007188
 1617 Fit       0.008846
 1618 Fit       0.010022
 1619 Fit       0.010945
 1620 Fit       0.001933
 1621 Fit       0.006025
 1622 Fit       0.007493
 1623 Fit       0.008600
 1624 Fit       0.009384
 1625 Fit       0.006972
 1626 Fit       0.008171
 1627 Fit       0.009088
 1628 Fit       0.010389
 1629 Fit       0.010681
 1630 Fit       0.011232
 1631 Fit       0.010891
 1632 Fit       0.009087
 1633 Fit       0.006519
 1634 Fit       0.009999
 1635 Fit       0.009873
 1636 Fit       0.009139
 1637 Fit       0.007681
 1638 Fit       0.009619
 1639 Fit       0.008552
 1640 Fit      -0.011397
 1641 Fit      -0.014019
 1642 Fit      -0.014280
 1643 Fit      -0.012582
 1644 Fit      -0.009119
 1645 Fit      -0.006754
 1646 Fit      -0.011559
 1647 Fit      -0.014264
 1648 Fit      -0.015057
 1649 Fit      -0.013718
 1650 Fit      -0.007499
 1651 Fit      -0.000008
 1652 Fit       0.001989
 1653 Fit       0.001684
 1654 Fit      -0.007457
 1655 Fit      -0.002494
 1656 Fit       0.001853
 1657 Fit       0.003307
 1658 Fit       0.004803
 1659 Fit       0.004258
 1660 Fit       0.006464
 1661 Fit       0.008194
 1662 Fit       0.005595
 1663 Fit       0.007878
 1664 Fit       0.009165
 1665 Fit       0.009533
 1666 Fit       0.008077
 1667 Fit       0.010828
 1668 Fit      -0.001070
 1669 Fit       0.001027
 1670 Fit      -0.002942
 1671 Fit       0.000770
 1672 Fit       0.001413
 1673 Fit       0.001688
 1674 Fit       0.001148
 1675 Fit       0.001313
 1676 Fit       0.000465
 1677 Fit       0.000468
 1678 Fit       0.001112
 1679 Fit       0.001060
 1680 Fit      -0.000675
 1681 Fit      -0.003594
 1682 Fit      -0.004067
 1683 Fit      -0.002920
 1684 Fit      -0.000984
 1685 Fit       0.001690
 1686 Fit       0.008468
 1687 Fit       0.003704
 1688 Fit       0.007895
 1689 Fit       0.010321
 1690 Fit       0.011241
 1691 Fit       0.010470
 1692 Fit       0.010622
 1693 Fit       0.010367
 1694 Fit       0.009329
 1695 Fit       0.004605
 1696 Fit       0.005917
 1697 Fit       0.003049
 1698 Fit       0.007725
 1699 Fit       0.004896
 1700 Fit       0.001537
 1701 Fit      -0.002703
 1702 Fit       0.009010
 1703 Fit       0.006600
 1704 Fit       0.003610
 1705 Fit      -0.001414
 1706 Fit       0.006508
 1707 Fit       0.002713
 1708 Fit      -0.002139
 1709 Fit      -0.004396
 1710 Fit      -0.005625
 1711 Fit       0.009812
 1712 Fit       0.009918
 1713 Fit       0.008250
 1714 Fit       0.009351
 1715 Fit       0.008215
 1716 Fit       0.006824
 1717 Fit       0.004082
 1718 Fit       0.009930
 1719 Fit       0.009043
 1720 Fit       0.008374
 1721 Fit       0.007473
 1722 Fit       0.009764
 1723 Fit       0.009183
 1724 Fit       0.008819
 1725 Fit       0.009698
 1726 Fit       0.009570
 1727 Fit      -0.001546
 1728 Fit       0.003972
 1729 Fit       0.007315
 1730 Fit       0.009138
 1731 Fit       0.005501
 1732 Fit       0.003831
 1733 Fit       0.004380
 1734 Fit       0.006554
 1735 Fit       0.008372
 1736 Fit       0.009543
 1737 Fit       0.008740
 1738 Fit       0.008467
 1739 Fit       0.009812
 1740 Fit      -0.015571
 1741 Fit      -0.004127
 1742 Fit       0.004591
 1743 Fit       0.007903
 1744 Fit       0.002387
 1745 Fit      -0.001867
 1746 Fit      -0.000881
 1747 Fit      -0.008144
 1748 Fit      -0.001436
 1749 Fit       0.001977
 1750 Fit       0.001722
 1751 Fit       0.004901
 1752 Fit       0.003963
 1753 Fit       0.002491
 1754 Fit       0.001750
 1755 Fit       0.005098
 1756 Fit       0.001148
 1757 Fit      -0.001284
 1758 Fit      -0.002361
 1759 Fit       0.001717
 1760 Fit      -0.006802
 1761 Fit      -0.000383
 1762 Fit       0.003599
 1763 Fit       0.005909
 1764 Fit      -0.001289
 1765 Fit       0.002166
 1766 Fit       0.005270
 1767 Fit       0.007715
 1768 Fit       0.009890
 1769 Fit       0.000808
 1770 Fit       0.004639
 1771 Fit       0.007639
 1772 Fit       0.010404
 1773 Fit       0.002052
 1774 Fit       0.007572
 1775 Fit      -0.005710
 1776 Fit      -0.005062
 1777 Fit      -0.004559
 1778 Fit      -0.002986
 1779 Fit       0.006108
 1780 Fit       0.007360
 1781 Fit       0.001329
 1782 Fit      -0.001754
 1783 Fit       0.009690
 1784 Fit       0.006683
 1785 Fit       0.009478
 1786 Fit       0.008991
 1787 Fit       0.008419
 1788 Fit       0.005718
 1789 Fit       0.003857
 1790 Fit       0.007104
 1791 Fit      -0.004613
 1792 Fit      -0.001974
 1793 Fit      -0.001134
 1794 Fit       0.000210
 1795 Fit       0.001274
 1796 Fit       0.001438
 1797 Fit       0.004803
 1798 Fit      -0.001278
 1799 Fit       0.001223
 1800 Fit       0.003328
 1801 Fit      -0.000794
 1802 Fit       0.002941
 1803 Fit       0.006973
 1804 Fit       0.010535
 1805 Fit       0.008672
 1806 Fit       0.005986
 1807 Fit       0.005287
 1808 Fit       0.006432
 1809 Fit       0.006804
 1810 Fit       0.003491
 1811 Fit       0.007970
 1812 Fit       0.007118
 1813 Fit       0.006943
 1814 Fit       0.005232
 1815 Fit       0.005421
 1816 Fit       0.008219
 1817 Fit       0.007331
 1818 Fit       0.005013
 1819 Fit       0.006025
 1820 Fit       0.002800
 1821 Fit       0.008258
 1822 Fit       0.007531
 1823 Fit       0.007754
 1824 Fit       0.005378
 1825 Fit       0.001556
 1826 Fit       0.009684
 1827 Fit       0.009036
 1828 Fit       0.008613
 1829 Fit       0.006526
 1830 Fit       0.004221
 1831 Fit       0.009979
 1832 Fit       0.008964
 1833 Fit      -0.002047
 1834 Fit      -0.005076
 1835 Fit      -0.005832
 1836 Fit      -0.005339
 1837 Fit      -0.015016
 1838 Fit      -0.009689
 1839 Fit      -0.007063
 1840 Fit      -0.005442
 1841 Fit      -0.004701
 1842 Fit      -0.004534
 1843 Fit      -0.007272
 1844 Fit      -0.009139
 1845 Fit      -0.008473
 1846 Fit      -0.003736
 1847 Fit      -0.001770
 1848 Fit      -0.002454
 1849 Fit      -0.001621
 1850 Fit      -0.005983
 1851 Fit      -0.009516
 1852 Fit      -0.010895
 1853 Fit      -0.009208
 1854 Fit      -0.004165
 1855 Fit       0.003976
 1856 Fit       0.002065
 1857 Fit      -0.003592
 1858 Fit      -0.008407
 1859 Fit      -0.010056
 1860 Fit      -0.007962
 1861 Fit      -0.002501
 1862 Fit      -0.000663
 1863 Fit      -0.005629
 1864 Fit      -0.006103
 1865 Fit      -0.002197
 1866 Fit      -0.000501
 1867 Fit       0.002137
 1868 Fit       0.004022
 1869 Fit      -0.001620
 1870 Fit       0.003593
 1871 Fit       0.005975
 1872 Fit       0.007263
 1873 Fit       0.007103
 1874 Fit       0.004187
 1875 Fit       0.005788
 1876 Fit       0.006170
 1877 Fit       0.005017
 1878 Fit       0.001785
 1879 Fit       0.006363
 1880 Fit       0.006075
 1881 Fit       0.004378
 1882 Fit       0.001641
 1883 Fit       0.006549
 1884 Fit      -0.000330
 1885 Fit      -0.002750
 1886 Fit      -0.001899
 1887 Fit       0.003529
 1888 Fit       0.004562
 1889 Fit      -0.001508
 1890 Fit      -0.002626
 1891 Fit      -0.003701
 1892 Fit       0.002645
 1893 Fit       0.002283
 1894 Fit       0.001809
 1895 Fit       0.000993
 1896 Fit      -0.000174
 1897 Fit       0.005329
 1898 Fit       0.005070
 1899 Fit       0.004653
 1900 Fit       0.003903
 1901 Fit       0.007246
 1902 Fit       0.006455
 1903 Fit       0.003157
 1904 Fit       0.000295
 1905 Fit       0.001066
 1906 Fit       0.002628
 1907 Fit       0.002353
 1908 Fit       0.001539
 1909 Fit      -0.024215
 1910 Fit      -0.016154
 1911 Fit      -0.008940
 1912 Fit      -0.027423
 1913 Fit      -0.022098
 1914 Fit      -0.017710
 1915 Fit      -0.013831
 1916 Fit      -0.009699
 1917 Fit      -0.004271
 1918 Fit      -0.024667
 1919 Fit      -0.022795
 1920 Fit      -0.020389
 1921 Fit      -0.018161
 1922 Fit      -0.016319
 1923 Fit      -0.014655
 1924 Fit      -0.012749
 1925 Fit      -0.010223
 1926 Fit      -0.006956
 1927 Fit      -0.004998
 1928 Fit      -0.011660
 1929 Fit      -0.014613
 1930 Fit      -0.015602
 1931 Fit      -0.015622
 1932 Fit      -0.015246
 1933 Fit      -0.014879
 1934 Fit      -0.014671
 1935 Fit      -0.014469
 1936 Fit      -0.014037
 1937 Fit      -0.013369
 1938 Fit      -0.012657
 1939 Fit      -0.012389
 1940 Fit      -0.007256
 1941 Fit      -0.009001
 1942 Fit      -0.010310
 1943 Fit      -0.011331
 1944 Fit      -0.011773
 1945 Fit      -0.011704
 1946 Fit      -0.003807
 1947 Fit      -0.006297
 1948 Fit      -0.007251
 1949 Fit       0.006881
 1950 Fit       0.001334
 1951 Fit       0.003369
 1952 Fit      -0.008982
 1953 Fit       0.001232
 1954 Fit      -0.002340
 1955 Fit      -0.000709
 1956 Fit       0.001730
 1957 Fit       0.005050
 1958 Fit       0.006759
 1959 Fit       0.000123
 1960 Fit       0.002245
 1961 Fit       0.003453
 1962 Fit      -0.003116
 1963 Fit      -0.000711
 1964 Fit      -0.001802
 1965 Fit      -0.000617
 1966 Fit       0.006597
 1967 Fit       0.002533
 1968 Fit       0.004908
 1969 Fit       0.002636
 1970 Fit      -0.001513
 1971 Fit       0.006702
 1972 Fit       0.006064
 1973 Fit       0.003065
 1974 Fit       0.001768
 1975 Fit      -0.000244
 1976 Fit       0.004146
 1977 Fit       0.003715
 1978 Fit       0.000005
 1979 Fit      -0.004258
 1980 Fit       0.000160
 1981 Fit      -0.000137
 1982 Fit      -0.000879
 1983 Fit      -0.002311
 1984 Fit       0.000546
 1985 Fit       0.002731
 1986 Fit      -0.009629
 1987 Fit      -0.012727
 1988 Fit      -0.013694
 1989 Fit      -0.013615
 1990 Fit      -0.013306
 1991 Fit      -0.012537
 1992 Fit      -0.003770
 1993 Fit      -0.010586
 1994 Fit      -0.014849
 1995 Fit      -0.016779
 1996 Fit      -0.017116
 1997 Fit      -0.016869
 1998 Fit      -0.016875
 1999 Fit      -0.017368
 2000 Fit      -0.017780
 2001 Fit      -0.017026
 2002 Fit      -0.008945
 2003 Fit      -0.013377
 2004 Fit      -0.015887
 2005 Fit      -0.016940
 2006 Fit      -0.017283
 2007 Fit      -0.017736
 2008 Fit      -0.018898
 2009 Fit      -0.020886
 2010 Fit      -0.023223
 2011 Fit      -0.024828
 2012 Fit      -0.024068
 2013 Fit      -0.006653
 2014 Fit      -0.010415
 2015 Fit      -0.012803
 2016 Fit      -0.014300
 2017 Fit      -0.015787
 2018 Fit      -0.018186
 2019 Fit      -0.022058
 2020 Fit      -0.027372
 2021 Fit      -0.008516
 2022 Fit      -0.011958
 2023 Fit      -0.016753
 2024 Fit      -0.008475
 2025 Fit       0.005932
 2026 Fit       0.005863
 2027 Fit       0.006057
 2028 Fit       0.006845
 2029 Fit       0.004559
 2030 Fit       0.005705
 2031 Fit      -0.001856
 2032 Fit       0.001669
 2033 Fit       0.004217
 2034 Fit       0.005546
 2035 Fit       0.006015
 2036 Fit      -0.005783
 2037 Fit       0.000869
 2038 Fit       0.004772
 2039 Fit       0.006502
 2040 Fit       0.006910
 2041 Fit       0.004648
 2042 Fit       0.002727
 2043 Fit       0.005500
 2044 Fit       0.005234
 2045 Fit       0.003205
 2046 Fit      -0.000842
 2047 Fit       0.006001
 2048 Fit       0.005922
 2049 Fit       0.006291
 2050 Fit       0.003772
 2051 Fit       0.006813
 2052 Fit       0.006883
 2053 Fit      -0.000053
 2054 Fit      -0.001017
 2055 Fit      -0.000700
 2056 Fit       0.000542
 2057 Fit      -0.002292
 2058 Fit      -0.002099
 2059 Fit      -0.001077
 2060 Fit       0.003009
 2061 Fit       0.000983
 2062 Fit      -0.003966
 2063 Fit       0.000691
 2064 Fit      -0.000386
 2065 Fit       0.001767
 2066 Fit      -0.002687
 2067 Fit      -0.001584
 2068 Fit      -0.000787
 2069 Fit      -0.006828
 2070 Fit      -0.005279
 2071 Fit      -0.003754
 2072 Fit      -0.002544
 2073 Fit      -0.001502
 2074 Fit      -0.010172
 2075 Fit      -0.007940
 2076 Fit      -0.005985
 2077 Fit      -0.003941
 2078 Fit      -0.010469
 2079 Fit       0.001979
 2080 Fit       0.002884
 2081 Fit       0.001132
 2082 Fit       0.000658
 2083 Fit       0.002396
 2084 Fit       0.003556
 2085 Fit       0.003473
 2086 Fit       0.001670
 2087 Fit       0.001643
 2088 Fit       0.003409
 2089 Fit       0.004495
 2090 Fit       0.004526
 2091 Fit       0.004345
 2092 Fit       0.001150
 2093 Fit       0.003151
 2094 Fit       0.004664
 2095 Fit       0.005344
 2096 Fit       0.005242
 2097 Fit       0.005551
 2098 Fit      -0.000336
 2099 Fit      -0.001218
 2100 Fit      -0.000168
 2101 Fit      -0.001005
 2102 Fit      -0.001898
 2103 Fit      -0.002817
 2104 Fit      -0.000969
 2105 Fit      -0.002725
 2106 Fit      -0.003931
 2107 Fit      -0.004866
 2108 Fit      -0.005663
 2109 Fit      -0.004363
 2110 Fit      -0.008488
 2111 Fit      -0.010463
 2112 Fit      -0.011179
 Job cpu time:       0 days  0 hours 12 minutes  5.7 seconds.
 Normal termination of Gaussian 16 at Sun Jul  9 07:51:18 2023.
