 Copyright (c) 1988-2019, Gaussian, Inc.  All Rights Reserved.
  
 This is part of the Gaussian(R) 16 program.  It is based on
 the Gaussian(R) 09 system (copyright 2009, Gaussian, Inc.),
 the Gaussian(R) 03 system (copyright 2003, Gaussian, Inc.),
 the Gaussian(R) 98 system (copyright 1998, Gaussian, Inc.),
 the Gaussian(R) 94 system (copyright 1995, Gaussian, Inc.),
 the Gaussian 92(TM) system (copyright 1992, Gaussian, Inc.),
 the Gaussian 90(TM) system (copyright 1990, Gaussian, Inc.),
 the Gaussian 88(TM) system (copyright 1988, Gaussian, Inc.),
 the Gaussian 86(TM) system (copyright 1986, Carnegie Mellon
 University), and the Gaussian 82(TM) system (copyright 1983,
 Carnegie Mellon University). Gaussian is a federally registered
 trademark of Gaussian, Inc.
 Cite this work as:
 Gaussian 16, Revision C.01,
 M. J. Frisch, G. W. Trucks, H. B. Schlegel, G. E. Scuseria, 
 M. A. Robb, J. R. Cheeseman, G. Scalmani, V. Barone, 
 G. A. Petersson, H. Nakatsuji, X. Li, M. Caricato, A. V. Marenich, 
 J. Bloino, B. G. Janesko, R. Gomperts, B. Mennucci, H. P. Hratchian, 
 J. V. Ortiz, A. F. Izmaylov, J. L. Sonnenberg, D. Williams-Young, 
 F. Ding, F. Lipparini, F. Egidi, J. Goings, B. Peng, A. Petrone, 
 T. Henderson, D. Ranasinghe, V. G. Zakrzewski, J. Gao, N. Rega, 
 G. Zheng, W. Liang, M. Hada, M. Ehara, K. Toyota, R. Fukuda, 
 J. Hasegawa, M. Ishida, T. Nakajima, Y. Honda, O. Kitao, H. Nakai, 
 T. Vreven, K. Throssell, J. A. Montgomery, Jr., J. E. Peralta, 
 F. Ogliaro, M. J. Bearpark, J. J. Heyd, E. N. Brothers, K. N. Kudin, 
 V. N. Staroverov, T. A. Keith, R. Kobayashi, J. Normand, 
 K. Raghavachari, A. P. Rendell, J. C. Burant, S. S. Iyengar, 
 J. Tomasi, M. Cossi, J. M. Millam, M. Klene, C. Adamo, R. Cammi, 
 J. W. Ochterski, R. L. Martin, K. Morokuma, O. Farkas, 
 J. B. Foresman, and D. J. Fox, Gaussian, Inc., Wallingford CT, 2019.
 
 ******************************************
 Gaussian 16:  EM64L-G16RevC.01  3-Jul-2019
                 9-Jul-2023 
 ******************************************
 ----------------------------------------------------------------------
 #P B3LYP/6-31G(d) Integral=Ultrafine SCF(Conver=8,XQC,MaxConventionalC
 ycles=64,MaxCycle=128) NoSymm Test Pop=mk IOp(6/33=2) GFInput GFPrint
 ----------------------------------------------------------------------
 1/38=1,172=1/1;
 2/12=2,15=1,17=6,18=5,40=1/2;
 3/5=1,6=6,7=1,11=2,24=110,25=1,30=1,74=-5,75=-5/1,2,3;
 4//1;
 5/5=2,6=8,7=128,8=3,13=1,38=5,85=64/2,8;
 6/7=2,8=2,9=2,10=2,15=8,20=1,28=1,33=2/1,2;
 99/5=1,9=1/99;
 -------------------------------------------------
 MEP step - Input generated by PyRED DVE-DMDS-OPLS
 -------------------------------------------------
 Symbolic Z-matrix:
 Charge =  0 Multiplicity = 1
 C                    -5.13517  -3.51502  -0.36092 
 H                    -5.64593  -2.84808  -1.0629 
 H                    -4.08151  -3.57684  -0.65176 
 H                    -5.57794  -4.51358  -0.44463 
 C                    -5.26689  -2.99429   1.06069 
 H                    -6.32818  -2.94612   1.35994 
 H                    -4.7608   -3.6695    1.77139 
 O                    -4.68858  -1.69986   1.12288 
 C                    -4.76825  -1.1134    2.40862 
 H                    -4.27699  -1.75191   3.16154 
 H                    -5.8249   -0.99372   2.71 
 C                    -4.09912   0.25488   2.39762 
 H                    -4.48533   0.84101   1.54871 
 H                    -4.36919   0.77577   3.32386 
 O                    -2.68408   0.21334   2.3789 
 C                    -2.09716  -0.00259   1.10282 
 H                    -2.4889    0.71739   0.36706 
 H                    -2.30474  -1.01016   0.7259 
 C                    -0.59802   0.20067   1.27065 
 H                    -0.20422  -0.52006   2.00519 
 H                    -0.40937   1.21172   1.66179 
 O                     0.        0.        0. 
 C                     1.41772   0.        0. 
 H                     1.7248   -0.51559  -0.91514 
 H                     1.8011   -0.5772    0.856 
 C                     2.00082   1.41846   0. 
 H                     1.69714   1.98247   0.88838 
 H                     1.63068   1.96203  -0.87497 
 S                     3.83145   1.45726  -0.12979 
 C                     4.30938   1.05542   1.60421 
 H                     3.8221    1.76492   2.28126 
 H                     3.97559   0.04543   1.86075 
 C                     5.82825   1.1564    1.73498 
 H                     6.16146   2.17365   1.50263 
 H                     6.3114    0.4649    1.03752 
 S                     6.3124    0.74771   3.4644 
 C                     8.11756   1.10321   3.40732 
 H                     8.42868   1.17729   4.45336 
 H                     8.26516   2.08988   2.95529 
 C                     8.93832   0.02838   2.69257 
 H                     8.81219  -0.93463   3.19563 
 H                     8.61129  -0.10599   1.65697 
 S                     10.74838   0.36023   2.71849 
 C                     10.92432   1.61763   1.38412 
 H                     10.21225   2.43138   1.55993 
 H                     11.92393   2.03566   1.54326 
 C                     10.79538   1.06513  -0.03477 
 H                     9.80463   0.63398  -0.21493 
 H                     10.94429   1.8671   -0.76886 
 H                     11.53997   0.28488  -0.21988 
 
 ITRead=  0  0  0  0  0  0  0  0  0  0  0  0  0  0  0  0  0  0  0  0
 ITRead=  0  0  0  0  0  0  0  0  0  0  0  0  0  0  0  0  0  0  0  0
 ITRead=  0  0  0  0  0  0  0  0  0  0
 MicOpt= -1 -1 -1 -1 -1 -1 -1 -1 -1 -1 -1 -1 -1 -1 -1 -1 -1 -1 -1 -1
 MicOpt= -1 -1 -1 -1 -1 -1 -1 -1 -1 -1 -1 -1 -1 -1 -1 -1 -1 -1 -1 -1
 MicOpt= -1 -1 -1 -1 -1 -1 -1 -1 -1 -1
 NAtoms=     50 NQM=       50 NQMF=       0 NMMI=      0 NMMIF=      0
                NMic=       0 NMicF=      0.
                          Input orientation:                          
 ---------------------------------------------------------------------
 Center     Atomic      Atomic             Coordinates (Angstroms)
 Number     Number       Type             X           Y           Z
 ---------------------------------------------------------------------
      1          6           0       -5.135168   -3.515015   -0.360921
      2          1           0       -5.645933   -2.848078   -1.062898
      3          1           0       -4.081509   -3.576842   -0.651761
      4          1           0       -5.577944   -4.513579   -0.444631
      5          6           0       -5.266892   -2.994289    1.060689
      6          1           0       -6.328182   -2.946116    1.359944
      7          1           0       -4.760804   -3.669500    1.771394
      8          8           0       -4.688585   -1.699858    1.122877
      9          6           0       -4.768250   -1.113400    2.408621
     10          1           0       -4.276993   -1.751914    3.161536
     11          1           0       -5.824899   -0.993721    2.709996
     12          6           0       -4.099118    0.254877    2.397615
     13          1           0       -4.485331    0.841009    1.548705
     14          1           0       -4.369187    0.775771    3.323864
     15          8           0       -2.684080    0.213343    2.378903
     16          6           0       -2.097164   -0.002589    1.102818
     17          1           0       -2.488900    0.717387    0.367058
     18          1           0       -2.304740   -1.010162    0.725901
     19          6           0       -0.598017    0.200671    1.270652
     20          1           0       -0.204222   -0.520059    2.005190
     21          1           0       -0.409369    1.211721    1.661792
     22          8           0        0.000000    0.000000    0.000000
     23          6           0        1.417721    0.000000    0.000000
     24          1           0        1.724797   -0.515593   -0.915140
     25          1           0        1.801097   -0.577198    0.855998
     26          6           0        2.000818    1.418459    0.000000
     27          1           0        1.697138    1.982467    0.888377
     28          1           0        1.630681    1.962026   -0.874968
     29         16           0        3.831447    1.457264   -0.129785
     30          6           0        4.309378    1.055419    1.604208
     31          1           0        3.822102    1.764921    2.281262
     32          1           0        3.975588    0.045426    1.860751
     33          6           0        5.828247    1.156400    1.734980
     34          1           0        6.161459    2.173648    1.502625
     35          1           0        6.311402    0.464900    1.037520
     36         16           0        6.312403    0.747710    3.464403
     37          6           0        8.117557    1.103214    3.407322
     38          1           0        8.428683    1.177286    4.453355
     39          1           0        8.265159    2.089881    2.955289
     40          6           0        8.938318    0.028376    2.692569
     41          1           0        8.812191   -0.934632    3.195631
     42          1           0        8.611290   -0.105986    1.656965
     43         16           0       10.748376    0.360230    2.718489
     44          6           0       10.924316    1.617629    1.384122
     45          1           0       10.212253    2.431376    1.559927
     46          1           0       11.923930    2.035664    1.543264
     47          6           0       10.795384    1.065130   -0.034771
     48          1           0        9.804631    0.633975   -0.214926
     49          1           0       10.944291    1.867098   -0.768855
     50          1           0       11.539970    0.284881   -0.219884
 ---------------------------------------------------------------------
 Stoichiometry    C14H30O3S3
 Framework group  C1[X(C14H30O3S3)]
 Standard basis: 6-31G(d) (6D, 7F)
   372 basis functions,   752 primitive gaussians,   372 cartesian basis functions
    93 alpha electrons       93 beta electrons
 Requested convergence on RMS density matrix=1.00D-08 within  64 cycles.
 Requested convergence on MAX density matrix=1.00D-06.
 Requested convergence on             energy=1.00D-06.
 SCF Done:  E(RB3LYP) =  -1971.75682104     A.U. after   13 cycles
            NFock= 13  Conv=0.39D-08     -V/T= 2.0058
 Mulliken charges:
     1  C   -0.454875
     2  H    0.159137
     3  H    0.160868
     4  H    0.144198
     5  C   -0.003896
     6  H    0.118910
     7  H    0.122218
     8  O   -0.469459
     9  C   -0.017989
    10  H    0.130289
    11  H    0.114755
    12  C   -0.036098
    13  H    0.134226
    14  H    0.143033
    15  O   -0.485072
    16  C   -0.029473
    17  H    0.129347
    18  H    0.157226
    19  C   -0.033316
    20  H    0.130656
    21  H    0.129833
    22  O   -0.480149
    23  C   -0.009465
    24  H    0.159480
    25  H    0.126631
    26  C   -0.439767
    27  H    0.174081
    28  H    0.187492
    29  S    0.083342
    30  C   -0.416806
    31  H    0.185088
    32  H    0.187694
    33  C   -0.417516
    34  H    0.182349
    35  H    0.184131
    36  S    0.086972
    37  C   -0.410919
    38  H    0.192804
    39  H    0.173734
    40  C   -0.414753
    41  H    0.191648
    42  H    0.176984
    43  S    0.083111
    44  C   -0.411250
    45  H    0.167816
    46  H    0.179016
    47  C   -0.434506
    48  H    0.151461
    49  H    0.150674
    50  H    0.166103
 Sum of Mulliken charges =  -0.00000
 Dipole moment (field-independent basis, Debye):
    X=             -1.9017    Y=              0.1597    Z=             -0.3399  Tot=              1.9385
 Quadrupole moment (field-independent basis, Debye-Ang):
   XX=           -141.3911   YY=           -141.6870   ZZ=           -155.6216
   XY=             14.8778   XZ=            -17.6151   YZ=             -0.4143
 Traceless Quadrupole moment (field-independent basis, Debye-Ang):
   XX=              4.8421   YY=              4.5462   ZZ=             -9.3883
   XY=             14.8778   XZ=            -17.6151   YZ=             -0.4143
 Octapole moment (field-independent basis, Debye-Ang**2):
  XXX=          -1467.0488  YYY=            -94.0335  ZZZ=           -691.6107  XYY=           -443.4128
  XXY=             71.5267  XXZ=           -336.3656  XZZ=           -518.9488  YZZ=            -34.7186
  YYZ=           -211.8769  XYZ=             15.3172
 Hexadecapole moment (field-independent basis, Debye-Ang**3):
 XXXX=         -37137.3313 YYYY=          -1874.2540 ZZZZ=          -3741.4546 XXXY=           -896.8220
 XXXZ=          -4833.4648 YYYX=          -2416.4759 YYYZ=           -238.7492 ZZZX=          -3119.2052
 ZZZY=           -285.9374 XXYY=          -6007.8566 XXZZ=          -7232.5388 YYZZ=           -926.4968
 XXYZ=            -16.6330 YYXZ=           -937.2781 ZZXY=           -883.7861
 Merz-Kollman atomic radii used.
 Atom Element Radius
    1     6    1.50
    2     1    1.20
    3     1    1.20
    4     1    1.20
    5     6    1.50
    6     1    1.20
    7     1    1.20
    8     8    1.40
    9     6    1.50
   10     1    1.20
   11     1    1.20
   12     6    1.50
   13     1    1.20
   14     1    1.20
   15     8    1.40
   16     6    1.50
   17     1    1.20
   18     1    1.20
   19     6    1.50
   20     1    1.20
   21     1    1.20
   22     8    1.40
   23     6    1.50
   24     1    1.20
   25     1    1.20
   26     6    1.50
   27     1    1.20
   28     1    1.20
   29    16    1.75
   30     6    1.50
   31     1    1.20
   32     1    1.20
   33     6    1.50
   34     1    1.20
   35     1    1.20
   36    16    1.75
   37     6    1.50
   38     1    1.20
   39     1    1.20
   40     6    1.50
   41     1    1.20
   42     1    1.20
   43    16    1.75
   44     6    1.50
   45     1    1.20
   46     1    1.20
   47     6    1.50
   48     1    1.20
   49     1    1.20
   50     1    1.20
 Generate VDW surfaces: Layer= 4 Dens= 1 Start= 1.400 Inc= 0.200
            Electrostatic Properties Using The SCF Density.


       Atomic Center    1 is at  -5.135168 -3.515015 -0.360921
       Atomic Center    2 is at  -5.645933 -2.848078 -1.062898
       Atomic Center    3 is at  -4.081509 -3.576842 -0.651761
       Atomic Center    4 is at  -5.577944 -4.513579 -0.444631
       Atomic Center    5 is at  -5.266892 -2.994289  1.060689
       Atomic Center    6 is at  -6.328182 -2.946116  1.359944
       Atomic Center    7 is at  -4.760804 -3.669500  1.771394
       Atomic Center    8 is at  -4.688585 -1.699858  1.122877
       Atomic Center    9 is at  -4.768250 -1.113400  2.408621
       Atomic Center   10 is at  -4.276993 -1.751914  3.161536
       Atomic Center   11 is at  -5.824899 -0.993721  2.709996
       Atomic Center   12 is at  -4.099118  0.254877  2.397615
       Atomic Center   13 is at  -4.485331  0.841009  1.548705
       Atomic Center   14 is at  -4.369187  0.775771  3.323864
       Atomic Center   15 is at  -2.684080  0.213343  2.378903
       Atomic Center   16 is at  -2.097164 -0.002589  1.102818
       Atomic Center   17 is at  -2.488900  0.717387  0.367058
       Atomic Center   18 is at  -2.304740 -1.010162  0.725901
       Atomic Center   19 is at  -0.598017  0.200671  1.270652
       Atomic Center   20 is at  -0.204222 -0.520059  2.005190
       Atomic Center   21 is at  -0.409369  1.211721  1.661792
       Atomic Center   22 is at   0.000000  0.000000  0.000000
       Atomic Center   23 is at   1.417721  0.000000  0.000000
       Atomic Center   24 is at   1.724797 -0.515593 -0.915140
       Atomic Center   25 is at   1.801097 -0.577198  0.855998
       Atomic Center   26 is at   2.000818  1.418459  0.000000
       Atomic Center   27 is at   1.697138  1.982467  0.888377
       Atomic Center   28 is at   1.630681  1.962026 -0.874968
       Atomic Center   29 is at   3.831447  1.457264 -0.129785
       Atomic Center   30 is at   4.309378  1.055419  1.604208
       Atomic Center   31 is at   3.822102  1.764921  2.281262
       Atomic Center   32 is at   3.975588  0.045426  1.860751
       Atomic Center   33 is at   5.828247  1.156400  1.734980
       Atomic Center   34 is at   6.161459  2.173648  1.502625
       Atomic Center   35 is at   6.311402  0.464900  1.037520
       Atomic Center   36 is at   6.312403  0.747710  3.464403
       Atomic Center   37 is at   8.117557  1.103214  3.407322
       Atomic Center   38 is at   8.428683  1.177286  4.453355
       Atomic Center   39 is at   8.265159  2.089881  2.955289
       Atomic Center   40 is at   8.938318  0.028376  2.692569
       Atomic Center   41 is at   8.812191 -0.934632  3.195631
       Atomic Center   42 is at   8.611290 -0.105986  1.656965
       Atomic Center   43 is at  10.748376  0.360230  2.718489
       Atomic Center   44 is at  10.924316  1.617629  1.384122
       Atomic Center   45 is at  10.212253  2.431376  1.559927
       Atomic Center   46 is at  11.923930  2.035664  1.543264
       Atomic Center   47 is at  10.795384  1.065130 -0.034771
       Atomic Center   48 is at   9.804631  0.633975 -0.214926
       Atomic Center   49 is at  10.944291  1.867098 -0.768855
       Atomic Center   50 is at  11.539970  0.284881 -0.219884
      ESP Fit Center   51 is at  -4.379672 -5.169320  0.689079
      ESP Fit Center   52 is at  -3.605219 -4.498253  0.689079
      ESP Fit Center   53 is at  -7.174146 -3.012452 -0.360921
      ESP Fit Center   54 is at  -3.942232 -5.243281 -0.360921
      ESP Fit Center   55 is at  -6.880153 -4.027389 -1.410921
      ESP Fit Center   56 is at  -5.660168 -4.424342 -2.179574
      ESP Fit Center   57 is at  -4.610168 -4.424342 -2.179574
      ESP Fit Center   58 is at  -6.444820 -1.464364 -0.543749
      ESP Fit Center   59 is at  -7.147350 -2.301607 -0.543749
      ESP Fit Center   60 is at  -4.421966 -1.821048 -1.582047
      ESP Fit Center   61 is at  -5.368482 -1.274577 -1.582047
      ESP Fit Center   62 is at  -6.444820 -1.464364 -1.582047
      ESP Fit Center   63 is at  -7.147350 -2.301607 -1.582047
      ESP Fit Center   64 is at  -7.147350 -3.394549 -1.582047
      ESP Fit Center   65 is at  -4.658454 -2.848078 -2.422047
      ESP Fit Center   66 is at  -5.340785 -1.908929 -2.422047
      ESP Fit Center   67 is at  -6.444820 -2.267652 -2.422047
      ESP Fit Center   68 is at  -6.444820 -3.428504 -2.422047
      ESP Fit Center   69 is at  -5.645933 -2.848078 -2.742898
      ESP Fit Center   70 is at  -3.094030 -3.576842  0.707388
      ESP Fit Center   71 is at  -2.483734 -3.576842 -0.132612
      ESP Fit Center   72 is at  -2.857542 -2.549812 -0.132612
      ESP Fit Center   73 is at  -3.804058 -5.150343 -0.132612
      ESP Fit Center   74 is at  -2.857542 -4.603872 -0.132612
      ESP Fit Center   75 is at  -2.483734 -3.576842 -1.170910
      ESP Fit Center   76 is at  -2.857542 -2.549812 -1.170910
      ESP Fit Center   77 is at  -3.804058 -2.003341 -1.170910
      ESP Fit Center   78 is at  -3.804058 -5.150343 -1.170910
      ESP Fit Center   79 is at  -2.857542 -4.603872 -1.170910
      ESP Fit Center   80 is at  -3.094030 -3.576842 -2.010910
      ESP Fit Center   81 is at  -3.776361 -2.637693 -2.010910
      ESP Fit Center   82 is at  -3.776361 -4.515991 -2.010910
      ESP Fit Center   83 is at  -4.081509 -3.576842 -2.331761
      ESP Fit Center   84 is at  -6.376831 -5.094005  0.914518
      ESP Fit Center   85 is at  -5.272796 -5.452728  0.914518
      ESP Fit Center   86 is at  -7.079361 -5.060050  0.074518
      ESP Fit Center   87 is at  -6.376831 -5.897293  0.074518
      ESP Fit Center   88 is at  -5.300493 -6.087080  0.074518
      ESP Fit Center   89 is at  -4.353977 -5.540609  0.074518
      ESP Fit Center   90 is at  -7.079361 -5.060050 -0.963780
      ESP Fit Center   91 is at  -6.376831 -5.897293 -0.963780
      ESP Fit Center   92 is at  -5.300493 -6.087080 -0.963780
      ESP Fit Center   93 is at  -4.353977 -5.540609 -0.963780
      ESP Fit Center   94 is at  -6.376831 -5.094005 -1.803780
      ESP Fit Center   95 is at  -5.272796 -5.452728 -1.803780
      ESP Fit Center   96 is at  -3.166892 -2.994289  1.060689
      ESP Fit Center   97 is at  -6.457857 -1.619843  0.010689
      ESP Fit Center   98 is at  -6.328182 -2.946116  3.039944
      ESP Fit Center   99 is at  -7.127069 -2.365690  2.719093
      ESP Fit Center  100 is at  -7.127069 -3.526542  2.719093
      ESP Fit Center  101 is at  -7.829599 -2.399645  1.879093
      ESP Fit Center  102 is at  -7.829599 -3.492587  1.879093
      ESP Fit Center  103 is at  -7.127069 -4.329830  1.879093
      ESP Fit Center  104 is at  -7.127069 -1.562402  0.840795
      ESP Fit Center  105 is at  -7.829599 -2.399645  0.840795
      ESP Fit Center  106 is at  -7.829599 -3.492587  0.840795
      ESP Fit Center  107 is at  -7.127069 -4.329830  0.840795
      ESP Fit Center  108 is at  -7.127069 -2.365690  0.000795
      ESP Fit Center  109 is at  -4.760804 -3.669500  3.451394
      ESP Fit Center  110 is at  -3.773325 -3.669500  3.130543
      ESP Fit Center  111 is at  -5.559691 -4.249926  3.130543
      ESP Fit Center  112 is at  -4.455656 -4.608649  3.130543
      ESP Fit Center  113 is at  -3.163029 -3.669500  2.290543
      ESP Fit Center  114 is at  -5.559691 -5.053214  2.290543
      ESP Fit Center  115 is at  -4.483353 -5.243001  2.290543
      ESP Fit Center  116 is at  -3.536837 -4.696530  2.290543
      ESP Fit Center  117 is at  -3.163029 -3.669500  1.252245
      ESP Fit Center  118 is at  -4.483353 -5.243001  1.252245
      ESP Fit Center  119 is at  -3.536837 -4.696530  1.252245
      ESP Fit Center  120 is at  -3.315352 -2.697570  2.102877
      ESP Fit Center  121 is at  -6.385995 -0.719858  1.122877
      ESP Fit Center  122 is at  -2.991175 -2.679858  1.122877
      ESP Fit Center  123 is at  -4.164057 -0.085525  0.142877
      ESP Fit Center  124 is at  -5.213113 -0.085525  0.142877
      ESP Fit Center  125 is at  -6.061818 -0.702146  0.142877
      ESP Fit Center  126 is at  -3.708585 -1.699858 -0.574533
      ESP Fit Center  127 is at  -4.198585 -0.851153 -0.574533
      ESP Fit Center  128 is at  -5.178585 -0.851153 -0.574533
      ESP Fit Center  129 is at  -4.276993 -1.751914  4.841536
      ESP Fit Center  130 is at  -3.289514 -1.751914  4.520685
      ESP Fit Center  131 is at  -3.971845 -0.812765  4.520685
      ESP Fit Center  132 is at  -5.075880 -1.171488  4.520685
      ESP Fit Center  133 is at  -5.075880 -2.332340  4.520685
      ESP Fit Center  134 is at  -3.971845 -2.691063  4.520685
      ESP Fit Center  135 is at  -2.679218 -1.751914  3.680685
      ESP Fit Center  136 is at  -5.075880 -3.135628  3.680685
      ESP Fit Center  137 is at  -3.999542 -3.325415  3.680685
      ESP Fit Center  138 is at  -3.053026 -2.778944  3.680685
      ESP Fit Center  139 is at  -2.679218 -1.751914  2.642387
      ESP Fit Center  140 is at  -3.053026 -2.778944  2.642387
      ESP Fit Center  141 is at  -5.824899 -0.993721  4.389996
      ESP Fit Center  142 is at  -6.623786 -0.413295  4.069145
      ESP Fit Center  143 is at  -6.623786 -1.574147  4.069145
      ESP Fit Center  144 is at  -6.623786  0.389993  3.229145
      ESP Fit Center  145 is at  -7.326316 -0.447250  3.229145
      ESP Fit Center  146 is at  -7.326316 -1.540192  3.229145
      ESP Fit Center  147 is at  -6.623786 -2.377435  3.229145
      ESP Fit Center  148 is at  -6.623786  0.389993  2.190847
      ESP Fit Center  149 is at  -7.326316 -0.447250  2.190847
      ESP Fit Center  150 is at  -7.326316 -1.540192  2.190847
      ESP Fit Center  151 is at  -6.623786 -0.413295  1.350847
      ESP Fit Center  152 is at  -3.845991  2.339566  2.397615
      ESP Fit Center  153 is at  -6.138096  0.757440  2.397615
      ESP Fit Center  154 is at  -4.207880  2.414510  2.067854
      ESP Fit Center  155 is at  -5.284218  2.224723  2.067854
      ESP Fit Center  156 is at  -5.986748  1.387480  2.067854
      ESP Fit Center  157 is at  -4.207880  2.414510  1.029556
      ESP Fit Center  158 is at  -5.284218  2.224723  1.029556
      ESP Fit Center  159 is at  -5.986748  1.387480  1.029556
      ESP Fit Center  160 is at  -5.986748  0.294538  1.029556
      ESP Fit Center  161 is at  -4.180183  1.780158  0.189556
      ESP Fit Center  162 is at  -5.284218  1.421435  0.189556
      ESP Fit Center  163 is at  -5.284218  0.260583  0.189556
      ESP Fit Center  164 is at  -4.485331  0.841009 -0.131295
      ESP Fit Center  165 is at  -4.369187  0.775771  5.003864
      ESP Fit Center  166 is at  -3.381708  0.775771  4.683013
      ESP Fit Center  167 is at  -4.064039  1.714920  4.683013
      ESP Fit Center  168 is at  -5.168074  1.356197  4.683013
      ESP Fit Center  169 is at  -5.168074  0.195345  4.683013
      ESP Fit Center  170 is at  -4.064039 -0.163378  4.683013
      ESP Fit Center  171 is at  -3.145220  1.802801  3.843013
      ESP Fit Center  172 is at  -4.091736  2.349272  3.843013
      ESP Fit Center  173 is at  -5.168074  2.159485  3.843013
      ESP Fit Center  174 is at  -5.870604  1.322242  3.843013
      ESP Fit Center  175 is at  -4.091736  2.349272  2.804715
      ESP Fit Center  176 is at  -5.168074  2.159485  2.804715
      ESP Fit Center  177 is at  -5.870604  1.322242  2.804715
      ESP Fit Center  178 is at  -2.684080  0.213343  4.338903
      ESP Fit Center  179 is at  -1.704080  0.213343  4.076313
      ESP Fit Center  180 is at  -2.194080  1.062048  4.076313
      ESP Fit Center  181 is at  -3.174080 -0.635362  4.076313
      ESP Fit Center  182 is at  -2.194080 -0.635362  4.076313
      ESP Fit Center  183 is at  -0.986670  0.213343  3.358903
      ESP Fit Center  184 is at  -1.310847  1.211055  3.358903
      ESP Fit Center  185 is at  -2.159552  1.827676  3.358903
      ESP Fit Center  186 is at  -2.159552 -1.400990  3.358903
      ESP Fit Center  187 is at  -1.310847 -0.784369  3.358903
      ESP Fit Center  188 is at  -2.684080  2.173343  2.378903
      ESP Fit Center  189 is at  -2.684080 -1.746657  2.378903
      ESP Fit Center  190 is at  -2.211449  2.290888  0.886207
      ESP Fit Center  191 is at  -3.287787  2.101101  0.886207
      ESP Fit Center  192 is at  -1.264933  1.744417 -0.152091
      ESP Fit Center  193 is at  -2.211449  2.290888 -0.152091
      ESP Fit Center  194 is at  -3.287787  2.101101 -0.152091
      ESP Fit Center  195 is at  -3.990317  1.263858 -0.152091
      ESP Fit Center  196 is at  -3.990317  0.170916 -0.152091
      ESP Fit Center  197 is at  -2.183752  1.656536 -0.992091
      ESP Fit Center  198 is at  -3.287787  1.297813 -0.992091
      ESP Fit Center  199 is at  -3.287787  0.136961 -0.992091
      ESP Fit Center  200 is at  -2.183752 -0.221762 -0.992091
      ESP Fit Center  201 is at  -2.488900  0.717387 -1.312942
      ESP Fit Center  202 is at  -1.999592 -1.949311  2.085050
      ESP Fit Center  203 is at  -2.027289 -2.583663  1.245050
      ESP Fit Center  204 is at  -1.080773 -2.037192  1.245050
      ESP Fit Center  205 is at  -2.027289 -2.583663  0.206752
      ESP Fit Center  206 is at  -1.080773 -2.037192  0.206752
      ESP Fit Center  207 is at  -3.103627 -1.590588 -0.633248
      ESP Fit Center  208 is at  -1.999592 -1.949311 -0.633248
      ESP Fit Center  209 is at  -2.304740 -1.010162 -0.954099
      ESP Fit Center  210 is at  -0.856838  2.000813  0.220652
      ESP Fit Center  211 is at  -0.204222 -0.520059  3.685190
      ESP Fit Center  212 is at   0.783257 -0.520059  3.364339
      ESP Fit Center  213 is at   0.100926  0.419090  3.364339
      ESP Fit Center  214 is at  -1.003109 -1.100485  3.364339
      ESP Fit Center  215 is at   0.100926 -1.459208  3.364339
      ESP Fit Center  216 is at   1.393553 -0.520059  2.524339
      ESP Fit Center  217 is at  -1.003109 -1.903773  2.524339
      ESP Fit Center  218 is at   0.073229 -2.093560  2.524339
      ESP Fit Center  219 is at   1.019745 -1.547089  2.524339
      ESP Fit Center  220 is at  -1.003109 -1.903773  1.486041
      ESP Fit Center  221 is at   0.073229 -2.093560  1.486041
      ESP Fit Center  222 is at  -0.409369  1.211721  3.341792
      ESP Fit Center  223 is at   0.578110  1.211721  3.020941
      ESP Fit Center  224 is at  -0.104221  2.150870  3.020941
      ESP Fit Center  225 is at  -1.208256  1.792147  3.020941
      ESP Fit Center  226 is at  -0.131918  2.785222  2.180941
      ESP Fit Center  227 is at  -1.208256  2.595435  2.180941
      ESP Fit Center  228 is at  -0.131918  2.785222  1.142643
      ESP Fit Center  229 is at  -1.208256  2.595435  1.142643
      ESP Fit Center  230 is at  -0.104221  2.150870  0.302643
      ESP Fit Center  231 is at  -0.000000 -1.960000  0.000000
      ESP Fit Center  232 is at  -0.524528  1.614333 -0.980000
      ESP Fit Center  233 is at  -1.373233  0.997712 -0.980000
      ESP Fit Center  234 is at  -1.697410  0.000000 -0.980000
      ESP Fit Center  235 is at  -1.373233 -0.997712 -0.980000
      ESP Fit Center  236 is at  -0.524528 -1.614333 -0.980000
      ESP Fit Center  237 is at   0.490000  0.848705 -1.697410
      ESP Fit Center  238 is at  -0.490000  0.848705 -1.697410
      ESP Fit Center  239 is at  -0.980000  0.000000 -1.697410
      ESP Fit Center  240 is at  -0.490000 -0.848705 -1.697410
      ESP Fit Center  241 is at   0.000000  0.000000 -1.960000
      ESP Fit Center  242 is at   0.673051 -1.963534  0.000000
      ESP Fit Center  243 is at   1.670848 -2.084689  0.000000
      ESP Fit Center  244 is at   3.277179 -0.975919  0.000000
      ESP Fit Center  245 is at   2.002248 -2.089094 -0.395991
      ESP Fit Center  246 is at   2.948764 -1.542623 -0.395991
      ESP Fit Center  247 is at   0.925910 -1.899307 -1.434289
      ESP Fit Center  248 is at   2.002248 -2.089094 -1.434289
      ESP Fit Center  249 is at   2.948764 -1.542623 -1.434289
      ESP Fit Center  250 is at   2.712276 -0.515593 -2.274289
      ESP Fit Center  251 is at   2.029945  0.423556 -2.274289
      ESP Fit Center  252 is at   0.925910  0.064833 -2.274289
      ESP Fit Center  253 is at   0.925910 -1.096019 -2.274289
      ESP Fit Center  254 is at   2.029945 -1.454742 -2.274289
      ESP Fit Center  255 is at   1.724797 -0.515593 -2.595140
      ESP Fit Center  256 is at   1.801097 -0.577198  2.535998
      ESP Fit Center  257 is at   2.106245  0.361951  2.215147
      ESP Fit Center  258 is at   2.106245 -1.516347  2.215147
      ESP Fit Center  259 is at   1.002210 -1.960912  1.375147
      ESP Fit Center  260 is at   2.078548 -2.150699  1.375147
      ESP Fit Center  261 is at   3.025064 -1.604228  1.375147
      ESP Fit Center  262 is at   2.078548 -2.150699  0.336849
      ESP Fit Center  263 is at   3.025064 -1.604228  0.336849
      ESP Fit Center  264 is at   2.253945  3.503148  0.000000
      ESP Fit Center  265 is at   1.256148  3.381993  0.000000
      ESP Fit Center  266 is at   0.428945  2.811017  0.000000
      ESP Fit Center  267 is at   1.697138  1.982467  2.568377
      ESP Fit Center  268 is at   2.002286  2.921616  2.247526
      ESP Fit Center  269 is at   0.898251  2.562893  2.247526
      ESP Fit Center  270 is at   2.002286  1.043318  2.247526
      ESP Fit Center  271 is at   1.974589  3.555968  1.407526
      ESP Fit Center  272 is at   0.898251  3.366181  1.407526
      ESP Fit Center  273 is at   1.974589  3.555968  0.369228
      ESP Fit Center  274 is at   0.898251  3.366181  0.369228
      ESP Fit Center  275 is at   0.195721  2.528938  0.369228
      ESP Fit Center  276 is at   1.908132  3.535527 -0.355819
      ESP Fit Center  277 is at   0.831794  3.345740 -0.355819
      ESP Fit Center  278 is at   0.129264  2.508497 -0.355819
      ESP Fit Center  279 is at   1.908132  3.535527 -1.394117
      ESP Fit Center  280 is at   0.831794  3.345740 -1.394117
      ESP Fit Center  281 is at   0.129264  2.508497 -1.394117
      ESP Fit Center  282 is at   0.129264  1.415555 -1.394117
      ESP Fit Center  283 is at   2.618160  1.962026 -2.234117
      ESP Fit Center  284 is at   1.935829  2.901175 -2.234117
      ESP Fit Center  285 is at   0.831794  2.542452 -2.234117
      ESP Fit Center  286 is at   0.831794  1.381600 -2.234117
      ESP Fit Center  287 is at   1.935829  1.022877 -2.234117
      ESP Fit Center  288 is at   1.630681  1.962026 -2.554968
      ESP Fit Center  289 is at   4.627169  3.199652  1.397765
      ESP Fit Center  290 is at   3.558845  3.353254  1.397765
      ESP Fit Center  291 is at   5.320698  3.324726  0.415391
      ESP Fit Center  292 is at   4.362955  3.785951  0.415391
      ESP Fit Center  293 is at   3.299939  3.785951  0.415391
      ESP Fit Center  294 is at   4.362955 -0.871423  0.415391
      ESP Fit Center  295 is at   6.220020  1.457264 -0.674961
      ESP Fit Center  296 is at   5.983477  2.493627 -0.674961
      ESP Fit Center  297 is at   5.320698  3.324726 -0.674961
      ESP Fit Center  298 is at   4.362955  3.785951 -0.674961
      ESP Fit Center  299 is at   3.299939  3.785951 -0.674961
      ESP Fit Center  300 is at   4.362955 -0.871423 -0.674961
      ESP Fit Center  301 is at   5.320698 -0.410198 -0.674961
      ESP Fit Center  302 is at   5.983477  0.420901 -0.674961
      ESP Fit Center  303 is at   5.746934  1.457264 -1.657335
      ESP Fit Center  304 is at   5.442857  2.492855 -1.657335
      ESP Fit Center  305 is at   4.627169  3.199652 -1.657335
      ESP Fit Center  306 is at   3.558845  3.353254 -1.657335
      ESP Fit Center  307 is at   3.558845 -0.438726 -1.657335
      ESP Fit Center  308 is at   4.627169 -0.285124 -1.657335
      ESP Fit Center  309 is at   5.442857  0.421673 -1.657335
      ESP Fit Center  310 is at   4.894462  1.457264 -2.337159
      ESP Fit Center  311 is at   4.362955  2.377862 -2.337159
      ESP Fit Center  312 is at   3.299939  2.377862 -2.337159
      ESP Fit Center  313 is at   2.768432  1.457264 -2.337159
      ESP Fit Center  314 is at   3.299939  0.536666 -2.337159
      ESP Fit Center  315 is at   4.362955  0.536666 -2.337159
      ESP Fit Center  316 is at   3.831447  1.457264 -2.579785
      ESP Fit Center  317 is at   2.564393  0.543045  2.654208
      ESP Fit Center  318 is at   4.562505  3.140108  1.604208
      ESP Fit Center  319 is at   5.064874 -0.598886  0.554208
      ESP Fit Center  320 is at   3.822102  1.764921  3.961262
      ESP Fit Center  321 is at   4.127250  2.704070  3.640411
      ESP Fit Center  322 is at   3.023215  2.345347  3.640411
      ESP Fit Center  323 is at   3.023215  1.184495  3.640411
      ESP Fit Center  324 is at   5.046069  2.791951  2.800411
      ESP Fit Center  325 is at   4.099553  3.338422  2.800411
      ESP Fit Center  326 is at   3.023215  3.148635  2.800411
      ESP Fit Center  327 is at   2.320685  2.311392  2.800411
      ESP Fit Center  328 is at   2.320685  1.218450  2.800411
      ESP Fit Center  329 is at   4.099553  3.338422  1.762113
      ESP Fit Center  330 is at   3.023215  3.148635  1.762113
      ESP Fit Center  331 is at   3.176701 -0.535000  3.219900
      ESP Fit Center  332 is at   4.280736 -0.893723  3.219900
      ESP Fit Center  333 is at   3.176701 -1.338288  2.379900
      ESP Fit Center  334 is at   4.253039 -1.528075  2.379900
      ESP Fit Center  335 is at   4.253039 -1.528075  1.341602
      ESP Fit Center  336 is at   5.199555 -0.981604  1.341602
      ESP Fit Center  337 is at   4.280736 -0.893723  0.501602
      ESP Fit Center  338 is at   7.385426  3.200678  2.021774
      ESP Fit Center  339 is at   6.438910  3.747149  2.021774
      ESP Fit Center  340 is at   5.362572  3.557362  2.021774
      ESP Fit Center  341 is at   7.759234  2.173648  0.983476
      ESP Fit Center  342 is at   7.385426  3.200678  0.983476
      ESP Fit Center  343 is at   6.438910  3.747149  0.983476
      ESP Fit Center  344 is at   5.362572  3.557362  0.983476
      ESP Fit Center  345 is at   7.148938  2.173648  0.143476
      ESP Fit Center  346 is at   6.466607  3.112797  0.143476
      ESP Fit Center  347 is at   5.512515 -0.918814  1.556669
      ESP Fit Center  348 is at   6.588853 -1.108601  1.556669
      ESP Fit Center  349 is at   7.535369  1.491930  0.518371
      ESP Fit Center  350 is at   5.512515 -0.918814  0.518371
      ESP Fit Center  351 is at   6.588853 -1.108601  0.518371
      ESP Fit Center  352 is at   7.298881  0.464900 -0.321629
      ESP Fit Center  353 is at   6.616550  1.404049 -0.321629
      ESP Fit Center  354 is at   6.616550 -0.474249 -0.321629
      ESP Fit Center  355 is at   6.311402  0.464900 -0.642480
      ESP Fit Center  356 is at   6.312403  0.747710  5.914403
      ESP Fit Center  357 is at   6.843911  1.668308  5.671777
      ESP Fit Center  358 is at   5.780895  1.668308  5.671777
      ESP Fit Center  359 is at   5.249388  0.747710  5.671777
      ESP Fit Center  360 is at   5.780895 -0.172888  5.671777
      ESP Fit Center  361 is at   6.843911 -0.172888  5.671777
      ESP Fit Center  362 is at   7.108125  2.490098  4.991953
      ESP Fit Center  363 is at   6.039801  2.643700  4.991953
      ESP Fit Center  364 is at   5.058026  2.195339  4.991953
      ESP Fit Center  365 is at   4.474507  1.287365  4.991953
      ESP Fit Center  366 is at   4.474507  0.208055  4.991953
      ESP Fit Center  367 is at   5.058026 -0.699919  4.991953
      ESP Fit Center  368 is at   6.039801 -1.148280  4.991953
      ESP Fit Center  369 is at   7.108125 -0.994678  4.991953
      ESP Fit Center  370 is at   6.843911  3.076397  4.009579
      ESP Fit Center  371 is at   5.780895  3.076397  4.009579
      ESP Fit Center  372 is at   4.823152  2.615172  4.009579
      ESP Fit Center  373 is at   4.160373  1.784073  4.009579
      ESP Fit Center  374 is at   3.923830  0.747710  4.009579
      ESP Fit Center  375 is at   4.160373 -0.288653  4.009579
      ESP Fit Center  376 is at   4.823152 -1.119752  4.009579
      ESP Fit Center  377 is at   5.780895 -1.580977  4.009579
      ESP Fit Center  378 is at   6.843911 -1.580977  4.009579
      ESP Fit Center  379 is at   6.843911  3.076397  2.919227
      ESP Fit Center  380 is at   5.780895  3.076397  2.919227
      ESP Fit Center  381 is at   4.823152 -1.119752  2.919227
      ESP Fit Center  382 is at   5.780895 -1.580977  2.919227
      ESP Fit Center  383 is at   6.843911 -1.580977  2.919227
      ESP Fit Center  384 is at   6.039801 -1.148280  1.936853
      ESP Fit Center  385 is at   7.108125 -0.994678  1.936853
      ESP Fit Center  386 is at   7.858736  2.903356  4.457322
      ESP Fit Center  387 is at   8.428683  1.177286  6.133355
      ESP Fit Center  388 is at   9.416162  1.177286  5.812504
      ESP Fit Center  389 is at   8.733831  2.116435  5.812504
      ESP Fit Center  390 is at   7.629796  1.757712  5.812504
      ESP Fit Center  391 is at   7.629796  0.596860  5.812504
      ESP Fit Center  392 is at   8.733831  0.238137  5.812504
      ESP Fit Center  393 is at  10.026458  1.177286  4.972504
      ESP Fit Center  394 is at   9.652650  2.204316  4.972504
      ESP Fit Center  395 is at   8.706134  2.750787  4.972504
      ESP Fit Center  396 is at   7.629796  2.561000  4.972504
      ESP Fit Center  397 is at   8.706134 -0.396215  4.972504
      ESP Fit Center  398 is at   9.652650  0.150256  4.972504
      ESP Fit Center  399 is at   8.570307  3.029030  4.314438
      ESP Fit Center  400 is at   9.489126  3.116911  3.474438
      ESP Fit Center  401 is at   8.542610  3.663382  3.474438
      ESP Fit Center  402 is at   7.466272  3.473595  3.474438
      ESP Fit Center  403 is at   8.542610  3.663382  2.436140
      ESP Fit Center  404 is at   7.466272  3.473595  2.436140
      ESP Fit Center  405 is at   8.570307  3.029030  1.596140
      ESP Fit Center  406 is at   8.265159  2.089881  1.275289
      ESP Fit Center  407 is at   9.693814 -1.625929  1.642569
      ESP Fit Center  408 is at   8.812191 -0.934632  4.875631
      ESP Fit Center  409 is at   8.013304 -1.515058  4.554780
      ESP Fit Center  410 is at   9.117339 -1.873781  4.554780
      ESP Fit Center  411 is at   7.310774 -1.481103  3.714780
      ESP Fit Center  412 is at   8.013304 -2.318346  3.714780
      ESP Fit Center  413 is at   9.089642 -2.508133  3.714780
      ESP Fit Center  414 is at  10.036158 -1.961662  3.714780
      ESP Fit Center  415 is at   7.310774 -1.481103  2.676482
      ESP Fit Center  416 is at   8.013304 -2.318346  2.676482
      ESP Fit Center  417 is at   9.089642 -2.508133  2.676482
      ESP Fit Center  418 is at   7.812403 -1.489700  1.137816
      ESP Fit Center  419 is at   8.888741 -1.679487  1.137816
      ESP Fit Center  420 is at   7.812403 -0.686412  0.297816
      ESP Fit Center  421 is at   8.916438 -1.045135  0.297816
      ESP Fit Center  422 is at  10.748376  0.360230  5.168489
      ESP Fit Center  423 is at  11.811391  0.360230  4.925863
      ESP Fit Center  424 is at  11.279884  1.280828  4.925863
      ESP Fit Center  425 is at  10.216868  1.280828  4.925863
      ESP Fit Center  426 is at  10.216868 -0.560368  4.925863
      ESP Fit Center  427 is at  11.279884 -0.560368  4.925863
      ESP Fit Center  428 is at  12.663863  0.360230  4.246039
      ESP Fit Center  429 is at  12.359786  1.395821  4.246039
      ESP Fit Center  430 is at  11.544098  2.102618  4.246039
      ESP Fit Center  431 is at  10.475774  2.256220  4.246039
      ESP Fit Center  432 is at  10.475774 -1.535760  4.246039
      ESP Fit Center  433 is at  11.544098 -1.382158  4.246039
      ESP Fit Center  434 is at  12.359786 -0.675361  4.246039
      ESP Fit Center  435 is at  13.136949  0.360230  3.263665
      ESP Fit Center  436 is at  12.900406  1.396593  3.263665
      ESP Fit Center  437 is at  12.237627  2.227692  3.263665
      ESP Fit Center  438 is at  11.279884  2.688917  3.263665
      ESP Fit Center  439 is at  10.216868  2.688917  3.263665
      ESP Fit Center  440 is at  10.216868 -1.968457  3.263665
      ESP Fit Center  441 is at  11.279884 -1.968457  3.263665
      ESP Fit Center  442 is at  12.237627 -1.507232  3.263665
      ESP Fit Center  443 is at  12.900406 -0.676133  3.263665
      ESP Fit Center  444 is at  13.136949  0.360230  2.173313
      ESP Fit Center  445 is at  10.216868 -1.968457  2.173313
      ESP Fit Center  446 is at  11.279884 -1.968457  2.173313
      ESP Fit Center  447 is at  12.237627 -1.507232  2.173313
      ESP Fit Center  448 is at  12.900406 -0.676133  2.173313
      ESP Fit Center  449 is at  12.663863  0.360230  1.190939
      ESP Fit Center  450 is at  10.475774 -1.535760  1.190939
      ESP Fit Center  451 is at  11.544098 -1.382158  1.190939
      ESP Fit Center  452 is at  12.359786 -0.675361  1.190939
      ESP Fit Center  453 is at  11.679812  3.271934  0.334122
      ESP Fit Center  454 is at  10.517401  3.370525  2.919076
      ESP Fit Center  455 is at  10.489704  4.004877  2.079076
      ESP Fit Center  456 is at   9.413366  3.815090  2.079076
      ESP Fit Center  457 is at  10.489704  4.004877  1.040778
      ESP Fit Center  458 is at   9.413366  3.815090  1.040778
      ESP Fit Center  459 is at   8.710836  2.977847  1.040778
      ESP Fit Center  460 is at   8.710836  1.884905  1.040778
      ESP Fit Center  461 is at  10.517401  3.370525  0.200778
      ESP Fit Center  462 is at   9.413366  3.011802  0.200778
      ESP Fit Center  463 is at  12.911409  2.035664  2.902413
      ESP Fit Center  464 is at  12.229078  2.974813  2.902413
      ESP Fit Center  465 is at  13.521705  2.035664  2.062413
      ESP Fit Center  466 is at  13.147897  3.062694  2.062413
      ESP Fit Center  467 is at  12.201381  3.609165  2.062413
      ESP Fit Center  468 is at  13.147897  1.008634  2.062413
      ESP Fit Center  469 is at  13.521705  2.035664  1.024115
      ESP Fit Center  470 is at  13.147897  3.062694  1.024115
      ESP Fit Center  471 is at  12.201381  3.609165  1.024115
      ESP Fit Center  472 is at  13.147897  1.008634  1.024115
      ESP Fit Center  473 is at  12.911409  2.035664  0.184115
      ESP Fit Center  474 is at  12.229078  2.974813  0.184115
      ESP Fit Center  475 is at  12.654842  2.041049 -0.034771
      ESP Fit Center  476 is at   9.223511  2.457688 -0.034771
      ESP Fit Center  477 is at   9.745384  1.065130 -1.853424
      ESP Fit Center  478 is at  10.270384  0.155803 -1.853424
      ESP Fit Center  479 is at   8.303214  1.180446  0.304223
      ESP Fit Center  480 is at  10.082082 -0.939526  0.304223
      ESP Fit Center  481 is at   9.005744  2.017689 -0.734075
      ESP Fit Center  482 is at   8.303214  1.180446 -0.734075
      ESP Fit Center  483 is at   8.303214  0.087504 -0.734075
      ESP Fit Center  484 is at   9.005744 -0.749739 -0.734075
      ESP Fit Center  485 is at  10.082082 -0.939526 -0.734075
      ESP Fit Center  486 is at   9.005744  1.214401 -1.574075
      ESP Fit Center  487 is at   9.005744  0.053549 -1.574075
      ESP Fit Center  488 is at  10.109779 -0.305174 -1.574075
      ESP Fit Center  489 is at   9.804631  0.633975 -1.894926
      ESP Fit Center  490 is at  12.168258  2.894128 -0.249706
      ESP Fit Center  491 is at  11.221742  3.440599 -0.249706
      ESP Fit Center  492 is at  10.145404  3.250812 -0.249706
      ESP Fit Center  493 is at  12.542066  1.867098 -1.288004
      ESP Fit Center  494 is at  12.168258  2.894128 -1.288004
      ESP Fit Center  495 is at  11.221742  3.440599 -1.288004
      ESP Fit Center  496 is at  10.145404  3.250812 -1.288004
      ESP Fit Center  497 is at   9.442874  2.413569 -1.288004
      ESP Fit Center  498 is at  11.931770  1.867098 -2.128004
      ESP Fit Center  499 is at  11.249439  2.806247 -2.128004
      ESP Fit Center  500 is at  10.145404  2.447524 -2.128004
      ESP Fit Center  501 is at  10.145404  1.286672 -2.128004
      ESP Fit Center  502 is at  11.249439  0.927949 -2.128004
      ESP Fit Center  503 is at  10.944291  1.867098 -2.448855
      ESP Fit Center  504 is at  13.137745  0.284881  0.299265
      ESP Fit Center  505 is at  10.741083 -1.098833  0.299265
      ESP Fit Center  506 is at  11.817421 -1.288620  0.299265
      ESP Fit Center  507 is at  12.763937 -0.742149  0.299265
      ESP Fit Center  508 is at  13.137745  0.284881 -0.739033
      ESP Fit Center  509 is at  12.763937  1.311911 -0.739033
      ESP Fit Center  510 is at  10.741083 -1.098833 -0.739033
      ESP Fit Center  511 is at  11.817421 -1.288620 -0.739033
      ESP Fit Center  512 is at  12.763937 -0.742149 -0.739033
      ESP Fit Center  513 is at  12.527449  0.284881 -1.579033
      ESP Fit Center  514 is at  11.845118 -0.654268 -1.579033
      ESP Fit Center  515 is at  11.539970  0.284881 -1.899884
      ESP Fit Center  516 is at  -3.676310 -5.344365  0.173129
      ESP Fit Center  517 is at  -3.676310 -1.685665 -0.894971
      ESP Fit Center  518 is at  -7.474995 -3.515015 -0.894971
      ESP Fit Center  519 is at  -6.935556 -4.043657 -1.857297
      ESP Fit Center  520 is at  -4.355685 -5.221844 -1.857297
      ESP Fit Center  521 is at  -5.655828 -4.416825 -2.523246
      ESP Fit Center  522 is at  -4.614508 -4.416825 -2.523246
      ESP Fit Center  523 is at  -4.685933 -1.185309 -1.062898
      ESP Fit Center  524 is at  -5.645933 -0.928078 -1.062898
      ESP Fit Center  525 is at  -6.605933 -1.185309 -1.062898
      ESP Fit Center  526 is at  -7.308702 -1.888078 -1.062898
      ESP Fit Center  527 is at  -7.565933 -2.848078 -1.062898
      ESP Fit Center  528 is at  -4.300725 -1.870727 -2.022898
      ESP Fit Center  529 is at  -5.132109 -1.266691 -2.022898
      ESP Fit Center  530 is at  -6.159757 -1.266691 -2.022898
      ESP Fit Center  531 is at  -6.991141 -1.870727 -2.022898
      ESP Fit Center  532 is at  -7.308702 -2.848078 -2.022898
      ESP Fit Center  533 is at  -6.991141 -3.825429 -2.022898
      ESP Fit Center  534 is at  -4.685933 -2.848078 -2.725667
      ESP Fit Center  535 is at  -5.165933 -2.016694 -2.725667
      ESP Fit Center  536 is at  -6.125933 -2.016694 -2.725667
      ESP Fit Center  537 is at  -6.605933 -2.848078 -2.725667
      ESP Fit Center  538 is at  -6.125933 -3.679462 -2.725667
      ESP Fit Center  539 is at  -5.645933 -2.848078 -2.982898
      ESP Fit Center  540 is at  -2.418740 -3.576842  0.308239
      ESP Fit Center  541 is at  -2.736301 -4.554193  0.308239
      ESP Fit Center  542 is at  -2.161509 -3.576842 -0.651761
      ESP Fit Center  543 is at  -2.418740 -2.616842 -0.651761
      ESP Fit Center  544 is at  -3.121509 -5.239611 -0.651761
      ESP Fit Center  545 is at  -2.418740 -4.536842 -0.651761
      ESP Fit Center  546 is at  -2.418740 -3.576842 -1.611761
      ESP Fit Center  547 is at  -2.736301 -2.599491 -1.611761
      ESP Fit Center  548 is at  -3.567685 -1.995455 -1.611761
      ESP Fit Center  549 is at  -3.567685 -5.158229 -1.611761
      ESP Fit Center  550 is at  -2.736301 -4.554193 -1.611761
      ESP Fit Center  551 is at  -3.121509 -3.576842 -2.314530
      ESP Fit Center  552 is at  -3.601509 -2.745458 -2.314530
      ESP Fit Center  553 is at  -3.601509 -4.408226 -2.314530
      ESP Fit Center  554 is at  -4.081509 -3.576842 -2.571761
      ESP Fit Center  555 is at  -6.057944 -5.344963  1.218138
      ESP Fit Center  556 is at  -7.240713 -4.513579  0.515369
      ESP Fit Center  557 is at  -6.923152 -5.490930  0.515369
      ESP Fit Center  558 is at  -6.091768 -6.094966  0.515369
      ESP Fit Center  559 is at  -5.064120 -6.094966  0.515369
      ESP Fit Center  560 is at  -7.497944 -4.513579 -0.444631
      ESP Fit Center  561 is at  -7.240713 -5.473579 -0.444631
      ESP Fit Center  562 is at  -6.537944 -6.176348 -0.444631
      ESP Fit Center  563 is at  -5.577944 -6.433579 -0.444631
      ESP Fit Center  564 is at  -4.617944 -6.176348 -0.444631
      ESP Fit Center  565 is at  -7.240713 -4.513579 -1.404631
      ESP Fit Center  566 is at  -6.923152 -5.490930 -1.404631
      ESP Fit Center  567 is at  -6.091768 -6.094966 -1.404631
      ESP Fit Center  568 is at  -5.064120 -6.094966 -1.404631
      ESP Fit Center  569 is at  -4.232736 -5.490930 -1.404631
      ESP Fit Center  570 is at  -6.537944 -4.513579 -2.107400
      ESP Fit Center  571 is at  -6.057944 -5.344963 -2.107400
      ESP Fit Center  572 is at  -5.097944 -5.344963 -2.107400
      ESP Fit Center  573 is at  -6.725750 -4.823639  1.594739
      ESP Fit Center  574 is at  -6.328182 -2.946116  3.279944
      ESP Fit Center  575 is at  -7.288182 -2.946116  3.022713
      ESP Fit Center  576 is at  -6.808182 -3.777500  3.022713
      ESP Fit Center  577 is at  -7.673390 -1.968765  2.319944
      ESP Fit Center  578 is at  -7.990951 -2.946116  2.319944
      ESP Fit Center  579 is at  -7.673390 -3.923467  2.319944
      ESP Fit Center  580 is at  -6.842006 -4.527503  2.319944
      ESP Fit Center  581 is at  -7.288182 -1.283347  1.359944
      ESP Fit Center  582 is at  -7.990951 -1.986116  1.359944
      ESP Fit Center  583 is at  -8.248182 -2.946116  1.359944
      ESP Fit Center  584 is at  -7.990951 -3.906116  1.359944
      ESP Fit Center  585 is at  -7.288182 -4.608885  1.359944
      ESP Fit Center  586 is at  -7.673390 -1.968765  0.399944
      ESP Fit Center  587 is at  -7.990951 -2.946116  0.399944
      ESP Fit Center  588 is at  -7.673390 -3.923467  0.399944
      ESP Fit Center  589 is at  -4.760804 -3.669500  3.691394
      ESP Fit Center  590 is at  -3.800804 -3.669500  3.434163
      ESP Fit Center  591 is at  -5.720804 -3.669500  3.434163
      ESP Fit Center  592 is at  -5.240804 -4.500884  3.434163
      ESP Fit Center  593 is at  -4.280804 -4.500884  3.434163
      ESP Fit Center  594 is at  -3.098035 -3.669500  2.731394
      ESP Fit Center  595 is at  -6.106012 -4.646851  2.731394
      ESP Fit Center  596 is at  -5.274628 -5.250887  2.731394
      ESP Fit Center  597 is at  -4.246980 -5.250887  2.731394
      ESP Fit Center  598 is at  -3.415596 -4.646851  2.731394
      ESP Fit Center  599 is at  -2.840804 -3.669500  1.771394
      ESP Fit Center  600 is at  -5.720804 -5.332269  1.771394
      ESP Fit Center  601 is at  -4.760804 -5.589500  1.771394
      ESP Fit Center  602 is at  -3.800804 -5.332269  1.771394
      ESP Fit Center  603 is at  -3.098035 -4.629500  1.771394
      ESP Fit Center  604 is at  -2.754892 -2.714738  1.621324
      ESP Fit Center  605 is at  -6.323212 -0.251705  0.624430
      ESP Fit Center  606 is at  -6.808965 -1.177231  0.624430
      ESP Fit Center  607 is at  -4.147403 -0.034270 -0.273740
      ESP Fit Center  608 is at  -5.229767 -0.034270 -0.273740
      ESP Fit Center  609 is at  -6.105419 -0.670468 -0.273740
      ESP Fit Center  610 is at  -4.202635 -0.858168 -0.895293
      ESP Fit Center  611 is at  -5.174535 -0.858168 -0.895293
      ESP Fit Center  612 is at  -5.997028 -2.531485  3.904997
      ESP Fit Center  613 is at  -4.276993 -1.751914  5.081536
      ESP Fit Center  614 is at  -3.316993 -1.751914  4.824305
      ESP Fit Center  615 is at  -3.796993 -0.920530  4.824305
      ESP Fit Center  616 is at  -4.756993 -0.920530  4.824305
      ESP Fit Center  617 is at  -5.236993 -1.751914  4.824305
      ESP Fit Center  618 is at  -4.756993 -2.583298  4.824305
      ESP Fit Center  619 is at  -3.796993 -2.583298  4.824305
      ESP Fit Center  620 is at  -2.614224 -1.751914  4.121536
      ESP Fit Center  621 is at  -5.622201 -2.729265  4.121536
      ESP Fit Center  622 is at  -4.790817 -3.333301  4.121536
      ESP Fit Center  623 is at  -3.763169 -3.333301  4.121536
      ESP Fit Center  624 is at  -2.931785 -2.729265  4.121536
      ESP Fit Center  625 is at  -3.316993 -3.414683  3.161536
      ESP Fit Center  626 is at  -2.614224 -2.711914  3.161536
      ESP Fit Center  627 is at  -2.931785 -2.729265  2.201536
      ESP Fit Center  628 is at  -5.824899 -0.993721  4.629996
      ESP Fit Center  629 is at  -6.304899 -0.162337  4.372765
      ESP Fit Center  630 is at  -6.784899 -0.993721  4.372765
      ESP Fit Center  631 is at  -6.304899 -1.825105  4.372765
      ESP Fit Center  632 is at  -6.338723  0.587666  3.669996
      ESP Fit Center  633 is at  -7.170107 -0.016370  3.669996
      ESP Fit Center  634 is at  -7.487668 -0.993721  3.669996
      ESP Fit Center  635 is at  -7.170107 -1.971072  3.669996
      ESP Fit Center  636 is at  -6.338723 -2.575108  3.669996
      ESP Fit Center  637 is at  -6.784899  0.669048  2.709996
      ESP Fit Center  638 is at  -7.487668 -0.033721  2.709996
      ESP Fit Center  639 is at  -7.744899 -0.993721  2.709996
      ESP Fit Center  640 is at  -7.487668 -1.953721  2.709996
      ESP Fit Center  641 is at  -7.170107 -0.016370  1.749996
      ESP Fit Center  642 is at  -7.487668 -0.993721  1.749996
      ESP Fit Center  643 is at  -3.578458  2.536040  2.931665
      ESP Fit Center  644 is at  -6.207229  1.270090  2.931665
      ESP Fit Center  645 is at  -3.578458  2.536040  1.863565
      ESP Fit Center  646 is at  -3.525331  2.503778  1.548705
      ESP Fit Center  647 is at  -4.485331  2.761009  1.548705
      ESP Fit Center  648 is at  -5.445331  2.503778  1.548705
      ESP Fit Center  649 is at  -6.148100  1.801009  1.548705
      ESP Fit Center  650 is at  -6.405331  0.841009  1.548705
      ESP Fit Center  651 is at  -3.971507  2.422396  0.588705
      ESP Fit Center  652 is at  -4.999155  2.422396  0.588705
      ESP Fit Center  653 is at  -5.830539  1.818360  0.588705
      ESP Fit Center  654 is at  -6.148100  0.841009  0.588705
      ESP Fit Center  655 is at  -4.965331  1.672393 -0.114064
      ESP Fit Center  656 is at  -5.445331  0.841009 -0.114064
      ESP Fit Center  657 is at  -4.485331  0.841009 -0.371295
      ESP Fit Center  658 is at  -4.369187  0.775771  5.243864
      ESP Fit Center  659 is at  -3.409187  0.775771  4.986633
      ESP Fit Center  660 is at  -3.889187  1.607155  4.986633
      ESP Fit Center  661 is at  -4.849187  1.607155  4.986633
      ESP Fit Center  662 is at  -5.329187  0.775771  4.986633
      ESP Fit Center  663 is at  -4.849187 -0.055613  4.986633
      ESP Fit Center  664 is at  -3.889187 -0.055613  4.986633
      ESP Fit Center  665 is at  -3.023979  1.753122  4.283864
      ESP Fit Center  666 is at  -3.855363  2.357158  4.283864
      ESP Fit Center  667 is at  -4.883011  2.357158  4.283864
      ESP Fit Center  668 is at  -5.714395  1.753122  4.283864
      ESP Fit Center  669 is at  -6.031956  0.775771  4.283864
      ESP Fit Center  670 is at  -3.409187  2.438540  3.323864
      ESP Fit Center  671 is at  -4.369187  2.695771  3.323864
      ESP Fit Center  672 is at  -5.329187  2.438540  3.323864
      ESP Fit Center  673 is at  -6.031956  1.735771  3.323864
      ESP Fit Center  674 is at  -6.289187  0.775771  3.323864
      ESP Fit Center  675 is at  -2.684080  0.213343  4.618903
      ESP Fit Center  676 is at  -1.712180  0.213343  4.397073
      ESP Fit Center  677 is at  -2.198130  1.055033  4.397073
      ESP Fit Center  678 is at  -2.198130 -0.628347  4.397073
      ESP Fit Center  679 is at  -0.932777  0.213343  3.775520
      ESP Fit Center  680 is at  -1.267246  1.242733  3.775520
      ESP Fit Center  681 is at  -2.142898  1.878931  3.775520
      ESP Fit Center  682 is at  -2.142898 -1.452245  3.775520
      ESP Fit Center  683 is at  -1.267246 -0.816047  3.775520
      ESP Fit Center  684 is at  -2.420847  2.381259  2.877350
      ESP Fit Center  685 is at  -2.420847  2.381259  1.880456
      ESP Fit Center  686 is at  -3.002724  2.298774  1.327058
      ESP Fit Center  687 is at  -1.528900  2.380156  0.367058
      ESP Fit Center  688 is at  -2.488900  2.637387  0.367058
      ESP Fit Center  689 is at  -3.448900  2.380156  0.367058
      ESP Fit Center  690 is at  -1.975076  2.298774 -0.592942
      ESP Fit Center  691 is at  -3.002724  2.298774 -0.592942
      ESP Fit Center  692 is at  -3.834108  1.694738 -0.592942
      ESP Fit Center  693 is at  -4.151669  0.717387 -0.592942
      ESP Fit Center  694 is at  -3.834108 -0.259964 -0.592942
      ESP Fit Center  695 is at  -2.008900  1.548771 -1.295711
      ESP Fit Center  696 is at  -2.968900  1.548771 -1.295711
      ESP Fit Center  697 is at  -3.448900  0.717387 -1.295711
      ESP Fit Center  698 is at  -2.968900 -0.113997 -1.295711
      ESP Fit Center  699 is at  -2.008900 -0.113997 -1.295711
      ESP Fit Center  700 is at  -2.488900  0.717387 -1.552942
      ESP Fit Center  701 is at  -1.790916 -2.591549  1.685901
      ESP Fit Center  702 is at  -2.304740 -2.930162  0.725901
      ESP Fit Center  703 is at  -1.344740 -2.672931  0.725901
      ESP Fit Center  704 is at  -1.790916 -2.591549 -0.234099
      ESP Fit Center  705 is at  -3.264740 -1.010162 -0.936868
      ESP Fit Center  706 is at  -2.784740 -1.841546 -0.936868
      ESP Fit Center  707 is at  -1.824740 -1.841546 -0.936868
      ESP Fit Center  708 is at  -2.304740 -1.010162 -1.194099
      ESP Fit Center  709 is at  -0.865056  2.057968 -0.225724
      ESP Fit Center  710 is at  -0.204222 -0.520059  3.925190
      ESP Fit Center  711 is at   0.755778 -0.520059  3.667959
      ESP Fit Center  712 is at   0.275778  0.311325  3.667959
      ESP Fit Center  713 is at  -0.684222  0.311325  3.667959
      ESP Fit Center  714 is at  -0.684222 -1.351443  3.667959
      ESP Fit Center  715 is at   0.275778 -1.351443  3.667959
      ESP Fit Center  716 is at   1.458547 -0.520059  2.965190
      ESP Fit Center  717 is at   1.140986  0.457292  2.965190
      ESP Fit Center  718 is at  -0.718046 -2.101446  2.965190
      ESP Fit Center  719 is at   0.309602 -2.101446  2.965190
      ESP Fit Center  720 is at   1.140986 -1.497410  2.965190
      ESP Fit Center  721 is at  -1.164222 -2.182828  2.005190
      ESP Fit Center  722 is at  -0.204222 -2.440059  2.005190
      ESP Fit Center  723 is at   0.755778 -2.182828  2.005190
      ESP Fit Center  724 is at   0.309602 -2.101446  1.045190
      ESP Fit Center  725 is at  -0.409369  1.211721  3.581792
      ESP Fit Center  726 is at   0.550631  1.211721  3.324561
      ESP Fit Center  727 is at   0.070631  2.043105  3.324561
      ESP Fit Center  728 is at  -0.889369  2.043105  3.324561
      ESP Fit Center  729 is at   1.253400  1.211721  2.621792
      ESP Fit Center  730 is at   0.104455  2.793108  2.621792
      ESP Fit Center  731 is at  -0.923193  2.793108  2.621792
      ESP Fit Center  732 is at  -0.409369  3.131721  1.661792
      ESP Fit Center  733 is at  -1.369369  2.874490  1.661792
      ESP Fit Center  734 is at  -0.923193  2.793108  0.701792
      ESP Fit Center  735 is at   0.263233 -2.167916  0.498447
      ESP Fit Center  736 is at  -0.774400  2.041924 -0.498447
      ESP Fit Center  737 is at  -0.774400 -2.041924 -0.498447
      ESP Fit Center  738 is at   0.263233 -2.167916 -0.498447
      ESP Fit Center  739 is at  -0.541182  1.665588 -1.396617
      ESP Fit Center  740 is at  -1.416834  1.029390 -1.396617
      ESP Fit Center  741 is at  -1.751303  0.000000 -1.396617
      ESP Fit Center  742 is at  -1.416834 -1.029390 -1.396617
      ESP Fit Center  743 is at  -0.541182 -1.665588 -1.396617
      ESP Fit Center  744 is at  -0.485950  0.841690 -2.018170
      ESP Fit Center  745 is at  -0.971900  0.000000 -2.018170
      ESP Fit Center  746 is at  -0.485950 -0.841690 -2.018170
      ESP Fit Center  747 is at   0.000000  0.000000 -2.240000
      ESP Fit Center  748 is at   0.897061 -2.281163  0.534050
      ESP Fit Center  749 is at   0.897061 -2.281163 -0.534050
      ESP Fit Center  750 is at   0.764797 -2.178362 -0.915140
      ESP Fit Center  751 is at   1.724797 -2.435593 -0.915140
      ESP Fit Center  752 is at   2.684797 -2.178362 -0.915140
      ESP Fit Center  753 is at   3.387566 -1.475593 -0.915140
      ESP Fit Center  754 is at   0.379589 -1.492944 -1.875140
      ESP Fit Center  755 is at   1.210973 -2.096980 -1.875140
      ESP Fit Center  756 is at   2.238621 -2.096980 -1.875140
      ESP Fit Center  757 is at   3.070005 -1.492944 -1.875140
      ESP Fit Center  758 is at   2.684797 -0.515593 -2.577909
      ESP Fit Center  759 is at   2.204797  0.315791 -2.577909
      ESP Fit Center  760 is at   1.244797  0.315791 -2.577909
      ESP Fit Center  761 is at   0.764797 -0.515593 -2.577909
      ESP Fit Center  762 is at   1.244797 -1.346977 -2.577909
      ESP Fit Center  763 is at   2.204797 -1.346977 -2.577909
      ESP Fit Center  764 is at   1.724797 -0.515593 -2.835140
      ESP Fit Center  765 is at   1.801097 -0.577198  2.775998
      ESP Fit Center  766 is at   2.281097 -1.408582  2.518767
      ESP Fit Center  767 is at   1.287273 -2.158585  1.815998
      ESP Fit Center  768 is at   2.314921 -2.158585  1.815998
      ESP Fit Center  769 is at   0.841097 -2.239967  0.855998
      ESP Fit Center  770 is at   1.801097 -2.497198  0.855998
      ESP Fit Center  771 is at   2.761097 -2.239967  0.855998
      ESP Fit Center  772 is at   3.463866 -1.537198  0.855998
      ESP Fit Center  773 is at   1.697138  1.982467  2.808377
      ESP Fit Center  774 is at   2.177138  2.813851  2.551146
      ESP Fit Center  775 is at   1.217138  2.813851  2.551146
      ESP Fit Center  776 is at   2.210962  3.563854  1.848377
      ESP Fit Center  777 is at   1.183314  3.563854  1.848377
      ESP Fit Center  778 is at   1.697138  3.902467  0.888377
      ESP Fit Center  779 is at   0.737138  3.645236  0.888377
      ESP Fit Center  780 is at   0.034369  2.942467  0.888377
      ESP Fit Center  781 is at   1.630681  3.882026 -0.874968
      ESP Fit Center  782 is at   0.670681  3.624795 -0.874968
      ESP Fit Center  783 is at  -0.032088  2.922026 -0.874968
      ESP Fit Center  784 is at   2.144505  3.543413 -1.834968
      ESP Fit Center  785 is at   1.116857  3.543413 -1.834968
      ESP Fit Center  786 is at   0.285473  2.939377 -1.834968
      ESP Fit Center  787 is at  -0.032088  1.962026 -1.834968
      ESP Fit Center  788 is at   2.110681  2.793410 -2.537737
      ESP Fit Center  789 is at   1.150681  2.793410 -2.537737
      ESP Fit Center  790 is at   0.670681  1.962026 -2.537737
      ESP Fit Center  791 is at   1.150681  1.130642 -2.537737
      ESP Fit Center  792 is at   2.110681  1.130642 -2.537737
      ESP Fit Center  793 is at   1.630681  1.962026 -2.794968
      ESP Fit Center  794 is at   4.630832  3.917517  0.941729
      ESP Fit Center  795 is at   3.561046  4.029956  0.941729
      ESP Fit Center  796 is at   5.900672  3.343612 -0.129785
      ESP Fit Center  797 is at   5.079514  3.963721 -0.129785
      ESP Fit Center  798 is at   4.089798  4.245320 -0.129785
      ESP Fit Center  799 is at   3.065191  4.150376 -0.129785
      ESP Fit Center  800 is at   4.089798 -1.330792 -0.129785
      ESP Fit Center  801 is at   5.079514 -1.049193 -0.129785
      ESP Fit Center  802 is at   6.418310  1.457264 -1.201299
      ESP Fit Center  803 is at   6.194664  2.509436 -1.201299
      ESP Fit Center  804 is at   5.562396  3.379678 -1.201299
      ESP Fit Center  805 is at   4.630832  3.917517 -1.201299
      ESP Fit Center  806 is at   3.561046  4.029956 -1.201299
      ESP Fit Center  807 is at   2.538016  3.697553 -1.201299
      ESP Fit Center  808 is at   3.561046 -1.115428 -1.201299
      ESP Fit Center  809 is at   4.630832 -1.002989 -1.201299
      ESP Fit Center  810 is at   5.562396 -0.465150 -1.201299
      ESP Fit Center  811 is at   6.194664  0.405092 -1.201299
      ESP Fit Center  812 is at   5.811346  1.457264 -2.109684
      ESP Fit Center  813 is at   5.546090  2.447213 -2.109684
      ESP Fit Center  814 is at   4.821396  3.171907 -2.109684
      ESP Fit Center  815 is at   3.831447  3.437163 -2.109684
      ESP Fit Center  816 is at   2.841498  3.171907 -2.109684
      ESP Fit Center  817 is at   3.831447 -0.522635 -2.109684
      ESP Fit Center  818 is at   4.821396 -0.257379 -2.109684
      ESP Fit Center  819 is at   5.546090  0.467315 -2.109684
      ESP Fit Center  820 is at   4.902961  1.457264 -2.716648
      ESP Fit Center  821 is at   4.367204  2.385222 -2.716648
      ESP Fit Center  822 is at   3.295690  2.385222 -2.716648
      ESP Fit Center  823 is at   2.759933  1.457264 -2.716648
      ESP Fit Center  824 is at   3.295690  0.529306 -2.716648
      ESP Fit Center  825 is at   4.367204  0.529306 -2.716648
      ESP Fit Center  826 is at   3.831447  1.457264 -2.929785
      ESP Fit Center  827 is at   2.508990  0.526777  3.100584
      ESP Fit Center  828 is at   3.342102  2.596305  3.944031
      ESP Fit Center  829 is at   2.862102  1.764921  3.944031
      ESP Fit Center  830 is at   3.342102  0.933537  3.944031
      ESP Fit Center  831 is at   4.335926  3.346308  3.241262
      ESP Fit Center  832 is at   3.308278  3.346308  3.241262
      ESP Fit Center  833 is at   2.476894  2.742272  3.241262
      ESP Fit Center  834 is at   2.159333  1.764921  3.241262
      ESP Fit Center  835 is at   2.476894  0.787570  3.241262
      ESP Fit Center  836 is at   4.782102  3.427690  2.281262
      ESP Fit Center  837 is at   3.822102  3.684921  2.281262
      ESP Fit Center  838 is at   2.862102  3.427690  2.281262
      ESP Fit Center  839 is at   3.015588  0.045426  3.523520
      ESP Fit Center  840 is at   3.495588 -0.785958  3.523520
      ESP Fit Center  841 is at   2.312819  0.045426  2.820751
      ESP Fit Center  842 is at   2.630380 -0.931925  2.820751
      ESP Fit Center  843 is at   3.461764 -1.535961  2.820751
      ESP Fit Center  844 is at   4.489412 -1.535961  2.820751
      ESP Fit Center  845 is at   3.975588 -1.874574  1.860751
      ESP Fit Center  846 is at   4.935588 -1.617343  1.860751
      ESP Fit Center  847 is at   4.489412 -1.535961  0.900751
      ESP Fit Center  848 is at   6.675283  3.755035  2.462625
      ESP Fit Center  849 is at   5.647635  3.755035  2.462625
      ESP Fit Center  850 is at   7.121459  3.836417  1.502625
      ESP Fit Center  851 is at   6.161459  4.093648  1.502625
      ESP Fit Center  852 is at   5.201459  3.836417  1.502625
      ESP Fit Center  853 is at   7.824228  2.173648  0.542625
      ESP Fit Center  854 is at   7.506667  3.150999  0.542625
      ESP Fit Center  855 is at   6.675283  3.755035  0.542625
      ESP Fit Center  856 is at   5.647635  3.755035  0.542625
      ESP Fit Center  857 is at   7.121459  2.173648 -0.160144
      ESP Fit Center  858 is at   6.641459  3.005032 -0.160144
      ESP Fit Center  859 is at   5.351402 -1.197869  1.037520
      ESP Fit Center  860 is at   6.311402 -1.455100  1.037520
      ESP Fit Center  861 is at   7.656610  1.442251  0.077520
      ESP Fit Center  862 is at   5.797578 -1.116487  0.077520
      ESP Fit Center  863 is at   6.825226 -1.116487  0.077520
      ESP Fit Center  864 is at   7.271402  0.464900 -0.625249
      ESP Fit Center  865 is at   6.791402  1.296284 -0.625249
      ESP Fit Center  866 is at   6.791402 -0.366484 -0.625249
      ESP Fit Center  867 is at   6.312403  0.747710  6.264403
      ESP Fit Center  868 is at   7.383917  0.747710  6.051266
      ESP Fit Center  869 is at   6.848160  1.675668  6.051266
      ESP Fit Center  870 is at   5.776646  1.675668  6.051266
      ESP Fit Center  871 is at   5.240889  0.747710  6.051266
      ESP Fit Center  872 is at   5.776646 -0.180248  6.051266
      ESP Fit Center  873 is at   6.848160 -0.180248  6.051266
      ESP Fit Center  874 is at   7.302352  2.462353  5.444302
      ESP Fit Center  875 is at   6.312403  2.727609  5.444302
      ESP Fit Center  876 is at   5.322454  2.462353  5.444302
      ESP Fit Center  877 is at   4.597760  1.737659  5.444302
      ESP Fit Center  878 is at   4.332504  0.747710  5.444302
      ESP Fit Center  879 is at   4.597760 -0.242239  5.444302
      ESP Fit Center  880 is at   5.322454 -0.966933  5.444302
      ESP Fit Center  881 is at   6.312403 -1.232189  5.444302
      ESP Fit Center  882 is at   7.302352 -0.966933  5.444302
      ESP Fit Center  883 is at   7.111788  3.207963  4.535917
      ESP Fit Center  884 is at   6.042002  3.320402  4.535917
      ESP Fit Center  885 is at   5.018972  2.987999  4.535917
      ESP Fit Center  886 is at   4.219587  2.268230  4.535917
      ESP Fit Center  887 is at   3.782069  1.285549  4.535917
      ESP Fit Center  888 is at   3.782069  0.209871  4.535917
      ESP Fit Center  889 is at   4.219587 -0.772810  4.535917
      ESP Fit Center  890 is at   5.018972 -1.492579  4.535917
      ESP Fit Center  891 is at   6.042002 -1.824982  4.535917
      ESP Fit Center  892 is at   7.111788 -1.712543  4.535917
      ESP Fit Center  893 is at   6.570754  3.535766  3.464403
      ESP Fit Center  894 is at   5.546147  3.440822  3.464403
      ESP Fit Center  895 is at   4.625026 -1.486738  3.464403
      ESP Fit Center  896 is at   5.546147 -1.945402  3.464403
      ESP Fit Center  897 is at   6.570754 -2.040346  3.464403
      ESP Fit Center  898 is at   5.018972 -1.492579  2.392889
      ESP Fit Center  899 is at   6.042002 -1.824982  2.392889
      ESP Fit Center  900 is at   7.111788 -1.712543  2.392889
      ESP Fit Center  901 is at   7.850518  2.960511  4.903698
      ESP Fit Center  902 is at   8.428683  1.177286  6.373355
      ESP Fit Center  903 is at   9.388683  1.177286  6.116124
      ESP Fit Center  904 is at   8.908683  2.008670  6.116124
      ESP Fit Center  905 is at   7.948683  2.008670  6.116124
      ESP Fit Center  906 is at   7.468683  1.177286  6.116124
      ESP Fit Center  907 is at   7.948683  0.345902  6.116124
      ESP Fit Center  908 is at   8.908683  0.345902  6.116124
      ESP Fit Center  909 is at  10.091452  1.177286  5.413355
      ESP Fit Center  910 is at   9.773891  2.154637  5.413355
      ESP Fit Center  911 is at   8.942507  2.758673  5.413355
      ESP Fit Center  912 is at   7.914859  2.758673  5.413355
      ESP Fit Center  913 is at   8.942507 -0.404101  5.413355
      ESP Fit Center  914 is at   9.773891  0.199935  5.413355
      ESP Fit Center  915 is at   9.610367  3.067232  3.915289
      ESP Fit Center  916 is at   8.778983  3.671268  3.915289
      ESP Fit Center  917 is at   7.751335  3.671268  3.915289
      ESP Fit Center  918 is at   9.225159  3.752650  2.955289
      ESP Fit Center  919 is at   8.265159  4.009881  2.955289
      ESP Fit Center  920 is at   7.305159  3.752650  2.955289
      ESP Fit Center  921 is at   8.778983  3.671268  1.995289
      ESP Fit Center  922 is at   7.751335  3.671268  1.995289
      ESP Fit Center  923 is at   8.265159  2.089881  1.035289
      ESP Fit Center  924 is at   8.812191 -0.934632  5.115631
      ESP Fit Center  925 is at   8.332191 -1.766016  4.858400
      ESP Fit Center  926 is at   9.292191 -1.766016  4.858400
      ESP Fit Center  927 is at   7.466983 -1.911983  4.155631
      ESP Fit Center  928 is at   8.298367 -2.516019  4.155631
      ESP Fit Center  929 is at   9.326015 -2.516019  4.155631
      ESP Fit Center  930 is at   7.852191 -2.597401  3.195631
      ESP Fit Center  931 is at   8.812191 -2.854632  3.195631
      ESP Fit Center  932 is at   9.772191 -2.597401  3.195631
      ESP Fit Center  933 is at   7.466983 -1.911983  2.235631
      ESP Fit Center  934 is at   8.298367 -2.516019  2.235631
      ESP Fit Center  935 is at   9.326015 -2.516019  2.235631
      ESP Fit Center  936 is at   7.651290 -1.768755  1.656965
      ESP Fit Center  937 is at   8.097466  1.475401  0.696965
      ESP Fit Center  938 is at   8.097466 -1.687373  0.696965
      ESP Fit Center  939 is at   9.125114 -1.687373  0.696965
      ESP Fit Center  940 is at   8.131290 -0.937370 -0.005804
      ESP Fit Center  941 is at  10.748376  0.360230  5.518489
      ESP Fit Center  942 is at  11.819890  0.360230  5.305352
      ESP Fit Center  943 is at  11.284133  1.288188  5.305352
      ESP Fit Center  944 is at  10.212619  1.288188  5.305352
      ESP Fit Center  945 is at  10.212619 -0.567728  5.305352
      ESP Fit Center  946 is at  11.284133 -0.567728  5.305352
      ESP Fit Center  947 is at  12.728275  0.360230  4.698388
      ESP Fit Center  948 is at  12.463019  1.350179  4.698388
      ESP Fit Center  949 is at  11.738325  2.074873  4.698388
      ESP Fit Center  950 is at  10.748376  2.340129  4.698388
      ESP Fit Center  951 is at  10.748376 -1.619669  4.698388
      ESP Fit Center  952 is at  11.738325 -1.354413  4.698388
      ESP Fit Center  953 is at  12.463019 -0.629719  4.698388
      ESP Fit Center  954 is at  13.335239  0.360230  3.790003
      ESP Fit Center  955 is at  13.111593  1.412402  3.790003
      ESP Fit Center  956 is at  12.479325  2.282644  3.790003
      ESP Fit Center  957 is at  11.547761  2.820483  3.790003
      ESP Fit Center  958 is at  10.477975  2.932922  3.790003
      ESP Fit Center  959 is at  10.477975 -2.212462  3.790003
      ESP Fit Center  960 is at  11.547761 -2.100023  3.790003
      ESP Fit Center  961 is at  12.479325 -1.562184  3.790003
      ESP Fit Center  962 is at  13.111593 -0.691942  3.790003
      ESP Fit Center  963 is at  13.548376  0.360230  2.718489
      ESP Fit Center  964 is at  13.359298  1.371707  2.718489
      ESP Fit Center  965 is at  11.006727 -2.427826  2.718489
      ESP Fit Center  966 is at  11.996443 -2.146227  2.718489
      ESP Fit Center  967 is at  12.817601 -1.526118  2.718489
      ESP Fit Center  968 is at  13.359298 -0.651247  2.718489
      ESP Fit Center  969 is at  13.335239  0.360230  1.646975
      ESP Fit Center  970 is at  10.477975 -2.212462  1.646975
      ESP Fit Center  971 is at  11.547761 -2.100023  1.646975
      ESP Fit Center  972 is at  12.479325 -1.562184  1.646975
      ESP Fit Center  973 is at  13.111593 -0.691942  1.646975
      ESP Fit Center  974 is at   9.758427 -1.354413  0.738590
      ESP Fit Center  975 is at  10.748376 -1.619669  0.738590
      ESP Fit Center  976 is at  11.444976  3.898792  1.918172
      ESP Fit Center  977 is at  11.444976  3.898792  0.850072
      ESP Fit Center  978 is at  10.692253  3.262760  3.222696
      ESP Fit Center  979 is at  10.726077  4.012763  2.519927
      ESP Fit Center  980 is at   9.698429  4.012763  2.519927
      ESP Fit Center  981 is at  11.172253  4.094145  1.559927
      ESP Fit Center  982 is at  10.212253  4.351376  1.559927
      ESP Fit Center  983 is at   9.252253  4.094145  1.559927
      ESP Fit Center  984 is at   8.549484  3.391376  1.559927
      ESP Fit Center  985 is at  10.726077  4.012763  0.599927
      ESP Fit Center  986 is at   9.698429  4.012763  0.599927
      ESP Fit Center  987 is at   8.867045  3.408727  0.599927
      ESP Fit Center  988 is at   8.549484  2.431376  0.599927
      ESP Fit Center  989 is at   9.732253  3.262760 -0.102842
      ESP Fit Center  990 is at  12.403930  2.867048  3.206033
      ESP Fit Center  991 is at  13.586699  2.035664  2.503264
      ESP Fit Center  992 is at  13.269138  3.013015  2.503264
      ESP Fit Center  993 is at  12.437754  3.617051  2.503264
      ESP Fit Center  994 is at  13.843930  2.035664  1.543264
      ESP Fit Center  995 is at  13.586699  2.995664  1.543264
      ESP Fit Center  996 is at  12.883930  3.698433  1.543264
      ESP Fit Center  997 is at  11.923930  3.955664  1.543264
      ESP Fit Center  998 is at  13.586699  1.075664  1.543264
      ESP Fit Center  999 is at  13.586699  2.035664  0.583264
      ESP Fit Center 1000 is at  13.269138  3.013015  0.583264
      ESP Fit Center 1001 is at  12.437754  3.617051  0.583264
      ESP Fit Center 1002 is at  13.269138  1.058313  0.583264
      ESP Fit Center 1003 is at  12.903495  2.080343 -0.568821
      ESP Fit Center 1004 is at  10.274724 -1.216033 -0.568821
      ESP Fit Center 1005 is at  10.528345 -0.792167 -1.531147
      ESP Fit Center 1006 is at   9.754063  1.065130 -2.197096
      ESP Fit Center 1007 is at  10.274724  0.163320 -2.197096
      ESP Fit Center 1008 is at  11.316044  0.163320 -2.197096
      ESP Fit Center 1009 is at   8.459423  1.611326  0.745074
      ESP Fit Center 1010 is at   8.141862  1.593975 -0.214926
      ESP Fit Center 1011 is at   7.884631  0.633975 -0.214926
      ESP Fit Center 1012 is at   8.141862 -0.326025 -0.214926
      ESP Fit Center 1013 is at   8.844631 -1.028794 -0.214926
      ESP Fit Center 1014 is at   9.804631 -1.286025 -0.214926
      ESP Fit Center 1015 is at   8.459423  1.611326 -1.174926
      ESP Fit Center 1016 is at   8.141862  0.633975 -1.174926
      ESP Fit Center 1017 is at   8.459423 -0.343376 -1.174926
      ESP Fit Center 1018 is at   9.290807 -0.947412 -1.174926
      ESP Fit Center 1019 is at   8.844631  0.633975 -1.877695
      ESP Fit Center 1020 is at   9.324631 -0.197409 -1.877695
      ESP Fit Center 1021 is at  12.607060  2.827098 -0.768855
      ESP Fit Center 1022 is at  11.904291  3.529867 -0.768855
      ESP Fit Center 1023 is at  10.944291  3.787098 -0.768855
      ESP Fit Center 1024 is at   9.984291  3.529867 -0.768855
      ESP Fit Center 1025 is at   9.281522  2.827098 -0.768855
      ESP Fit Center 1026 is at  12.607060  1.867098 -1.728855
      ESP Fit Center 1027 is at  12.289499  2.844449 -1.728855
      ESP Fit Center 1028 is at  11.458115  3.448485 -1.728855
      ESP Fit Center 1029 is at  10.430467  3.448485 -1.728855
      ESP Fit Center 1030 is at   9.599083  2.844449 -1.728855
      ESP Fit Center 1031 is at   9.281522  1.867098 -1.728855
      ESP Fit Center 1032 is at  11.904291  1.867098 -2.431624
      ESP Fit Center 1033 is at  11.424291  2.698482 -2.431624
      ESP Fit Center 1034 is at  10.464291  2.698482 -2.431624
      ESP Fit Center 1035 is at   9.984291  1.867098 -2.431624
      ESP Fit Center 1036 is at  10.464291  1.035714 -2.431624
      ESP Fit Center 1037 is at  11.424291  1.035714 -2.431624
      ESP Fit Center 1038 is at  10.944291  1.867098 -2.688855
      ESP Fit Center 1039 is at  13.202739  0.284881  0.740116
      ESP Fit Center 1040 is at  12.053794 -1.296506  0.740116
      ESP Fit Center 1041 is at  12.885178 -0.692470  0.740116
      ESP Fit Center 1042 is at  13.459970  0.284881 -0.219884
      ESP Fit Center 1043 is at  13.202739  1.244881 -0.219884
      ESP Fit Center 1044 is at  10.579970 -1.377888 -0.219884
      ESP Fit Center 1045 is at  11.539970 -1.635119 -0.219884
      ESP Fit Center 1046 is at  12.499970 -1.377888 -0.219884
      ESP Fit Center 1047 is at  13.202739 -0.675119 -0.219884
[...]
 1386 Fit       0.005740
 1387 Fit      -0.007247
 1388 Fit       0.000229
 1389 Fit      -0.005054
 1390 Fit      -0.011276
 1391 Fit      -0.011584
 1392 Fit      -0.009591
 1393 Fit      -0.004467
 1394 Fit      -0.003064
 1395 Fit      -0.010804
 1396 Fit      -0.014135
 1397 Fit      -0.013498
 1398 Fit      -0.011899
 1399 Fit      -0.011573
 1400 Fit      -0.011740
 1401 Fit      -0.009538
 1402 Fit      -0.003616
 1403 Fit      -0.003667
 1404 Fit      -0.010340
 1405 Fit      -0.013306
 1406 Fit      -0.012035
 1407 Fit      -0.009020
 1408 Fit      -0.007440
 1409 Fit      -0.008200
 1410 Fit      -0.010863
 1411 Fit      -0.013113
 1412 Fit      -0.011903
 1413 Fit      -0.005545
 1414 Fit      -0.002586
 1415 Fit      -0.007574
 1416 Fit      -0.007451
 1417 Fit      -0.000130
 1418 Fit      -0.004990
 1419 Fit      -0.010772
 1420 Fit      -0.013373
 1421 Fit      -0.010020
 1422 Fit       0.006641
 1423 Fit       0.001141
 1424 Fit      -0.005290
 1425 Fit      -0.010265
 1426 Fit      -0.008045
 1427 Fit      -0.000814
 1428 Fit      -0.003696
 1429 Fit      -0.000544
 1430 Fit       0.000055
 1431 Fit       0.003083
 1432 Fit       0.000789
 1433 Fit       0.002230
 1434 Fit       0.001352
 1435 Fit       0.002697
 1436 Fit       0.002824
 1437 Fit      -0.004228
 1438 Fit       0.001147
 1439 Fit       0.001152
 1440 Fit       0.003528
 1441 Fit      -0.000219
 1442 Fit       0.005321
 1443 Fit       0.004553
 1444 Fit       0.010662
 1445 Fit       0.008825
 1446 Fit       0.015119
 1447 Fit       0.002144
 1448 Fit       0.002597
 1449 Fit      -0.002435
 1450 Fit       0.004562
 1451 Fit       0.001636
 1452 Fit       0.002505
 1453 Fit      -0.002408
 1454 Fit       0.002245
 1455 Fit       0.001575
 1456 Fit      -0.005394
 1457 Fit       0.001144
 1458 Fit       0.001597
 1459 Fit      -0.002693
 1460 Fit       0.000486
 1461 Fit       0.001657
 1462 Fit      -0.002392
 1463 Fit       0.008983
 1464 Fit       0.005670
 1465 Fit       0.001320
 1466 Fit       0.011498
 1467 Fit      -0.010487
 1468 Fit      -0.014980
 1469 Fit      -0.014787
 1470 Fit      -0.007337
 1471 Fit      -0.004507
 1472 Fit      -0.011117
 1473 Fit      -0.015119
 1474 Fit      -0.015118
 1475 Fit      -0.014707
 1476 Fit      -0.011772
 1477 Fit       0.001300
 1478 Fit      -0.005912
 1479 Fit      -0.011654
 1480 Fit      -0.014488
 1481 Fit      -0.012237
 1482 Fit      -0.010323
 1483 Fit      -0.009507
 1484 Fit      -0.009230
 1485 Fit      -0.007082
 1486 Fit      -0.006036
 1487 Fit      -0.012141
 1488 Fit      -0.014716
 1489 Fit      -0.014259
 1490 Fit      -0.007843
 1491 Fit      -0.003180
 1492 Fit      -0.004079
 1493 Fit      -0.011992
 1494 Fit      -0.015813
 1495 Fit      -0.015689
 1496 Fit      -0.012506
 1497 Fit      -0.003261
 1498 Fit      -0.007662
 1499 Fit      -0.014435
 1500 Fit      -0.017055
 1501 Fit      -0.015296
 1502 Fit      -0.010171
 1503 Fit       0.000965
 1504 Fit      -0.003988
 1505 Fit      -0.011715
 1506 Fit      -0.014934
 1507 Fit      -0.012908
 1508 Fit      -0.006891
 1509 Fit      -0.007606
 1510 Fit      -0.000109
 1511 Fit       0.006425
 1512 Fit       0.010062
 1513 Fit       0.006344
 1514 Fit       0.009497
 1515 Fit       0.009743
 1516 Fit       0.012218
 1517 Fit       0.016591
 1518 Fit       0.011293
 1519 Fit       0.013209
 1520 Fit       0.016190
 1521 Fit      -0.000824
 1522 Fit       0.003703
 1523 Fit       0.005449
 1524 Fit       0.005572
 1525 Fit       0.006665
 1526 Fit       0.008054
 1527 Fit       0.008353
 1528 Fit       0.008287
 1529 Fit       0.003797
 1530 Fit       0.007919
 1531 Fit       0.009123
 1532 Fit       0.009611
 1533 Fit       0.006166
 1534 Fit       0.001346
 1535 Fit       0.003913
 1536 Fit       0.002094
 1537 Fit       0.003763
 1538 Fit       0.002722
 1539 Fit       0.002587
 1540 Fit       0.013152
 1541 Fit       0.006633
 1542 Fit       0.007105
 1543 Fit       0.007836
 1544 Fit       0.008550
 1545 Fit       0.007051
 1546 Fit       0.003713
 1547 Fit       0.005137
 1548 Fit       0.004335
 1549 Fit       0.008260
 1550 Fit       0.009325
 1551 Fit       0.009787
 1552 Fit       0.009901
 1553 Fit       0.009592
 1554 Fit       0.005240
 1555 Fit       0.007244
 1556 Fit       0.008426
 1557 Fit       0.008479
 1558 Fit       0.007453
 1559 Fit       0.005944
 1560 Fit       0.005301
 1561 Fit       0.007022
 1562 Fit       0.006673
 1563 Fit       0.004854
 1564 Fit       0.005203
 1565 Fit       0.001643
 1566 Fit      -0.005323
 1567 Fit       0.003596
 1568 Fit      -0.003147
 1569 Fit      -0.002931
 1570 Fit      -0.000843
 1571 Fit       0.001487
 1572 Fit       0.003991
 1573 Fit       0.001094
 1574 Fit       0.002118
 1575 Fit       0.003296
 1576 Fit       0.003512
 1577 Fit       0.002992
 1578 Fit       0.005963
 1579 Fit       0.003682
 1580 Fit       0.003912
 1581 Fit       0.004368
 1582 Fit       0.002623
 1583 Fit      -0.010529
 1584 Fit       0.003065
 1585 Fit       0.002056
 1586 Fit       0.002199
 1587 Fit       0.001812
 1588 Fit       0.000634
 1589 Fit      -0.001680
 1590 Fit       0.000550
 1591 Fit      -0.000362
 1592 Fit      -0.000523
 1593 Fit      -0.002032
 1594 Fit       0.002573
 1595 Fit      -0.009801
 1596 Fit      -0.004370
 1597 Fit      -0.000040
 1598 Fit       0.002370
 1599 Fit       0.003213
 1600 Fit      -0.004792
 1601 Fit      -0.001702
 1602 Fit       0.001058
 1603 Fit       0.002420
 1604 Fit       0.002502
 1605 Fit      -0.001626
 1606 Fit       0.000588
 1607 Fit       0.001655
 1608 Fit       0.000984
 1609 Fit       0.000137
 1610 Fit      -0.002019
 1611 Fit       0.001681
 1612 Fit      -0.002473
 1613 Fit       0.002049
 1614 Fit       0.000631
 1615 Fit      -0.002767
 1616 Fit      -0.007918
 1617 Fit       0.001462
 1618 Fit       0.000297
 1619 Fit      -0.002199
 1620 Fit      -0.005880
 1621 Fit      -0.008232
 1622 Fit       0.000858
 1623 Fit       0.000142
 1624 Fit      -0.001804
 1625 Fit      -0.003870
 1626 Fit      -0.000333
 1627 Fit       0.007961
 1628 Fit       0.007341
 1629 Fit       0.006438
 1630 Fit       0.006827
 1631 Fit       0.006952
 1632 Fit       0.006566
 1633 Fit       0.005566
 1634 Fit       0.004162
 1635 Fit       0.004632
 1636 Fit       0.005482
 1637 Fit       0.005907
 1638 Fit       0.005625
 1639 Fit       0.004593
 1640 Fit       0.003062
 1641 Fit       0.003744
 1642 Fit       0.004417
 1643 Fit       0.004126
 1644 Fit       0.002852
 1645 Fit       0.002546
 1646 Fit       0.007618
 1647 Fit       0.007799
 1648 Fit       0.008343
 1649 Fit       0.008340
 1650 Fit       0.008307
 1651 Fit       0.007829
 1652 Fit       0.007993
 1653 Fit       0.007555
 1654 Fit       0.007554
 1655 Fit       0.006803
 1656 Fit       0.006971
 1657 Fit       0.007209
 1658 Fit       0.007646
 1659 Fit       0.003138
 1660 Fit       0.005120
 1661 Fit       0.006065
 1662 Fit       0.006718
 1663 Fit       0.007747
 1664 Fit       0.004388
 1665 Fit       0.005510
 1666 Fit       0.006883
 1667 Fit       0.006041
 1668 Fit       0.007275
 1669 Fit       0.006598
 1670 Fit       0.005697
 1671 Fit       0.004365
 1672 Fit      -0.000087
 1673 Fit       0.007071
 1674 Fit       0.005981
 1675 Fit       0.004696
 1676 Fit       0.002896
 1677 Fit       0.005895
 1678 Fit       0.004224
 1679 Fit       0.002319
 1680 Fit      -0.004729
 1681 Fit      -0.010992
 1682 Fit      -0.010129
 1683 Fit      -0.014440
 1684 Fit       0.008074
 1685 Fit       0.007639
 1686 Fit       0.001695
 1687 Fit       0.004495
 1688 Fit       0.000500
 1689 Fit       0.001903
 1690 Fit       0.007014
 1691 Fit       0.005827
 1692 Fit       0.003715
 1693 Fit      -0.005764
 1694 Fit       0.007148
 1695 Fit       0.006124
 1696 Fit       0.004034
 1697 Fit       0.000408
 1698 Fit       0.002304
 1699 Fit      -0.002687
 1700 Fit      -0.004305
 1701 Fit       0.009510
 1702 Fit       0.008326
 1703 Fit       0.007982
 1704 Fit       0.009195
 1705 Fit       0.008317
 1706 Fit       0.008097
 1707 Fit       0.008113
 1708 Fit       0.008578
 1709 Fit       0.007824
 1710 Fit       0.007805
 1711 Fit       0.008304
 1712 Fit       0.007028
 1713 Fit       0.006425
 1714 Fit       0.006838
 1715 Fit       0.003534
 1716 Fit       0.003551
 1717 Fit       0.000379
 1718 Fit      -0.000929
 1719 Fit       0.003217
 1720 Fit       0.005844
 1721 Fit       0.007700
 1722 Fit      -0.000243
 1723 Fit       0.003142
 1724 Fit       0.005078
 1725 Fit       0.001263
 1726 Fit       0.002918
 1727 Fit       0.003941
 1728 Fit       0.004237
 1729 Fit       0.003335
 1730 Fit       0.002179
 1731 Fit       0.002383
 1732 Fit       0.000946
 1733 Fit      -0.000150
 1734 Fit      -0.004286
 1735 Fit       0.003999
 1736 Fit      -0.001721
 1737 Fit       0.001499
 1738 Fit       0.005236
 1739 Fit       0.007208
 1740 Fit       0.006739
 1741 Fit       0.001900
 1742 Fit      -0.006872
 1743 Fit      -0.000357
 1744 Fit       0.003788
 1745 Fit       0.006388
 1746 Fit       0.008291
 1747 Fit       0.010000
 1748 Fit      -0.007202
 1749 Fit      -0.000094
 1750 Fit       0.003689
 1751 Fit       0.006106
 1752 Fit       0.008100
 1753 Fit      -0.008494
 1754 Fit      -0.013353
 1755 Fit      -0.011642
 1756 Fit      -0.011075
 1757 Fit      -0.011571
 1758 Fit      -0.012419
 1759 Fit      -0.012422
 1760 Fit      -0.008645
 1761 Fit      -0.010886
 1762 Fit      -0.011488
 1763 Fit      -0.010185
 1764 Fit      -0.007655
 1765 Fit      -0.006770
 1766 Fit      -0.013230
 1767 Fit      -0.015426
 1768 Fit      -0.000631
 1769 Fit      -0.000466
 1770 Fit      -0.000760
 1771 Fit       0.000225
 1772 Fit       0.001456
 1773 Fit      -0.004645
 1774 Fit      -0.001590
 1775 Fit      -0.000986
 1776 Fit      -0.003246
 1777 Fit      -0.010690
 1778 Fit      -0.008399
 1779 Fit      -0.004289
 1780 Fit      -0.006406
 1781 Fit      -0.010867
 1782 Fit      -0.009572
 1783 Fit      -0.002849
 1784 Fit      -0.002983
 1785 Fit      -0.003454
 1786 Fit      -0.007208
 1787 Fit      -0.008350
 1788 Fit      -0.014102
 1789 Fit      -0.013430
 1790 Fit      -0.010632
 1791 Fit      -0.004476
 1792 Fit      -0.005187
 1793 Fit      -0.001828
 1794 Fit      -0.005272
 1795 Fit       0.000690
 1796 Fit      -0.002096
 1797 Fit      -0.006442
 1798 Fit      -0.000745
 1799 Fit       0.005851
 1800 Fit      -0.001648
 1801 Fit       0.001460
 1802 Fit       0.003878
 1803 Fit      -0.001245
 1804 Fit       0.001247
 1805 Fit       0.004248
 1806 Fit      -0.002297
 1807 Fit      -0.000331
 1808 Fit       0.001484
 1809 Fit      -0.000245
 1810 Fit      -0.008145
 1811 Fit       0.004257
 1812 Fit      -0.000901
 1813 Fit       0.005278
 1814 Fit       0.000765
 1815 Fit      -0.004611
 1816 Fit       0.001786
 1817 Fit      -0.000865
 1818 Fit       0.000767
 1819 Fit      -0.007170
 1820 Fit      -0.007388
 1821 Fit      -0.013886
 1822 Fit      -0.011977
 1823 Fit      -0.011250
 1824 Fit      -0.013870
 1825 Fit      -0.016067
 1826 Fit      -0.017234
 1827 Fit      -0.015960
 1828 Fit      -0.011860
 1829 Fit      -0.012382
 1830 Fit      -0.016004
 1831 Fit      -0.014705
 1832 Fit      -0.011039
 1833 Fit      -0.003260
 1834 Fit      -0.006158
 1835 Fit      -0.001202
 1836 Fit      -0.003206
 1837 Fit      -0.000770
 1838 Fit      -0.001732
 1839 Fit      -0.006822
 1840 Fit      -0.002158
 1841 Fit      -0.001080
 1842 Fit      -0.003833
 1843 Fit      -0.002928
 1844 Fit      -0.000952
 1845 Fit      -0.001746
 1846 Fit      -0.005269
 1847 Fit      -0.002851
 1848 Fit      -0.001379
 1849 Fit      -0.001632
 1850 Fit       0.007063
 1851 Fit       0.004501
 1852 Fit       0.005748
 1853 Fit       0.001879
 1854 Fit       0.003378
 1855 Fit       0.004940
 1856 Fit       0.001394
 1857 Fit       0.001788
 1858 Fit       0.007930
 1859 Fit       0.006589
 1860 Fit       0.006604
 1861 Fit       0.002451
 1862 Fit       0.004445
 1863 Fit       0.005089
 1864 Fit       0.002416
 1865 Fit       0.001727
 1866 Fit       0.001855
 1867 Fit      -0.001357
 1868 Fit       0.001923
 1869 Fit       0.001791
 1870 Fit      -0.001723
 1871 Fit       0.001106
 1872 Fit       0.001933
 1873 Fit      -0.000254
 1874 Fit      -0.000533
 1875 Fit       0.001302
 1876 Fit      -0.000022
 1877 Fit       0.003300
 1878 Fit      -0.004603
 1879 Fit      -0.004903
 1880 Fit      -0.001276
 1881 Fit      -0.002517
 1882 Fit      -0.007269
 1883 Fit      -0.008561
 1884 Fit      -0.006546
 1885 Fit      -0.002090
 1886 Fit      -0.002199
 1887 Fit      -0.002086
 1888 Fit       0.003557
 1889 Fit       0.000727
 1890 Fit      -0.003479
 1891 Fit      -0.007616
 1892 Fit      -0.009594
 1893 Fit      -0.008381
 1894 Fit      -0.004110
 1895 Fit      -0.006942
 1896 Fit      -0.005159
 1897 Fit      -0.000338
 1898 Fit      -0.003763
 1899 Fit      -0.005114
 1900 Fit      -0.007542
 1901 Fit      -0.009034
 1902 Fit      -0.007876
 1903 Fit      -0.003590
 1904 Fit      -0.007344
 1905 Fit      -0.009212
 1906 Fit      -0.007468
 1907 Fit      -0.004729
 1908 Fit      -0.007505
 1909 Fit      -0.007733
 1910 Fit      -0.008018
 1911 Fit      -0.006320
 1912 Fit      -0.002083
 1913 Fit      -0.007859
 1914 Fit      -0.009529
 1915 Fit      -0.008544
 1916 Fit      -0.008030
 1917 Fit      -0.006868
 1918 Fit      -0.003737
 1919 Fit      -0.002195
 1920 Fit      -0.005227
 1921 Fit      -0.008201
 1922 Fit      -0.005969
 1923 Fit       0.004441
 1924 Fit       0.009932
 1925 Fit      -0.000761
 1926 Fit       0.001130
 1927 Fit       0.001565
 1928 Fit       0.004785
 1929 Fit       0.006393
 1930 Fit       0.006178
 1931 Fit       0.001788
 1932 Fit       0.003768
 1933 Fit       0.007320
 1934 Fit       0.007451
 1935 Fit       0.005045
 1936 Fit       0.000382
 1937 Fit       0.004576
 1938 Fit       0.000015
 1939 Fit       0.002535
 1940 Fit       0.008085
 1941 Fit       0.007209
 1942 Fit       0.003322
 1943 Fit       0.011740
 1944 Fit       0.006290
 1945 Fit       0.000659
 1946 Fit       0.010638
 1947 Fit       0.005244
 1948 Fit       0.002351
 1949 Fit       0.005180
 1950 Fit       0.000832
 1951 Fit       0.006551
 1952 Fit       0.006859
 1953 Fit       0.003171
 1954 Fit      -0.006102
 1955 Fit      -0.001141
 1956 Fit      -0.004424
 1957 Fit      -0.008640
 1958 Fit      -0.009125
 1959 Fit      -0.007741
 1960 Fit      -0.004183
 1961 Fit      -0.002794
 1962 Fit      -0.008010
 1963 Fit      -0.010510
 1964 Fit      -0.010466
 1965 Fit      -0.009647
 1966 Fit      -0.009362
 1967 Fit      -0.009147
 1968 Fit      -0.007347
 1969 Fit      -0.003296
 1970 Fit      -0.003135
 1971 Fit      -0.007879
 1972 Fit      -0.010184
 1973 Fit      -0.009747
 1974 Fit      -0.008092
 1975 Fit      -0.007137
 1976 Fit      -0.007525
 1977 Fit      -0.008940
 1978 Fit      -0.009948
 1979 Fit      -0.008698
 1980 Fit      -0.004333
 1981 Fit       0.001600
 1982 Fit      -0.002124
 1983 Fit      -0.006170
 1984 Fit      -0.007436
 1985 Fit      -0.005497
 1986 Fit      -0.001007
 1987 Fit      -0.001636
 1988 Fit      -0.003583
 1989 Fit      -0.006841
 1990 Fit      -0.009591
 1991 Fit      -0.009805
 1992 Fit      -0.006043
 1993 Fit       0.000753
 1994 Fit      -0.002177
 1995 Fit      -0.001293
 1996 Fit      -0.005762
 1997 Fit      -0.008615
 1998 Fit      -0.007644
 1999 Fit      -0.002809
 2000 Fit      -0.005423
 2001 Fit      -0.002850
 2002 Fit       0.000102
 2003 Fit       0.001845
 2004 Fit       0.000120
 2005 Fit       0.001492
 2006 Fit       0.000013
 2007 Fit       0.001018
 2008 Fit       0.000312
 2009 Fit       0.001108
 2010 Fit       0.001342
 2011 Fit      -0.003202
 2012 Fit       0.000382
 2013 Fit       0.000249
 2014 Fit       0.001444
 2015 Fit      -0.002549
 2016 Fit       0.003096
 2017 Fit       0.002256
 2018 Fit       0.006103
 2019 Fit       0.007035
 2020 Fit       0.005583
 2021 Fit       0.011582
 2022 Fit       0.010093
 2023 Fit       0.014355
 2024 Fit       0.001497
 2025 Fit       0.003037
 2026 Fit       0.000535
 2027 Fit       0.001081
 2028 Fit      -0.002945
 2029 Fit       0.000815
 2030 Fit       0.000389
 2031 Fit      -0.003397
 2032 Fit       0.000524
 2033 Fit       0.000292
 2034 Fit      -0.001928
 2035 Fit       0.000590
 2036 Fit      -0.000689
 2037 Fit       0.001090
 2038 Fit       0.003970
 2039 Fit       0.003007
 2040 Fit       0.008134
 2041 Fit       0.005277
 2042 Fit       0.002014
 2043 Fit      -0.008013
 2044 Fit      -0.011590
 2045 Fit      -0.010931
 2046 Fit      -0.004163
 2047 Fit      -0.008979
 2048 Fit      -0.012275
 2049 Fit      -0.012109
 2050 Fit      -0.011308
 2051 Fit      -0.008550
 2052 Fit      -0.000480
 2053 Fit      -0.005423
 2054 Fit      -0.009529
 2055 Fit      -0.011709
 2056 Fit      -0.010805
 2057 Fit      -0.009605
 2058 Fit      -0.008836
 2059 Fit      -0.008087
 2060 Fit      -0.005934
 2061 Fit      -0.005096
 2062 Fit      -0.009554
 2063 Fit      -0.011731
 2064 Fit      -0.011856
 2065 Fit      -0.007979
 2066 Fit      -0.005255
 2067 Fit      -0.003270
 2068 Fit      -0.002555
 2069 Fit      -0.002036
 2070 Fit       0.000493
 2071 Fit      -0.004645
 2072 Fit      -0.009699
 2073 Fit      -0.012244
 2074 Fit      -0.012381
 2075 Fit      -0.010657
 2076 Fit      -0.004573
 2077 Fit      -0.000132
 2078 Fit      -0.003684
 2079 Fit      -0.009172
 2080 Fit      -0.012408
 2081 Fit      -0.013200
 2082 Fit      -0.011735
 2083 Fit      -0.008611
 2084 Fit      -0.001141
 2085 Fit      -0.007840
 2086 Fit      -0.011690
 2087 Fit      -0.012617
 2088 Fit      -0.010649
 2089 Fit      -0.006532
 2090 Fit      -0.002165
 2091 Fit      -0.007769
 2092 Fit      -0.009680
 2093 Fit      -0.007674
 2094 Fit       0.003945
 2095 Fit       0.008639
 2096 Fit       0.009336
 2097 Fit       0.009982
 2098 Fit       0.004181
 2099 Fit       0.007197
 2100 Fit       0.007531
 2101 Fit       0.009524
 2102 Fit       0.008797
 2103 Fit       0.010018
 2104 Fit       0.012286
 2105 Fit       0.010147
 2106 Fit       0.011153
 2107 Fit       0.013119
 2108 Fit       0.002712
 2109 Fit       0.003129
 2110 Fit       0.004090
 2111 Fit       0.005562
 2112 Fit       0.006098
 2113 Fit       0.006253
 2114 Fit       0.005860
 2115 Fit       0.007054
 2116 Fit       0.007585
 2117 Fit       0.007909
 2118 Fit       0.003792
 2119 Fit       0.006808
 2120 Fit       0.007955
 2121 Fit       0.008830
 2122 Fit       0.006275
 2123 Fit       0.009630
 2124 Fit       0.009692
 2125 Fit       0.000406
 2126 Fit       0.003946
 2127 Fit       0.006023
 2128 Fit       0.001195
 2129 Fit       0.003608
 2130 Fit       0.004166
 2131 Fit       0.001967
 2132 Fit       0.003325
 2133 Fit       0.002518
 2134 Fit       0.002470
 2135 Fit       0.003398
 2136 Fit       0.009222
 2137 Fit       0.010640
 2138 Fit       0.007521
 2139 Fit       0.003460
 2140 Fit       0.005220
 2141 Fit       0.005588
 2142 Fit       0.004956
 2143 Fit       0.003015
 2144 Fit       0.003937
 2145 Fit       0.003424
 2146 Fit       0.009242
 2147 Fit       0.009393
 2148 Fit       0.010067
 2149 Fit       0.006602
 2150 Fit       0.007605
 2151 Fit       0.008069
 2152 Fit       0.008084
 2153 Fit       0.007649
 2154 Fit       0.004663
 2155 Fit       0.006093
 2156 Fit       0.006952
 2157 Fit       0.006947
 2158 Fit       0.006092
 2159 Fit       0.004893
 2160 Fit       0.004603
 2161 Fit       0.005777
 2162 Fit       0.005493
 2163 Fit       0.004206
 2164 Fit       0.004454
 2165 Fit       0.002261
 2166 Fit      -0.006819
 2167 Fit      -0.004108
 2168 Fit      -0.000980
 2169 Fit       0.003199
 2170 Fit      -0.001154
 2171 Fit      -0.000841
 2172 Fit       0.000423
 2173 Fit       0.001849
 2174 Fit       0.003344
 2175 Fit       0.001230
 2176 Fit       0.001806
 2177 Fit       0.002663
 2178 Fit       0.003062
 2179 Fit       0.002473
 Job cpu time:       0 days  0 hours 11 minutes 12.4 seconds.
 Normal termination of Gaussian 16 at Sun Jul  9 07:04:01 2023.
