 Copyright (c) 1988-2019, Gaussian, Inc.  All Rights Reserved.
  
 This is part of the Gaussian(R) 16 program.  It is based on
 the Gaussian(R) 09 system (copyright 2009, Gaussian, Inc.),
 the Gaussian(R) 03 system (copyright 2003, Gaussian, Inc.),
 the Gaussian(R) 98 system (copyright 1998, Gaussian, Inc.),
 the Gaussian(R) 94 system (copyright 1995, Gaussian, Inc.),
 the Gaussian 92(TM) system (copyright 1992, Gaussian, Inc.),
 the Gaussian 90(TM) system (copyright 1990, Gaussian, Inc.),
 the Gaussian 88(TM) system (copyright 1988, Gaussian, Inc.),
 the Gaussian 86(TM) system (copyright 1986, Carnegie Mellon
 University), and the Gaussian 82(TM) system (copyright 1983,
 Carnegie Mellon University). Gaussian is a federally registered
 trademark of Gaussian, Inc.
 Cite this work as:
 Gaussian 16, Revision C.01,
 M. J. Frisch, G. W. Trucks, H. B. Schlegel, G. E. Scuseria, 
 M. A. Robb, J. R. Cheeseman, G. Scalmani, V. Barone, 
 G. A. Petersson, H. Nakatsuji, X. Li, M. Caricato, A. V. Marenich, 
 J. Bloino, B. G. Janesko, R. Gomperts, B. Mennucci, H. P. Hratchian, 
 J. V. Ortiz, A. F. Izmaylov, J. L. Sonnenberg, D. Williams-Young, 
 F. Ding, F. Lipparini, F. Egidi, J. Goings, B. Peng, A. Petrone, 
 T. Henderson, D. Ranasinghe, V. G. Zakrzewski, J. Gao, N. Rega, 
 G. Zheng, W. Liang, M. Hada, M. Ehara, K. Toyota, R. Fukuda, 
 J. Hasegawa, M. Ishida, T. Nakajima, Y. Honda, O. Kitao, H. Nakai, 
 T. Vreven, K. Throssell, J. A. Montgomery, Jr., J. E. Peralta, 
 F. Ogliaro, M. J. Bearpark, J. J. Heyd, E. N. Brothers, K. N. Kudin, 
 V. N. Staroverov, T. A. Keith, R. Kobayashi, J. Normand, 
 K. Raghavachari, A. P. Rendell, J. C. Burant, S. S. Iyengar, 
 J. Tomasi, M. Cossi, J. M. Millam, M. Klene, C. Adamo, R. Cammi, 
 J. W. Ochterski, R. L. Martin, K. Morokuma, O. Farkas, 
 J. B. Foresman, and D. J. Fox, Gaussian, Inc., Wallingford CT, 2019.
 
 ******************************************
 Gaussian 16:  EM64L-G16RevC.01  3-Jul-2019
                 9-Jul-2023 
 ******************************************
 ----------------------------------------------------------------------
 #P B3LYP/6-31G(d) Integral=Ultrafine SCF(Conver=8,XQC,MaxConventionalC
 ycles=64,MaxCycle=128) NoSymm Test Pop=mk IOp(6/33=2) GFInput GFPrint
 ----------------------------------------------------------------------
 1/38=1,172=1/1;
 2/12=2,15=1,17=6,18=5,40=1/2;
 3/5=1,6=6,7=1,11=2,24=110,25=1,30=1,74=-5,75=-5/1,2,3;
 4//1;
 5/5=2,6=8,7=128,8=3,13=1,38=5,85=64/2,8;
 6/7=2,8=2,9=2,10=2,15=8,20=1,28=1,33=2/1,2;
 99/5=1,9=1/99;
 -------------------------------------------------
 MEP step - Input generated by PyRED DVE-DMDS-OPLS
 -------------------------------------------------
 Symbolic Z-matrix:
 Charge =  0 Multiplicity = 1
 C                     2.34413  -1.9632    5.09736 
 H                     1.60715  -2.76346   5.23061 
 H                     2.80231  -1.76771   6.07442 
 H                     1.81541  -1.0596    4.77597 
 C                     3.41689  -2.34431   4.07826 
 H                     4.16369  -1.54608   4.00827 
 H                     3.94253  -3.25727   4.40249 
 O                     2.92629  -2.50864   2.75396 
 C                     2.21991  -3.71346   2.49644 
 H                     2.32982  -4.4247    3.32839 
 H                     2.65859  -4.1719    1.60072 
 C                     0.73933  -3.47023   2.23871 
 H                     0.21711  -4.4403    2.15078 
 H                     0.29102  -2.92392   3.0836 
 O                     0.6165   -2.72435   1.0455 
 C                    -0.6837   -2.22409   0.796 
 H                    -1.08274  -1.7192    1.69076 
 H                    -1.37612  -3.04459   0.53466 
 C                    -0.61679  -1.22734  -0.3525 
 H                    -1.63671  -0.97451  -0.66313 
 H                    -0.10227  -1.6874   -1.20941 
 O                     0.        0.        0. 
 C                     1.42428   0.        0. 
 H                     1.7999   -0.53005  -0.88766 
 H                     1.80991  -0.52267   0.88518 
 C                     1.92728   1.43776   0. 
 H                     3.0099    1.42294   0.16596 
 H                     1.47865   1.9985    0.82743 
 S                     1.66675   2.3773   -1.5658 
 C                     0.21849   3.43723  -1.1725 
 H                     0.38978   3.89719  -0.19033 
 H                     0.25925   4.23731  -1.91821 
 C                    -1.14992   2.75115  -1.18159 
 H                    -1.9171    3.45233  -0.82833 
 H                    -1.13122   1.89557  -0.50414 
 S                    -1.69237   2.10039  -2.8193 
 C                    -2.91519   3.37372  -3.34225 
 H                    -3.62872   3.5375   -2.52739 
 H                    -3.46803   2.91217  -4.16608 
 C                    -2.29427   4.69011  -3.81159 
 H                    -1.71085   5.16469  -3.01639 
 H                    -1.60968   4.50548  -4.6446 
 S                    -3.52866   5.89625  -4.45546 
 C                    -4.26387   6.55733  -2.90202 
 H                    -5.16902   7.07594  -3.23541 
 H                    -4.59364   5.72159  -2.27515 
 C                    -3.35948   7.5108   -2.12182 
 H                    -3.06965   8.36731  -2.73819 
 H                    -3.88038   7.88547  -1.2314 
 H                    -2.44286   7.01539  -1.78344 
 
 ITRead=  0  0  0  0  0  0  0  0  0  0  0  0  0  0  0  0  0  0  0  0
 ITRead=  0  0  0  0  0  0  0  0  0  0  0  0  0  0  0  0  0  0  0  0
 ITRead=  0  0  0  0  0  0  0  0  0  0
 MicOpt= -1 -1 -1 -1 -1 -1 -1 -1 -1 -1 -1 -1 -1 -1 -1 -1 -1 -1 -1 -1
 MicOpt= -1 -1 -1 -1 -1 -1 -1 -1 -1 -1 -1 -1 -1 -1 -1 -1 -1 -1 -1 -1
 MicOpt= -1 -1 -1 -1 -1 -1 -1 -1 -1 -1
 NAtoms=     50 NQM=       50 NQMF=       0 NMMI=      0 NMMIF=      0
                NMic=       0 NMicF=      0.
                          Input orientation:                          
 ---------------------------------------------------------------------
 Center     Atomic      Atomic             Coordinates (Angstroms)
 Number     Number       Type             X           Y           Z
 ---------------------------------------------------------------------
      1          6           0        2.344126   -1.963199    5.097357
      2          1           0        1.607151   -2.763460    5.230607
      3          1           0        2.802306   -1.767706    6.074418
      4          1           0        1.815406   -1.059603    4.775972
      5          6           0        3.416893   -2.344305    4.078258
      6          1           0        4.163691   -1.546081    4.008268
      7          1           0        3.942531   -3.257266    4.402491
      8          8           0        2.926286   -2.508637    2.753959
      9          6           0        2.219908   -3.713455    2.496441
     10          1           0        2.329824   -4.424704    3.328392
     11          1           0        2.658591   -4.171895    1.600721
     12          6           0        0.739326   -3.470227    2.238706
     13          1           0        0.217114   -4.440301    2.150783
     14          1           0        0.291024   -2.923919    3.083603
     15          8           0        0.616500   -2.724347    1.045496
     16          6           0       -0.683697   -2.224088    0.795998
     17          1           0       -1.082741   -1.719198    1.690763
     18          1           0       -1.376119   -3.044585    0.534664
     19          6           0       -0.616786   -1.227335   -0.352502
     20          1           0       -1.636714   -0.974512   -0.663132
     21          1           0       -0.102265   -1.687398   -1.209405
     22          8           0        0.000000    0.000000    0.000000
     23          6           0        1.424276    0.000000    0.000000
     24          1           0        1.799901   -0.530052   -0.887656
     25          1           0        1.809910   -0.522671    0.885177
     26          6           0        1.927282    1.437762    0.000000
     27          1           0        3.009903    1.422940    0.165959
     28          1           0        1.478653    1.998504    0.827431
     29         16           0        1.666746    2.377301   -1.565796
     30          6           0        0.218485    3.437226   -1.172503
     31          1           0        0.389784    3.897192   -0.190331
     32          1           0        0.259252    4.237310   -1.918213
     33          6           0       -1.149924    2.751147   -1.181586
     34          1           0       -1.917098    3.452328   -0.828333
     35          1           0       -1.131224    1.895566   -0.504137
     36         16           0       -1.692370    2.100386   -2.819298
     37          6           0       -2.915185    3.373721   -3.342248
     38          1           0       -3.628722    3.537501   -2.527391
     39          1           0       -3.468025    2.912171   -4.166083
     40          6           0       -2.294273    4.690106   -3.811591
     41          1           0       -1.710852    5.164686   -3.016389
     42          1           0       -1.609676    4.505481   -4.644595
     43         16           0       -3.528662    5.896253   -4.455455
     44          6           0       -4.263865    6.557332   -2.902015
     45          1           0       -5.169017    7.075936   -3.235413
     46          1           0       -4.593643    5.721585   -2.275154
     47          6           0       -3.359477    7.510797   -2.121817
     48          1           0       -3.069653    8.367314   -2.738188
     49          1           0       -3.880384    7.885467   -1.231398
     50          1           0       -2.442856    7.015393   -1.783442
 ---------------------------------------------------------------------
 Stoichiometry    C14H30O3S3
 Framework group  C1[X(C14H30O3S3)]
 Standard basis: 6-31G(d) (6D, 7F)
   372 basis functions,   752 primitive gaussians,   372 cartesian basis functions
    93 alpha electrons       93 beta electrons
 Requested convergence on RMS density matrix=1.00D-08 within  64 cycles.
 Requested convergence on MAX density matrix=1.00D-06.
 Requested convergence on             energy=1.00D-06.
 SCF Done:  E(RB3LYP) =  -1971.75294393     A.U. after   13 cycles
            NFock= 13  Conv=0.36D-08     -V/T= 2.0058
 Mulliken charges:
     1  C   -0.458028
     2  H    0.145357
     3  H    0.144816
     4  H    0.159002
     5  C   -0.023600
     6  H    0.147544
     7  H    0.123903
     8  O   -0.460163
     9  C   -0.040150
    10  H    0.123637
    11  H    0.153298
    12  C   -0.011888
    13  H    0.114682
    14  H    0.126558
    15  O   -0.466973
    16  C   -0.018379
    17  H    0.128173
    18  H    0.117047
    19  C   -0.041691
    20  H    0.152941
    21  H    0.143527
    22  O   -0.475105
    23  C   -0.009719
    24  H    0.136461
    25  H    0.167370
    26  C   -0.441474
    27  H    0.176289
    28  H    0.169913
    29  S    0.097426
    30  C   -0.405664
    31  H    0.163417
    32  H    0.178474
    33  C   -0.426287
    34  H    0.152918
    35  H    0.221422
    36  S    0.097615
    37  C   -0.413234
    38  H    0.167753
    39  H    0.188519
    40  C   -0.413302
    41  H    0.173392
    42  H    0.192272
    43  S    0.078913
    44  C   -0.410092
    45  H    0.177334
    46  H    0.166796
    47  C   -0.434205
    48  H    0.165977
    49  H    0.147809
    50  H    0.149401
 Sum of Mulliken charges =  -0.00000
 Dipole moment (field-independent basis, Debye):
    X=             -0.9092    Y=             -1.7606    Z=              5.8132  Tot=              6.1416
 Quadrupole moment (field-independent basis, Debye-Ang):
   XX=           -144.9091   YY=           -134.1770   ZZ=           -154.1518
   XY=             -6.3480   XZ=              1.2996   YZ=              5.9796
 Traceless Quadrupole moment (field-independent basis, Debye-Ang):
   XX=             -0.4965   YY=             10.2357   ZZ=             -9.7392
   XY=             -6.3480   XZ=              1.2996   YZ=              5.9796
 Octapole moment (field-independent basis, Debye-Ang**2):
  XXX=            139.0396  YYY=           -632.8308  ZZZ=            396.0209  XYY=             20.3910
  XXY=           -201.4944  XXZ=            133.5071  XZZ=            119.5493  YZZ=           -321.7967
  YYZ=            183.9143  XYZ=            -36.3489
 Hexadecapole moment (field-independent basis, Debye-Ang**3):
 XXXX=          -4849.5213 YYYY=         -11841.2942 ZZZZ=          -6956.1867 XXXY=           2701.5877
 XXXZ=          -2275.0693 YYYX=           2534.8016 YYYZ=           3990.1603 ZZZX=          -2390.5788
 ZZZY=           4087.9809 XXYY=          -2684.1878 XXZZ=          -2044.4323 YYZZ=          -3560.2590
 XXYZ=           1325.0330 YYXZ=           -852.9361 ZZXY=           1143.6321
 Merz-Kollman atomic radii used.
 Atom Element Radius
    1     6    1.50
    2     1    1.20
    3     1    1.20
    4     1    1.20
    5     6    1.50
    6     1    1.20
    7     1    1.20
    8     8    1.40
    9     6    1.50
   10     1    1.20
   11     1    1.20
   12     6    1.50
   13     1    1.20
   14     1    1.20
   15     8    1.40
   16     6    1.50
   17     1    1.20
   18     1    1.20
   19     6    1.50
   20     1    1.20
   21     1    1.20
   22     8    1.40
   23     6    1.50
   24     1    1.20
   25     1    1.20
   26     6    1.50
   27     1    1.20
   28     1    1.20
   29    16    1.75
   30     6    1.50
   31     1    1.20
   32     1    1.20
   33     6    1.50
   34     1    1.20
   35     1    1.20
   36    16    1.75
   37     6    1.50
   38     1    1.20
   39     1    1.20
   40     6    1.50
   41     1    1.20
   42     1    1.20
   43    16    1.75
   44     6    1.50
   45     1    1.20
   46     1    1.20
   47     6    1.50
   48     1    1.20
   49     1    1.20
   50     1    1.20
 Generate VDW surfaces: Layer= 4 Dens= 1 Start= 1.400 Inc= 0.200
            Electrostatic Properties Using The SCF Density.


       Atomic Center    1 is at   2.344126 -1.963199  5.097357
       Atomic Center    2 is at   1.607151 -2.763460  5.230607
       Atomic Center    3 is at   2.802306 -1.767706  6.074418
       Atomic Center    4 is at   1.815406 -1.059603  4.775972
       Atomic Center    5 is at   3.416893 -2.344305  4.078258
       Atomic Center    6 is at   4.163691 -1.546081  4.008268
       Atomic Center    7 is at   3.942531 -3.257266  4.402491
       Atomic Center    8 is at   2.926286 -2.508637  2.753959
       Atomic Center    9 is at   2.219908 -3.713455  2.496441
       Atomic Center   10 is at   2.329824 -4.424704  3.328392
       Atomic Center   11 is at   2.658591 -4.171895  1.600721
       Atomic Center   12 is at   0.739326 -3.470227  2.238706
       Atomic Center   13 is at   0.217114 -4.440301  2.150783
       Atomic Center   14 is at   0.291024 -2.923919  3.083603
       Atomic Center   15 is at   0.616500 -2.724347  1.045496
       Atomic Center   16 is at  -0.683697 -2.224088  0.795998
       Atomic Center   17 is at  -1.082741 -1.719198  1.690763
       Atomic Center   18 is at  -1.376119 -3.044585  0.534664
       Atomic Center   19 is at  -0.616786 -1.227335 -0.352502
       Atomic Center   20 is at  -1.636714 -0.974512 -0.663132
       Atomic Center   21 is at  -0.102265 -1.687398 -1.209405
       Atomic Center   22 is at   0.000000  0.000000  0.000000
       Atomic Center   23 is at   1.424276  0.000000  0.000000
       Atomic Center   24 is at   1.799901 -0.530052 -0.887656
       Atomic Center   25 is at   1.809910 -0.522671  0.885177
       Atomic Center   26 is at   1.927282  1.437762  0.000000
       Atomic Center   27 is at   3.009903  1.422940  0.165959
       Atomic Center   28 is at   1.478653  1.998504  0.827431
       Atomic Center   29 is at   1.666746  2.377301 -1.565796
       Atomic Center   30 is at   0.218485  3.437226 -1.172503
       Atomic Center   31 is at   0.389784  3.897192 -0.190331
       Atomic Center   32 is at   0.259252  4.237310 -1.918213
       Atomic Center   33 is at  -1.149924  2.751147 -1.181586
       Atomic Center   34 is at  -1.917098  3.452328 -0.828333
       Atomic Center   35 is at  -1.131224  1.895566 -0.504137
       Atomic Center   36 is at  -1.692370  2.100386 -2.819298
       Atomic Center   37 is at  -2.915185  3.373721 -3.342248
       Atomic Center   38 is at  -3.628722  3.537501 -2.527391
       Atomic Center   39 is at  -3.468025  2.912171 -4.166083
       Atomic Center   40 is at  -2.294273  4.690106 -3.811591
       Atomic Center   41 is at  -1.710852  5.164686 -3.016389
       Atomic Center   42 is at  -1.609676  4.505481 -4.644595
       Atomic Center   43 is at  -3.528662  5.896253 -4.455455
       Atomic Center   44 is at  -4.263865  6.557332 -2.902015
       Atomic Center   45 is at  -5.169017  7.075936 -3.235413
       Atomic Center   46 is at  -4.593643  5.721585 -2.275154
       Atomic Center   47 is at  -3.359477  7.510797 -2.121817
       Atomic Center   48 is at  -3.069653  8.367314 -2.738188
       Atomic Center   49 is at  -3.880384  7.885467 -1.231398
       Atomic Center   50 is at  -2.442856  7.015393 -1.783442
      ESP Fit Center   51 is at   1.294126 -1.963199  6.916010
      ESP Fit Center   52 is at   1.819126 -2.872526  6.916010
      ESP Fit Center   53 is at   0.599141 -1.450825  6.147357
      ESP Fit Center   54 is at   3.099622 -3.617504  6.147357
      ESP Fit Center   55 is at   3.537062 -0.234933  5.097357
      ESP Fit Center   56 is at   1.607151 -2.763460  6.910607
      ESP Fit Center   57 is at   0.808264 -2.183034  6.589756
      ESP Fit Center   58 is at   0.808264 -3.343886  6.589756
      ESP Fit Center   59 is at   1.912299 -3.702609  6.589756
      ESP Fit Center   60 is at   0.105734 -2.216989  5.749756
      ESP Fit Center   61 is at   0.105734 -3.309931  5.749756
      ESP Fit Center   62 is at   0.808264 -4.147174  5.749756
      ESP Fit Center   63 is at   1.884602 -4.336961  5.749756
      ESP Fit Center   64 is at   0.105734 -2.216989  4.711458
      ESP Fit Center   65 is at   0.105734 -3.309931  4.711458
      ESP Fit Center   66 is at   0.808264 -4.147174  4.711458
      ESP Fit Center   67 is at   2.802306 -1.767706  7.754418
      ESP Fit Center   68 is at   3.789785 -1.767706  7.433567
      ESP Fit Center   69 is at   3.107454 -0.828557  7.433567
      ESP Fit Center   70 is at   2.003419 -1.187280  7.433567
      ESP Fit Center   71 is at   2.003419 -2.348132  7.433567
      ESP Fit Center   72 is at   3.107454 -2.706855  7.433567
      ESP Fit Center   73 is at   4.400081 -1.767706  6.593567
      ESP Fit Center   74 is at   4.026273 -0.740676  6.593567
      ESP Fit Center   75 is at   3.079757 -0.194205  6.593567
      ESP Fit Center   76 is at   2.003419 -0.383992  6.593567
      ESP Fit Center   77 is at   3.079757 -3.341207  6.593567
      ESP Fit Center   78 is at   4.026273 -2.794736  6.593567
      ESP Fit Center   79 is at   4.026273 -0.740676  5.555269
      ESP Fit Center   80 is at   2.120554 -0.120454  6.135121
      ESP Fit Center   81 is at   1.016519 -0.479177  6.135121
      ESP Fit Center   82 is at   2.092857  0.513898  5.295121
      ESP Fit Center   83 is at   1.016519  0.324111  5.295121
      ESP Fit Center   84 is at   0.313989 -0.513132  5.295121
      ESP Fit Center   85 is at   3.039373 -0.032573  4.256823
      ESP Fit Center   86 is at   2.092857  0.513898  4.256823
      ESP Fit Center   87 is at   1.016519  0.324111  4.256823
      ESP Fit Center   88 is at   0.313989 -0.513132  4.256823
      ESP Fit Center   89 is at   0.313989 -1.606074  4.256823
      ESP Fit Center   90 is at   2.120554 -0.120454  3.416823
      ESP Fit Center   91 is at   1.016519 -0.479177  3.416823
      ESP Fit Center   92 is at   4.466893 -2.344305  5.896911
      ESP Fit Center   93 is at   5.235546 -2.344305  5.128258
      ESP Fit Center   94 is at   3.158072 -0.544163  3.028258
      ESP Fit Center   95 is at   4.946842 -3.327543  3.028258
      ESP Fit Center   96 is at   5.151170 -1.546081  5.367417
      ESP Fit Center   97 is at   4.468839 -0.606932  5.367417
      ESP Fit Center   98 is at   5.761466 -1.546081  4.527417
      ESP Fit Center   99 is at   5.387658 -0.519051  4.527417
      ESP Fit Center  100 is at   4.441142  0.027420  4.527417
      ESP Fit Center  101 is at   3.364804 -0.162367  4.527417
      ESP Fit Center  102 is at   5.761466 -1.546081  3.489119
      ESP Fit Center  103 is at   5.387658 -0.519051  3.489119
      ESP Fit Center  104 is at   4.441142  0.027420  3.489119
      ESP Fit Center  105 is at   3.364804 -0.162367  3.489119
      ESP Fit Center  106 is at   5.151170 -1.546081  2.649119
      ESP Fit Center  107 is at   4.468839 -0.606932  2.649119
      ESP Fit Center  108 is at   3.942531 -3.257266  6.082491
      ESP Fit Center  109 is at   4.930010 -3.257266  5.761640
      ESP Fit Center  110 is at   3.143644 -3.837692  5.761640
      ESP Fit Center  111 is at   4.247679 -4.196415  5.761640
      ESP Fit Center  112 is at   5.540306 -3.257266  4.921640
      ESP Fit Center  113 is at   3.143644 -4.640980  4.921640
      ESP Fit Center  114 is at   4.219982 -4.830767  4.921640
      ESP Fit Center  115 is at   5.166498 -4.284296  4.921640
      ESP Fit Center  116 is at   5.540306 -3.257266  3.883342
      ESP Fit Center  117 is at   4.219982 -4.830767  3.883342
      ESP Fit Center  118 is at   5.166498 -4.284296  3.883342
      ESP Fit Center  119 is at   4.247679 -4.196415  3.043342
      ESP Fit Center  120 is at   2.926286 -0.548637  2.753959
      ESP Fit Center  121 is at   1.946286 -0.811227  2.753959
      ESP Fit Center  122 is at   4.623696 -3.488637  2.753959
      ESP Fit Center  123 is at   4.623696 -2.508637  1.773959
      ESP Fit Center  124 is at   4.299519 -1.510925  1.773959
      ESP Fit Center  125 is at   3.450814 -0.894304  1.773959
      ESP Fit Center  126 is at   4.299519 -3.506349  1.773959
      ESP Fit Center  127 is at   3.906286 -2.508637  1.056549
      ESP Fit Center  128 is at   3.416286 -1.659932  1.056549
      ESP Fit Center  129 is at   2.926286 -2.508637  0.793959
      ESP Fit Center  130 is at   1.475238 -5.676989  2.496441
      ESP Fit Center  131 is at   3.412844 -5.441721  2.496441
      ESP Fit Center  132 is at   4.079366 -4.689374  2.496441
      ESP Fit Center  133 is at   2.329824 -4.424704  5.008392
      ESP Fit Center  134 is at   1.530937 -5.005130  4.687541
      ESP Fit Center  135 is at   2.634972 -5.363853  4.687541
      ESP Fit Center  136 is at   0.828407 -4.971175  3.847541
      ESP Fit Center  137 is at   1.530937 -5.808418  3.847541
      ESP Fit Center  138 is at   2.607275 -5.998205  3.847541
      ESP Fit Center  139 is at   3.553791 -5.451734  3.847541
      ESP Fit Center  140 is at   1.530937 -5.808418  2.809243
      ESP Fit Center  141 is at   2.607275 -5.998205  2.809243
      ESP Fit Center  142 is at   3.553791 -5.451734  2.809243
      ESP Fit Center  143 is at   4.256366 -4.171895  2.119870
      ESP Fit Center  144 is at   2.936042 -5.745396  2.119870
      ESP Fit Center  145 is at   3.882558 -5.198925  2.119870
      ESP Fit Center  146 is at   4.256366 -4.171895  1.081572
      ESP Fit Center  147 is at   3.882558 -3.144865  1.081572
      ESP Fit Center  148 is at   1.859704 -5.555609  1.081572
      ESP Fit Center  149 is at   2.936042 -5.745396  1.081572
      ESP Fit Center  150 is at   3.882558 -5.198925  1.081572
      ESP Fit Center  151 is at   3.646070 -4.171895  0.241572
      ESP Fit Center  152 is at   2.963739 -3.232746  0.241572
      ESP Fit Center  153 is at   1.859704 -4.752321  0.241572
      ESP Fit Center  154 is at   2.963739 -5.111044  0.241572
      ESP Fit Center  155 is at   2.658591 -4.171895 -0.079279
      ESP Fit Center  156 is at   0.214326 -4.379554  4.057359
      ESP Fit Center  157 is at  -1.005659 -3.982601  3.288706
      ESP Fit Center  158 is at  -0.581773 -5.020727  3.509932
      ESP Fit Center  159 is at   0.522262 -5.379450  3.509932
      ESP Fit Center  160 is at  -1.284303 -3.893830  2.669932
      ESP Fit Center  161 is at  -1.284303 -4.986772  2.669932
      ESP Fit Center  162 is at  -0.581773 -5.824015  2.669932
      ESP Fit Center  163 is at   0.494565 -6.013802  2.669932
      ESP Fit Center  164 is at  -1.284303 -4.986772  1.631634
      ESP Fit Center  165 is at  -0.581773 -5.824015  1.631634
      ESP Fit Center  166 is at   0.494565 -6.013802  1.631634
      ESP Fit Center  167 is at   1.441081 -5.467331  1.631634
      ESP Fit Center  168 is at  -0.581773 -5.020727  0.791634
      ESP Fit Center  169 is at   0.522262 -5.379450  0.791634
      ESP Fit Center  170 is at  -0.507863 -2.343493  4.442752
      ESP Fit Center  171 is at  -0.507863 -3.504345  4.442752
      ESP Fit Center  172 is at   0.596172 -3.863068  4.442752
      ESP Fit Center  173 is at   0.568475 -1.350418  3.602752
      ESP Fit Center  174 is at  -0.507863 -1.540205  3.602752
      ESP Fit Center  175 is at  -1.210393 -2.377448  3.602752
      ESP Fit Center  176 is at  -1.210393 -3.470390  3.602752
      ESP Fit Center  177 is at   0.568475 -1.350418  2.564454
      ESP Fit Center  178 is at   2.313910 -2.724347  0.065496
      ESP Fit Center  179 is at   0.091972 -4.338680  0.065496
      ESP Fit Center  180 is at   1.141028 -4.338680  0.065496
      ESP Fit Center  181 is at   1.989733 -3.722059  0.065496
      ESP Fit Center  182 is at   1.596500 -2.724347 -0.651914
      ESP Fit Center  183 is at   0.126500 -3.573052 -0.651914
      ESP Fit Center  184 is at   1.106500 -3.573052 -0.651914
      ESP Fit Center  185 is at  -2.428682 -2.736462  1.845998
      ESP Fit Center  186 is at  -2.722675 -1.721525  0.795998
      ESP Fit Center  187 is at  -1.082741 -1.719198  3.370763
      ESP Fit Center  188 is at  -0.777593 -0.780049  3.049912
      ESP Fit Center  189 is at  -1.881628 -1.138772  3.049912
      ESP Fit Center  190 is at  -1.881628 -2.299624  3.049912
      ESP Fit Center  191 is at   0.141226 -0.692168  2.209912
      ESP Fit Center  192 is at  -0.805290 -0.145697  2.209912
      ESP Fit Center  193 is at  -1.881628 -0.335484  2.209912
      ESP Fit Center  194 is at  -2.584158 -1.172727  2.209912
      ESP Fit Center  195 is at  -2.584158 -2.265669  2.209912
      ESP Fit Center  196 is at  -1.881628 -0.335484  1.171614
      ESP Fit Center  197 is at  -2.584158 -1.172727  1.171614
      ESP Fit Center  198 is at  -2.175006 -3.625011  1.893813
      ESP Fit Center  199 is at  -2.877536 -2.498114  1.053813
      ESP Fit Center  200 is at  -2.877536 -3.591056  1.053813
      ESP Fit Center  201 is at  -2.175006 -4.428299  1.053813
      ESP Fit Center  202 is at  -1.098668 -4.618086  1.053813
      ESP Fit Center  203 is at  -2.877536 -2.498114  0.015515
      ESP Fit Center  204 is at  -2.877536 -3.591056  0.015515
      ESP Fit Center  205 is at  -2.175006 -4.428299  0.015515
      ESP Fit Center  206 is at  -1.098668 -4.618086  0.015515
      ESP Fit Center  207 is at  -2.175006 -3.625011 -0.824485
      ESP Fit Center  208 is at  -1.070971 -3.983734 -0.824485
      ESP Fit Center  209 is at  -1.376119 -3.044585 -1.145336
      ESP Fit Center  210 is at  -1.807751 -2.601781 -1.402502
      ESP Fit Center  211 is at  -1.141786 -0.318008 -2.171155
      ESP Fit Center  212 is at  -2.435601 -0.394086  0.696017
      ESP Fit Center  213 is at  -2.435601  0.409202 -0.143983
      ESP Fit Center  214 is at  -3.138131 -0.428041 -0.143983
      ESP Fit Center  215 is at  -3.138131 -1.520983 -0.143983
      ESP Fit Center  216 is at  -2.435601  0.409202 -1.182281
      ESP Fit Center  217 is at  -3.138131 -0.428041 -1.182281
      ESP Fit Center  218 is at  -3.138131 -1.520983 -1.182281
      ESP Fit Center  219 is at  -2.435601 -2.358226 -1.182281
      ESP Fit Center  220 is at  -2.435601 -0.394086 -2.022281
      ESP Fit Center  221 is at  -2.435601 -1.554938 -2.022281
      ESP Fit Center  222 is at  -1.636714 -0.974512 -2.343132
      ESP Fit Center  223 is at  -0.901152 -3.071112 -1.728554
      ESP Fit Center  224 is at   0.175186 -3.260899 -1.728554
      ESP Fit Center  225 is at   1.121702 -2.714428 -1.728554
      ESP Fit Center  226 is at   0.885214 -1.687398 -2.568554
      ESP Fit Center  227 is at   0.202883 -0.748249 -2.568554
      ESP Fit Center  228 is at  -0.901152 -1.106972 -2.568554
      ESP Fit Center  229 is at  -0.901152 -2.267824 -2.568554
      ESP Fit Center  230 is at   0.202883 -2.626547 -2.568554
      ESP Fit Center  231 is at  -0.102265 -1.687398 -2.889405
      ESP Fit Center  232 is at   0.000000  0.000000  1.960000
      ESP Fit Center  233 is at   0.490000  0.848705  1.697410
      ESP Fit Center  234 is at  -0.490000  0.848705  1.697410
      ESP Fit Center  235 is at  -0.980000  0.000000  1.697410
      ESP Fit Center  236 is at  -1.373233  0.997712  0.980000
      ESP Fit Center  237 is at  -1.697410  0.000000  0.980000
      ESP Fit Center  238 is at   0.000000  0.000000 -1.960000
      ESP Fit Center  239 is at   2.617212 -1.728266  0.000000
      ESP Fit Center  240 is at   3.283734 -0.975919  0.000000
      ESP Fit Center  241 is at   2.077352 -2.103553 -0.368507
      ESP Fit Center  242 is at   3.023868 -1.557082 -0.368507
      ESP Fit Center  243 is at   3.397676 -0.530052 -1.406805
      ESP Fit Center  244 is at   2.077352 -2.103553 -1.406805
      ESP Fit Center  245 is at   3.023868 -1.557082 -1.406805
      ESP Fit Center  246 is at   2.787380 -0.530052 -2.246805
      ESP Fit Center  247 is at   1.001014  0.050374 -2.246805
      ESP Fit Center  248 is at   2.105049 -1.469201 -2.246805
      ESP Fit Center  249 is at   1.799901 -0.530052 -2.567656
      ESP Fit Center  250 is at   1.809910 -0.522671  2.565177
      ESP Fit Center  251 is at   2.797389 -0.522671  2.244326
      ESP Fit Center  252 is at   2.115058  0.416478  2.244326
      ESP Fit Center  253 is at   1.011023  0.057755  2.244326
      ESP Fit Center  254 is at   1.011023 -1.103097  2.244326
      ESP Fit Center  255 is at   3.407685 -0.522671  1.404326
      ESP Fit Center  256 is at   3.033877 -1.549701  0.366028
      ESP Fit Center  257 is at   3.009903  1.422940  1.845959
      ESP Fit Center  258 is at   3.997382  1.422940  1.525108
      ESP Fit Center  259 is at   3.315051  2.362089  1.525108
      ESP Fit Center  260 is at   3.315051  0.483791  1.525108
      ESP Fit Center  261 is at   4.607678  1.422940  0.685108
      ESP Fit Center  262 is at   4.233870  2.449970  0.685108
      ESP Fit Center  263 is at   3.287354  2.996441  0.685108
      ESP Fit Center  264 is at   4.233870  0.395910  0.685108
      ESP Fit Center  265 is at   4.607678  1.422940 -0.353190
      ESP Fit Center  266 is at   4.233870  2.449970 -0.353190
      ESP Fit Center  267 is at   4.233870  0.395910 -0.353190
      ESP Fit Center  268 is at   3.997382  1.422940 -1.193190
      ESP Fit Center  269 is at   1.478653  1.998504  2.507431
      ESP Fit Center  270 is at   2.466132  1.998504  2.186580
      ESP Fit Center  271 is at   1.783801  2.937653  2.186580
      ESP Fit Center  272 is at   0.679766  2.578930  2.186580
      ESP Fit Center  273 is at   0.679766  1.418078  2.186580
      ESP Fit Center  274 is at   1.783801  1.059355  2.186580
      ESP Fit Center  275 is at   2.702620  3.025534  1.346580
      ESP Fit Center  276 is at   1.756104  3.572005  1.346580
      ESP Fit Center  277 is at  -0.022764  2.544975  1.346580
      ESP Fit Center  278 is at  -0.022764  1.452033  1.346580
      ESP Fit Center  279 is at   3.278156  3.412892 -0.038246
      ESP Fit Center  280 is at   2.462468  4.119689 -0.038246
      ESP Fit Center  281 is at   4.055319  2.377301 -1.020620
      ESP Fit Center  282 is at   3.818776  3.413664 -1.020620
      ESP Fit Center  283 is at   3.155997  4.244763 -1.020620
      ESP Fit Center  284 is at   2.198254  4.705988 -1.020620
      ESP Fit Center  285 is at   4.055319  2.377301 -2.110972
      ESP Fit Center  286 is at   3.818776  3.413664 -2.110972
      ESP Fit Center  287 is at   3.155997  4.244763 -2.110972
      ESP Fit Center  288 is at   2.198254  4.705988 -2.110972
      ESP Fit Center  289 is at   0.177495  0.509839 -2.110972
      ESP Fit Center  290 is at   3.155997  0.509839 -2.110972
      ESP Fit Center  291 is at   3.818776  1.340938 -2.110972
      ESP Fit Center  292 is at   3.582233  2.377301 -3.093346
      ESP Fit Center  293 is at   3.278156  3.412892 -3.093346
      ESP Fit Center  294 is at   2.462468  4.119689 -3.093346
      ESP Fit Center  295 is at   1.394144  0.481311 -3.093346
      ESP Fit Center  296 is at   2.462468  0.634913 -3.093346
      ESP Fit Center  297 is at   3.278156  1.341710 -3.093346
      ESP Fit Center  298 is at   2.729761  2.377301 -3.773170
      ESP Fit Center  299 is at   2.198254  3.297899 -3.773170
      ESP Fit Center  300 is at   1.135238  3.297899 -3.773170
      ESP Fit Center  301 is at   0.603731  2.377301 -3.773170
      ESP Fit Center  302 is at   1.135238  1.456703 -3.773170
      ESP Fit Center  303 is at   2.198254  1.456703 -3.773170
      ESP Fit Center  304 is at   1.666746  2.377301 -4.015796
      ESP Fit Center  305 is at   0.389784  3.897192  1.489669
      ESP Fit Center  306 is at   1.377263  3.897192  1.168818
      ESP Fit Center  307 is at   0.694932  4.836341  1.168818
      ESP Fit Center  308 is at  -0.409103  4.477618  1.168818
      ESP Fit Center  309 is at  -0.409103  3.316766  1.168818
      ESP Fit Center  310 is at   1.987559  3.897192  0.328818
      ESP Fit Center  311 is at   1.613751  4.924222  0.328818
      ESP Fit Center  312 is at   0.667235  5.470693  0.328818
      ESP Fit Center  313 is at  -0.409103  5.280906  0.328818
      ESP Fit Center  314 is at  -1.111633  4.443663  0.328818
      ESP Fit Center  315 is at   0.667235  5.470693 -0.709480
      ESP Fit Center  316 is at   1.483219  5.264340 -1.399064
      ESP Fit Center  317 is at   0.536703  5.810811 -1.399064
      ESP Fit Center  318 is at  -0.539635  5.621024 -1.399064
      ESP Fit Center  319 is at   1.483219  5.264340 -2.437362
      ESP Fit Center  320 is at   0.536703  5.810811 -2.437362
      ESP Fit Center  321 is at   1.246731  4.237310 -3.277362
      ESP Fit Center  322 is at   0.564400  5.176459 -3.277362
      ESP Fit Center  323 is at   0.259252  4.237310 -3.598213
      ESP Fit Center  324 is at  -2.894909  2.238773 -0.131586
      ESP Fit Center  325 is at  -1.917098  3.452328  0.851667
      ESP Fit Center  326 is at  -1.611950  4.391477  0.530816
      ESP Fit Center  327 is at  -2.715985  4.032754  0.530816
      ESP Fit Center  328 is at  -2.715985  2.871902  0.530816
      ESP Fit Center  329 is at  -1.639647  5.025829 -0.309184
      ESP Fit Center  330 is at  -2.715985  4.836042 -0.309184
      ESP Fit Center  331 is at  -3.418515  3.998799 -0.309184
      ESP Fit Center  332 is at  -3.418515  2.905857 -0.309184
      ESP Fit Center  333 is at  -2.715985  4.836042 -1.347482
      ESP Fit Center  334 is at  -1.131224  1.895566  1.175863
      ESP Fit Center  335 is at  -1.930111  2.475992  0.855012
      ESP Fit Center  336 is at  -1.930111  1.315140  0.855012
      ESP Fit Center  337 is at  -2.632641  1.349095  0.015012
      ESP Fit Center  338 is at  -3.530266  1.560731 -1.291748
      ESP Fit Center  339 is at  -2.946747  0.652757 -1.291748
      ESP Fit Center  340 is at  -3.844400  1.064023 -2.274122
      ESP Fit Center  341 is at  -3.181621  0.232924 -2.274122
      ESP Fit Center  342 is at  -2.223878 -0.228301 -2.274122
      ESP Fit Center  343 is at  -1.160862 -0.228301 -2.274122
      ESP Fit Center  344 is at  -0.203119  0.232924 -2.274122
      ESP Fit Center  345 is at  -3.844400  1.064023 -3.364474
      ESP Fit Center  346 is at  -3.181621  0.232924 -3.364474
      ESP Fit Center  347 is at  -2.223878 -0.228301 -3.364474
      ESP Fit Center  348 is at  -1.160862 -0.228301 -3.364474
      ESP Fit Center  349 is at  -0.203119  0.232924 -3.364474
      ESP Fit Center  350 is at   0.459660  1.064023 -3.364474
      ESP Fit Center  351 is at   0.223117  2.100386 -4.346848
      ESP Fit Center  352 is at  -0.080960  3.135977 -4.346848
      ESP Fit Center  353 is at  -2.946747  0.652757 -4.346848
      ESP Fit Center  354 is at  -1.964972  0.204396 -4.346848
      ESP Fit Center  355 is at  -0.896648  0.357998 -4.346848
      ESP Fit Center  356 is at  -0.080960  1.064795 -4.346848
      ESP Fit Center  357 is at  -0.629355  2.100386 -5.026672
      ESP Fit Center  358 is at  -2.223878  1.179788 -5.026672
      ESP Fit Center  359 is at  -1.160862  1.179788 -5.026672
      ESP Fit Center  360 is at  -1.692370  2.100386 -5.269298
      ESP Fit Center  361 is at  -4.954163  2.871158 -3.342248
      ESP Fit Center  362 is at  -3.628722  3.537501 -0.847391
      ESP Fit Center  363 is at  -3.323574  4.476650 -1.168242
      ESP Fit Center  364 is at  -4.427609  4.117927 -1.168242
      ESP Fit Center  365 is at  -4.427609  2.957075 -1.168242
      ESP Fit Center  366 is at  -5.130139  4.083972 -2.008242
      ESP Fit Center  367 is at  -5.130139  2.991030 -2.008242
      ESP Fit Center  368 is at  -4.427609  2.153787 -2.008242
      ESP Fit Center  369 is at  -5.130139  4.083972 -3.046540
      ESP Fit Center  370 is at  -5.130139  2.991030 -3.046540
      ESP Fit Center  371 is at  -4.969442  2.365700 -3.646934
      ESP Fit Center  372 is at  -4.266912  1.528457 -3.646934
      ESP Fit Center  373 is at  -4.969442  3.458642 -4.685232
      ESP Fit Center  374 is at  -4.969442  2.365700 -4.685232
      ESP Fit Center  375 is at  -4.266912  1.528457 -4.685232
      ESP Fit Center  376 is at  -3.190574  1.338670 -4.685232
      ESP Fit Center  377 is at  -2.480546  2.912171 -5.525232
      ESP Fit Center  378 is at  -4.266912  3.492597 -5.525232
      ESP Fit Center  379 is at  -4.266912  2.331745 -5.525232
      ESP Fit Center  380 is at  -3.162877  1.973022 -5.525232
      ESP Fit Center  381 is at  -3.468025  2.912171 -5.846083
      ESP Fit Center  382 is at  -2.819273  3.780779 -5.630244
      ESP Fit Center  383 is at  -1.710852  5.164686 -1.336389
      ESP Fit Center  384 is at  -0.486885  6.191716 -2.497240
      ESP Fit Center  385 is at  -0.113077  5.164686 -3.535538
      ESP Fit Center  386 is at  -0.486885  6.191716 -3.535538
      ESP Fit Center  387 is at  -0.011901  4.505481 -4.125446
      ESP Fit Center  388 is at  -0.385709  5.532511 -4.125446
      ESP Fit Center  389 is at  -0.011901  4.505481 -5.163744
      ESP Fit Center  390 is at  -0.385709  5.532511 -5.163744
      ESP Fit Center  391 is at  -1.332225  2.931980 -5.163744
      ESP Fit Center  392 is at  -0.385709  3.478451 -5.163744
      ESP Fit Center  393 is at  -0.622197  4.505481 -6.003744
      ESP Fit Center  394 is at  -1.304528  5.444630 -6.003744
      ESP Fit Center  395 is at  -2.408563  3.925055 -6.003744
      ESP Fit Center  396 is at  -1.304528  3.566332 -6.003744
      ESP Fit Center  397 is at  -1.609676  4.505481 -6.324595
      ESP Fit Center  398 is at  -1.376632  6.932616 -3.910279
      ESP Fit Center  399 is at  -5.680692  4.859890 -3.910279
      ESP Fit Center  400 is at  -5.017913  4.028791 -3.910279
      ESP Fit Center  401 is at  -1.376632  6.932616 -5.000631
      ESP Fit Center  402 is at  -2.039411  7.763715 -5.000631
      ESP Fit Center  403 is at  -2.997154  8.224940 -5.000631
      ESP Fit Center  404 is at  -4.060170  8.224940 -5.000631
      ESP Fit Center  405 is at  -5.017913  7.763715 -5.000631
      ESP Fit Center  406 is at  -5.680692  6.932616 -5.000631
      ESP Fit Center  407 is at  -5.917235  5.896253 -5.000631
      ESP Fit Center  408 is at  -5.680692  4.859890 -5.000631
      ESP Fit Center  409 is at  -5.017913  4.028791 -5.000631
      ESP Fit Center  410 is at  -1.613175  5.896253 -5.983005
      ESP Fit Center  411 is at  -1.917252  6.931844 -5.983005
      ESP Fit Center  412 is at  -2.732940  7.638641 -5.983005
      ESP Fit Center  413 is at  -3.801264  7.792243 -5.983005
      ESP Fit Center  414 is at  -4.783039  7.343882 -5.983005
      ESP Fit Center  415 is at  -5.366558  6.435908 -5.983005
      ESP Fit Center  416 is at  -5.366558  5.356598 -5.983005
      ESP Fit Center  417 is at  -4.783039  4.448624 -5.983005
      ESP Fit Center  418 is at  -3.801264  4.000263 -5.983005
      ESP Fit Center  419 is at  -2.732940  4.153865 -5.983005
      ESP Fit Center  420 is at  -2.465647  5.896253 -6.662829
      ESP Fit Center  421 is at  -2.997154  6.816851 -6.662829
      ESP Fit Center  422 is at  -4.060170  6.816851 -6.662829
      ESP Fit Center  423 is at  -4.591677  5.896253 -6.662829
      ESP Fit Center  424 is at  -4.060170  4.975655 -6.662829
      ESP Fit Center  425 is at  -2.997154  4.975655 -6.662829
      ESP Fit Center  426 is at  -3.528662  5.896253 -6.905455
      ESP Fit Center  427 is at  -5.967904  7.656362 -1.876264
      ESP Fit Center  428 is at  -5.967904  8.459650 -2.716264
      ESP Fit Center  429 is at  -6.670434  7.622407 -2.716264
      ESP Fit Center  430 is at  -6.670434  6.529465 -2.716264
      ESP Fit Center  431 is at  -4.891566  8.649437 -3.754562
      ESP Fit Center  432 is at  -5.967904  8.459650 -3.754562
      ESP Fit Center  433 is at  -6.670434  7.622407 -3.754562
      ESP Fit Center  434 is at  -6.670434  6.529465 -3.754562
      ESP Fit Center  435 is at  -4.863869  8.015085 -4.594562
      ESP Fit Center  436 is at  -5.967904  7.656362 -4.594562
      ESP Fit Center  437 is at  -5.967904  6.495510 -4.594562
      ESP Fit Center  438 is at  -4.593643  5.721585 -0.595154
      ESP Fit Center  439 is at  -3.606164  5.721585 -0.916005
      ESP Fit Center  440 is at  -5.392530  6.302011 -0.916005
      ESP Fit Center  441 is at  -5.392530  5.141159 -0.916005
      ESP Fit Center  442 is at  -4.288495  4.782436 -0.916005
      ESP Fit Center  443 is at  -6.095060  6.268056 -1.756005
      ESP Fit Center  444 is at  -6.095060  5.175114 -1.756005
      ESP Fit Center  445 is at  -5.392530  4.337871 -1.756005
      ESP Fit Center  446 is at  -6.095060  5.175114 -2.794303
      ESP Fit Center  447 is at  -5.392530  4.337871 -2.794303
      ESP Fit Center  448 is at  -1.829528  8.494035 -1.071817
      ESP Fit Center  449 is at  -2.603981  9.165102 -1.071817
      ESP Fit Center  450 is at  -1.500019  8.486716 -2.121817
      ESP Fit Center  451 is at  -4.931350  8.903355 -2.121817
      ESP Fit Center  452 is at  -1.540824  7.510797 -3.171817
      ESP Fit Center  453 is at  -1.845686  9.394344 -2.219039
      ESP Fit Center  454 is at  -2.792202  9.940815 -2.219039
      ESP Fit Center  455 is at  -3.868540  9.751028 -2.219039
      ESP Fit Center  456 is at  -1.471878  8.367314 -3.257337
      ESP Fit Center  457 is at  -1.845686  9.394344 -3.257337
      ESP Fit Center  458 is at  -2.792202  9.940815 -3.257337
      ESP Fit Center  459 is at  -3.868540  9.751028 -3.257337
      ESP Fit Center  460 is at  -4.571070  8.913785 -3.257337
      ESP Fit Center  461 is at  -2.082174  8.367314 -4.097337
      ESP Fit Center  462 is at  -2.764505  9.306463 -4.097337
      ESP Fit Center  463 is at  -3.868540  8.947740 -4.097337
      ESP Fit Center  464 is at  -3.069653  8.367314 -4.418188
      ESP Fit Center  465 is at  -3.880384  7.885467  0.448602
      ESP Fit Center  466 is at  -2.892905  7.885467  0.127751
      ESP Fit Center  467 is at  -3.575236  8.824616  0.127751
      ESP Fit Center  468 is at  -4.679271  8.465893  0.127751
      ESP Fit Center  469 is at  -4.679271  7.305041  0.127751
      ESP Fit Center  470 is at  -3.575236  6.946318  0.127751
      ESP Fit Center  471 is at  -2.656417  8.912497 -0.712249
      ESP Fit Center  472 is at  -3.602933  9.458968 -0.712249
      ESP Fit Center  473 is at  -4.679271  9.269181 -0.712249
      ESP Fit Center  474 is at  -5.381801  8.431938 -0.712249
      ESP Fit Center  475 is at  -5.381801  7.338996 -0.712249
      ESP Fit Center  476 is at  -4.679271  6.501753 -0.712249
      ESP Fit Center  477 is at  -4.679271  9.269181 -1.750547
      ESP Fit Center  478 is at  -5.381801  8.431938 -1.750547
      ESP Fit Center  479 is at  -2.442856  7.015393 -0.103442
      ESP Fit Center  480 is at  -1.455377  7.015393 -0.424293
      ESP Fit Center  481 is at  -2.137708  7.954542 -0.424293
      ESP Fit Center  482 is at  -2.137708  6.076244 -0.424293
      ESP Fit Center  483 is at  -0.845081  7.015393 -1.264293
      ESP Fit Center  484 is at  -1.218889  8.042423 -1.264293
      ESP Fit Center  485 is at  -2.165405  5.441892 -1.264293
      ESP Fit Center  486 is at  -1.218889  5.988363 -1.264293
      ESP Fit Center  487 is at  -0.845081  7.015393 -2.302591
      ESP Fit Center  488 is at  -1.218889  8.042423 -2.302591
      ESP Fit Center  489 is at  -1.455377  7.015393 -3.142591
      ESP Fit Center  490 is at   1.302805 -1.963199  7.259682
      ESP Fit Center  491 is at   1.115348 -0.545114  6.593733
      ESP Fit Center  492 is at   0.543738 -1.434557  6.593733
      ESP Fit Center  493 is at   3.123609 -3.670028  6.593733
      ESP Fit Center  494 is at   3.802984 -0.133849  5.631407
      ESP Fit Center  495 is at   2.864786  0.317964  5.631407
      ESP Fit Center  496 is at   0.647151 -2.763460  6.893376
      ESP Fit Center  497 is at   1.127151 -3.594844  6.893376
      ESP Fit Center  498 is at   2.087151 -3.594844  6.893376
      ESP Fit Center  499 is at  -0.055618 -2.763460  6.190607
      ESP Fit Center  500 is at   0.261943 -3.740811  6.190607
      ESP Fit Center  501 is at   1.093327 -4.344847  6.190607
      ESP Fit Center  502 is at   2.120975 -4.344847  6.190607
      ESP Fit Center  503 is at  -0.055618 -1.803460  5.230607
      ESP Fit Center  504 is at  -0.312849 -2.763460  5.230607
      ESP Fit Center  505 is at  -0.055618 -3.723460  5.230607
      ESP Fit Center  506 is at   0.647151 -4.426229  5.230607
      ESP Fit Center  507 is at   1.607151 -4.683460  5.230607
      ESP Fit Center  508 is at   2.802306 -1.767706  7.994418
      ESP Fit Center  509 is at   3.762306 -1.767706  7.737187
      ESP Fit Center  510 is at   3.282306 -0.936322  7.737187
      ESP Fit Center  511 is at   2.322306 -0.936322  7.737187
      ESP Fit Center  512 is at   1.842306 -1.767706  7.737187
      ESP Fit Center  513 is at   2.322306 -2.599090  7.737187
      ESP Fit Center  514 is at   3.282306 -2.599090  7.737187
      ESP Fit Center  515 is at   4.465075 -1.767706  7.034418
      ESP Fit Center  516 is at   4.147514 -0.790355  7.034418
      ESP Fit Center  517 is at   3.316130 -0.186319  7.034418
      ESP Fit Center  518 is at   2.288482 -0.186319  7.034418
      ESP Fit Center  519 is at   1.457098 -0.790355  7.034418
      ESP Fit Center  520 is at   3.316130 -3.349093  7.034418
      ESP Fit Center  521 is at   4.147514 -2.745057  7.034418
      ESP Fit Center  522 is at   4.722306 -1.767706  6.074418
      ESP Fit Center  523 is at   4.465075 -0.807706  6.074418
      ESP Fit Center  524 is at   3.762306 -0.104937  6.074418
      ESP Fit Center  525 is at   1.335406 -0.228219  6.438741
      ESP Fit Center  526 is at   2.329230  0.521784  5.735972
      ESP Fit Center  527 is at   1.301582  0.521784  5.735972
      ESP Fit Center  528 is at   0.470198 -0.082252  5.735972
      ESP Fit Center  529 is at   0.152637 -1.059603  5.735972
      ESP Fit Center  530 is at   2.775406  0.603166  4.775972
      ESP Fit Center  531 is at   1.815406  0.860397  4.775972
      ESP Fit Center  532 is at   0.855406  0.603166  4.775972
      ESP Fit Center  533 is at   0.152637 -0.099603  4.775972
      ESP Fit Center  534 is at  -0.104594 -1.059603  4.775972
      ESP Fit Center  535 is at   2.329230  0.521784  3.815972
      ESP Fit Center  536 is at   1.301582  0.521784  3.815972
      ESP Fit Center  537 is at   0.470198 -0.082252  3.815972
      ESP Fit Center  538 is at   0.152637 -1.059603  3.815972
      ESP Fit Center  539 is at   2.295406 -0.228219  3.113203
      ESP Fit Center  540 is at   1.335406 -0.228219  3.113203
      ESP Fit Center  541 is at   0.855406 -1.059603  3.113203
      ESP Fit Center  542 is at   5.293289 -2.344305  5.574634
      ESP Fit Center  543 is at   5.293289 -2.344305  2.581882
      ESP Fit Center  544 is at   4.995417 -3.358761  2.581882
      ESP Fit Center  545 is at   5.123691 -1.546081  5.671037
      ESP Fit Center  546 is at   4.643691 -0.714697  5.671037
      ESP Fit Center  547 is at   5.826460 -1.546081  4.968268
      ESP Fit Center  548 is at   5.508899 -0.568730  4.968268
      ESP Fit Center  549 is at   4.677515  0.035306  4.968268
      ESP Fit Center  550 is at   6.083691 -1.546081  4.008268
      ESP Fit Center  551 is at   5.826460 -0.586081  4.008268
      ESP Fit Center  552 is at   5.123691  0.116688  4.008268
      ESP Fit Center  553 is at   4.163691  0.373919  4.008268
      ESP Fit Center  554 is at   3.203691  0.116688  4.008268
      ESP Fit Center  555 is at   5.826460 -2.506081  4.008268
      ESP Fit Center  556 is at   5.826460 -1.546081  3.048268
      ESP Fit Center  557 is at   5.508899 -0.568730  3.048268
      ESP Fit Center  558 is at   4.677515  0.035306  3.048268
      ESP Fit Center  559 is at   3.649867  0.035306  3.048268
      ESP Fit Center  560 is at   5.123691 -1.546081  2.345499
      ESP Fit Center  561 is at   4.643691 -0.714697  2.345499
      ESP Fit Center  562 is at   4.902531 -3.257266  6.065260
      ESP Fit Center  563 is at   3.462531 -4.088650  6.065260
      ESP Fit Center  564 is at   4.422531 -4.088650  6.065260
      ESP Fit Center  565 is at   5.605300 -3.257266  5.362491
      ESP Fit Center  566 is at   3.428707 -4.838653  5.362491
      ESP Fit Center  567 is at   4.456355 -4.838653  5.362491
      ESP Fit Center  568 is at   5.287739 -4.234617  5.362491
      ESP Fit Center  569 is at   5.862531 -3.257266  4.402491
      ESP Fit Center  570 is at   3.942531 -5.177266  4.402491
      ESP Fit Center  571 is at   4.902531 -4.920035  4.402491
      ESP Fit Center  572 is at   5.605300 -4.217266  4.402491
      ESP Fit Center  573 is at   5.605300 -3.257266  3.442491
      ESP Fit Center  574 is at   4.456355 -4.838653  3.442491
      ESP Fit Center  575 is at   5.287739 -4.234617  3.442491
      ESP Fit Center  576 is at   5.110125 -2.508637  2.255512
      ESP Fit Center  577 is at   4.166848 -0.711373  2.255512
      ESP Fit Center  578 is at   3.189519 -0.340721  2.255512
      ESP Fit Center  579 is at   4.859979 -3.523517  2.255512
      ESP Fit Center  580 is at   4.677589 -2.508637  1.357342
      ESP Fit Center  581 is at   4.343120 -1.479247  1.357342
      ESP Fit Center  582 is at   3.898186 -2.508637  0.735789
      ESP Fit Center  583 is at   3.412236 -1.666947  0.735789
      ESP Fit Center  584 is at   2.926286 -2.508637  0.513959
      ESP Fit Center  585 is at   4.328019 -4.728668  3.030491
      ESP Fit Center  586 is at   1.699248 -5.994618  1.962391
      ESP Fit Center  587 is at   1.849824 -5.256088  4.991161
      ESP Fit Center  588 is at   2.809824 -5.256088  4.991161
      ESP Fit Center  589 is at   0.984616 -5.402055  4.288392
      ESP Fit Center  590 is at   1.816000 -6.006091  4.288392
      ESP Fit Center  591 is at   2.843648 -6.006091  4.288392
      ESP Fit Center  592 is at   3.675032 -5.402055  4.288392
      ESP Fit Center  593 is at   1.369824 -6.087473  3.328392
      ESP Fit Center  594 is at   2.329824 -6.344704  3.328392
      ESP Fit Center  595 is at   3.289824 -6.087473  3.328392
      ESP Fit Center  596 is at   3.992593 -5.384704  3.328392
      ESP Fit Center  597 is at   4.578591 -4.171895  1.600721
      ESP Fit Center  598 is at   2.658591 -6.091895  1.600721
      ESP Fit Center  599 is at   3.618591 -5.834664  1.600721
      ESP Fit Center  600 is at   4.321360 -5.131895  1.600721
      ESP Fit Center  601 is at   4.321360 -4.171895  0.640721
      ESP Fit Center  602 is at   4.003799 -3.194544  0.640721
      ESP Fit Center  603 is at   2.144767 -5.753282  0.640721
      ESP Fit Center  604 is at   3.172415 -5.753282  0.640721
      ESP Fit Center  605 is at   4.003799 -5.149246  0.640721
      ESP Fit Center  606 is at   3.618591 -4.171895 -0.062048
      ESP Fit Center  607 is at   3.138591 -3.340511 -0.062048
      ESP Fit Center  608 is at   2.178591 -5.003279 -0.062048
      ESP Fit Center  609 is at   3.138591 -5.003279 -0.062048
      ESP Fit Center  610 is at   2.658591 -4.171895 -0.319279
      ESP Fit Center  611 is at   0.218666 -4.372037  4.401031
      ESP Fit Center  612 is at  -1.600501 -3.470227  2.772756
      ESP Fit Center  613 is at  -0.262886 -5.271685  3.813552
      ESP Fit Center  614 is at  -1.445655 -4.440301  3.110783
      ESP Fit Center  615 is at  -1.128094 -5.417652  3.110783
      ESP Fit Center  616 is at  -0.296710 -6.021688  3.110783
      ESP Fit Center  617 is at   0.730938 -6.021688  3.110783
      ESP Fit Center  618 is at  -1.702886 -4.440301  2.150783
      ESP Fit Center  619 is at  -1.445655 -5.400301  2.150783
      ESP Fit Center  620 is at  -0.742886 -6.103070  2.150783
      ESP Fit Center  621 is at   0.217114 -6.360301  2.150783
      ESP Fit Center  622 is at   1.177114 -6.103070  2.150783
      ESP Fit Center  623 is at  -1.128094 -5.417652  1.190783
      ESP Fit Center  624 is at  -0.296710 -6.021688  1.190783
      ESP Fit Center  625 is at   0.730938 -6.021688  1.190783
      ESP Fit Center  626 is at  -0.262886 -5.271685  0.488014
      ESP Fit Center  627 is at   0.697114 -5.271685  0.488014
      ESP Fit Center  628 is at  -0.188976 -2.092535  4.746372
      ESP Fit Center  629 is at  -0.668976 -2.923919  4.746372
      ESP Fit Center  630 is at  -0.188976 -3.755303  4.746372
      ESP Fit Center  631 is at  -0.222800 -1.342532  4.043603
      ESP Fit Center  632 is at  -1.054184 -1.946568  4.043603
      ESP Fit Center  633 is at  -1.371745 -2.923919  4.043603
      ESP Fit Center  634 is at  -1.054184 -3.901270  4.043603
      ESP Fit Center  635 is at   0.291024 -1.003919  3.083603
      ESP Fit Center  636 is at  -1.628976 -2.923919  3.083603
      ESP Fit Center  637 is at   2.367803 -2.724347 -0.351121
      ESP Fit Center  638 is at   0.075318 -4.389935 -0.351121
      ESP Fit Center  639 is at   1.157682 -4.389935 -0.351121
      ESP Fit Center  640 is at   2.033334 -3.753737 -0.351121
      ESP Fit Center  641 is at   1.588400 -2.724347 -0.972674
      ESP Fit Center  642 is at   1.102450 -3.566037 -0.972674
      ESP Fit Center  643 is at  -1.912475 -3.642173  2.292374
      ESP Fit Center  644 is at  -3.023524 -2.224088  1.330048
      ESP Fit Center  645 is at  -0.602741 -0.887814  3.353532
      ESP Fit Center  646 is at  -1.562741 -0.887814  3.353532
      ESP Fit Center  647 is at  -2.042741 -1.719198  3.353532
      ESP Fit Center  648 is at   0.262467 -0.741847  2.650763
      ESP Fit Center  649 is at  -0.568917 -0.137811  2.650763
      ESP Fit Center  650 is at  -1.596565 -0.137811  2.650763
      ESP Fit Center  651 is at  -2.427949 -0.741847  2.650763
      ESP Fit Center  652 is at  -2.745510 -1.719198  2.650763
      ESP Fit Center  653 is at  -2.427949 -2.696549  2.650763
      ESP Fit Center  654 is at  -2.042741 -0.056429  1.690763
      ESP Fit Center  655 is at  -2.745510 -0.759198  1.690763
      ESP Fit Center  656 is at  -3.002741 -1.719198  1.690763
      ESP Fit Center  657 is at  -1.856119 -3.875969  2.197433
      ESP Fit Center  658 is at  -3.038888 -3.044585  1.494664
      ESP Fit Center  659 is at  -2.721327 -4.021936  1.494664
      ESP Fit Center  660 is at  -1.889943 -4.625972  1.494664
      ESP Fit Center  661 is at  -3.296119 -3.044585  0.534664
      ESP Fit Center  662 is at  -3.038888 -4.004585  0.534664
      ESP Fit Center  663 is at  -2.336119 -4.707354  0.534664
      ESP Fit Center  664 is at  -1.376119 -4.964585  0.534664
      ESP Fit Center  665 is at  -3.038888 -3.044585 -0.425336
      ESP Fit Center  666 is at  -2.721327 -4.021936 -0.425336
      ESP Fit Center  667 is at  -1.889943 -4.625972 -0.425336
      ESP Fit Center  668 is at  -0.862295 -4.625972 -0.425336
      ESP Fit Center  669 is at  -2.336119 -3.044585 -1.128105
      ESP Fit Center  670 is at  -1.856119 -3.875969 -1.128105
      ESP Fit Center  671 is at  -0.896119 -3.875969 -1.128105
      ESP Fit Center  672 is at  -1.845564 -2.645420 -1.848878
      ESP Fit Center  673 is at  -2.981922  0.002839  0.296868
      ESP Fit Center  674 is at  -3.299483 -0.974512  0.296868
      ESP Fit Center  675 is at  -3.299483 -0.014512 -0.663132
      ESP Fit Center  676 is at  -3.556714 -0.974512 -0.663132
      ESP Fit Center  677 is at  -3.299483 -1.934512 -0.663132
      ESP Fit Center  678 is at  -3.299483 -0.974512 -1.623132
      ESP Fit Center  679 is at  -2.981922 -1.951863 -1.623132
      ESP Fit Center  680 is at  -2.596714 -0.974512 -2.325901
      ESP Fit Center  681 is at  -2.116714 -1.805896 -2.325901
      ESP Fit Center  682 is at  -1.636714 -0.974512 -2.583132
      ESP Fit Center  683 is at  -0.102265 -3.607398 -1.209405
      ESP Fit Center  684 is at   0.857735 -3.350167 -1.209405
      ESP Fit Center  685 is at   1.560504 -2.647398 -1.209405
      ESP Fit Center  686 is at  -1.447473 -2.664749 -2.169405
      ESP Fit Center  687 is at  -0.616089 -3.268785 -2.169405
      ESP Fit Center  688 is at   0.411559 -3.268785 -2.169405
      ESP Fit Center  689 is at   1.242943 -2.664749 -2.169405
      ESP Fit Center  690 is at   0.857735 -1.687398 -2.872174
      ESP Fit Center  691 is at   0.377735 -0.856014 -2.872174
      ESP Fit Center  692 is at  -0.582265 -0.856014 -2.872174
      ESP Fit Center  693 is at  -1.062265 -1.687398 -2.872174
      ESP Fit Center  694 is at  -0.582265 -2.518782 -2.872174
      ESP Fit Center  695 is at   0.377735 -2.518782 -2.872174
      ESP Fit Center  696 is at  -0.102265 -1.687398 -3.129405
      ESP Fit Center  697 is at   0.000000  0.000000  2.240000
      ESP Fit Center  698 is at  -0.485950  0.841690  2.018170
      ESP Fit Center  699 is at  -0.541182  1.665588  1.396617
      ESP Fit Center  700 is at  -1.416834  1.029390  1.396617
      ESP Fit Center  701 is at  -2.120380  0.522627  0.498447
      ESP Fit Center  702 is at   3.719901 -0.530052 -0.887656
      ESP Fit Center  703 is at   1.799901 -2.450052 -0.887656
      ESP Fit Center  704 is at   2.759901 -2.192821 -0.887656
      ESP Fit Center  705 is at   3.462670 -1.490052 -0.887656
      ESP Fit Center  706 is at   3.462670 -0.530052 -1.847656
      ESP Fit Center  707 is at   2.313725 -2.111439 -1.847656
      ESP Fit Center  708 is at   3.145109 -1.507403 -1.847656
      ESP Fit Center  709 is at   2.759901 -0.530052 -2.550425
      ESP Fit Center  710 is at   0.839901 -0.530052 -2.550425
      ESP Fit Center  711 is at   1.319901 -1.361436 -2.550425
      ESP Fit Center  712 is at   2.279901 -1.361436 -2.550425
      ESP Fit Center  713 is at   1.799901 -0.530052 -2.807656
      ESP Fit Center  714 is at   1.809910 -0.522671  2.805177
      ESP Fit Center  715 is at   2.289910  0.308713  2.547946
      ESP Fit Center  716 is at   1.329910  0.308713  2.547946
      ESP Fit Center  717 is at   0.849910 -0.522671  2.547946
      ESP Fit Center  718 is at   3.472679 -0.522671  1.845177
      ESP Fit Center  719 is at   3.155118  0.454680  1.845177
      ESP Fit Center  720 is at   3.729910 -0.522671  0.885177
      ESP Fit Center  721 is at   2.968603  1.437762  2.162325
      ESP Fit Center  722 is at   3.969903  1.422940  1.828728
      ESP Fit Center  723 is at   3.489903  2.254324  1.828728
      ESP Fit Center  724 is at   3.489903  0.591556  1.828728
      ESP Fit Center  725 is at   4.672672  1.422940  1.125959
      ESP Fit Center  726 is at   4.355111  2.400291  1.125959
      ESP Fit Center  727 is at   3.523727  3.004327  1.125959
      ESP Fit Center  728 is at   4.355111  0.445589  1.125959
      ESP Fit Center  729 is at   4.929903  1.422940  0.165959
      ESP Fit Center  730 is at   4.672672  2.382940  0.165959
      ESP Fit Center  731 is at   3.969903  3.085709  0.165959
      ESP Fit Center  732 is at   3.969903 -0.239829  0.165959
      ESP Fit Center  733 is at   4.672672  0.462940  0.165959
      ESP Fit Center  734 is at   4.672672  1.422940 -0.794041
      ESP Fit Center  735 is at   4.355111  0.445589 -0.794041
      ESP Fit Center  736 is at   1.478653  1.998504  2.747431
      ESP Fit Center  737 is at   2.438653  1.998504  2.490200
      ESP Fit Center  738 is at   1.958653  2.829888  2.490200
      ESP Fit Center  739 is at   0.998653  2.829888  2.490200
      ESP Fit Center  740 is at   0.518653  1.998504  2.490200
      ESP Fit Center  741 is at   0.998653  1.167120  2.490200
      ESP Fit Center  742 is at   1.958653  1.167120  2.490200
      ESP Fit Center  743 is at   2.823861  2.975855  1.787431
      ESP Fit Center  744 is at   1.992477  3.579891  1.787431
      ESP Fit Center  745 is at   0.964829  3.579891  1.787431
      ESP Fit Center  746 is at   0.133445  2.975855  1.787431
      ESP Fit Center  747 is at  -0.184116  1.998504  1.787431
      ESP Fit Center  748 is at   2.438653  3.661273  0.827431
      ESP Fit Center  749 is at   3.381389  3.367250  0.414103
      ESP Fit Center  750 is at   2.656695  4.091944  0.414103
      ESP Fit Center  751 is at   4.029963  3.429473 -0.494282
      ESP Fit Center  752 is at   3.397695  4.299715 -0.494282
      ESP Fit Center  753 is at   2.466131  4.837554 -0.494282
      ESP Fit Center  754 is at   4.466746  2.377301 -1.565796
      ESP Fit Center  755 is at   4.277668  3.388778 -1.565796
      ESP Fit Center  756 is at   3.735971  4.263649 -1.565796
      ESP Fit Center  757 is at   2.914813  4.883758 -1.565796
      ESP Fit Center  758 is at   1.925097  5.165357 -1.565796
      ESP Fit Center  759 is at   3.735971  0.490953 -1.565796
      ESP Fit Center  760 is at   4.277668  1.365824 -1.565796
      ESP Fit Center  761 is at   4.253609  2.377301 -2.637310
      ESP Fit Center  762 is at   4.029963  3.429473 -2.637310
      ESP Fit Center  763 is at   3.397695  4.299715 -2.637310
      ESP Fit Center  764 is at   2.466131  4.837554 -2.637310
      ESP Fit Center  765 is at   0.373315  0.137012 -2.637310
      ESP Fit Center  766 is at   2.466131 -0.082952 -2.637310
      ESP Fit Center  767 is at   3.397695  0.454887 -2.637310
      ESP Fit Center  768 is at   4.029963  1.325129 -2.637310
      ESP Fit Center  769 is at   3.646645  2.377301 -3.545695
      ESP Fit Center  770 is at   3.381389  3.367250 -3.545695
      ESP Fit Center  771 is at   2.656695  4.091944 -3.545695
      ESP Fit Center  772 is at   1.666746  4.357200 -3.545695
      ESP Fit Center  773 is at   0.676797  0.662658 -3.545695
      ESP Fit Center  774 is at   1.666746  0.397402 -3.545695
      ESP Fit Center  775 is at   2.656695  0.662658 -3.545695
      ESP Fit Center  776 is at   3.381389  1.387352 -3.545695
      ESP Fit Center  777 is at   2.738260  2.377301 -4.152659
      ESP Fit Center  778 is at   2.202503  3.305259 -4.152659
      ESP Fit Center  779 is at   1.130989  3.305259 -4.152659
      ESP Fit Center  780 is at   1.130989  1.449343 -4.152659
      ESP Fit Center  781 is at   2.202503  1.449343 -4.152659
      ESP Fit Center  782 is at   1.666746  2.377301 -4.365796
      ESP Fit Center  783 is at   1.677343  5.266576 -0.638453
      ESP Fit Center  784 is at  -0.302175  5.718389 -0.638453
      ESP Fit Center  785 is at  -1.240373  5.266576 -0.638453
      ESP Fit Center  786 is at   0.389784  3.897192  1.729669
      ESP Fit Center  787 is at   1.349784  3.897192  1.472438
      ESP Fit Center  788 is at   0.869784  4.728576  1.472438
      ESP Fit Center  789 is at  -0.090216  4.728576  1.472438
      ESP Fit Center  790 is at  -0.570216  3.897192  1.472438
      ESP Fit Center  791 is at  -0.090216  3.065808  1.472438
      ESP Fit Center  792 is at   2.052553  3.897192  0.769669
      ESP Fit Center  793 is at   1.734992  4.874543  0.769669
      ESP Fit Center  794 is at   0.903608  5.478579  0.769669
      ESP Fit Center  795 is at  -0.124040  5.478579  0.769669
      ESP Fit Center  796 is at  -0.955424  4.874543  0.769669
      ESP Fit Center  797 is at   2.052553  4.857192 -0.190331
      ESP Fit Center  798 is at   1.349784  5.559961 -0.190331
      ESP Fit Center  799 is at   0.389784  5.817192 -0.190331
      ESP Fit Center  800 is at  -0.570216  5.559961 -0.190331
      ESP Fit Center  801 is at   0.773076  5.818697 -0.958213
      ESP Fit Center  802 is at  -0.254572  5.818697 -0.958213
      ESP Fit Center  803 is at   1.922021  5.197310 -1.918213
      ESP Fit Center  804 is at   1.219252  5.900079 -1.918213
      ESP Fit Center  805 is at   0.259252  6.157310 -1.918213
      ESP Fit Center  806 is at   1.604460  5.214661 -2.878213
      ESP Fit Center  807 is at   0.773076  5.818697 -2.878213
      ESP Fit Center  808 is at   0.739252  5.068694 -3.580982
      ESP Fit Center  809 is at   0.259252  4.237310 -3.838213
      ESP Fit Center  810 is at  -1.149924  2.751147  1.218414
      ESP Fit Center  811 is at  -2.191245  2.751147  0.980739
      ESP Fit Center  812 is at  -2.950312  2.222505  0.314790
      ESP Fit Center  813 is at  -1.917098  3.452328  1.091667
      ESP Fit Center  814 is at  -1.437098  4.283712  0.834436
      ESP Fit Center  815 is at  -2.397098  4.283712  0.834436
      ESP Fit Center  816 is at  -2.877098  3.452328  0.834436
      ESP Fit Center  817 is at  -1.403274  5.033715  0.131667
      ESP Fit Center  818 is at  -2.430922  5.033715  0.131667
      ESP Fit Center  819 is at  -3.262306  4.429679  0.131667
      ESP Fit Center  820 is at  -3.579867  3.452328  0.131667
      ESP Fit Center  821 is at  -3.262306  2.474977  0.131667
      ESP Fit Center  822 is at  -1.917098  5.372328 -0.828333
      ESP Fit Center  823 is at  -2.877098  5.115097 -0.828333
      ESP Fit Center  824 is at  -1.131224  1.895566  1.415863
      ESP Fit Center  825 is at  -2.091224  1.895566  1.158632
      ESP Fit Center  826 is at  -1.611224  1.064182  1.158632
      ESP Fit Center  827 is at  -2.793993  1.895566  0.455863
      ESP Fit Center  828 is at  -2.476432  0.918215  0.455863
      ESP Fit Center  829 is at  -2.793993  0.935566 -0.504137
      ESP Fit Center  830 is at  -3.672269  2.100386 -0.839399
      ESP Fit Center  831 is at  -3.407013  1.110437 -0.839399
      ESP Fit Center  832 is at  -4.222704  1.562547 -1.747784
      ESP Fit Center  833 is at  -3.785186  0.579866 -1.747784
      ESP Fit Center  834 is at  -2.985801 -0.139903 -1.747784
      ESP Fit Center  835 is at  -4.444695  1.585887 -2.819298
      ESP Fit Center  836 is at  -4.072978  0.626376 -2.819298
      ESP Fit Center  837 is at  -3.379747 -0.134062 -2.819298
      ESP Fit Center  838 is at  -2.458626 -0.592726 -2.819298
      ESP Fit Center  839 is at  -1.434019 -0.687670 -2.819298
      ESP Fit Center  840 is at  -0.444303 -0.406071 -2.819298
      ESP Fit Center  841 is at   0.376855  0.214038 -2.819298
      ESP Fit Center  842 is at  -3.785186  0.579866 -3.890812
      ESP Fit Center  843 is at  -2.985801 -0.139903 -3.890812
      ESP Fit Center  844 is at  -1.962771 -0.472306 -3.890812
      ESP Fit Center  845 is at  -0.892985 -0.359867 -3.890812
      ESP Fit Center  846 is at   0.038579  0.177972 -3.890812
      ESP Fit Center  847 is at   0.670847  1.048214 -3.890812
      ESP Fit Center  848 is at   0.287529  2.100386 -4.799197
      ESP Fit Center  849 is at   0.022273  3.090335 -4.799197
      ESP Fit Center  850 is at  -2.682319  0.385743 -4.799197
      ESP Fit Center  851 is at  -1.692370  0.120487 -4.799197
      ESP Fit Center  852 is at  -0.702421  0.385743 -4.799197
      ESP Fit Center  853 is at   0.022273  1.110437 -4.799197
      ESP Fit Center  854 is at  -0.620856  2.100386 -5.406161
      ESP Fit Center  855 is at  -2.228127  1.172428 -5.406161
      ESP Fit Center  856 is at  -1.156613  1.172428 -5.406161
      ESP Fit Center  857 is at  -1.692370  2.100386 -5.619298
      ESP Fit Center  858 is at  -4.108722  4.368885 -0.864622
      ESP Fit Center  859 is at  -4.588722  3.537501 -0.864622
      ESP Fit Center  860 is at  -4.108722  2.706117 -0.864622
      ESP Fit Center  861 is at  -5.291491  3.537501 -1.567391
      ESP Fit Center  862 is at  -4.973930  2.560150 -1.567391
      ESP Fit Center  863 is at  -5.548722  3.537501 -2.527391
      ESP Fit Center  864 is at  -5.291491  2.577501 -2.527391
      ESP Fit Center  865 is at  -5.388025  2.912171 -4.166083
      ESP Fit Center  866 is at  -5.130794  1.952171 -4.166083
      ESP Fit Center  867 is at  -4.428025  1.249402 -4.166083
      ESP Fit Center  868 is at  -5.130794  2.912171 -5.126083
      ESP Fit Center  869 is at  -4.813233  1.934820 -5.126083
      ESP Fit Center  870 is at  -3.981849  1.330784 -5.126083
      ESP Fit Center  871 is at  -2.508025  2.912171 -5.828852
      ESP Fit Center  872 is at  -4.428025  2.912171 -5.828852
      ESP Fit Center  873 is at  -3.948025  2.080787 -5.828852
      ESP Fit Center  874 is at  -2.988025  2.080787 -5.828852
      ESP Fit Center  875 is at  -3.468025  2.912171 -6.086083
      ESP Fit Center  876 is at  -0.365644  6.142037 -2.056389
      ESP Fit Center  877 is at  -0.048083  6.124686 -3.016389
      ESP Fit Center  878 is at  -0.750852  6.827455 -3.016389
      ESP Fit Center  879 is at  -0.365644  6.142037 -3.976389
      ESP Fit Center  880 is at   0.310324  4.505481 -4.644595
      ESP Fit Center  881 is at   0.053093  5.465481 -4.644595
      ESP Fit Center  882 is at   0.053093  3.545481 -4.644595
      ESP Fit Center  883 is at   0.053093  4.505481 -5.604595
      ESP Fit Center  884 is at  -0.264468  5.482832 -5.604595
      ESP Fit Center  885 is at  -2.123500  2.924094 -5.604595
      ESP Fit Center  886 is at  -1.095852  2.924094 -5.604595
      ESP Fit Center  887 is at  -0.264468  3.528130 -5.604595
      ESP Fit Center  888 is at  -0.649676  4.505481 -6.307364
      ESP Fit Center  889 is at  -1.129676  5.336865 -6.307364
      ESP Fit Center  890 is at  -2.089676  3.674097 -6.307364
      ESP Fit Center  891 is at  -1.129676  3.674097 -6.307364
      ESP Fit Center  892 is at  -1.609676  4.505481 -6.564595
      ESP Fit Center  893 is at  -5.621478  4.375733 -3.383941
      ESP Fit Center  894 is at  -0.917740  6.907730 -4.455455
      ESP Fit Center  895 is at  -1.459437  7.782601 -4.455455
      ESP Fit Center  896 is at  -4.294918  8.589365 -4.455455
      ESP Fit Center  897 is at  -6.280987  5.381754 -4.455455
      ESP Fit Center  898 is at  -5.909270  4.422243 -4.455455
      ESP Fit Center  899 is at  -5.216039  3.661805 -4.455455
      ESP Fit Center  900 is at  -1.165445  6.948425 -5.526969
      ESP Fit Center  901 is at  -1.797713  7.818667 -5.526969
      ESP Fit Center  902 is at  -2.729277  8.356506 -5.526969
      ESP Fit Center  903 is at  -3.799063  8.468945 -5.526969
      ESP Fit Center  904 is at  -4.822093  8.136542 -5.526969
      ESP Fit Center  905 is at  -5.621478  7.416773 -5.526969
      ESP Fit Center  906 is at  -6.058996  6.434092 -5.526969
      ESP Fit Center  907 is at  -6.058996  5.358414 -5.526969
      ESP Fit Center  908 is at  -5.621478  4.375733 -5.526969
      ESP Fit Center  909 is at  -4.822093  3.655964 -5.526969
      ESP Fit Center  910 is at  -1.548763  5.896253 -6.435354
      ESP Fit Center  911 is at  -1.814019  6.886202 -6.435354
      ESP Fit Center  912 is at  -2.538713  7.610896 -6.435354
      ESP Fit Center  913 is at  -3.528662  7.876152 -6.435354
      ESP Fit Center  914 is at  -4.518611  7.610896 -6.435354
      ESP Fit Center  915 is at  -5.243305  6.886202 -6.435354
      ESP Fit Center  916 is at  -5.508561  5.896253 -6.435354
      ESP Fit Center  917 is at  -5.243305  4.906304 -6.435354
      ESP Fit Center  918 is at  -4.518611  4.181610 -6.435354
      ESP Fit Center  919 is at  -3.528662  3.916354 -6.435354
      ESP Fit Center  920 is at  -2.538713  4.181610 -6.435354
      ESP Fit Center  921 is at  -2.457148  5.896253 -7.042318
      ESP Fit Center  922 is at  -2.992905  6.824211 -7.042318
      ESP Fit Center  923 is at  -4.064419  6.824211 -7.042318
      ESP Fit Center  924 is at  -4.600176  5.896253 -7.042318
      ESP Fit Center  925 is at  -4.064419  4.968295 -7.042318
      ESP Fit Center  926 is at  -2.992905  4.968295 -7.042318
      ESP Fit Center  927 is at  -3.528662  5.896253 -7.255455
      ESP Fit Center  928 is at  -6.064253  7.085974 -1.405639
      ESP Fit Center  929 is at  -6.371976  5.542119 -3.436065
      ESP Fit Center  930 is at  -5.682841  8.657323 -2.275413
      ESP Fit Center  931 is at  -6.514225  8.053287 -2.275413
      ESP Fit Center  932 is at  -6.831786  7.075936 -2.275413
      ESP Fit Center  933 is at  -5.169017  8.995936 -3.235413
      ESP Fit Center  934 is at  -6.129017  8.738705 -3.235413
      ESP Fit Center  935 is at  -6.831786  8.035936 -3.235413
      ESP Fit Center  936 is at  -7.089017  7.075936 -3.235413
      ESP Fit Center  937 is at  -6.831786  6.115936 -3.235413
      ESP Fit Center  938 is at  -4.655193  8.657323 -4.195413
      ESP Fit Center  939 is at  -5.682841  8.657323 -4.195413
      ESP Fit Center  940 is at  -6.514225  8.053287 -4.195413
      ESP Fit Center  941 is at  -6.831786  7.075936 -4.195413
      ESP Fit Center  942 is at  -6.514225  6.098585 -4.195413
      ESP Fit Center  943 is at  -5.649017  7.907320 -4.898182
      ESP Fit Center  944 is at  -6.129017  7.075936 -4.898182
      ESP Fit Center  945 is at  -4.593643  5.721585 -0.355154
      ESP Fit Center  946 is at  -5.553643  5.721585 -0.612385
      ESP Fit Center  947 is at  -5.073643  4.890201 -0.612385
      ESP Fit Center  948 is at  -4.113643  4.890201 -0.612385
      ESP Fit Center  949 is at  -6.256412  5.721585 -1.315154
      ESP Fit Center  950 is at  -5.938851  4.744234 -1.315154
      ESP Fit Center  951 is at  -5.107467  4.140198 -1.315154
      ESP Fit Center  952 is at  -6.513643  5.721585 -2.275154
      ESP Fit Center  953 is at  -6.256412  4.761585 -2.275154
      ESP Fit Center  954 is at  -5.553643  4.058816 -2.275154
      ESP Fit Center  955 is at  -5.938851  4.744234 -3.235154
      ESP Fit Center  956 is at  -1.780953  8.525253 -0.625441
      ESP Fit Center  957 is at  -2.579994  9.217626 -0.625441
      ESP Fit Center  958 is at  -1.251366  8.526010 -1.587767
      ESP Fit Center  959 is at  -3.880137  9.791960 -1.587767
      ESP Fit Center  960 is at  -4.818335  9.340147 -2.655867
      ESP Fit Center  961 is at  -1.724445  9.344665 -1.778188
      ESP Fit Center  962 is at  -2.555829  9.948701 -1.778188
      ESP Fit Center  963 is at  -3.583477  9.948701 -1.778188
      ESP Fit Center  964 is at  -1.149653  8.367314 -2.738188
      ESP Fit Center  965 is at  -1.406884  9.327314 -2.738188
      ESP Fit Center  966 is at  -2.109653 10.030083 -2.738188
      ESP Fit Center  967 is at  -3.069653 10.287314 -2.738188
      ESP Fit Center  968 is at  -4.029653 10.030083 -2.738188
      ESP Fit Center  969 is at  -1.406884  8.367314 -3.698188
      ESP Fit Center  970 is at  -1.724445  9.344665 -3.698188
      ESP Fit Center  971 is at  -2.555829  9.948701 -3.698188
      ESP Fit Center  972 is at  -3.583477  9.948701 -3.698188
      ESP Fit Center  973 is at  -4.414861  9.344665 -3.698188
      ESP Fit Center  974 is at  -2.109653  8.367314 -4.400957
      ESP Fit Center  975 is at  -2.589653  9.198698 -4.400957
      ESP Fit Center  976 is at  -3.549653  9.198698 -4.400957
      ESP Fit Center  977 is at  -3.880384  7.885467  0.688602
      ESP Fit Center  978 is at  -2.920384  7.885467  0.431371
      ESP Fit Center  979 is at  -3.400384  8.716851  0.431371
      ESP Fit Center  980 is at  -4.360384  8.716851  0.431371
      ESP Fit Center  981 is at  -4.840384  7.885467  0.431371
      ESP Fit Center  982 is at  -4.360384  7.054083  0.431371
      ESP Fit Center  983 is at  -3.400384  7.054083  0.431371
      ESP Fit Center  984 is at  -2.535176  8.862818 -0.271398
      ESP Fit Center  985 is at  -3.366560  9.466854 -0.271398
      ESP Fit Center  986 is at  -4.394208  9.466854 -0.271398
      ESP Fit Center  987 is at  -5.225592  8.862818 -0.271398
      ESP Fit Center  988 is at  -5.543153  7.885467 -0.271398
      ESP Fit Center  989 is at  -5.225592  6.908116 -0.271398
      ESP Fit Center  990 is at  -4.394208  6.304080 -0.271398
      ESP Fit Center  991 is at  -3.880384  9.805467 -1.231398
      ESP Fit Center  992 is at  -4.840384  9.548236 -1.231398
      ESP Fit Center  993 is at  -5.543153  8.845467 -1.231398
      ESP Fit Center  994 is at  -5.800384  7.885467 -1.231398
      ESP Fit Center  995 is at  -2.442856  7.015393  0.136558
      ESP Fit Center  996 is at  -1.482856  7.015393 -0.120673
      ESP Fit Center  997 is at  -1.962856  7.846777 -0.120673
      ESP Fit Center  998 is at  -2.922856  6.184009 -0.120673
      ESP Fit Center  999 is at  -1.962856  6.184009 -0.120673
      ESP Fit Center 1000 is at  -0.780087  7.015393 -0.823442
      ESP Fit Center 1001 is at  -1.097648  7.992744 -0.823442
      ESP Fit Center 1002 is at  -2.956680  5.434006 -0.823442
      ESP Fit Center 1003 is at  -1.929032  5.434006 -0.823442
      ESP Fit Center 1004 is at  -1.097648  6.038042 -0.823442
      ESP Fit Center 1005 is at  -0.522856  7.015393 -1.783442
      ESP Fit Center 1006 is at  -0.780087  7.975393 -1.783442
      ESP Fit Center 1007 is at  -0.780087  7.015393 -2.743442
      ESP Fit Center 1008 is at   1.093874 -0.520331  7.006545
      ESP Fit Center 1009 is at   0.512273 -1.425318  7.006545
      ESP Fit Center 1010 is at   3.137231 -3.699858  7.006545
      ESP Fit Center 1011 is at   2.899199  0.468734  6.130602
      ESP Fit Center 1012 is at   0.096682 -0.880887  6.130602
      ESP Fit Center 1013 is at   2.899199 -4.395132  6.130602
      ESP Fit Center 1014 is at   3.377371  0.531276  5.097357
      ESP Fit Center 1015 is at   0.527151 -2.763460  7.101222
      ESP Fit Center 1016 is at   1.067151 -3.698767  7.101222
      ESP Fit Center 1017 is at  -0.187691 -2.236447  6.310607
      ESP Fit Center 1018 is at  -0.187691 -3.290473  6.310607
      ESP Fit Center 1019 is at   0.382159 -4.177176  6.310607
      ESP Fit Center 1020 is at   1.340935 -4.615035  6.310607
      ESP Fit Center 1021 is at   2.384233 -4.465031  6.310607
      ESP Fit Center 1022 is at  -0.490083 -2.246538  5.230607
      ESP Fit Center 1023 is at  -0.490083 -3.280382  5.230607
      ESP Fit Center 1024 is at  -0.009632 -4.195805  5.230607
      ESP Fit Center 1025 is at   0.841204 -4.783095  5.230607
      ESP Fit Center 1026 is at   2.802306 -1.767706  8.234418
      ESP Fit Center 1027 is at   3.882306 -1.767706  7.945033
      ESP Fit Center 1028 is at   3.342306 -0.832399  7.945033
      ESP Fit Center 1029 is at   2.262306 -0.832399  7.945033
      ESP Fit Center 1030 is at   1.722306 -1.767706  7.945033
      ESP Fit Center 1031 is at   2.262306 -2.703013  7.945033
      ESP Fit Center 1032 is at   3.342306 -2.703013  7.945033
      ESP Fit Center 1033 is at   4.672921 -1.767706  7.154418
      ESP Fit Center 1034 is at   4.375967 -0.756375  7.154418
      ESP Fit Center 1035 is at   3.579388 -0.066135  7.154418
      ESP Fit Center 1036 is at   2.536090  0.083869  7.154418
      ESP Fit Center 1037 is at   1.577314 -0.353990  7.154418
      ESP Fit Center 1038 is at   3.579388 -3.469277  7.154418
      ESP Fit Center 1039 is at   4.375967 -2.779037  7.154418
      ESP Fit Center 1040 is at   4.714891 -0.763904  6.074418
      ESP Fit Center 1041 is at   4.029326  0.009939  6.074418
      ESP Fit Center 1042 is at   2.592488  0.641968  5.855972
      ESP Fit Center 1043 is at   1.549190  0.791972  5.855972
      ESP Fit Center 1044 is at   0.590414  0.354113  5.855972
      ESP Fit Center 1045 is at   0.020564 -0.532590  5.855972
      ESP Fit Center 1046 is at   3.042426  0.718042  4.775972
      ESP Fit Center 1047 is at   2.075765  1.084648  4.775972
[...]
 1248 Fit       0.003078
 1249 Fit       0.003224
 1250 Fit       0.005417
 1251 Fit       0.010082
 1252 Fit       0.005228
 1253 Fit      -0.002989
 1254 Fit      -0.010411
 1255 Fit      -0.013190
 1256 Fit      -0.009155
 1257 Fit      -0.009965
 1258 Fit      -0.016706
 1259 Fit      -0.019419
 1260 Fit      -0.016581
 1261 Fit      -0.008653
 1262 Fit      -0.016234
 1263 Fit      -0.020819
 1264 Fit      -0.022125
 1265 Fit      -0.018481
 1266 Fit      -0.009778
 1267 Fit      -0.008595
 1268 Fit      -0.011353
 1269 Fit      -0.020111
 1270 Fit      -0.022424
 1271 Fit      -0.021509
 1272 Fit      -0.016047
 1273 Fit      -0.029643
 1274 Fit      -0.022069
 1275 Fit      -0.017911
 1276 Fit      -0.016395
 1277 Fit      -0.017315
 1278 Fit      -0.022523
 1279 Fit      -0.022182
 1280 Fit      -0.018660
 1281 Fit      -0.012660
 1282 Fit      -0.029476
 1283 Fit      -0.024384
 1284 Fit      -0.022337
 1285 Fit      -0.024396
 1286 Fit      -0.021388
 1287 Fit      -0.022173
 1288 Fit      -0.034837
 1289 Fit      -0.027922
 1290 Fit      -0.027384
 1291 Fit       0.010762
 1292 Fit       0.008814
 1293 Fit       0.010492
 1294 Fit       0.010334
 1295 Fit       0.002462
 1296 Fit       0.006018
 1297 Fit       0.009139
 1298 Fit       0.011722
 1299 Fit       0.000409
 1300 Fit       0.005975
 1301 Fit       0.010785
 1302 Fit      -0.000654
 1303 Fit       0.005806
 1304 Fit      -0.007062
 1305 Fit       0.000695
 1306 Fit      -0.002432
 1307 Fit       0.004758
 1308 Fit       0.009104
 1309 Fit       0.004687
 1310 Fit       0.002885
 1311 Fit      -0.002010
 1312 Fit       0.008059
 1313 Fit       0.012295
 1314 Fit       0.011466
 1315 Fit       0.008607
 1316 Fit       0.014552
 1317 Fit       0.014529
 1318 Fit       0.012562
 1319 Fit       0.007437
 1320 Fit      -0.003008
 1321 Fit       0.000534
 1322 Fit      -0.000439
 1323 Fit       0.000404
 1324 Fit      -0.005816
 1325 Fit      -0.009037
 1326 Fit      -0.010757
 1327 Fit      -0.010290
 1328 Fit      -0.014799
 1329 Fit      -0.014215
 1330 Fit      -0.008844
 1331 Fit      -0.014524
 1332 Fit      -0.017092
 1333 Fit      -0.017520
 1334 Fit      -0.018350
 1335 Fit      -0.022607
 1336 Fit      -0.012574
 1337 Fit      -0.016740
 1338 Fit      -0.019466
 1339 Fit      -0.022983
 1340 Fit      -0.029116
 1341 Fit      -0.036580
 1342 Fit      -0.027827
 1343 Fit      -0.019286
 1344 Fit      -0.012868
 1345 Fit      -0.018121
 1346 Fit      -0.023056
 1347 Fit      -0.027675
 1348 Fit      -0.019286
 1349 Fit      -0.011256
 1350 Fit      -0.018299
 1351 Fit      -0.010885
 1352 Fit      -0.001606
 1353 Fit       0.011582
 1354 Fit       0.005580
 1355 Fit       0.006713
 1356 Fit       0.000875
 1357 Fit       0.002569
 1358 Fit      -0.001009
 1359 Fit      -0.008461
 1360 Fit      -0.002952
 1361 Fit      -0.003069
 1362 Fit      -0.004000
 1363 Fit      -0.002377
 1364 Fit      -0.004663
 1365 Fit      -0.002930
 1366 Fit      -0.006986
 1367 Fit      -0.002901
 1368 Fit      -0.004156
 1369 Fit      -0.004751
 1370 Fit       0.004877
 1371 Fit       0.002217
 1372 Fit      -0.007818
 1373 Fit      -0.003653
 1374 Fit      -0.005970
 1375 Fit      -0.004856
 1376 Fit      -0.010799
 1377 Fit      -0.004195
 1378 Fit      -0.006325
 1379 Fit      -0.003763
 1380 Fit      -0.005037
 1381 Fit      -0.004460
 1382 Fit      -0.006343
 1383 Fit      -0.010792
 1384 Fit      -0.007633
 1385 Fit      -0.008904
 1386 Fit      -0.012556
 1387 Fit      -0.016954
 1388 Fit      -0.016482
 1389 Fit      -0.012185
 1390 Fit      -0.007146
 1391 Fit      -0.002248
 1392 Fit      -0.002662
 1393 Fit      -0.009301
 1394 Fit      -0.014556
 1395 Fit      -0.015472
 1396 Fit      -0.015713
 1397 Fit      -0.019799
 1398 Fit      -0.019396
 1399 Fit      -0.015681
 1400 Fit      -0.011282
 1401 Fit      -0.008954
 1402 Fit      -0.010524
 1403 Fit      -0.014910
 1404 Fit      -0.018536
 1405 Fit      -0.018016
 1406 Fit      -0.011798
 1407 Fit      -0.011473
 1408 Fit      -0.017396
 1409 Fit      -0.019798
 1410 Fit      -0.018209
 1411 Fit      -0.015609
 1412 Fit      -0.015392
 1413 Fit      -0.017768
 1414 Fit      -0.019237
 1415 Fit      -0.016575
 1416 Fit      -0.011116
 1417 Fit      -0.006923
 1418 Fit      -0.006374
 1419 Fit      -0.014450
 1420 Fit      -0.018098
 1421 Fit      -0.017904
 1422 Fit      -0.018155
 1423 Fit      -0.016597
 1424 Fit      -0.012806
 1425 Fit      -0.016794
 1426 Fit       0.009348
 1427 Fit       0.002599
 1428 Fit       0.008247
 1429 Fit       0.007779
 1430 Fit       0.006670
 1431 Fit       0.006487
 1432 Fit       0.007034
 1433 Fit       0.006338
 1434 Fit       0.004329
 1435 Fit       0.001309
 1436 Fit       0.003081
 1437 Fit       0.004462
 1438 Fit       0.003700
 1439 Fit       0.000177
 1440 Fit       0.012448
 1441 Fit       0.010653
 1442 Fit       0.012612
 1443 Fit       0.015954
 1444 Fit       0.008532
 1445 Fit       0.008564
 1446 Fit       0.010307
 1447 Fit       0.004956
 1448 Fit       0.005383
 1449 Fit       0.006946
 1450 Fit       0.009309
 1451 Fit       0.004125
 1452 Fit       0.013738
 1453 Fit       0.003033
 1454 Fit       0.002069
 1455 Fit       0.002595
 1456 Fit       0.000870
 1457 Fit       0.003415
 1458 Fit       0.005519
 1459 Fit       0.004471
 1460 Fit       0.002214
 1461 Fit       0.002762
 1462 Fit      -0.000058
 1463 Fit       0.001495
 1464 Fit       0.002440
 1465 Fit       0.002857
 1466 Fit       0.003763
 1467 Fit      -0.007731
 1468 Fit      -0.002977
 1469 Fit      -0.000209
 1470 Fit       0.001024
 1471 Fit       0.001758
 1472 Fit      -0.006836
 1473 Fit      -0.004441
 1474 Fit       0.008272
 1475 Fit       0.006786
 1476 Fit       0.006567
 1477 Fit       0.007939
 1478 Fit       0.009117
 1479 Fit       0.009562
 1480 Fit       0.008685
 1481 Fit       0.004505
 1482 Fit       0.005883
 1483 Fit       0.007415
 1484 Fit       0.008690
 1485 Fit       0.009664
 1486 Fit       0.011049
 1487 Fit       0.004767
 1488 Fit       0.006665
 1489 Fit       0.008603
 1490 Fit       0.008283
 1491 Fit       0.009055
 1492 Fit       0.012645
 1493 Fit       0.008930
 1494 Fit       0.005220
 1495 Fit       0.014119
 1496 Fit       0.007448
 1497 Fit       0.003180
 1498 Fit       0.003083
 1499 Fit       0.006123
 1500 Fit       0.006411
 1501 Fit       0.007736
 1502 Fit       0.009510
 1503 Fit       0.006154
 1504 Fit       0.006046
 1505 Fit       0.006805
 1506 Fit       0.011471
 1507 Fit       0.007016
 1508 Fit       0.007849
 1509 Fit       0.008149
 1510 Fit       0.009357
 1511 Fit       0.008080
 1512 Fit       0.010027
 1513 Fit       0.011272
 1514 Fit       0.011612
 1515 Fit       0.010763
 1516 Fit       0.012686
 1517 Fit       0.013944
 1518 Fit       0.014656
 1519 Fit       0.014834
 1520 Fit       0.008700
 1521 Fit       0.009410
 1522 Fit       0.008703
 1523 Fit       0.007820
 1524 Fit       0.007731
 1525 Fit       0.008527
 1526 Fit       0.009302
 1527 Fit       0.009869
 1528 Fit       0.009198
 1529 Fit       0.008198
 1530 Fit       0.007210
 1531 Fit       0.006564
 1532 Fit       0.009927
 1533 Fit       0.010121
 1534 Fit       0.010561
 1535 Fit       0.009717
 1536 Fit       0.008454
 1537 Fit       0.007161
 1538 Fit       0.006157
 1539 Fit       0.006218
 1540 Fit       0.006218
 1541 Fit       0.006449
 1542 Fit       0.006519
 1543 Fit       0.006693
 1544 Fit       0.007606
 1545 Fit       0.005680
 1546 Fit       0.005573
 1547 Fit       0.005828
 1548 Fit       0.005414
 1549 Fit       0.005730
 1550 Fit       0.001956
 1551 Fit       0.002872
 1552 Fit       0.000968
 1553 Fit       0.010305
 1554 Fit       0.008372
 1555 Fit       0.006060
 1556 Fit      -0.003163
 1557 Fit      -0.002646
 1558 Fit       0.008305
 1559 Fit       0.008291
 1560 Fit       0.008378
 1561 Fit       0.005939
 1562 Fit       0.006308
 1563 Fit       0.006585
 1564 Fit       0.006602
 1565 Fit       0.006485
 1566 Fit       0.002835
 1567 Fit       0.003633
 1568 Fit       0.004114
 1569 Fit       0.004142
 1570 Fit       0.003488
 1571 Fit      -0.002252
 1572 Fit      -0.000599
 1573 Fit      -0.000048
 1574 Fit      -0.001546
 1575 Fit       0.010660
 1576 Fit       0.010781
 1577 Fit       0.008863
 1578 Fit       0.012231
 1579 Fit       0.010415
 1580 Fit       0.009205
 1581 Fit       0.006804
 1582 Fit       0.010895
 1583 Fit       0.008814
 1584 Fit       0.007428
 1585 Fit       0.003926
 1586 Fit       0.010111
 1587 Fit       0.007140
 1588 Fit       0.005133
 1589 Fit       0.001917
 1590 Fit      -0.010734
 1591 Fit      -0.010926
 1592 Fit      -0.009361
 1593 Fit      -0.007597
 1594 Fit      -0.014464
 1595 Fit      -0.015325
 1596 Fit      -0.016026
 1597 Fit       0.007895
 1598 Fit       0.011363
 1599 Fit       0.009632
 1600 Fit       0.001181
 1601 Fit       0.015408
 1602 Fit       0.014492
 1603 Fit       0.015195
 1604 Fit       0.013728
 1605 Fit       0.012908
 1606 Fit       0.014856
 1607 Fit       0.013014
 1608 Fit       0.011721
 1609 Fit       0.010778
 1610 Fit       0.012300
 1611 Fit       0.010502
 1612 Fit       0.008951
 1613 Fit      -0.003666
 1614 Fit       0.007801
 1615 Fit       0.006438
 1616 Fit       0.004624
 1617 Fit       0.001686
 1618 Fit      -0.003548
 1619 Fit      -0.010697
 1620 Fit       0.002213
 1621 Fit       0.003911
 1622 Fit       0.003265
 1623 Fit       0.000952
 1624 Fit      -0.004346
 1625 Fit      -0.011589
 1626 Fit      -0.002364
 1627 Fit      -0.000674
 1628 Fit      -0.007398
 1629 Fit       0.014311
 1630 Fit       0.016586
 1631 Fit       0.011769
 1632 Fit       0.011304
 1633 Fit       0.000366
 1634 Fit       0.011725
 1635 Fit       0.011913
 1636 Fit       0.013023
 1637 Fit       0.011107
 1638 Fit       0.010487
 1639 Fit       0.010488
 1640 Fit       0.010956
 1641 Fit       0.012137
 1642 Fit       0.009676
 1643 Fit       0.009105
 1644 Fit       0.009102
 1645 Fit       0.009593
 1646 Fit       0.007227
 1647 Fit       0.006555
 1648 Fit       0.006322
 1649 Fit       0.002885
 1650 Fit       0.009466
 1651 Fit       0.010913
 1652 Fit       0.011934
 1653 Fit       0.013596
 1654 Fit       0.011354
 1655 Fit      -0.005975
 1656 Fit      -0.009198
 1657 Fit      -0.012355
 1658 Fit       0.009214
 1659 Fit       0.008030
 1660 Fit       0.007586
 1661 Fit       0.009519
 1662 Fit       0.000682
 1663 Fit       0.002755
 1664 Fit       0.005758
 1665 Fit       0.007853
 1666 Fit       0.009269
 1667 Fit       0.010979
 1668 Fit       0.003053
 1669 Fit       0.006416
 1670 Fit       0.008169
 1671 Fit       0.009286
 1672 Fit       0.009947
 1673 Fit       0.008281
 1674 Fit       0.008255
 1675 Fit       0.008521
 1676 Fit       0.009042
 1677 Fit       0.007386
 1678 Fit       0.007197
 1679 Fit       0.007084
 1680 Fit       0.006571
 1681 Fit       0.004826
 1682 Fit       0.006039
 1683 Fit       0.005627
 1684 Fit       0.004384
 1685 Fit       0.000873
 1686 Fit       0.004082
 1687 Fit       0.000717
 1688 Fit       0.003727
 1689 Fit      -0.001175
 1690 Fit       0.000284
 1691 Fit       0.004669
 1692 Fit      -0.000190
 1693 Fit       0.003615
 1694 Fit       0.006850
 1695 Fit      -0.001022
 1696 Fit       0.003047
 1697 Fit       0.005892
 1698 Fit      -0.003769
 1699 Fit       0.000383
 1700 Fit       0.000825
 1701 Fit      -0.004277
 1702 Fit      -0.008347
 1703 Fit      -0.000578
 1704 Fit      -0.001325
 1705 Fit      -0.003630
 1706 Fit      -0.005736
 1707 Fit      -0.009961
 1708 Fit      -0.019177
 1709 Fit      -0.010157
 1710 Fit      -0.004815
 1711 Fit      -0.005511
 1712 Fit      -0.010680
 1713 Fit      -0.004561
 1714 Fit      -0.003649
 1715 Fit      -0.004456
 1716 Fit      -0.003769
 1717 Fit      -0.012449
 1718 Fit      -0.006670
 1719 Fit      -0.015617
 1720 Fit      -0.004756
 1721 Fit      -0.011202
 1722 Fit      -0.008738
 1723 Fit      -0.006771
 1724 Fit      -0.008377
 1725 Fit      -0.007124
 1726 Fit      -0.007238
 1727 Fit      -0.009830
 1728 Fit       0.003407
 1729 Fit       0.003167
 1730 Fit      -0.001930
 1731 Fit      -0.000146
 1732 Fit       0.002675
 1733 Fit       0.001863
 1734 Fit       0.001557
 1735 Fit       0.000826
 1736 Fit      -0.000853
 1737 Fit       0.000393
 1738 Fit      -0.000801
 1739 Fit      -0.003539
 1740 Fit      -0.005718
 1741 Fit      -0.000814
 1742 Fit      -0.002176
 1743 Fit      -0.005142
 1744 Fit      -0.003402
 1745 Fit      -0.001829
 1746 Fit      -0.004111
 1747 Fit       0.005644
 1748 Fit       0.004846
 1749 Fit       0.006139
 1750 Fit       0.007103
 1751 Fit       0.004571
 1752 Fit       0.002314
 1753 Fit       0.003247
 1754 Fit       0.003634
 1755 Fit       0.005299
 1756 Fit       0.008328
 1757 Fit       0.008964
 1758 Fit       0.004845
 1759 Fit       0.000042
 1760 Fit      -0.005887
 1761 Fit      -0.007782
 1762 Fit      -0.004649
 1763 Fit      -0.010859
 1764 Fit      -0.013219
 1765 Fit      -0.011753
 1766 Fit      -0.006611
 1767 Fit      -0.011265
 1768 Fit      -0.014875
 1769 Fit      -0.016682
 1770 Fit      -0.015639
 1771 Fit      -0.011484
 1772 Fit      -0.005359
 1773 Fit      -0.007557
 1774 Fit      -0.015166
 1775 Fit      -0.017633
 1776 Fit      -0.018171
 1777 Fit      -0.015714
 1778 Fit      -0.010008
 1779 Fit      -0.010321
 1780 Fit      -0.010817
 1781 Fit      -0.012438
 1782 Fit      -0.017781
 1783 Fit      -0.018788
 1784 Fit      -0.017715
 1785 Fit      -0.013750
 1786 Fit      -0.007225
 1787 Fit      -0.020802
 1788 Fit      -0.017524
 1789 Fit      -0.016138
 1790 Fit      -0.016397
 1791 Fit      -0.019609
 1792 Fit      -0.018957
 1793 Fit      -0.016418
 1794 Fit      -0.012570
 1795 Fit      -0.025618
 1796 Fit      -0.021664
 1797 Fit      -0.019929
 1798 Fit      -0.021246
 1799 Fit      -0.019080
 1800 Fit      -0.019985
 1801 Fit      -0.029500
 1802 Fit      -0.024092
 1803 Fit      -0.023796
 1804 Fit       0.000142
 1805 Fit       0.005824
 1806 Fit       0.009469
 1807 Fit       0.007951
 1808 Fit       0.009252
 1809 Fit       0.009149
 1810 Fit       0.003470
 1811 Fit       0.005845
 1812 Fit       0.008299
 1813 Fit       0.010319
 1814 Fit       0.000804
 1815 Fit       0.004973
 1816 Fit       0.008572
 1817 Fit       0.012019
 1818 Fit      -0.002097
 1819 Fit       0.003929
 1820 Fit      -0.003014
 1821 Fit       0.002505
 1822 Fit      -0.001399
 1823 Fit      -0.004190
 1824 Fit       0.004492
 1825 Fit       0.008066
 1826 Fit       0.004474
 1827 Fit       0.003109
 1828 Fit       0.003057
 1829 Fit       0.010018
 1830 Fit       0.007660
 1831 Fit       0.012489
 1832 Fit       0.012264
 1833 Fit       0.010507
 1834 Fit       0.006625
 1835 Fit       0.015238
 1836 Fit      -0.001989
 1837 Fit       0.000691
 1838 Fit       0.000387
 1839 Fit      -0.002361
 1840 Fit       0.001338
 1841 Fit      -0.004693
 1842 Fit      -0.003528
 1843 Fit      -0.008312
 1844 Fit      -0.008858
 1845 Fit      -0.008806
 1846 Fit      -0.011458
 1847 Fit      -0.011759
 1848 Fit      -0.008224
 1849 Fit      -0.011829
 1850 Fit      -0.013694
 1851 Fit      -0.014764
 1852 Fit      -0.016560
 1853 Fit      -0.020955
 1854 Fit      -0.009847
 1855 Fit      -0.013433
 1856 Fit      -0.016182
 1857 Fit      -0.019480
 1858 Fit      -0.024226
 1859 Fit      -0.029121
 1860 Fit      -0.022095
 1861 Fit      -0.015319
 1862 Fit      -0.011039
 1863 Fit      -0.015239
 1864 Fit      -0.019156
 1865 Fit      -0.022418
 1866 Fit      -0.015753
 1867 Fit      -0.010315
 1868 Fit      -0.015386
 1869 Fit      -0.009975
 1870 Fit      -0.002534
 1871 Fit       0.010464
 1872 Fit       0.005691
 1873 Fit       0.006545
 1874 Fit       0.001576
 1875 Fit       0.005499
 1876 Fit       0.002223
 1877 Fit      -0.002773
 1878 Fit      -0.000445
 1879 Fit      -0.002728
 1880 Fit      -0.006553
 1881 Fit      -0.003346
 1882 Fit      -0.004007
 1883 Fit      -0.005276
 1884 Fit      -0.003501
 1885 Fit      -0.005102
 1886 Fit      -0.004400
 1887 Fit      -0.007798
 1888 Fit      -0.004340
 1889 Fit      -0.005204
 1890 Fit      -0.005969
 1891 Fit      -0.003400
 1892 Fit      -0.005740
 1893 Fit       0.000205
 1894 Fit      -0.002245
 1895 Fit      -0.008650
 1896 Fit      -0.005489
 1897 Fit      -0.016155
 1898 Fit      -0.006652
 1899 Fit      -0.006013
 1900 Fit      -0.011119
 1901 Fit      -0.009833
 1902 Fit      -0.005484
 1903 Fit      -0.005279
 1904 Fit      -0.005943
 1905 Fit      -0.005920
 1906 Fit      -0.003002
 1907 Fit      -0.007338
 1908 Fit      -0.010393
 1909 Fit      -0.010498
 1910 Fit      -0.006366
 1911 Fit      -0.009140
 1912 Fit      -0.009017
 1913 Fit      -0.011185
 1914 Fit      -0.014261
 1915 Fit      -0.014548
 1916 Fit      -0.012325
 1917 Fit      -0.009025
 1918 Fit      -0.005747
 1919 Fit      -0.003604
 1920 Fit      -0.004145
 1921 Fit      -0.007402
 1922 Fit      -0.011217
 1923 Fit      -0.013350
 1924 Fit      -0.012123
 1925 Fit      -0.008470
 1926 Fit      -0.013328
 1927 Fit      -0.016000
 1928 Fit      -0.015852
 1929 Fit      -0.013580
 1930 Fit      -0.010846
 1931 Fit      -0.009425
 1932 Fit      -0.010380
 1933 Fit      -0.013001
 1934 Fit      -0.015097
 1935 Fit      -0.014573
 1936 Fit      -0.010789
 1937 Fit      -0.010891
 1938 Fit      -0.014504
 1939 Fit      -0.016062
 1940 Fit      -0.015195
 1941 Fit      -0.013674
 1942 Fit      -0.013520
 1943 Fit      -0.014838
 1944 Fit      -0.015542
 1945 Fit      -0.013790
 1946 Fit      -0.010502
 1947 Fit      -0.008084
 1948 Fit      -0.007914
 1949 Fit      -0.012859
 1950 Fit      -0.015127
 1951 Fit      -0.015086
 1952 Fit      -0.015149
 1953 Fit      -0.014065
 1954 Fit      -0.011810
 1955 Fit      -0.014351
 1956 Fit       0.008870
 1957 Fit       0.008212
 1958 Fit       0.007392
 1959 Fit       0.004681
 1960 Fit      -0.001995
 1961 Fit       0.007636
 1962 Fit       0.007168
 1963 Fit       0.005757
 1964 Fit       0.006325
 1965 Fit       0.006150
 1966 Fit       0.005241
 1967 Fit       0.003881
 1968 Fit       0.003955
 1969 Fit       0.004704
 1970 Fit       0.004497
 1971 Fit       0.003117
 1972 Fit       0.000370
 1973 Fit       0.000452
 1974 Fit       0.001842
 1975 Fit       0.001050
 1976 Fit      -0.002511
 1977 Fit       0.011427
 1978 Fit       0.009882
 1979 Fit       0.011309
 1980 Fit       0.014133
 1981 Fit       0.008289
 1982 Fit       0.008211
 1983 Fit       0.009523
 1984 Fit       0.005997
 1985 Fit       0.005776
 1986 Fit       0.006988
 1987 Fit       0.001419
 1988 Fit       0.001528
 1989 Fit       0.006883
 1990 Fit       0.008912
 1991 Fit       0.004429
 1992 Fit       0.010901
 1993 Fit       0.012311
 1994 Fit       0.003580
 1995 Fit       0.002491
 1996 Fit       0.002780
 1997 Fit       0.001987
 1998 Fit       0.001321
 1999 Fit       0.003186
 2000 Fit      -0.000790
 2001 Fit       0.003928
 2002 Fit       0.000459
 2003 Fit       0.001222
 2004 Fit       0.001945
 2005 Fit       0.002466
 2006 Fit      -0.001841
 2007 Fit      -0.000157
 2008 Fit       0.000988
 2009 Fit       0.001648
 2010 Fit       0.002400
 2011 Fit      -0.005143
 2012 Fit      -0.002274
 2013 Fit      -0.000905
 2014 Fit      -0.000087
 2015 Fit      -0.008988
 2016 Fit       0.007518
 2017 Fit       0.006645
 2018 Fit       0.006162
 2019 Fit       0.007067
 2020 Fit       0.008075
 2021 Fit       0.008690
 2022 Fit       0.008251
 2023 Fit       0.004625
 2024 Fit       0.005584
 2025 Fit       0.006732
 2026 Fit       0.007760
 2027 Fit       0.008661
 2028 Fit       0.009844
 2029 Fit       0.003412
 2030 Fit       0.004483
 2031 Fit       0.005765
 2032 Fit       0.007079
 2033 Fit       0.008235
 2034 Fit       0.008340
 2035 Fit       0.011375
 2036 Fit       0.008121
 2037 Fit       0.005161
 2038 Fit       0.006991
 2039 Fit       0.003812
 2040 Fit       0.004889
 2041 Fit       0.001148
 Job cpu time:       0 days  0 hours 13 minutes 45.4 seconds.
 Normal termination of Gaussian 16 at Sun Jul  9 07:36:45 2023.
