 Copyright (c) 1988-2019, Gaussian, Inc.  All Rights Reserved.
  
 This is part of the Gaussian(R) 16 program.  It is based on
 the Gaussian(R) 09 system (copyright 2009, Gaussian, Inc.),
 the Gaussian(R) 03 system (copyright 2003, Gaussian, Inc.),
 the Gaussian(R) 98 system (copyright 1998, Gaussian, Inc.),
 the Gaussian(R) 94 system (copyright 1995, Gaussian, Inc.),
 the Gaussian 92(TM) system (copyright 1992, Gaussian, Inc.),
 the Gaussian 90(TM) system (copyright 1990, Gaussian, Inc.),
 the Gaussian 88(TM) system (copyright 1988, Gaussian, Inc.),
 the Gaussian 86(TM) system (copyright 1986, Carnegie Mellon
 University), and the Gaussian 82(TM) system (copyright 1983,
 Carnegie Mellon University). Gaussian is a federally registered
 trademark of Gaussian, Inc.
 Cite this work as:
 Gaussian 16, Revision C.01,
 M. J. Frisch, G. W. Trucks, H. B. Schlegel, G. E. Scuseria, 
 M. A. Robb, J. R. Cheeseman, G. Scalmani, V. Barone, 
 G. A. Petersson, H. Nakatsuji, X. Li, M. Caricato, A. V. Marenich, 
 J. Bloino, B. G. Janesko, R. Gomperts, B. Mennucci, H. P. Hratchian, 
 J. V. Ortiz, A. F. Izmaylov, J. L. Sonnenberg, D. Williams-Young, 
 F. Ding, F. Lipparini, F. Egidi, J. Goings, B. Peng, A. Petrone, 
 T. Henderson, D. Ranasinghe, V. G. Zakrzewski, J. Gao, N. Rega, 
 G. Zheng, W. Liang, M. Hada, M. Ehara, K. Toyota, R. Fukuda, 
 J. Hasegawa, M. Ishida, T. Nakajima, Y. Honda, O. Kitao, H. Nakai, 
 T. Vreven, K. Throssell, J. A. Montgomery, Jr., J. E. Peralta, 
 F. Ogliaro, M. J. Bearpark, J. J. Heyd, E. N. Brothers, K. N. Kudin, 
 V. N. Staroverov, T. A. Keith, R. Kobayashi, J. Normand, 
 K. Raghavachari, A. P. Rendell, J. C. Burant, S. S. Iyengar, 
 J. Tomasi, M. Cossi, J. M. Millam, M. Klene, C. Adamo, R. Cammi, 
 J. W. Ochterski, R. L. Martin, K. Morokuma, O. Farkas, 
 J. B. Foresman, and D. J. Fox, Gaussian, Inc., Wallingford CT, 2019.
 
 ******************************************
 Gaussian 16:  EM64L-G16RevC.01  3-Jul-2019
                 9-Jul-2023 
 ******************************************
 ----------------------------------------------------------------------
 #P B3LYP/6-31G(d) Integral=Ultrafine SCF(Conver=8,XQC,MaxConventionalC
 ycles=64,MaxCycle=128) NoSymm Test Pop=mk IOp(6/33=2) GFInput GFPrint
 ----------------------------------------------------------------------
 1/38=1,172=1/1;
 2/12=2,15=1,17=6,18=5,40=1/2;
 3/5=1,6=6,7=1,11=2,24=110,25=1,30=1,74=-5,75=-5/1,2,3;
 4//1;
 5/5=2,6=8,7=128,8=3,13=1,38=5,85=64/2,8;
 6/7=2,8=2,9=2,10=2,15=8,20=1,28=1,33=2/1,2;
 99/5=1,9=1/99;
 -------------------------------------------------
 MEP step - Input generated by PyRED DVE-DMDS-OPLS
 -------------------------------------------------
 Symbolic Z-matrix:
 Charge =  0 Multiplicity = 1
 C                     3.07252  -1.51655  -5.09736 
 H                     4.07126  -1.08519  -5.23061 
 H                     2.73669  -1.88447  -6.07442 
 H                     2.39421  -0.7191   -4.77597 
 C                     3.07799  -2.65499  -4.07826 
 H                     2.07793  -3.0963   -4.00827 
 H                     3.76615  -3.45262  -4.40249 
 O                     3.39511  -2.24617  -2.75396 
 C                     4.76561  -1.97728  -2.49644 
 H                     5.40066  -2.31591  -3.32839 
 H                     5.05347  -2.54275  -1.60072 
 C                     5.02495  -0.49944  -2.23871 
 H                     6.11306  -0.32687  -2.15078 
 H                     4.65733   0.10412  -3.0836 
 O                     4.36148  -0.13719  -1.0455 
 C                     4.31864   1.25526  -0.796 
 H                     3.97385   1.79865  -1.69076 
 H                     5.32177   1.63789  -0.53466 
 C                     3.35571   1.52126   0.3525 
 H                     3.45388   2.56746   0.66313 
 H                     3.62006   0.88368   1.20941 
 O                     1.99355   1.34438   0. 
 C                     1.52321   0.        0. 
 H                     1.89949  -0.52959   0.88766 
 H                     1.88922  -0.5366   -0.88518 
 C                     0.        0.        0. 
 H                    -0.34352  -1.02678  -0.16596 
 H                    -0.38114   0.60864  -0.82743 
 S                    -0.8008    0.55618   1.5658 
 C                    -1.32301   2.27321   1.1725 
 H                    -1.81374   2.26342   0.19033 
 H                    -2.09167   2.49894   1.91821 
 C                    -0.22353   3.3383    1.18159 
 H                    -0.63203   4.29398   0.82833 
 H                     0.57788   3.03811   0.50414 
 S                     0.56986   3.63541   2.8193 
 C                    -0.22824   5.21012   3.34225 
 H                    -0.1472    5.93771   2.52739 
 H                     0.38998   5.57953   4.16608 
 C                    -1.67582   5.05875   3.81159 
 H                    -2.31644   4.66477   3.01639 
 H                    -1.72762   4.35158   4.6446 
 S                    -2.40667   6.62219   4.45546 
 C                    -2.78788   7.53446   2.90202 
 H                    -2.97849   8.56009   3.23541 
 H                    -1.89012   7.56975   2.27515 
 C                    -3.98651   6.99566   2.12182 
 H                    -4.89069   7.00494   2.73819 
 H                    -4.16815   7.61107   1.2314 
 H                    -3.82159   5.96687   1.78344 
 
 ITRead=  0  0  0  0  0  0  0  0  0  0  0  0  0  0  0  0  0  0  0  0
 ITRead=  0  0  0  0  0  0  0  0  0  0  0  0  0  0  0  0  0  0  0  0
 ITRead=  0  0  0  0  0  0  0  0  0  0
 MicOpt= -1 -1 -1 -1 -1 -1 -1 -1 -1 -1 -1 -1 -1 -1 -1 -1 -1 -1 -1 -1
 MicOpt= -1 -1 -1 -1 -1 -1 -1 -1 -1 -1 -1 -1 -1 -1 -1 -1 -1 -1 -1 -1
 MicOpt= -1 -1 -1 -1 -1 -1 -1 -1 -1 -1
 NAtoms=     50 NQM=       50 NQMF=       0 NMMI=      0 NMMIF=      0
                NMic=       0 NMicF=      0.
                          Input orientation:                          
 ---------------------------------------------------------------------
 Center     Atomic      Atomic             Coordinates (Angstroms)
 Number     Number       Type             X           Y           Z
 ---------------------------------------------------------------------
      1          6           0        3.072518   -1.516549   -5.097357
      2          1           0        4.071256   -1.085186   -5.230607
      3          1           0        2.736689   -1.884470   -6.074418
      4          1           0        2.394211   -0.719098   -4.775972
      5          6           0        3.077988   -2.654988   -4.078258
      6          1           0        2.077931   -3.096296   -4.008268
      7          1           0        3.766153   -3.452623   -4.402491
      8          8           0        3.395113   -2.246170   -2.753959
      9          6           0        4.765608   -1.977282   -2.496441
     10          1           0        5.400660   -2.315906   -3.328392
     11          1           0        5.053465   -2.542746   -1.600721
     12          6           0        5.024953   -0.499439   -2.238706
     13          1           0        6.113056   -0.326867   -2.150783
     14          1           0        4.657334    0.104120   -3.083603
     15          8           0        4.361477   -0.137193   -1.045496
     16          6           0        4.318643    1.255264   -0.795998
     17          1           0        3.973851    1.798650   -1.690763
     18          1           0        5.321767    1.637891   -0.534664
     19          6           0        3.355710    1.521262    0.352502
     20          1           0        3.453878    2.567463    0.663132
     21          1           0        3.620055    0.883680    1.209405
     22          8           0        1.993547    1.344376    0.000000
     23          6           0        1.523212    0.000000    0.000000
     24          1           0        1.899487   -0.529590    0.887656
     25          1           0        1.889215   -0.536601   -0.885177
     26          6           0        0.000000    0.000000    0.000000
     27          1           0       -0.343521   -1.026782   -0.165959
     28          1           0       -0.381136    0.608635   -0.827431
     29         16           0       -0.800796    0.556182    1.565796
     30          6           0       -1.323005    2.273214    1.172503
     31          1           0       -1.813735    2.263418    0.190331
     32          1           0       -2.091668    2.498943    1.918213
     33          6           0       -0.223528    3.338295    1.181586
     34          1           0       -0.632032    4.293981    0.828333
     35          1           0        0.577881    3.038108    0.504137
     36         16           0        0.569857    3.635412    2.819298
     37          6           0       -0.228239    5.210118    3.342248
     38          1           0       -0.147201    5.937712    2.527391
     39          1           0        0.389981    5.579529    4.166083
     40          6           0       -1.675819    5.058746    3.811591
     41          1           0       -2.316437    4.664773    3.016389
     42          1           0       -1.727624    4.351584    4.644595
     43         16           0       -2.406674    6.622190    4.455455
     44          6           0       -2.787882    7.534455    2.902015
     45          1           0       -2.978487    8.560086    3.235413
     46          1           0       -1.890118    7.569747    2.275154
     47          6           0       -3.986513    6.995662    2.121817
     48          1           0       -4.890689    7.004942    2.738188
     49          1           0       -4.168148    7.611073    1.231398
     50          1           0       -3.821594    5.966866    1.783442
 ---------------------------------------------------------------------
 Stoichiometry    C14H30O3S3
 Framework group  C1[X(C14H30O3S3)]
 Standard basis: 6-31G(d) (6D, 7F)
   372 basis functions,   752 primitive gaussians,   372 cartesian basis functions
    93 alpha electrons       93 beta electrons
 Requested convergence on RMS density matrix=1.00D-08 within  64 cycles.
 Requested convergence on MAX density matrix=1.00D-06.
 Requested convergence on             energy=1.00D-06.
 SCF Done:  E(RB3LYP) =  -1971.75294666     A.U. after   13 cycles
            NFock= 13  Conv=0.45D-08     -V/T= 2.0058
 Mulliken charges:
     1  C   -0.458028
     2  H    0.145356
     3  H    0.144815
     4  H    0.159000
     5  C   -0.023591
     6  H    0.147542
     7  H    0.123901
     8  O   -0.460166
     9  C   -0.040139
    10  H    0.123635
    11  H    0.153295
    12  C   -0.011897
    13  H    0.114683
    14  H    0.126560
    15  O   -0.466977
    16  C   -0.018361
    17  H    0.128170
    18  H    0.117044
    19  C   -0.041704
    20  H    0.152943
    21  H    0.143529
    22  O   -0.475103
    23  C   -0.009716
    24  H    0.136464
    25  H    0.167370
    26  C   -0.441463
    27  H    0.176289
    28  H    0.169913
    29  S    0.097401
    30  C   -0.405667
    31  H    0.163418
    32  H    0.178474
    33  C   -0.426262
    34  H    0.152911
    35  H    0.221423
    36  S    0.097594
    37  C   -0.413222
    38  H    0.167753
    39  H    0.188518
    40  C   -0.413306
    41  H    0.173392
    42  H    0.192270
    43  S    0.078927
    44  C   -0.410104
    45  H    0.177335
    46  H    0.166796
    47  C   -0.434207
    48  H    0.165976
    49  H    0.147810
    50  H    0.149404
 Sum of Mulliken charges =  -0.00000
 Dipole moment (field-independent basis, Debye):
    X=              1.9619    Y=              0.2768    Z=             -5.8132  Tot=              6.1416
 Quadrupole moment (field-independent basis, Debye-Ang):
   XX=           -131.4816   YY=           -139.0370   ZZ=           -154.1519
   XY=             -5.1195   XZ=             -5.5160   YZ=             -8.5629
 Traceless Quadrupole moment (field-independent basis, Debye-Ang):
   XX=             10.0752   YY=              2.5199   ZZ=            -12.5951
   XY=             -5.1195   XZ=             -5.5160   YZ=             -8.5629
 Octapole moment (field-independent basis, Debye-Ang**2):
  XXX=           -238.3327  YYY=           -886.1152  ZZZ=           -396.0199  XYY=           -132.5072
  XXY=           -310.9295  XXZ=           -154.6451  XZZ=            -43.0443  YZZ=           -426.3453
  YYZ=           -174.1790  XYZ=             35.2258
 Hexadecapole moment (field-independent basis, Debye-Ang**3):
 XXXX=          -6541.9370 YYYY=         -12155.4216 ZZZZ=          -6956.1863 XXXY=           2161.4881
 XXXZ=           2024.8193 YYYX=           1936.5144 YYYZ=          -4160.0514 ZZZX=           2279.7254
 ZZZY=          -4138.8279 XXYY=          -3161.9450 XXZZ=          -2240.9923 YYZZ=          -3790.4021
 XXYZ=          -1252.7833 YYXZ=            836.4635 ZZXY=            872.0166
 Merz-Kollman atomic radii used.
 Atom Element Radius
    1     6    1.50
    2     1    1.20
    3     1    1.20
    4     1    1.20
    5     6    1.50
    6     1    1.20
    7     1    1.20
    8     8    1.40
    9     6    1.50
   10     1    1.20
   11     1    1.20
   12     6    1.50
   13     1    1.20
   14     1    1.20
   15     8    1.40
   16     6    1.50
   17     1    1.20
   18     1    1.20
   19     6    1.50
   20     1    1.20
   21     1    1.20
   22     8    1.40
   23     6    1.50
   24     1    1.20
   25     1    1.20
   26     6    1.50
   27     1    1.20
   28     1    1.20
   29    16    1.75
   30     6    1.50
   31     1    1.20
   32     1    1.20
   33     6    1.50
   34     1    1.20
   35     1    1.20
   36    16    1.75
   37     6    1.50
   38     1    1.20
   39     1    1.20
   40     6    1.50
   41     1    1.20
   42     1    1.20
   43    16    1.75
   44     6    1.50
   45     1    1.20
   46     1    1.20
   47     6    1.50
   48     1    1.20
   49     1    1.20
   50     1    1.20
 Generate VDW surfaces: Layer= 4 Dens= 1 Start= 1.400 Inc= 0.200
            Electrostatic Properties Using The SCF Density.


       Atomic Center    1 is at   3.072518 -1.516549 -5.097357
       Atomic Center    2 is at   4.071256 -1.085186 -5.230607
       Atomic Center    3 is at   2.736689 -1.884470 -6.074418
       Atomic Center    4 is at   2.394211 -0.719098 -4.775972
       Atomic Center    5 is at   3.077988 -2.654988 -4.078258
       Atomic Center    6 is at   2.077931 -3.096296 -4.008268
       Atomic Center    7 is at   3.766153 -3.452623 -4.402491
       Atomic Center    8 is at   3.395113 -2.246170 -2.753959
       Atomic Center    9 is at   4.765608 -1.977282 -2.496441
       Atomic Center   10 is at   5.400660 -2.315906 -3.328392
       Atomic Center   11 is at   5.053465 -2.542746 -1.600721
       Atomic Center   12 is at   5.024953 -0.499439 -2.238706
       Atomic Center   13 is at   6.113056 -0.326867 -2.150783
       Atomic Center   14 is at   4.657334  0.104120 -3.083603
       Atomic Center   15 is at   4.361477 -0.137193 -1.045496
       Atomic Center   16 is at   4.318643  1.255264 -0.795998
       Atomic Center   17 is at   3.973851  1.798650 -1.690763
       Atomic Center   18 is at   5.321767  1.637891 -0.534664
       Atomic Center   19 is at   3.355710  1.521262  0.352502
       Atomic Center   20 is at   3.453878  2.567463  0.663132
       Atomic Center   21 is at   3.620055  0.883680  1.209405
       Atomic Center   22 is at   1.993547  1.344376  0.000000
       Atomic Center   23 is at   1.523212  0.000000  0.000000
       Atomic Center   24 is at   1.899487 -0.529590  0.887656
       Atomic Center   25 is at   1.889215 -0.536601 -0.885177
       Atomic Center   26 is at   0.000000  0.000000  0.000000
       Atomic Center   27 is at  -0.343521 -1.026782 -0.165959
       Atomic Center   28 is at  -0.381136  0.608635 -0.827431
       Atomic Center   29 is at  -0.800796  0.556182  1.565796
       Atomic Center   30 is at  -1.323005  2.273214  1.172503
       Atomic Center   31 is at  -1.813735  2.263418  0.190331
       Atomic Center   32 is at  -2.091668  2.498943  1.918213
       Atomic Center   33 is at  -0.223528  3.338295  1.181586
       Atomic Center   34 is at  -0.632032  4.293981  0.828333
       Atomic Center   35 is at   0.577881  3.038108  0.504137
       Atomic Center   36 is at   0.569857  3.635412  2.819298
       Atomic Center   37 is at  -0.228239  5.210118  3.342248
       Atomic Center   38 is at  -0.147201  5.937712  2.527391
       Atomic Center   39 is at   0.389981  5.579529  4.166083
       Atomic Center   40 is at  -1.675819  5.058746  3.811591
       Atomic Center   41 is at  -2.316437  4.664773  3.016389
       Atomic Center   42 is at  -1.727624  4.351584  4.644595
       Atomic Center   43 is at  -2.406674  6.622190  4.455455
       Atomic Center   44 is at  -2.787882  7.534455  2.902015
       Atomic Center   45 is at  -2.978487  8.560086  3.235413
       Atomic Center   46 is at  -1.890118  7.569747  2.275154
       Atomic Center   47 is at  -3.986513  6.995662  2.121817
       Atomic Center   48 is at  -4.890689  7.004942  2.738188
       Atomic Center   49 is at  -4.168148  7.611073  1.231398
       Atomic Center   50 is at  -3.821594  5.966866  1.783442
      ESP Fit Center   51 is at   1.033540 -2.019112 -5.097357
      ESP Fit Center   52 is at   2.813697  0.283593 -6.147357
      ESP Fit Center   53 is at   3.828014 -3.170854 -6.147357
      ESP Fit Center   54 is at   4.602467 -2.499787 -6.147357
      ESP Fit Center   55 is at   3.597518 -0.607222 -6.916010
      ESP Fit Center   56 is at   5.669031 -1.085186 -4.711458
      ESP Fit Center   57 is at   5.295223 -0.058156 -4.711458
      ESP Fit Center   58 is at   4.348707  0.488315 -4.711458
      ESP Fit Center   59 is at   5.669031 -1.085186 -5.749756
      ESP Fit Center   60 is at   5.295223 -0.058156 -5.749756
      ESP Fit Center   61 is at   4.348707  0.488315 -5.749756
      ESP Fit Center   62 is at   5.295223 -2.112216 -5.749756
      ESP Fit Center   63 is at   5.058735 -1.085186 -6.589756
      ESP Fit Center   64 is at   4.376404 -0.146037 -6.589756
      ESP Fit Center   65 is at   4.071256 -1.085186 -6.910607
      ESP Fit Center   66 is at   1.235272 -2.430941 -5.555269
      ESP Fit Center   67 is at   1.937802 -0.500756 -6.593567
      ESP Fit Center   68 is at   1.235272 -1.337999 -6.593567
      ESP Fit Center   69 is at   1.235272 -2.430941 -6.593567
      ESP Fit Center   70 is at   1.937802 -3.268184 -6.593567
      ESP Fit Center   71 is at   3.014140 -3.457971 -6.593567
      ESP Fit Center   72 is at   3.960656 -2.911500 -6.593567
      ESP Fit Center   73 is at   3.724168 -1.884470 -7.433567
      ESP Fit Center   74 is at   3.041837 -0.945321 -7.433567
      ESP Fit Center   75 is at   1.937802 -1.304044 -7.433567
      ESP Fit Center   76 is at   1.937802 -2.464896 -7.433567
      ESP Fit Center   77 is at   3.041837 -2.823619 -7.433567
      ESP Fit Center   78 is at   2.736689 -1.884470 -7.754418
      ESP Fit Center   79 is at   2.699359  0.220051 -3.416823
      ESP Fit Center   80 is at   1.595324 -0.138672 -3.416823
      ESP Fit Center   81 is at   1.595324 -1.299524 -3.416823
      ESP Fit Center   82 is at   2.671662  0.854403 -4.256823
      ESP Fit Center   83 is at   1.595324  0.664616 -4.256823
      ESP Fit Center   84 is at   0.892794 -0.172627 -4.256823
      ESP Fit Center   85 is at   0.892794 -1.265569 -4.256823
      ESP Fit Center   86 is at   2.671662  0.854403 -5.295121
      ESP Fit Center   87 is at   1.595324  0.664616 -5.295121
      ESP Fit Center   88 is at   0.892794 -0.172627 -5.295121
      ESP Fit Center   89 is at   0.892794 -1.265569 -5.295121
      ESP Fit Center   90 is at   1.595324 -0.138672 -6.135121
      ESP Fit Center   91 is at   2.819167 -4.455130 -3.028258
      ESP Fit Center   92 is at   2.552988 -3.564315 -5.896911
      ESP Fit Center   93 is at   1.279044 -2.515870 -2.649119
      ESP Fit Center   94 is at   1.279044 -3.676722 -2.649119
      ESP Fit Center   95 is at   2.383079 -4.035445 -2.649119
      ESP Fit Center   96 is at   1.279044 -1.712582 -3.489119
      ESP Fit Center   97 is at   0.576514 -2.549825 -3.489119
      ESP Fit Center   98 is at   0.576514 -3.642767 -3.489119
      ESP Fit Center   99 is at   1.279044 -4.480010 -3.489119
      ESP Fit Center  100 is at   2.355382 -4.669797 -3.489119
      ESP Fit Center  101 is at   0.576514 -2.549825 -4.527417
      ESP Fit Center  102 is at   0.576514 -3.642767 -4.527417
      ESP Fit Center  103 is at   1.279044 -4.480010 -4.527417
      ESP Fit Center  104 is at   2.355382 -4.669797 -4.527417
      ESP Fit Center  105 is at   1.279044 -3.676722 -5.367417
      ESP Fit Center  106 is at   4.071301 -4.391772 -3.043342
      ESP Fit Center  107 is at   2.967266 -4.836337 -3.883342
      ESP Fit Center  108 is at   4.043604 -5.026124 -3.883342
      ESP Fit Center  109 is at   4.990120 -4.479653 -3.883342
      ESP Fit Center  110 is at   5.363928 -3.452623 -4.921640
      ESP Fit Center  111 is at   2.967266 -4.836337 -4.921640
      ESP Fit Center  112 is at   4.043604 -5.026124 -4.921640
      ESP Fit Center  113 is at   4.990120 -4.479653 -4.921640
      ESP Fit Center  114 is at   4.753632 -3.452623 -5.761640
      ESP Fit Center  115 is at   2.967266 -4.033049 -5.761640
      ESP Fit Center  116 is at   4.071301 -4.391772 -5.761640
      ESP Fit Center  117 is at   3.766153 -3.452623 -6.082491
      ESP Fit Center  118 is at   3.395113 -2.246170 -0.793959
      ESP Fit Center  119 is at   2.415113 -2.246170 -1.056549
      ESP Fit Center  120 is at   2.905113 -3.094875 -1.056549
      ESP Fit Center  121 is at   1.697703 -2.246170 -1.773959
      ESP Fit Center  122 is at   2.021880 -3.243882 -1.773959
      ESP Fit Center  123 is at   2.870585 -3.860503 -1.773959
      ESP Fit Center  124 is at   3.919641 -3.860503 -1.773959
      ESP Fit Center  125 is at   2.415113 -0.548760 -2.753959
      ESP Fit Center  126 is at   1.697703 -1.266170 -2.753959
      ESP Fit Center  127 is at   3.715608 -1.977282 -0.677788
      ESP Fit Center  128 is at   6.865608 -1.977282 -2.496441
      ESP Fit Center  129 is at   5.018735 -4.061971 -2.496441
      ESP Fit Center  130 is at   5.958544 -3.705548 -2.496441
      ESP Fit Center  131 is at   6.998435 -2.315906 -2.809243
      ESP Fit Center  132 is at   5.678111 -3.889407 -2.809243
      ESP Fit Center  133 is at   6.624627 -3.342936 -2.809243
      ESP Fit Center  134 is at   6.998435 -2.315906 -3.847541
      ESP Fit Center  135 is at   6.624627 -1.288876 -3.847541
      ESP Fit Center  136 is at   5.678111 -3.889407 -3.847541
      ESP Fit Center  137 is at   6.624627 -3.342936 -3.847541
      ESP Fit Center  138 is at   6.388139 -2.315906 -4.687541
      ESP Fit Center  139 is at   5.705808 -1.376757 -4.687541
      ESP Fit Center  140 is at   5.705808 -3.255055 -4.687541
      ESP Fit Center  141 is at   5.400660 -2.315906 -5.008392
      ESP Fit Center  142 is at   5.053465 -2.542746  0.079279
      ESP Fit Center  143 is at   6.040944 -2.542746 -0.241572
      ESP Fit Center  144 is at   4.254578 -1.962320 -0.241572
      ESP Fit Center  145 is at   4.254578 -3.123172 -0.241572
      ESP Fit Center  146 is at   5.358613 -3.481895 -0.241572
      ESP Fit Center  147 is at   6.651240 -2.542746 -1.081572
      ESP Fit Center  148 is at   4.254578 -3.926460 -1.081572
      ESP Fit Center  149 is at   5.330916 -4.116247 -1.081572
      ESP Fit Center  150 is at   6.277432 -3.569776 -1.081572
      ESP Fit Center  151 is at   5.330916 -4.116247 -2.119870
      ESP Fit Center  152 is at   6.277432 -3.569776 -2.119870
      ESP Fit Center  153 is at   6.074953 -0.499439 -4.057359
      ESP Fit Center  154 is at   7.100535 -0.326867 -0.791634
      ESP Fit Center  155 is at   6.418204 -1.266016 -0.791634
      ESP Fit Center  156 is at   7.710831 -0.326867 -1.631634
      ESP Fit Center  157 is at   7.337023  0.700163 -1.631634
      ESP Fit Center  158 is at   7.337023 -1.353897 -1.631634
      ESP Fit Center  159 is at   7.710831 -0.326867 -2.669932
      ESP Fit Center  160 is at   7.337023  0.700163 -2.669932
      ESP Fit Center  161 is at   6.390507  1.246634 -2.669932
      ESP Fit Center  162 is at   7.337023 -1.353897 -2.669932
      ESP Fit Center  163 is at   7.100535 -0.326867 -3.509932
      ESP Fit Center  164 is at   6.418204  0.612282 -3.509932
      ESP Fit Center  165 is at   5.881301  1.131150 -3.602752
      ESP Fit Center  166 is at   4.934785  1.677621 -3.602752
      ESP Fit Center  167 is at   3.858447  1.487834 -3.602752
      ESP Fit Center  168 is at   3.155917  0.650591 -3.602752
      ESP Fit Center  169 is at   5.644813  0.104120 -4.442752
      ESP Fit Center  170 is at   4.962482  1.043269 -4.442752
      ESP Fit Center  171 is at   3.858447  0.684546 -4.442752
      ESP Fit Center  172 is at   5.341477 -0.137193  0.651914
      ESP Fit Center  173 is at   3.871477 -0.985898  0.651914
      ESP Fit Center  174 is at   4.851477 -0.985898  0.651914
      ESP Fit Center  175 is at   6.058887 -0.137193 -0.065496
      ESP Fit Center  176 is at   3.836949 -1.751526 -0.065496
      ESP Fit Center  177 is at   4.886005 -1.751526 -0.065496
      ESP Fit Center  178 is at   5.734710 -1.134905 -0.065496
      ESP Fit Center  179 is at   4.571770  3.339953 -0.795998
      ESP Fit Center  180 is at   2.573658  0.742890 -1.845998
      ESP Fit Center  181 is at   4.251302  3.372151 -1.171614
      ESP Fit Center  182 is at   3.174964  3.182364 -1.171614
      ESP Fit Center  183 is at   5.197818  2.825680 -2.209912
      ESP Fit Center  184 is at   4.251302  3.372151 -2.209912
      ESP Fit Center  185 is at   3.174964  3.182364 -2.209912
      ESP Fit Center  186 is at   2.472434  2.345121 -2.209912
      ESP Fit Center  187 is at   2.472434  1.252179 -2.209912
      ESP Fit Center  188 is at   4.961330  1.798650 -3.049912
      ESP Fit Center  189 is at   4.278999  2.737799 -3.049912
      ESP Fit Center  190 is at   3.174964  2.379076 -3.049912
      ESP Fit Center  191 is at   3.174964  1.218224 -3.049912
      ESP Fit Center  192 is at   3.973851  1.798650 -3.370763
      ESP Fit Center  193 is at   5.321767  1.637891  1.145336
      ESP Fit Center  194 is at   6.309246  1.637891  0.824485
      ESP Fit Center  195 is at   5.626915  2.577040  0.824485
      ESP Fit Center  196 is at   5.626915  0.698742  0.824485
      ESP Fit Center  197 is at   6.919542  1.637891 -0.015515
      ESP Fit Center  198 is at   6.545734  2.664921 -0.015515
      ESP Fit Center  199 is at   5.599218  3.211392 -0.015515
      ESP Fit Center  200 is at   6.545734  0.610861 -0.015515
      ESP Fit Center  201 is at   6.919542  1.637891 -1.053813
      ESP Fit Center  202 is at   6.545734  2.664921 -1.053813
      ESP Fit Center  203 is at   5.599218  3.211392 -1.053813
      ESP Fit Center  204 is at   6.309246  1.637891 -1.893813
      ESP Fit Center  205 is at   5.626915  2.577040 -1.893813
      ESP Fit Center  206 is at   2.305710  1.521262  2.171155
      ESP Fit Center  207 is at   5.174363  1.521262  1.402502
      ESP Fit Center  208 is at   3.453878  2.567463  2.343132
      ESP Fit Center  209 is at   4.441357  2.567463  2.022281
      ESP Fit Center  210 is at   3.759026  3.506612  2.022281
      ESP Fit Center  211 is at   5.051653  2.567463  1.182281
      ESP Fit Center  212 is at   4.677845  3.594493  1.182281
      ESP Fit Center  213 is at   3.731329  4.140964  1.182281
      ESP Fit Center  214 is at   2.654991  3.951177  1.182281
      ESP Fit Center  215 is at   4.677845  3.594493  0.143983
      ESP Fit Center  216 is at   3.731329  4.140964  0.143983
      ESP Fit Center  217 is at   2.654991  3.951177  0.143983
      ESP Fit Center  218 is at   3.759026  3.506612 -0.696017
      ESP Fit Center  219 is at   3.620055  0.883680  2.889405
      ESP Fit Center  220 is at   4.607534  0.883680  2.568554
      ESP Fit Center  221 is at   3.925203  1.822829  2.568554
      ESP Fit Center  222 is at   2.821168  1.464106  2.568554
      ESP Fit Center  223 is at   2.821168  0.303254  2.568554
      ESP Fit Center  224 is at   3.925203 -0.055469  2.568554
      ESP Fit Center  225 is at   5.217830  0.883680  1.728554
      ESP Fit Center  226 is at   3.897506 -0.689821  1.728554
      ESP Fit Center  227 is at   4.844022 -0.143350  1.728554
      ESP Fit Center  228 is at   1.993547  1.344376  1.960000
      ESP Fit Center  229 is at   2.518075  2.958709 -0.980000
      ESP Fit Center  230 is at   1.469019  2.958709 -0.980000
      ESP Fit Center  231 is at   1.503547  2.193081 -1.697410
      ESP Fit Center  232 is at   1.013547  1.344376 -1.697410
      ESP Fit Center  233 is at   1.993547  1.344376 -1.960000
      ESP Fit Center  234 is at   1.776339 -2.084689  0.000000
      ESP Fit Center  235 is at   2.716148 -1.728266  0.000000
      ESP Fit Center  236 is at   0.998212  0.909327 -1.818653
      ESP Fit Center  237 is at   1.899487 -0.529590  2.567656
      ESP Fit Center  238 is at   2.886966 -0.529590  2.246805
      ESP Fit Center  239 is at   2.204635  0.409559  2.246805
      ESP Fit Center  240 is at   1.100600 -1.110016  2.246805
      ESP Fit Center  241 is at   2.204635 -1.468739  2.246805
      ESP Fit Center  242 is at   1.100600 -1.913304  1.406805
      ESP Fit Center  243 is at   2.176938 -2.103091  1.406805
      ESP Fit Center  244 is at   3.123454 -1.556620  1.406805
      ESP Fit Center  245 is at   2.176938 -2.103091  0.368507
      ESP Fit Center  246 is at   3.123454 -1.556620  0.368507
      ESP Fit Center  247 is at   2.166666 -2.110102 -0.366028
      ESP Fit Center  248 is at   3.113182 -1.563631 -0.366028
      ESP Fit Center  249 is at   1.090328 -1.920315 -1.404326
      ESP Fit Center  250 is at   2.194363  0.402548 -2.244326
      ESP Fit Center  251 is at   1.090328  0.043825 -2.244326
      ESP Fit Center  252 is at   1.090328 -1.117027 -2.244326
      ESP Fit Center  253 is at   1.889215 -0.536601 -2.565177
      ESP Fit Center  254 is at  -1.744985 -0.512374 -1.050000
      ESP Fit Center  255 is at   0.525000 -0.909327 -1.818653
      ESP Fit Center  256 is at  -0.038373 -1.965931  1.193190
      ESP Fit Center  257 is at  -1.844938 -1.573253  0.353190
      ESP Fit Center  258 is at  -1.142408 -2.410496  0.353190
      ESP Fit Center  259 is at  -0.066070 -2.600283  0.353190
      ESP Fit Center  260 is at   0.880446 -2.053812  0.353190
      ESP Fit Center  261 is at  -1.844938 -1.573253 -0.685108
      ESP Fit Center  262 is at  -1.142408 -2.410496 -0.685108
      ESP Fit Center  263 is at  -0.066070 -2.600283 -0.685108
      ESP Fit Center  264 is at   0.880446 -2.053812 -0.685108
      ESP Fit Center  265 is at  -1.142408 -1.607208 -1.525108
      ESP Fit Center  266 is at  -0.038373 -1.965931 -1.525108
      ESP Fit Center  267 is at  -0.343521 -1.026782 -1.845959
      ESP Fit Center  268 is at  -0.103685  2.182136 -1.346580
      ESP Fit Center  269 is at  -1.180023  1.992349 -1.346580
      ESP Fit Center  270 is at  -1.882553  1.155106 -1.346580
      ESP Fit Center  271 is at  -1.882553  0.062164 -1.346580
      ESP Fit Center  272 is at   0.606343  0.608635 -2.186580
      ESP Fit Center  273 is at  -0.075988  1.547784 -2.186580
      ESP Fit Center  274 is at  -1.180023  1.189061 -2.186580
      ESP Fit Center  275 is at  -1.180023  0.028209 -2.186580
      ESP Fit Center  276 is at  -0.075988 -0.330514 -2.186580
      ESP Fit Center  277 is at  -0.381136  0.608635 -2.507431
      ESP Fit Center  278 is at  -0.800796  0.556182  4.015796
      ESP Fit Center  279 is at   0.262219  0.556182  3.773170
      ESP Fit Center  280 is at  -0.269288  1.476780  3.773170
      ESP Fit Center  281 is at  -1.332304  1.476780  3.773170
      ESP Fit Center  282 is at  -1.863811  0.556182  3.773170
      ESP Fit Center  283 is at  -1.332304 -0.364416  3.773170
      ESP Fit Center  284 is at  -0.269288 -0.364416  3.773170
      ESP Fit Center  285 is at   1.114691  0.556182  3.093346
      ESP Fit Center  286 is at  -2.638692  1.095837  3.093346
      ESP Fit Center  287 is at  -2.638692  0.016527  3.093346
      ESP Fit Center  288 is at  -2.055173 -0.891447  3.093346
      ESP Fit Center  289 is at  -1.073398 -1.339808  3.093346
      ESP Fit Center  290 is at  -0.005074 -1.186206  3.093346
      ESP Fit Center  291 is at   0.810614 -0.479409  3.093346
      ESP Fit Center  292 is at  -3.189369  0.556182  2.110972
      ESP Fit Center  293 is at  -2.952826 -0.480181  2.110972
      ESP Fit Center  294 is at  -2.290047 -1.311280  2.110972
      ESP Fit Center  295 is at  -1.332304 -1.772505  2.110972
      ESP Fit Center  296 is at  -0.269288 -1.772505  2.110972
      ESP Fit Center  297 is at   0.688455 -1.311280  2.110972
      ESP Fit Center  298 is at  -3.189369  0.556182  1.020620
      ESP Fit Center  299 is at  -2.952826 -0.480181  1.020620
      ESP Fit Center  300 is at  -2.290047 -1.311280  1.020620
      ESP Fit Center  301 is at  -1.332304 -1.772505  1.020620
      ESP Fit Center  302 is at  -2.638692  0.016527  0.038246
      ESP Fit Center  303 is at  -2.055173 -0.891447  0.038246
      ESP Fit Center  304 is at  -3.315152  2.809889  0.709480
      ESP Fit Center  305 is at  -3.315152  1.716947  0.709480
      ESP Fit Center  306 is at  -2.612622  3.647132 -0.328818
      ESP Fit Center  307 is at  -3.315152  2.809889 -0.328818
      ESP Fit Center  308 is at  -3.315152  1.716947 -0.328818
      ESP Fit Center  309 is at  -2.612622  0.879704 -0.328818
      ESP Fit Center  310 is at  -0.826256  2.263418 -1.168818
      ESP Fit Center  311 is at  -1.508587  3.202567 -1.168818
      ESP Fit Center  312 is at  -2.612622  2.843844 -1.168818
      ESP Fit Center  313 is at  -2.612622  1.682992 -1.168818
      ESP Fit Center  314 is at  -1.813735  2.263418 -1.489669
      ESP Fit Center  315 is at  -2.091668  2.498943  3.598213
      ESP Fit Center  316 is at  -2.890555  3.079369  3.277362
      ESP Fit Center  317 is at  -2.890555  1.918517  3.277362
      ESP Fit Center  318 is at  -3.593085  3.045414  2.437362
      ESP Fit Center  319 is at  -3.593085  1.952472  2.437362
      ESP Fit Center  320 is at  -2.890555  3.882657  1.399064
      ESP Fit Center  321 is at  -3.593085  3.045414  1.399064
      ESP Fit Center  322 is at  -3.593085  1.952472  1.399064
      ESP Fit Center  323 is at   0.301472  4.247622 -0.637067
      ESP Fit Center  324 is at  -1.430919  5.677695  1.347482
      ESP Fit Center  325 is at  -2.133449  4.840452  1.347482
      ESP Fit Center  326 is at   0.591935  5.321011  0.309184
      ESP Fit Center  327 is at  -0.354581  5.867482  0.309184
      ESP Fit Center  328 is at  -1.430919  5.677695  0.309184
      ESP Fit Center  329 is at  -2.133449  4.840452  0.309184
      ESP Fit Center  330 is at  -0.326884  5.233130 -0.530816
      ESP Fit Center  331 is at  -1.430919  4.874407 -0.530816
      ESP Fit Center  332 is at  -0.632032  4.293981 -0.851667
      ESP Fit Center  333 is at   1.801848  4.065138 -0.015012
      ESP Fit Center  334 is at   0.883029  3.977257 -0.855012
      ESP Fit Center  335 is at  -0.221006  2.457682 -0.855012
      ESP Fit Center  336 is at   0.577881  3.038108 -1.175863
      ESP Fit Center  337 is at   0.569857  3.635412  5.269298
      ESP Fit Center  338 is at   1.632872  3.635412  5.026672
      ESP Fit Center  339 is at   0.038349  2.714814  5.026672
      ESP Fit Center  340 is at   1.101365  2.714814  5.026672
      ESP Fit Center  341 is at   2.485344  3.635412  4.346848
      ESP Fit Center  342 is at   2.181267  4.671003  4.346848
      ESP Fit Center  343 is at  -0.684520  2.187783  4.346848
      ESP Fit Center  344 is at   0.297255  1.739422  4.346848
      ESP Fit Center  345 is at   1.365579  1.893024  4.346848
      ESP Fit Center  346 is at   2.181267  2.599821  4.346848
      ESP Fit Center  347 is at   2.958430  3.635412  3.364474
      ESP Fit Center  348 is at   2.721887  4.671775  3.364474
      ESP Fit Center  349 is at   2.059108  5.502874  3.364474
      ESP Fit Center  350 is at   1.101365  1.306725  3.364474
      ESP Fit Center  351 is at   2.059108  1.767950  3.364474
      ESP Fit Center  352 is at   2.721887  2.599049  3.364474
      ESP Fit Center  353 is at   2.958430  3.635412  2.274122
      ESP Fit Center  354 is at   2.721887  4.671775  2.274122
      ESP Fit Center  355 is at   2.059108  5.502874  2.274122
      ESP Fit Center  356 is at   2.059108  1.767950  2.274122
      ESP Fit Center  357 is at   2.721887  2.599049  2.274122
      ESP Fit Center  358 is at   2.181267  4.671003  1.291748
      ESP Fit Center  359 is at   1.365579  5.377800  1.291748
      ESP Fit Center  360 is at   0.964697  6.938384  3.342248
      ESP Fit Center  361 is at   1.076766  6.964742  3.046540
      ESP Fit Center  362 is at   0.130250  7.511213  3.046540
      ESP Fit Center  363 is at   1.450574  5.937712  2.008242
      ESP Fit Center  364 is at   1.076766  6.964742  2.008242
      ESP Fit Center  365 is at   0.130250  7.511213  2.008242
      ESP Fit Center  366 is at   0.840278  5.937712  1.168242
      ESP Fit Center  367 is at   0.157947  6.876861  1.168242
      ESP Fit Center  368 is at  -0.946088  6.518138  1.168242
      ESP Fit Center  369 is at  -0.147201  5.937712  0.847391
      ESP Fit Center  370 is at   0.389981  5.579529  5.846083
      ESP Fit Center  371 is at   1.377460  5.579529  5.525232
      ESP Fit Center  372 is at   0.695129  6.518678  5.525232
      ESP Fit Center  373 is at  -0.408906  4.999103  5.525232
      ESP Fit Center  374 is at   0.695129  4.640380  5.525232
      ESP Fit Center  375 is at   1.987756  5.579529  4.685232
      ESP Fit Center  376 is at   1.613948  6.606559  4.685232
      ESP Fit Center  377 is at   0.667432  7.153030  4.685232
      ESP Fit Center  378 is at   1.987756  5.579529  3.646934
      ESP Fit Center  379 is at   1.613948  6.606559  3.646934
      ESP Fit Center  380 is at   0.667432  7.153030  3.646934
      ESP Fit Center  381 is at  -3.817854  4.118302  3.535538
      ESP Fit Center  382 is at  -3.115324  3.281059  3.535538
      ESP Fit Center  383 is at  -3.817854  4.118302  2.497240
      ESP Fit Center  384 is at  -2.011289  5.603922  1.657240
      ESP Fit Center  385 is at  -3.115324  4.084347  1.657240
      ESP Fit Center  386 is at  -2.316437  4.664773  1.336389
      ESP Fit Center  387 is at  -1.727624  4.351584  6.324595
      ESP Fit Center  388 is at  -0.740145  4.351584  6.003744
      ESP Fit Center  389 is at  -2.526511  3.771158  6.003744
      ESP Fit Center  390 is at  -1.422476  3.412435  6.003744
      ESP Fit Center  391 is at  -3.229041  3.805113  5.163744
      ESP Fit Center  392 is at  -2.526511  2.967870  5.163744
      ESP Fit Center  393 is at  -1.450173  2.778083  5.163744
      ESP Fit Center  394 is at  -0.503657  3.324554  5.163744
      ESP Fit Center  395 is at  -2.526511  2.967870  4.125446
      ESP Fit Center  396 is at  -1.450173  2.778083  4.125446
      ESP Fit Center  397 is at  -2.406674  6.622190  6.905455
      ESP Fit Center  398 is at  -1.343659  6.622190  6.662829
      ESP Fit Center  399 is at  -1.875166  7.542788  6.662829
      ESP Fit Center  400 is at  -2.938182  7.542788  6.662829
      ESP Fit Center  401 is at  -3.469689  6.622190  6.662829
      ESP Fit Center  402 is at  -2.938182  5.701592  6.662829
      ESP Fit Center  403 is at  -1.875166  5.701592  6.662829
      ESP Fit Center  404 is at  -0.491187  6.622190  5.983005
      ESP Fit Center  405 is at  -0.795264  7.657781  5.983005
      ESP Fit Center  406 is at  -1.610952  8.364578  5.983005
      ESP Fit Center  407 is at  -2.679276  8.518180  5.983005
      ESP Fit Center  408 is at  -3.661051  8.069819  5.983005
      ESP Fit Center  409 is at  -4.244570  7.161845  5.983005
      ESP Fit Center  410 is at  -4.244570  6.082535  5.983005
      ESP Fit Center  411 is at  -3.661051  5.174561  5.983005
      ESP Fit Center  412 is at  -2.679276  4.726200  5.983005
      ESP Fit Center  413 is at  -0.795264  5.586599  5.983005
      ESP Fit Center  414 is at  -0.254644  7.658553  5.000631
      ESP Fit Center  415 is at  -0.917423  8.489652  5.000631
      ESP Fit Center  416 is at  -1.875166  8.950877  5.000631
      ESP Fit Center  417 is at  -2.938182  8.950877  5.000631
      ESP Fit Center  418 is at  -3.895925  8.489652  5.000631
      ESP Fit Center  419 is at  -4.558704  7.658553  5.000631
      ESP Fit Center  420 is at  -4.795247  6.622190  5.000631
      ESP Fit Center  421 is at  -4.558704  5.585827  5.000631
      ESP Fit Center  422 is at  -3.895925  4.754728  5.000631
      ESP Fit Center  423 is at  -0.254644  7.658553  3.910279
      ESP Fit Center  424 is at  -0.917423  8.489652  3.910279
      ESP Fit Center  425 is at  -4.558704  5.585827  3.910279
      ESP Fit Center  426 is at  -3.895925  4.754728  3.910279
      ESP Fit Center  427 is at  -2.032386  5.880150  1.852015
      ESP Fit Center  428 is at  -2.673339  9.499235  4.594562
      ESP Fit Center  429 is at  -3.777374  9.140512  4.594562
      ESP Fit Center  430 is at  -1.754520  9.587116  3.754562
      ESP Fit Center  431 is at  -2.701036 10.133587  3.754562
      ESP Fit Center  432 is at  -3.777374  9.943800  3.754562
      ESP Fit Center  433 is at  -4.479904  9.106557  3.754562
      ESP Fit Center  434 is at  -1.754520  9.587116  2.716264
      ESP Fit Center  435 is at  -2.701036 10.133587  2.716264
      ESP Fit Center  436 is at  -3.777374  9.943800  2.716264
      ESP Fit Center  437 is at  -4.479904  9.106557  2.716264
      ESP Fit Center  438 is at  -2.673339  9.499235  1.876264
      ESP Fit Center  439 is at  -3.777374  9.140512  1.876264
      ESP Fit Center  440 is at  -0.666151  8.596777  2.794303
      ESP Fit Center  441 is at  -0.292343  7.569747  1.756005
      ESP Fit Center  442 is at  -0.666151  8.596777  1.756005
      ESP Fit Center  443 is at  -1.612667  9.143248  1.756005
      ESP Fit Center  444 is at  -0.902639  7.569747  0.916005
      ESP Fit Center  445 is at  -1.584970  8.508896  0.916005
      ESP Fit Center  446 is at  -1.584970  6.630598  0.916005
      ESP Fit Center  447 is at  -1.890118  7.569747  0.595154
      ESP Fit Center  448 is at  -4.731183  8.959196  2.121817
      ESP Fit Center  449 is at  -5.731498  6.483288  1.071817
      ESP Fit Center  450 is at  -4.890689  7.004942  4.418188
      ESP Fit Center  451 is at  -4.585541  7.944091  4.097337
      ESP Fit Center  452 is at  -5.689576  7.585368  4.097337
      ESP Fit Center  453 is at  -5.689576  6.424516  4.097337
      ESP Fit Center  454 is at  -5.689576  8.388656  3.257337
      ESP Fit Center  455 is at  -6.392106  7.551413  3.257337
      ESP Fit Center  456 is at  -6.392106  6.458471  3.257337
      ESP Fit Center  457 is at  -5.689576  5.621228  3.257337
      ESP Fit Center  458 is at  -5.689576  8.388656  2.219039
      ESP Fit Center  459 is at  -6.392106  7.551413  2.219039
      ESP Fit Center  460 is at  -6.392106  6.458471  2.219039
      ESP Fit Center  461 is at  -5.689576  5.621228  2.219039
      ESP Fit Center  462 is at  -3.890697  9.184574  1.750547
      ESP Fit Center  463 is at  -4.967035  8.994787  1.750547
      ESP Fit Center  464 is at  -2.944181  8.638103  0.712249
      ESP Fit Center  465 is at  -3.890697  9.184574  0.712249
      ESP Fit Center  466 is at  -4.967035  8.994787  0.712249
      ESP Fit Center  467 is at  -5.669565  8.157544  0.712249
      ESP Fit Center  468 is at  -5.669565  7.064602  0.712249
      ESP Fit Center  469 is at  -3.180669  7.611073 -0.127751
      ESP Fit Center  470 is at  -3.863000  8.550222 -0.127751
      ESP Fit Center  471 is at  -4.967035  8.191499 -0.127751
      ESP Fit Center  472 is at  -4.967035  7.030647 -0.127751
      ESP Fit Center  473 is at  -3.863000  6.671924 -0.127751
      ESP Fit Center  474 is at  -4.168148  7.611073 -0.448602
      ESP Fit Center  475 is at  -4.620481  4.583152  2.302591
      ESP Fit Center  476 is at  -2.223819  5.966866  1.264293
      ESP Fit Center  477 is at  -5.323011  5.420395  1.264293
      ESP Fit Center  478 is at  -4.620481  4.583152  1.264293
      ESP Fit Center  479 is at  -3.544143  4.393365  1.264293
      ESP Fit Center  480 is at  -2.597627  4.939836  1.264293
      ESP Fit Center  481 is at  -2.834115  5.966866  0.424293
      ESP Fit Center  482 is at  -4.620481  5.386440  0.424293
      ESP Fit Center  483 is at  -3.516446  5.027717  0.424293
      ESP Fit Center  484 is at  -3.821594  5.966866  0.103442
      ESP Fit Center  485 is at   3.593178  0.764614 -5.631407
      ESP Fit Center  486 is at   0.732691 -1.516549 -5.631407
      ESP Fit Center  487 is at   0.964407 -2.531762 -5.631407
      ESP Fit Center  488 is at   2.805479  0.340748 -6.593733
      ESP Fit Center  489 is at   1.843740 -0.098464 -6.593733
      ESP Fit Center  490 is at   4.651042 -2.531005 -6.593733
      ESP Fit Center  491 is at   3.593178 -0.614739 -7.259682
      ESP Fit Center  492 is at   5.991256 -1.085186 -5.230607
      ESP Fit Center  493 is at   5.734025 -0.125186 -5.230607
      ESP Fit Center  494 is at   5.031256  0.577583 -5.230607
      ESP Fit Center  495 is at   4.071256  0.834814 -5.230607
      ESP Fit Center  496 is at   5.734025 -2.045186 -5.230607
      ESP Fit Center  497 is at   5.734025 -1.085186 -6.190607
      ESP Fit Center  498 is at   5.416464 -0.107835 -6.190607
      ESP Fit Center  499 is at   4.585080  0.496201 -6.190607
      ESP Fit Center  500 is at   5.416464 -2.062537 -6.190607
      ESP Fit Center  501 is at   5.031256 -1.085186 -6.893376
      ESP Fit Center  502 is at   4.551256 -0.253802 -6.893376
      ESP Fit Center  503 is at   0.816689 -1.884470 -6.074418
      ESP Fit Center  504 is at   1.073920 -2.844470 -6.074418
      ESP Fit Center  505 is at   1.776689 -3.547239 -6.074418
      ESP Fit Center  506 is at   2.222865 -0.303083 -7.034418
      ESP Fit Center  507 is at   1.391481 -0.907119 -7.034418
      ESP Fit Center  508 is at   1.073920 -1.884470 -7.034418
      ESP Fit Center  509 is at   1.391481 -2.861821 -7.034418
      ESP Fit Center  510 is at   2.222865 -3.465857 -7.034418
      ESP Fit Center  511 is at   3.250513 -3.465857 -7.034418
      ESP Fit Center  512 is at   4.081897 -2.861821 -7.034418
      ESP Fit Center  513 is at   3.696689 -1.884470 -7.737187
      ESP Fit Center  514 is at   3.216689 -1.053086 -7.737187
      ESP Fit Center  515 is at   2.256689 -1.053086 -7.737187
      ESP Fit Center  516 is at   1.776689 -1.884470 -7.737187
      ESP Fit Center  517 is at   2.256689 -2.715854 -7.737187
      ESP Fit Center  518 is at   3.216689 -2.715854 -7.737187
      ESP Fit Center  519 is at   2.736689 -1.884470 -7.994418
      ESP Fit Center  520 is at   1.914211  0.112286 -3.113203
      ESP Fit Center  521 is at   1.434211 -0.719098 -3.113203
      ESP Fit Center  522 is at   2.908035  0.862289 -3.815972
      ESP Fit Center  523 is at   1.880387  0.862289 -3.815972
      ESP Fit Center  524 is at   1.049003  0.258253 -3.815972
      ESP Fit Center  525 is at   0.731442 -0.719098 -3.815972
      ESP Fit Center  526 is at   3.354211  0.943671 -4.775972
      ESP Fit Center  527 is at   2.394211  1.200902 -4.775972
      ESP Fit Center  528 is at   1.434211  0.943671 -4.775972
      ESP Fit Center  529 is at   0.731442  0.240902 -4.775972
      ESP Fit Center  530 is at   0.474211 -0.719098 -4.775972
      ESP Fit Center  531 is at   2.908035  0.862289 -5.735972
      ESP Fit Center  532 is at   1.880387  0.862289 -5.735972
      ESP Fit Center  533 is at   1.049003  0.258253 -5.735972
      ESP Fit Center  534 is at   0.731442 -0.719098 -5.735972
      ESP Fit Center  535 is at   1.914211  0.112286 -6.438741
      ESP Fit Center  536 is at   2.810949 -4.512285 -2.581882
      ESP Fit Center  537 is at   2.557328 -4.936151 -3.544208
      ESP Fit Center  538 is at   2.557328 -4.936151 -4.612308
      ESP Fit Center  539 is at   1.117931 -3.096296 -2.345499
      ESP Fit Center  540 is at   1.597931 -3.927680 -2.345499
      ESP Fit Center  541 is at   0.732723 -2.118945 -3.048268
      ESP Fit Center  542 is at   0.415162 -3.096296 -3.048268
      ESP Fit Center  543 is at   0.732723 -4.073647 -3.048268
      ESP Fit Center  544 is at   1.564107 -4.677683 -3.048268
      ESP Fit Center  545 is at   0.415162 -2.136296 -4.008268
      ESP Fit Center  546 is at   0.157931 -3.096296 -4.008268
      ESP Fit Center  547 is at   0.415162 -4.056296 -4.008268
      ESP Fit Center  548 is at   1.117931 -4.759065 -4.008268
      ESP Fit Center  549 is at   2.077931 -5.016296 -4.008268
      ESP Fit Center  550 is at   0.732723 -2.118945 -4.968268
      ESP Fit Center  551 is at   0.415162 -3.096296 -4.968268
      ESP Fit Center  552 is at   0.732723 -4.073647 -4.968268
      ESP Fit Center  553 is at   1.564107 -4.677683 -4.968268
      ESP Fit Center  554 is at   1.117931 -3.096296 -5.671037
      ESP Fit Center  555 is at   1.597931 -3.927680 -5.671037
      ESP Fit Center  556 is at   3.252329 -5.034010 -3.442491
      ESP Fit Center  557 is at   4.279977 -5.034010 -3.442491
      ESP Fit Center  558 is at   5.111361 -4.429974 -3.442491
      ESP Fit Center  559 is at   2.806153 -5.115392 -4.402491
      ESP Fit Center  560 is at   3.766153 -5.372623 -4.402491
      ESP Fit Center  561 is at   4.726153 -5.115392 -4.402491
      ESP Fit Center  562 is at   5.428922 -4.412623 -4.402491
      ESP Fit Center  563 is at   5.428922 -3.452623 -5.362491
      ESP Fit Center  564 is at   3.252329 -5.034010 -5.362491
      ESP Fit Center  565 is at   4.279977 -5.034010 -5.362491
      ESP Fit Center  566 is at   5.111361 -4.429974 -5.362491
      ESP Fit Center  567 is at   4.726153 -3.452623 -6.065260
      ESP Fit Center  568 is at   3.286153 -4.284007 -6.065260
      ESP Fit Center  569 is at   4.246153 -4.284007 -6.065260
      ESP Fit Center  570 is at   3.395113 -2.246170 -0.513959
      ESP Fit Center  571 is at   2.909163 -3.087860 -0.735789
      ESP Fit Center  572 is at   1.978279 -3.275560 -1.357342
      ESP Fit Center  573 is at   2.853931 -3.911758 -1.357342
      ESP Fit Center  574 is at   1.274733 -2.768797 -2.255512
      ESP Fit Center  575 is at   2.620713 -4.288094 -2.255512
      ESP Fit Center  576 is at   3.658346 -4.414086 -2.255512
      ESP Fit Center  577 is at   7.105435 -1.977282 -1.962391
      ESP Fit Center  578 is at   4.244948 -4.258445 -1.962391
      ESP Fit Center  579 is at   5.286268 -4.258445 -3.030491
      ESP Fit Center  580 is at   7.320660 -2.315906 -3.328392
      ESP Fit Center  581 is at   5.400660 -4.235906 -3.328392
      ESP Fit Center  582 is at   6.360660 -3.978675 -3.328392
      ESP Fit Center  583 is at   7.063429 -3.275906 -3.328392
      ESP Fit Center  584 is at   7.063429 -2.315906 -4.288392
      ESP Fit Center  585 is at   6.745868 -1.338555 -4.288392
      ESP Fit Center  586 is at   5.914484 -3.897293 -4.288392
      ESP Fit Center  587 is at   6.745868 -3.293257 -4.288392
      ESP Fit Center  588 is at   6.360660 -2.315906 -4.991161
      ESP Fit Center  589 is at   5.880660 -3.147290 -4.991161
      ESP Fit Center  590 is at   5.053465 -2.542746  0.319279
      ESP Fit Center  591 is at   6.013465 -2.542746  0.062048
      ESP Fit Center  592 is at   5.533465 -1.711362  0.062048
      ESP Fit Center  593 is at   4.093465 -2.542746  0.062048
      ESP Fit Center  594 is at   4.573465 -3.374130  0.062048
      ESP Fit Center  595 is at   5.533465 -3.374130  0.062048
      ESP Fit Center  596 is at   6.716234 -2.542746 -0.640721
      ESP Fit Center  597 is at   3.708257 -3.520097 -0.640721
      ESP Fit Center  598 is at   4.539641 -4.124133 -0.640721
      ESP Fit Center  599 is at   5.567289 -4.124133 -0.640721
      ESP Fit Center  600 is at   6.398673 -3.520097 -0.640721
      ESP Fit Center  601 is at   6.973465 -2.542746 -1.600721
      ESP Fit Center  602 is at   4.093465 -4.205515 -1.600721
      ESP Fit Center  603 is at   5.053465 -4.462746 -1.600721
      ESP Fit Center  604 is at   6.013465 -4.205515 -1.600721
      ESP Fit Center  605 is at   6.716234 -3.502746 -1.600721
      ESP Fit Center  606 is at   6.066274 -0.499439 -4.401031
      ESP Fit Center  607 is at   7.073056 -0.326867 -0.488014
      ESP Fit Center  608 is at   6.593056 -1.158251 -0.488014
      ESP Fit Center  609 is at   7.775825 -0.326867 -1.190783
      ESP Fit Center  610 is at   7.458264  0.650484 -1.190783
      ESP Fit Center  611 is at   7.458264 -1.304218 -1.190783
      ESP Fit Center  612 is at   8.033056 -0.326867 -2.150783
      ESP Fit Center  613 is at   7.775825  0.633133 -2.150783
      ESP Fit Center  614 is at   7.073056  1.335902 -2.150783
      ESP Fit Center  615 is at   7.775825 -1.286867 -2.150783
      ESP Fit Center  616 is at   7.775825 -0.326867 -3.110783
      ESP Fit Center  617 is at   7.458264  0.650484 -3.110783
      ESP Fit Center  618 is at   6.626880  1.254520 -3.110783
      ESP Fit Center  619 is at   7.458264 -1.304218 -3.110783
      ESP Fit Center  620 is at   7.073056 -0.326867 -3.813552
      ESP Fit Center  621 is at   6.593056  0.504517 -3.813552
      ESP Fit Center  622 is at   5.617334  1.766889 -3.083603
      ESP Fit Center  623 is at   6.002542  1.081471 -4.043603
      ESP Fit Center  624 is at   5.171158  1.685507 -4.043603
      ESP Fit Center  625 is at   4.143510  1.685507 -4.043603
      ESP Fit Center  626 is at   3.312126  1.081471 -4.043603
      ESP Fit Center  627 is at   5.617334  0.104120 -4.746372
      ESP Fit Center  628 is at   5.137334  0.935504 -4.746372
      ESP Fit Center  629 is at   4.177334  0.935504 -4.746372
      ESP Fit Center  630 is at   5.333377 -0.137193  0.972674
      ESP Fit Center  631 is at   4.847427 -0.978883  0.972674
      ESP Fit Center  632 is at   6.112780 -0.137193  0.351121
      ESP Fit Center  633 is at   3.820295 -1.802781  0.351121
      ESP Fit Center  634 is at   4.902659 -1.802781  0.351121
      ESP Fit Center  635 is at   5.778311 -1.166583  0.351121
      ESP Fit Center  636 is at   5.897167  0.240808  0.700378
      ESP Fit Center  637 is at   4.839303  3.536427 -0.261948
      ESP Fit Center  638 is at   4.839303  3.536427 -1.330048
      ESP Fit Center  639 is at   5.897167  2.269720 -2.292374
      ESP Fit Center  640 is at   4.933851  3.461419 -1.690763
      ESP Fit Center  641 is at   3.973851  3.718650 -1.690763
      ESP Fit Center  642 is at   3.013851  3.461419 -1.690763
      ESP Fit Center  643 is at   5.319059  2.776001 -2.650763
      ESP Fit Center  644 is at   4.487675  3.380037 -2.650763
      ESP Fit Center  645 is at   3.460027  3.380037 -2.650763
      ESP Fit Center  646 is at   2.628643  2.776001 -2.650763
      ESP Fit Center  647 is at   2.311082  1.798650 -2.650763
      ESP Fit Center  648 is at   2.628643  0.821299 -2.650763
      ESP Fit Center  649 is at   4.453851  2.630034 -3.353532
      ESP Fit Center  650 is at   3.493851  2.630034 -3.353532
      ESP Fit Center  651 is at   3.013851  1.798650 -3.353532
      ESP Fit Center  652 is at   6.281767  1.637891  1.128105
      ESP Fit Center  653 is at   5.801767  2.469275  1.128105
      ESP Fit Center  654 is at   5.801767  0.806507  1.128105
      ESP Fit Center  655 is at   6.984536  1.637891  0.425336
      ESP Fit Center  656 is at   6.666975  2.615242  0.425336
      ESP Fit Center  657 is at   5.835591  3.219278  0.425336
      ESP Fit Center  658 is at   6.666975  0.660540  0.425336
      ESP Fit Center  659 is at   7.241767  1.637891 -0.534664
      ESP Fit Center  660 is at   6.984536  2.597891 -0.534664
      ESP Fit Center  661 is at   6.281767  3.300660 -0.534664
      ESP Fit Center  662 is at   5.321767  3.557891 -0.534664
      ESP Fit Center  663 is at   6.984536  0.677891 -0.534664
      ESP Fit Center  664 is at   6.984536  1.637891 -1.494664
      ESP Fit Center  665 is at   6.666975  2.615242 -1.494664
      ESP Fit Center  666 is at   5.835591  3.219278 -1.494664
      ESP Fit Center  667 is at   6.281767  1.637891 -2.197433
      ESP Fit Center  668 is at   3.453878  2.567463  2.583132
      ESP Fit Center  669 is at   4.413878  2.567463  2.325901
      ESP Fit Center  670 is at   3.933878  3.398847  2.325901
      ESP Fit Center  671 is at   5.116647  2.567463  1.623132
      ESP Fit Center  672 is at   4.799086  3.544814  1.623132
      ESP Fit Center  673 is at   3.967702  4.148850  1.623132
      ESP Fit Center  674 is at   5.116647  3.527463  0.663132
      ESP Fit Center  675 is at   4.413878  4.230232  0.663132
      ESP Fit Center  676 is at   3.453878  4.487463  0.663132
      ESP Fit Center  677 is at   2.493878  4.230232  0.663132
      ESP Fit Center  678 is at   3.967702  4.148850 -0.296868
      ESP Fit Center  679 is at   2.940054  4.148850 -0.296868
      ESP Fit Center  680 is at   3.620055  0.883680  3.129405
      ESP Fit Center  681 is at   4.580055  0.883680  2.872174
      ESP Fit Center  682 is at   4.100055  1.715064  2.872174
      ESP Fit Center  683 is at   3.140055  1.715064  2.872174
      ESP Fit Center  684 is at   2.660055  0.883680  2.872174
      ESP Fit Center  685 is at   3.140055  0.052296  2.872174
      ESP Fit Center  686 is at   4.100055  0.052296  2.872174
      ESP Fit Center  687 is at   5.282824  0.883680  2.169405
      ESP Fit Center  688 is at   4.965263  1.861031  2.169405
      ESP Fit Center  689 is at   4.133879 -0.697707  2.169405
      ESP Fit Center  690 is at   4.965263 -0.093671  2.169405
      ESP Fit Center  691 is at   4.580055 -0.779089  1.209405
      ESP Fit Center  692 is at   5.282824 -0.076320  1.209405
      ESP Fit Center  693 is at   1.452365  3.009964 -1.396617
      ESP Fit Center  694 is at   0.576713  2.373766 -1.396617
      ESP Fit Center  695 is at   1.507597  2.186066 -2.018170
      ESP Fit Center  696 is at   1.021647  1.344376 -2.018170
      ESP Fit Center  697 is at   1.993547  1.344376 -2.240000
      ESP Fit Center  698 is at   1.002552 -2.281163  0.534050
      ESP Fit Center  699 is at   1.002552  0.901810 -2.162325
      ESP Fit Center  700 is at   1.899487 -0.529590  2.807656
      ESP Fit Center  701 is at   2.859487 -0.529590  2.550425
      ESP Fit Center  702 is at   1.419487 -1.360974  2.550425
      ESP Fit Center  703 is at   2.379487 -1.360974  2.550425
      ESP Fit Center  704 is at   1.385663 -2.110977  1.847656
      ESP Fit Center  705 is at   2.413311 -2.110977  1.847656
      ESP Fit Center  706 is at   3.244695 -1.506941  1.847656
      ESP Fit Center  707 is at   0.939487 -2.192359  0.887656
      ESP Fit Center  708 is at   1.899487 -2.449590  0.887656
      ESP Fit Center  709 is at   2.859487 -2.192359  0.887656
      ESP Fit Center  710 is at   3.562256 -1.489590  0.887656
      ESP Fit Center  711 is at   1.889215 -2.456601 -0.885177
      ESP Fit Center  712 is at   0.544007 -1.513952 -1.845177
      ESP Fit Center  713 is at   2.369215  0.294783 -2.547946
      ESP Fit Center  714 is at   1.409215  0.294783 -2.547946
      ESP Fit Center  715 is at   0.929215 -0.536601 -2.547946
      ESP Fit Center  716 is at   1.889215 -0.536601 -2.805177
      ESP Fit Center  717 is at  -1.800388 -0.528642 -1.496376
      ESP Fit Center  718 is at  -0.520660 -0.901810 -2.162325
      ESP Fit Center  719 is at  -1.688729 -2.004133  0.794041
      ESP Fit Center  720 is at  -0.857345 -2.608169  0.794041
      ESP Fit Center  721 is at   0.170303 -2.608169  0.794041
      ESP Fit Center  722 is at  -2.006290 -1.986782 -0.165959
      ESP Fit Center  723 is at  -1.303521 -2.689551 -0.165959
      ESP Fit Center  724 is at  -0.343521 -2.946782 -0.165959
      ESP Fit Center  725 is at   0.616479 -2.689551 -0.165959
      ESP Fit Center  726 is at  -2.006290 -1.026782 -1.125959
      ESP Fit Center  727 is at  -1.688729 -2.004133 -1.125959
      ESP Fit Center  728 is at  -0.857345 -2.608169 -1.125959
      ESP Fit Center  729 is at   0.170303 -2.608169 -1.125959
      ESP Fit Center  730 is at  -1.303521 -1.026782 -1.828728
      ESP Fit Center  731 is at  -0.823521 -1.858166 -1.828728
      ESP Fit Center  732 is at   0.136479 -1.858166 -1.828728
      ESP Fit Center  733 is at  -2.301136  0.608635 -0.827431
      ESP Fit Center  734 is at   0.132688  2.190022 -1.787431
      ESP Fit Center  735 is at  -0.894960  2.190022 -1.787431
      ESP Fit Center  736 is at  -1.726344  1.585986 -1.787431
      ESP Fit Center  737 is at  -2.043905  0.608635 -1.787431
      ESP Fit Center  738 is at  -1.726344 -0.368716 -1.787431
      ESP Fit Center  739 is at   0.578864  0.608635 -2.490200
      ESP Fit Center  740 is at   0.098864  1.440019 -2.490200
      ESP Fit Center  741 is at  -0.861136  1.440019 -2.490200
      ESP Fit Center  742 is at  -1.341136  0.608635 -2.490200
      ESP Fit Center  743 is at  -0.861136 -0.222749 -2.490200
      ESP Fit Center  744 is at   0.098864 -0.222749 -2.490200
      ESP Fit Center  745 is at  -0.381136  0.608635 -2.747431
      ESP Fit Center  746 is at  -0.800796  0.556182  4.365796
      ESP Fit Center  747 is at   0.270718  0.556182  4.152659
      ESP Fit Center  748 is at  -1.336553  1.484140  4.152659
      ESP Fit Center  749 is at  -1.872310  0.556182  4.152659
      ESP Fit Center  750 is at  -1.336553 -0.371776  4.152659
      ESP Fit Center  751 is at  -0.265039 -0.371776  4.152659
      ESP Fit Center  752 is at   1.179103  0.556182  3.545695
      ESP Fit Center  753 is at  -2.515439  1.546131  3.545695
      ESP Fit Center  754 is at  -2.780695  0.556182  3.545695
      ESP Fit Center  755 is at  -2.515439 -0.433767  3.545695
      ESP Fit Center  756 is at  -1.790745 -1.158461  3.545695
      ESP Fit Center  757 is at  -0.800796 -1.423717  3.545695
      ESP Fit Center  758 is at   0.189153 -1.158461  3.545695
      ESP Fit Center  759 is at   0.913847 -0.433767  3.545695
      ESP Fit Center  760 is at   1.786067  0.556182  2.637310
      ESP Fit Center  761 is at  -3.331130  1.094021  2.637310
      ESP Fit Center  762 is at  -3.331130  0.018343  2.637310
      ESP Fit Center  763 is at  -2.893612 -0.964338  2.637310
      ESP Fit Center  764 is at  -2.094227 -1.684107  2.637310
      ESP Fit Center  765 is at  -1.071197 -2.016510  2.637310
      ESP Fit Center  766 is at  -0.001411 -1.904071  2.637310
      ESP Fit Center  767 is at   0.930153 -1.366232  2.637310
      ESP Fit Center  768 is at  -3.553121  1.070681  1.565796
      ESP Fit Center  769 is at  -3.553121  0.041683  1.565796
      ESP Fit Center  770 is at  -3.181404 -0.917828  1.565796
      ESP Fit Center  771 is at  -2.488173 -1.678266  1.565796
      ESP Fit Center  772 is at  -1.567052 -2.136930  1.565796
      ESP Fit Center  773 is at  -0.542445 -2.231874  1.565796
      ESP Fit Center  774 is at   0.447271 -1.950275  1.565796
      ESP Fit Center  775 is at  -3.331130  1.094021  0.494282
      ESP Fit Center  776 is at  -3.331130  0.018343  0.494282
      ESP Fit Center  777 is at  -2.893612 -0.964338  0.494282
      ESP Fit Center  778 is at  -2.094227 -1.684107  0.494282
      ESP Fit Center  779 is at  -2.780695  0.556182 -0.414103
      ESP Fit Center  780 is at  -2.515439 -0.433767 -0.414103
      ESP Fit Center  781 is at  -2.781863  4.102564  0.638453
      ESP Fit Center  782 is at  -3.431116  3.288427  0.638453
      ESP Fit Center  783 is at  -3.431116  1.258001  0.638453
      ESP Fit Center  784 is at  -2.773735  3.926187  0.190331
      ESP Fit Center  785 is at  -3.476504  3.223418  0.190331
      ESP Fit Center  786 is at  -3.733735  2.263418  0.190331
      ESP Fit Center  787 is at  -3.476504  1.303418  0.190331
      ESP Fit Center  788 is at  -2.327559  3.844805 -0.769669
      ESP Fit Center  789 is at  -3.158943  3.240769 -0.769669
      ESP Fit Center  790 is at  -3.476504  2.263418 -0.769669
      ESP Fit Center  791 is at  -3.158943  1.286067 -0.769669
      ESP Fit Center  792 is at  -1.333735  3.094802 -1.472438
      ESP Fit Center  793 is at  -2.293735  3.094802 -1.472438
      ESP Fit Center  794 is at  -2.773735  2.263418 -1.472438
      ESP Fit Center  795 is at  -2.293735  1.432034 -1.472438
      ESP Fit Center  796 is at  -1.813735  2.263418 -1.729669
      ESP Fit Center  797 is at  -2.091668  2.498943  3.838213
      ESP Fit Center  798 is at  -3.051668  2.498943  3.580982
      ESP Fit Center  799 is at  -2.571668  1.667559  3.580982
      ESP Fit Center  800 is at  -3.754437  2.498943  2.878213
      ESP Fit Center  801 is at  -3.436876  1.521592  2.878213
      ESP Fit Center  802 is at  -3.754437  3.458943  1.918213
      ESP Fit Center  803 is at  -4.011668  2.498943  1.918213
      ESP Fit Center  804 is at  -3.754437  1.538943  1.918213
      ESP Fit Center  805 is at  -3.436876  3.476294  0.958213
      ESP Fit Center  806 is at  -3.754437  2.498943  0.958213
      ESP Fit Center  807 is at   0.297132  4.240105 -0.980739
      ESP Fit Center  808 is at  -0.223528  3.338295 -1.218414
      ESP Fit Center  809 is at  -1.592032  5.956750  0.828333
      ESP Fit Center  810 is at  -2.294801  5.253981  0.828333
      ESP Fit Center  811 is at   0.713176  5.271332 -0.131667
      ESP Fit Center  812 is at  -0.118208  5.875368 -0.131667
      ESP Fit Center  813 is at  -1.145856  5.875368 -0.131667
      ESP Fit Center  814 is at  -1.977240  5.271332 -0.131667
      ESP Fit Center  815 is at  -2.294801  4.293981 -0.131667
      ESP Fit Center  816 is at  -0.152032  5.125365 -0.834436
      ESP Fit Center  817 is at  -1.112032  5.125365 -0.834436
      ESP Fit Center  818 is at  -1.592032  4.293981 -0.834436
      ESP Fit Center  819 is at  -0.632032  4.293981 -1.091667
      ESP Fit Center  820 is at   1.923089  4.015459 -0.455863
      ESP Fit Center  821 is at   1.091705  4.619495 -0.455863
      ESP Fit Center  822 is at   1.057881  3.869492 -1.158632
      ESP Fit Center  823 is at   0.097881  3.869492 -1.158632
      ESP Fit Center  824 is at   0.577881  3.038108 -1.415863
      ESP Fit Center  825 is at   0.569857  3.635412  5.619298
      ESP Fit Center  826 is at   1.641371  3.635412  5.406161
      ESP Fit Center  827 is at   0.034100  2.707454  5.406161
      ESP Fit Center  828 is at   1.105614  2.707454  5.406161
      ESP Fit Center  829 is at   2.549756  3.635412  4.799197
      ESP Fit Center  830 is at   2.284500  4.625361  4.799197
      ESP Fit Center  831 is at  -0.420092  1.920769  4.799197
      ESP Fit Center  832 is at   0.569857  1.655513  4.799197
      ESP Fit Center  833 is at   1.559806  1.920769  4.799197
      ESP Fit Center  834 is at   2.284500  2.645463  4.799197
      ESP Fit Center  835 is at   3.156720  3.635412  3.890812
      ESP Fit Center  836 is at   2.933074  4.687584  3.890812
      ESP Fit Center  837 is at   2.300806  5.557826  3.890812
      ESP Fit Center  838 is at  -1.522959  2.114892  3.890812
      ESP Fit Center  839 is at   1.369242  1.175159  3.890812
      ESP Fit Center  840 is at   2.300806  1.712998  3.890812
      ESP Fit Center  841 is at   2.933074  2.583240  3.890812
      ESP Fit Center  842 is at   3.369857  3.635412  2.819298
      ESP Fit Center  843 is at   3.180779  4.646889  2.819298
      ESP Fit Center  844 is at   2.639082  5.521760  2.819298
      ESP Fit Center  845 is at   1.817924  1.128955  2.819298
      ESP Fit Center  846 is at   2.639082  1.749064  2.819298
      ESP Fit Center  847 is at   3.180779  2.623935  2.819298
      ESP Fit Center  848 is at   2.933074  4.687584  1.747784
      ESP Fit Center  849 is at   2.300806  5.557826  1.747784
      ESP Fit Center  850 is at   2.284500  4.625361  0.839399
      ESP Fit Center  851 is at   1.559806  5.350055  0.839399
      ESP Fit Center  852 is at   0.292421  7.491281  3.876298
      ESP Fit Center  853 is at   1.879872  6.225331  2.808198
      ESP Fit Center  854 is at   1.515568  6.897712  2.527391
      ESP Fit Center  855 is at   0.812799  7.600481  2.527391
      ESP Fit Center  856 is at   1.198007  6.915063  1.567391
      ESP Fit Center  857 is at   0.366623  7.519099  1.567391
      ESP Fit Center  858 is at   0.812799  5.937712  0.864622
      ESP Fit Center  859 is at   0.332799  6.769096  0.864622
      ESP Fit Center  860 is at  -0.627201  6.769096  0.864622
      ESP Fit Center  861 is at   0.389981  5.579529  6.086083
      ESP Fit Center  862 is at   1.349981  5.579529  5.828852
      ESP Fit Center  863 is at   0.869981  6.410913  5.828852
      ESP Fit Center  864 is at  -0.090019  4.748145  5.828852
      ESP Fit Center  865 is at   0.869981  4.748145  5.828852
      ESP Fit Center  866 is at   2.052750  5.579529  5.126083
      ESP Fit Center  867 is at   1.735189  6.556880  5.126083
      ESP Fit Center  868 is at   0.903805  7.160916  5.126083
      ESP Fit Center  869 is at   2.309981  5.579529  4.166083
      ESP Fit Center  870 is at   2.052750  6.539529  4.166083
      ESP Fit Center  871 is at   1.349981  7.242298  4.166083
      ESP Fit Center  872 is at   0.389981  7.499529  4.166083
      ESP Fit Center  873 is at  -3.783930  4.043533  4.345641
      ESP Fit Center  874 is at  -3.661645  3.687422  3.976389
      ESP Fit Center  875 is at  -3.979206  3.704773  3.016389
      ESP Fit Center  876 is at  -3.661645  3.687422  2.056389
      ESP Fit Center  877 is at  -1.727624  4.351584  6.564595
      ESP Fit Center  878 is at  -0.767624  4.351584  6.307364
      ESP Fit Center  879 is at  -2.687624  4.351584  6.307364
      ESP Fit Center  880 is at  -2.207624  3.520200  6.307364
      ESP Fit Center  881 is at  -1.247624  3.520200  6.307364
      ESP Fit Center  882 is at  -0.064855  4.351584  5.604595
      ESP Fit Center  883 is at  -3.072832  3.374233  5.604595
      ESP Fit Center  884 is at  -2.241448  2.770197  5.604595
      ESP Fit Center  885 is at  -1.213800  2.770197  5.604595
      ESP Fit Center  886 is at  -0.382416  3.374233  5.604595
      ESP Fit Center  887 is at  -3.390393  3.391584  4.644595
      ESP Fit Center  888 is at  -2.687624  2.688815  4.644595
      ESP Fit Center  889 is at  -1.727624  2.431584  4.644595
      ESP Fit Center  890 is at  -2.406674  6.622190  7.255455
      ESP Fit Center  891 is at  -1.335160  6.622190  7.042318
      ESP Fit Center  892 is at  -1.870917  7.550148  7.042318
      ESP Fit Center  893 is at  -2.942431  7.550148  7.042318
      ESP Fit Center  894 is at  -3.478188  6.622190  7.042318
      ESP Fit Center  895 is at  -2.942431  5.694232  7.042318
      ESP Fit Center  896 is at  -1.870917  5.694232  7.042318
      ESP Fit Center  897 is at  -0.426775  6.622190  6.435354
      ESP Fit Center  898 is at  -0.692031  7.612139  6.435354
      ESP Fit Center  899 is at  -1.416725  8.336833  6.435354
      ESP Fit Center  900 is at  -2.406674  8.602089  6.435354
      ESP Fit Center  901 is at  -3.396623  8.336833  6.435354
      ESP Fit Center  902 is at  -4.121317  7.612139  6.435354
      ESP Fit Center  903 is at  -4.386573  6.622190  6.435354
      ESP Fit Center  904 is at  -4.121317  5.632241  6.435354
      ESP Fit Center  905 is at  -3.396623  4.907547  6.435354
      ESP Fit Center  906 is at  -2.406674  4.642291  6.435354
      ESP Fit Center  907 is at  -0.692031  5.632241  6.435354
      ESP Fit Center  908 is at  -0.043457  7.674362  5.526969
      ESP Fit Center  909 is at  -0.675725  8.544604  5.526969
      ESP Fit Center  910 is at  -1.607289  9.082443  5.526969
      ESP Fit Center  911 is at  -2.677075  9.194882  5.526969
      ESP Fit Center  912 is at  -3.700105  8.862479  5.526969
      ESP Fit Center  913 is at  -4.499490  8.142710  5.526969
      ESP Fit Center  914 is at  -4.937008  7.160029  5.526969
      ESP Fit Center  915 is at  -4.937008  6.084351  5.526969
      ESP Fit Center  916 is at  -4.499490  5.101670  5.526969
      ESP Fit Center  917 is at  -3.700105  4.381901  5.526969
      ESP Fit Center  918 is at   0.204248  7.633667  4.455455
      ESP Fit Center  919 is at  -0.337449  8.508538  4.455455
      ESP Fit Center  920 is at  -1.158607  9.128647  4.455455
      ESP Fit Center  921 is at  -4.787282  8.096200  4.455455
      ESP Fit Center  922 is at  -5.158999  6.107691  4.455455
      ESP Fit Center  923 is at  -4.787282  5.148180  4.455455
      ESP Fit Center  924 is at  -4.094051  4.387742  4.455455
      ESP Fit Center  925 is at  -0.043457  7.674362  3.383941
      ESP Fit Center  926 is at  -3.054921  9.391752  1.405639
      ESP Fit Center  927 is at  -2.498487  9.391470  4.898182
      ESP Fit Center  928 is at  -3.458487  9.391470  4.898182
      ESP Fit Center  929 is at  -1.633279  9.537437  4.195413
      ESP Fit Center  930 is at  -2.464663 10.141473  4.195413
      ESP Fit Center  931 is at  -3.492311 10.141473  4.195413
      ESP Fit Center  932 is at  -4.323695  9.537437  4.195413
      ESP Fit Center  933 is at  -4.641256  8.560086  4.195413
      ESP Fit Center  934 is at  -1.315718  9.520086  3.235413
      ESP Fit Center  935 is at  -2.018487 10.222855  3.235413
      ESP Fit Center  936 is at  -2.978487 10.480086  3.235413
      ESP Fit Center  937 is at  -3.938487 10.222855  3.235413
      ESP Fit Center  938 is at  -4.641256  9.520086  3.235413
      ESP Fit Center  939 is at  -2.464663 10.141473  2.275413
      ESP Fit Center  940 is at  -3.492311 10.141473  2.275413
      ESP Fit Center  941 is at  -4.323695  9.537437  2.275413
      ESP Fit Center  942 is at  -0.544910  8.547098  3.235154
      ESP Fit Center  943 is at  -0.227349  8.529747  2.275154
      ESP Fit Center  944 is at  -0.930118  9.232516  2.275154
      ESP Fit Center  945 is at  -0.227349  7.569747  1.315154
      ESP Fit Center  946 is at  -0.544910  8.547098  1.315154
      ESP Fit Center  947 is at  -1.376294  9.151134  1.315154
      ESP Fit Center  948 is at  -0.930118  7.569747  0.612385
      ESP Fit Center  949 is at  -1.410118  8.401131  0.612385
      ESP Fit Center  950 is at  -2.370118  8.401131  0.612385
      ESP Fit Center  951 is at  -1.410118  6.738363  0.612385
      ESP Fit Center  952 is at  -1.890118  7.569747  0.355154
      ESP Fit Center  953 is at  -5.445371  5.166312  2.655867
      ESP Fit Center  954 is at  -6.094624  8.010875  1.587767
      ESP Fit Center  955 is at  -6.094624  5.980449  1.587767
      ESP Fit Center  956 is at  -5.786901  6.467020  0.625441
      ESP Fit Center  957 is at  -4.507173  6.093852 -0.040508
      ESP Fit Center  958 is at  -5.370689  7.836326  4.400957
      ESP Fit Center  959 is at  -5.850689  7.004942  4.400957
      ESP Fit Center  960 is at  -5.370689  6.173558  4.400957
      ESP Fit Center  961 is at  -5.404513  8.586329  3.698188
      ESP Fit Center  962 is at  -6.235897  7.982293  3.698188
      ESP Fit Center  963 is at  -6.553458  7.004942  3.698188
      ESP Fit Center  964 is at  -6.235897  6.027591  3.698188
      ESP Fit Center  965 is at  -5.404513  5.423555  3.698188
      ESP Fit Center  966 is at  -5.850689  8.667711  2.738188
      ESP Fit Center  967 is at  -6.553458  7.964942  2.738188
      ESP Fit Center  968 is at  -6.810689  7.004942  2.738188
      ESP Fit Center  969 is at  -6.553458  6.044942  2.738188
      ESP Fit Center  970 is at  -5.850689  5.342173  2.738188
      ESP Fit Center  971 is at  -6.235897  7.982293  1.778188
      ESP Fit Center  972 is at  -6.553458  7.004942  1.778188
      ESP Fit Center  973 is at  -6.235897  6.027591  1.778188
      ESP Fit Center  974 is at  -3.208148  9.273842  1.231398
      ESP Fit Center  975 is at  -4.168148  9.531073  1.231398
      ESP Fit Center  976 is at  -5.128148  9.273842  1.231398
      ESP Fit Center  977 is at  -5.830917  8.571073  1.231398
      ESP Fit Center  978 is at  -2.505379  7.611073  0.271398
      ESP Fit Center  979 is at  -2.822940  8.588424  0.271398
      ESP Fit Center  980 is at  -3.654324  9.192460  0.271398
      ESP Fit Center  981 is at  -4.681972  9.192460  0.271398
      ESP Fit Center  982 is at  -5.513356  8.588424  0.271398
      ESP Fit Center  983 is at  -5.830917  7.611073  0.271398
      ESP Fit Center  984 is at  -5.513356  6.633722  0.271398
      ESP Fit Center  985 is at  -3.208148  7.611073 -0.431371
      ESP Fit Center  986 is at  -3.688148  8.442457 -0.431371
      ESP Fit Center  987 is at  -4.648148  8.442457 -0.431371
      ESP Fit Center  988 is at  -5.128148  7.611073 -0.431371
      ESP Fit Center  989 is at  -4.648148  6.779689 -0.431371
      ESP Fit Center  990 is at  -3.688148  6.779689 -0.431371
      ESP Fit Center  991 is at  -4.168148  7.611073 -0.688602
      ESP Fit Center  992 is at  -5.166802  4.989515  2.743442
      ESP Fit Center  993 is at  -4.335418  4.385479  2.743442
      ESP Fit Center  994 is at  -5.484363  5.006866  1.783442
      ESP Fit Center  995 is at  -4.781594  4.304097  1.783442
      ESP Fit Center  996 is at  -3.821594  4.046866  1.783442
      ESP Fit Center  997 is at  -2.158825  5.966866  0.823442
      ESP Fit Center  998 is at  -5.166802  4.989515  0.823442
      ESP Fit Center  999 is at  -4.335418  4.385479  0.823442
      ESP Fit Center 1000 is at  -3.307770  4.385479  0.823442
      ESP Fit Center 1001 is at  -2.476386  4.989515  0.823442
      ESP Fit Center 1002 is at  -2.861594  5.966866  0.120673
      ESP Fit Center 1003 is at  -4.301594  5.135482  0.120673
      ESP Fit Center 1004 is at  -3.341594  5.135482  0.120673
      ESP Fit Center 1005 is at  -3.821594  5.966866 -0.136558
      ESP Fit Center 1006 is at   0.372518 -1.516549 -5.097357
      ESP Fit Center 1007 is at   3.627591  0.915384 -6.130602
      ESP Fit Center 1008 is at   0.578043 -1.516549 -6.130602
      ESP Fit Center 1009 is at   3.865623  0.220110 -7.006545
      ESP Fit Center 1010 is at   2.800812  0.373207 -7.006545
      ESP Fit Center 1011 is at   1.822266 -0.073681 -7.006545
      ESP Fit Center 1012 is at   4.678629 -2.548734 -7.006545
      ESP Fit Center 1013 is at   6.231256 -1.085186 -5.230607
      ESP Fit Center 1014 is at   5.983841 -0.081384 -5.230607
      ESP Fit Center 1015 is at   5.298276  0.692459 -5.230607
      ESP Fit Center 1016 is at   4.331615  1.059065 -5.230607
      ESP Fit Center 1017 is at   5.941871 -1.085186 -6.310607
      ESP Fit Center 1018 is at   5.644917 -0.073855 -6.310607
      ESP Fit Center 1019 is at   4.848338  0.616385 -6.310607
      ESP Fit Center 1020 is at   5.644917 -2.096517 -6.310607
      ESP Fit Center 1021 is at   5.151256 -1.085186 -7.101222
      ESP Fit Center 1022 is at   4.611256 -0.149879 -7.101222
      ESP Fit Center 1023 is at   0.639455 -2.401392 -6.074418
      ESP Fit Center 1024 is at   1.119906 -3.316815 -6.074418
      ESP Fit Center 1025 is at   1.511697 -0.470754 -7.154418
      ESP Fit Center 1026 is at   0.941847 -1.357457 -7.154418
      ESP Fit Center 1027 is at   0.941847 -2.411483 -7.154418
      ESP Fit Center 1028 is at   1.511697 -3.298186 -7.154418
      ESP Fit Center 1029 is at   2.470473 -3.736045 -7.154418
      ESP Fit Center 1030 is at   3.513771 -3.586041 -7.154418
      ESP Fit Center 1031 is at   4.310350 -2.895801 -7.154418
      ESP Fit Center 1032 is at   3.816689 -1.884470 -7.945033
      ESP Fit Center 1033 is at   3.276689 -0.949163 -7.945033
      ESP Fit Center 1034 is at   2.196689 -0.949163 -7.945033
      ESP Fit Center 1035 is at   1.656689 -1.884470 -7.945033
      ESP Fit Center 1036 is at   2.196689 -2.819777 -7.945033
      ESP Fit Center 1037 is at   3.276689 -2.819777 -7.945033
      ESP Fit Center 1038 is at   2.736689 -1.884470 -8.234418
      ESP Fit Center 1039 is at   2.127995  1.132477 -3.695972
      ESP Fit Center 1040 is at   1.169219  0.694618 -3.695972
      ESP Fit Center 1041 is at   0.599369 -0.192085 -3.695972
      ESP Fit Center 1042 is at   0.599369 -1.246111 -3.695972
      ESP Fit Center 1043 is at   2.654570  1.425153 -4.775972
      ESP Fit Center 1044 is at   1.628264  1.300537 -4.775972
      ESP Fit Center 1045 is at   0.777428  0.713247 -4.775972
      ESP Fit Center 1046 is at   0.296977 -0.202176 -4.775972
      ESP Fit Center 1047 is at   0.296977 -1.236020 -4.775972
[...]
 1251 Fit      -0.034511
 1252 Fit      -0.010897
 1253 Fit      -0.016620
 1254 Fit      -0.021348
 1255 Fit      -0.022639
 1256 Fit      -0.022253
 1257 Fit      -0.023309
 1258 Fit      -0.027308
 1259 Fit      -0.028347
 1260 Fit      -0.014901
 1261 Fit      -0.021012
 1262 Fit      -0.022543
 1263 Fit      -0.020541
 1264 Fit      -0.017638
 1265 Fit      -0.016373
 1266 Fit      -0.017554
 1267 Fit      -0.021272
 1268 Fit      -0.014429
 1269 Fit      -0.020820
 1270 Fit      -0.022074
 1271 Fit      -0.018934
 1272 Fit      -0.013813
 1273 Fit      -0.009759
 1274 Fit      -0.007965
 1275 Fit      -0.012860
 1276 Fit      -0.018603
 1277 Fit      -0.018804
 1278 Fit      -0.013908
 1279 Fit      -0.008072
 1280 Fit      -0.013015
 1281 Fit      -0.011240
 1282 Fit      -0.000550
 1283 Fit      -0.004593
 1284 Fit       0.014223
 1285 Fit       0.011046
 1286 Fit       0.006237
 1287 Fit       0.000767
 1288 Fit       0.012877
 1289 Fit       0.010925
 1290 Fit       0.008136
 1291 Fit       0.004839
 1292 Fit       0.001397
 1293 Fit       0.009991
 1294 Fit       0.010679
 1295 Fit       0.009112
 1296 Fit       0.008912
 1297 Fit       0.010763
 1298 Fit      -0.001245
 1299 Fit       0.004493
 1300 Fit      -0.001498
 1301 Fit       0.006143
 1302 Fit      -0.000252
 1303 Fit      -0.000250
 1304 Fit       0.003721
 1305 Fit       0.004758
 1306 Fit       0.009461
 1307 Fit       0.013595
 1308 Fit       0.014618
 1309 Fit       0.014458
 1310 Fit       0.007768
 1311 Fit       0.011201
 1312 Fit       0.012097
 1313 Fit       0.008059
 1314 Fit      -0.001989
 1315 Fit       0.000677
 1316 Fit      -0.000539
 1317 Fit      -0.003007
 1318 Fit      -0.010885
 1319 Fit      -0.012718
 1320 Fit      -0.018174
 1321 Fit      -0.019144
 1322 Fit      -0.014893
 1323 Fit      -0.008427
 1324 Fit      -0.025857
 1325 Fit      -0.028550
 1326 Fit      -0.024869
 1327 Fit      -0.019849
 1328 Fit      -0.017172
 1329 Fit      -0.013328
 1330 Fit      -0.037347
 1331 Fit      -0.030209
 1332 Fit      -0.023680
 1333 Fit      -0.019867
 1334 Fit      -0.017437
 1335 Fit      -0.016283
 1336 Fit      -0.012242
 1337 Fit      -0.027660
 1338 Fit      -0.019942
 1339 Fit      -0.017755
 1340 Fit      -0.015145
 1341 Fit      -0.013290
 1342 Fit      -0.006723
 1343 Fit      -0.010228
 1344 Fit      -0.009763
 1345 Fit      -0.001871
 1346 Fit      -0.006106
 1347 Fit      -0.002608
 1348 Fit      -0.001845
 1349 Fit      -0.001810
 1350 Fit      -0.001306
 1351 Fit       0.002432
 1352 Fit       0.003216
 1353 Fit       0.008378
 1354 Fit       0.004601
 1355 Fit       0.010502
 1356 Fit      -0.004751
 1357 Fit      -0.002924
 1358 Fit      -0.005609
 1359 Fit      -0.004378
 1360 Fit      -0.003583
 1361 Fit      -0.002378
 1362 Fit      -0.005950
 1363 Fit      -0.003197
 1364 Fit      -0.002843
 1365 Fit      -0.007941
 1366 Fit       0.002043
 1367 Fit       0.004723
 1368 Fit      -0.004460
 1369 Fit      -0.003871
 1370 Fit      -0.004160
 1371 Fit      -0.005033
 1372 Fit      -0.007547
 1373 Fit      -0.004642
 1374 Fit      -0.007367
 1375 Fit      -0.012409
 1376 Fit      -0.003615
 1377 Fit      -0.007416
 1378 Fit      -0.016794
 1379 Fit      -0.015863
 1380 Fit      -0.018196
 1381 Fit      -0.017824
 1382 Fit      -0.018284
 1383 Fit      -0.015269
 1384 Fit      -0.012572
 1385 Fit      -0.014714
 1386 Fit      -0.018814
 1387 Fit      -0.018623
 1388 Fit      -0.016071
 1389 Fit      -0.015151
 1390 Fit      -0.017188
 1391 Fit      -0.019586
 1392 Fit      -0.018772
 1393 Fit      -0.013796
 1394 Fit      -0.007692
 1395 Fit      -0.006117
 1396 Fit      -0.009347
 1397 Fit      -0.017477
 1398 Fit      -0.018778
 1399 Fit      -0.015566
 1400 Fit      -0.011048
 1401 Fit      -0.008925
 1402 Fit      -0.010762
 1403 Fit      -0.015027
 1404 Fit      -0.019013
 1405 Fit      -0.020014
 1406 Fit      -0.016554
 1407 Fit      -0.009166
 1408 Fit      -0.013196
 1409 Fit      -0.015743
 1410 Fit      -0.012505
 1411 Fit      -0.006147
 1412 Fit      -0.004448
 1413 Fit      -0.009487
 1414 Fit      -0.014429
 1415 Fit      -0.017337
 1416 Fit      -0.015443
 1417 Fit      -0.009278
 1418 Fit      -0.008926
 1419 Fit      -0.005439
 1420 Fit      -0.009391
 1421 Fit       0.002266
 1422 Fit       0.001747
 1423 Fit       0.004229
 1424 Fit       0.004211
 1425 Fit       0.002196
 1426 Fit       0.004187
 1427 Fit       0.006263
 1428 Fit       0.007031
 1429 Fit       0.006543
 1430 Fit       0.007049
 1431 Fit       0.008044
 1432 Fit       0.008174
 1433 Fit       0.005467
 1434 Fit       0.004930
 1435 Fit       0.009493
 1436 Fit       0.008359
 1437 Fit       0.013206
 1438 Fit       0.010814
 1439 Fit       0.016224
 1440 Fit       0.012448
 1441 Fit       0.005976
 1442 Fit       0.003588
 1443 Fit       0.000729
 1444 Fit       0.002403
 1445 Fit       0.002083
 1446 Fit       0.003661
 1447 Fit       0.006507
 1448 Fit       0.009037
 1449 Fit      -0.004472
 1450 Fit      -0.005990
 1451 Fit       0.003215
 1452 Fit       0.001448
 1453 Fit       0.000735
 1454 Fit      -0.000949
 1455 Fit      -0.004342
 1456 Fit      -0.009954
 1457 Fit       0.002879
 1458 Fit       0.002471
 1459 Fit       0.001564
 1460 Fit       0.000031
 1461 Fit       0.002588
 1462 Fit       0.001978
 1463 Fit       0.008698
 1464 Fit       0.006772
 1465 Fit       0.004861
 1466 Fit       0.010479
 1467 Fit       0.009340
 1468 Fit       0.008301
 1469 Fit       0.006908
 1470 Fit       0.005370
 1471 Fit       0.004186
 1472 Fit       0.009534
 1473 Fit       0.009250
 1474 Fit       0.008198
 1475 Fit       0.006755
 1476 Fit       0.006562
 1477 Fit       0.008359
 1478 Fit       0.008272
 1479 Fit      -0.000642
 1480 Fit       0.003026
 1481 Fit       0.007136
 1482 Fit       0.006294
 1483 Fit       0.010569
 1484 Fit       0.012075
 1485 Fit       0.008310
 1486 Fit       0.012236
 1487 Fit       0.008283
 1488 Fit       0.007556
 1489 Fit       0.007290
 1490 Fit       0.007581
 1491 Fit       0.006240
 1492 Fit       0.005998
 1493 Fit       0.006050
 1494 Fit       0.006513
 1495 Fit       0.011508
 1496 Fit       0.011634
 1497 Fit       0.007196
 1498 Fit       0.006191
 1499 Fit       0.006266
 1500 Fit       0.009730
 1501 Fit       0.014524
 1502 Fit       0.013685
 1503 Fit       0.012273
 1504 Fit       0.010175
 1505 Fit       0.014848
 1506 Fit       0.011592
 1507 Fit       0.010951
 1508 Fit       0.009418
 1509 Fit       0.011446
 1510 Fit       0.009431
 1511 Fit       0.008442
 1512 Fit       0.007456
 1513 Fit       0.008795
 1514 Fit       0.009969
 1515 Fit       0.010726
 1516 Fit       0.006730
 1517 Fit       0.007520
 1518 Fit       0.008556
 1519 Fit       0.009473
 1520 Fit       0.010001
 1521 Fit       0.010108
 1522 Fit       0.009764
 1523 Fit       0.008689
 1524 Fit       0.007831
 1525 Fit       0.007723
 1526 Fit       0.008528
 1527 Fit       0.009336
 1528 Fit       0.009384
 1529 Fit       0.008700
 1530 Fit       0.000904
 1531 Fit       0.001707
 1532 Fit       0.002900
 1533 Fit       0.007358
 1534 Fit       0.005479
 1535 Fit       0.005531
 1536 Fit       0.005834
 1537 Fit       0.005471
 1538 Fit       0.007275
 1539 Fit       0.006604
 1540 Fit       0.006515
 1541 Fit       0.006396
 1542 Fit       0.006207
 1543 Fit       0.006257
 1544 Fit       0.006204
 1545 Fit       0.006155
 1546 Fit      -0.003147
 1547 Fit      -0.001351
 1548 Fit       0.002507
 1549 Fit       0.005990
 1550 Fit       0.008600
 1551 Fit       0.010630
 1552 Fit       0.010335
 1553 Fit      -0.000628
 1554 Fit      -0.000100
 1555 Fit      -0.001036
 1556 Fit      -0.003084
 1557 Fit       0.003739
 1558 Fit       0.004185
 1559 Fit       0.004033
 1560 Fit       0.003454
 1561 Fit       0.002624
 1562 Fit       0.006501
 1563 Fit       0.006620
 1564 Fit       0.006538
 1565 Fit       0.006210
 1566 Fit       0.005889
 1567 Fit       0.008318
 1568 Fit       0.008364
 1569 Fit       0.008255
 1570 Fit       0.003117
 1571 Fit       0.004123
 1572 Fit       0.005571
 1573 Fit       0.007760
 1574 Fit       0.006857
 1575 Fit       0.007717
 1576 Fit       0.009256
 1577 Fit       0.011588
 1578 Fit       0.012950
 1579 Fit       0.008841
 1580 Fit       0.009542
 1581 Fit       0.010966
 1582 Fit       0.010898
 1583 Fit       0.010636
 1584 Fit      -0.016638
 1585 Fit      -0.014695
 1586 Fit      -0.015207
 1587 Fit      -0.011810
 1588 Fit      -0.008187
 1589 Fit      -0.010391
 1590 Fit      -0.011116
 1591 Fit      -0.009417
 1592 Fit       0.002046
 1593 Fit       0.008184
 1594 Fit       0.009894
 1595 Fit       0.008266
 1596 Fit       0.012865
 1597 Fit       0.009342
 1598 Fit       0.010907
 1599 Fit       0.013409
 1600 Fit       0.015447
 1601 Fit       0.010429
 1602 Fit       0.010978
 1603 Fit       0.012009
 1604 Fit       0.014150
 1605 Fit       0.015869
 1606 Fit       0.012923
 1607 Fit       0.013106
 1608 Fit       0.015097
 1609 Fit       0.014576
 1610 Fit      -0.007398
 1611 Fit      -0.001508
 1612 Fit      -0.013216
 1613 Fit      -0.005429
 1614 Fit      -0.001000
 1615 Fit       0.003707
 1616 Fit      -0.008009
 1617 Fit      -0.001729
 1618 Fit       0.001944
 1619 Fit       0.003665
 1620 Fit       0.008119
 1621 Fit      -0.001991
 1622 Fit       0.002579
 1623 Fit       0.005149
 1624 Fit       0.006802
 1625 Fit      -0.000390
 1626 Fit       0.011903
 1627 Fit       0.015643
 1628 Fit       0.013833
 1629 Fit       0.002519
 1630 Fit       0.006723
 1631 Fit       0.007668
 1632 Fit       0.006346
 1633 Fit       0.009064
 1634 Fit       0.009177
 1635 Fit       0.009981
 1636 Fit       0.009405
 1637 Fit       0.010791
 1638 Fit       0.010443
 1639 Fit       0.010573
 1640 Fit       0.011739
 1641 Fit       0.012517
 1642 Fit       0.011754
 1643 Fit       0.011880
 1644 Fit       0.014649
 1645 Fit       0.011663
 1646 Fit       0.012889
 1647 Fit       0.011574
 1648 Fit       0.010508
 1649 Fit       0.008867
 1650 Fit      -0.002996
 1651 Fit      -0.013542
 1652 Fit      -0.010238
 1653 Fit      -0.007267
 1654 Fit      -0.001279
 1655 Fit       0.008636
 1656 Fit       0.007867
 1657 Fit       0.009507
 1658 Fit       0.011297
 1659 Fit       0.007816
 1660 Fit       0.005780
 1661 Fit       0.001774
 1662 Fit       0.010291
 1663 Fit       0.008812
 1664 Fit       0.007255
 1665 Fit       0.004803
 1666 Fit       0.001806
 1667 Fit       0.000428
 1668 Fit       0.009905
 1669 Fit       0.007907
 1670 Fit       0.006849
 1671 Fit       0.003804
 1672 Fit       0.004964
 1673 Fit       0.005809
 1674 Fit       0.006186
 1675 Fit       0.002467
 1676 Fit       0.006763
 1677 Fit       0.007133
 1678 Fit       0.007213
 1679 Fit       0.007536
 1680 Fit       0.005483
 1681 Fit       0.008868
 1682 Fit       0.008437
 1683 Fit       0.008222
 1684 Fit       0.008380
 1685 Fit       0.009621
 1686 Fit       0.009264
 1687 Fit      -0.012049
 1688 Fit      -0.002120
 1689 Fit       0.003234
 1690 Fit       0.003616
 1691 Fit       0.003492
 1692 Fit      -0.000663
 1693 Fit      -0.006221
 1694 Fit       0.005224
 1695 Fit       0.002203
 1696 Fit      -0.002440
 1697 Fit       0.006056
 1698 Fit       0.002733
 1699 Fit      -0.001227
 1700 Fit       0.007219
 1701 Fit       0.003303
 1702 Fit      -0.010681
 1703 Fit      -0.004606
 1704 Fit      -0.008616
 1705 Fit      -0.011322
 1706 Fit      -0.006020
 1707 Fit      -0.000803
 1708 Fit      -0.001002
 1709 Fit      -0.005113
 1710 Fit      -0.002795
 1711 Fit       0.001904
 1712 Fit      -0.009155
 1713 Fit      -0.007597
 1714 Fit      -0.002969
 1715 Fit      -0.003415
 1716 Fit      -0.004502
 1717 Fit      -0.004684
 1718 Fit      -0.007548
 1719 Fit      -0.014518
 1720 Fit      -0.003991
 1721 Fit      -0.000363
 1722 Fit      -0.009877
 1723 Fit      -0.010119
 1724 Fit      -0.007759
 1725 Fit      -0.007173
 1726 Fit      -0.006945
 1727 Fit      -0.005263
 1728 Fit      -0.007258
 1729 Fit      -0.009290
 1730 Fit      -0.011721
 1731 Fit      -0.017113
 1732 Fit      -0.000089
 1733 Fit       0.003784
 1734 Fit      -0.003794
 1735 Fit      -0.004117
 1736 Fit      -0.001866
 1737 Fit      -0.002085
 1738 Fit      -0.002764
 1739 Fit      -0.000326
 1740 Fit       0.000357
 1741 Fit      -0.001635
 1742 Fit       0.000944
 1743 Fit       0.001834
 1744 Fit       0.001438
 1745 Fit      -0.003133
 1746 Fit       0.002876
 1747 Fit       0.000029
 1748 Fit       0.003027
 1749 Fit      -0.000234
 1750 Fit       0.006755
 1751 Fit       0.009263
 1752 Fit       0.007339
 1753 Fit       0.004476
 1754 Fit       0.002343
 1755 Fit       0.003914
 1756 Fit       0.006934
 1757 Fit       0.006431
 1758 Fit       0.005044
 1759 Fit       0.003568
 1760 Fit       0.005645
 1761 Fit      -0.023796
 1762 Fit      -0.028408
 1763 Fit      -0.021340
 1764 Fit      -0.018750
 1765 Fit      -0.020879
 1766 Fit      -0.023408
 1767 Fit      -0.029735
 1768 Fit      -0.011505
 1769 Fit      -0.015072
 1770 Fit      -0.018297
 1771 Fit      -0.019521
 1772 Fit      -0.019725
 1773 Fit      -0.020816
 1774 Fit      -0.023917
 1775 Fit      -0.025890
 1776 Fit      -0.012956
 1777 Fit      -0.017327
 1778 Fit      -0.018794
 1779 Fit      -0.017992
 1780 Fit      -0.016551
 1781 Fit      -0.016077
 1782 Fit      -0.017223
 1783 Fit      -0.020191
 1784 Fit      -0.008204
 1785 Fit      -0.014677
 1786 Fit      -0.017887
 1787 Fit      -0.017983
 1788 Fit      -0.015827
 1789 Fit      -0.013007
 1790 Fit      -0.011067
 1791 Fit      -0.010394
 1792 Fit      -0.007423
 1793 Fit      -0.013393
 1794 Fit      -0.016395
 1795 Fit      -0.016299
 1796 Fit      -0.013652
 1797 Fit      -0.009783
 1798 Fit      -0.006508
 1799 Fit      -0.004966
 1800 Fit      -0.004990
 1801 Fit      -0.010860
 1802 Fit      -0.013230
 1803 Fit      -0.011719
 1804 Fit      -0.006955
 1805 Fit      -0.003817
 1806 Fit      -0.007631
 1807 Fit      -0.006479
 1808 Fit       0.001842
 1809 Fit       0.010580
 1810 Fit       0.004975
 1811 Fit      -0.000945
 1812 Fit       0.011192
 1813 Fit       0.007684
 1814 Fit       0.004023
 1815 Fit      -0.000442
 1816 Fit       0.011034
 1817 Fit       0.009717
 1818 Fit       0.007495
 1819 Fit       0.004986
 1820 Fit       0.002965
 1821 Fit       0.008890
 1822 Fit       0.009405
 1823 Fit       0.008164
 1824 Fit       0.009470
 1825 Fit      -0.003200
 1826 Fit       0.001271
 1827 Fit      -0.004823
 1828 Fit       0.008337
 1829 Fit       0.002574
 1830 Fit       0.000778
 1831 Fit       0.004611
 1832 Fit       0.003641
 1833 Fit       0.007583
 1834 Fit       0.004492
 1835 Fit       0.006004
 1836 Fit       0.008117
 1837 Fit       0.011364
 1838 Fit       0.012421
 1839 Fit       0.012503
 1840 Fit       0.007011
 1841 Fit       0.009771
 1842 Fit       0.010710
 1843 Fit      -0.001348
 1844 Fit       0.001388
 1845 Fit      -0.000245
 1846 Fit      -0.001989
 1847 Fit      -0.009976
 1848 Fit      -0.011363
 1849 Fit      -0.014875
 1850 Fit      -0.015966
 1851 Fit      -0.012625
 1852 Fit      -0.007759
 1853 Fit      -0.020483
 1854 Fit      -0.022916
 1855 Fit      -0.020498
 1856 Fit      -0.016642
 1857 Fit      -0.013848
 1858 Fit      -0.010458
 1859 Fit      -0.020186
 1860 Fit      -0.029574
 1861 Fit      -0.024994
 1862 Fit      -0.020067
 1863 Fit      -0.016590
 1864 Fit      -0.013962
 1865 Fit      -0.012400
 1866 Fit      -0.009226
 1867 Fit      -0.022532
 1868 Fit      -0.017276
 1869 Fit      -0.015058
 1870 Fit      -0.011098
 1871 Fit      -0.011905
 1872 Fit      -0.010736
 1873 Fit      -0.007280
 1874 Fit      -0.008210
 1875 Fit      -0.008862
 1876 Fit      -0.004978
 1877 Fit      -0.005129
 1878 Fit       0.000180
 1879 Fit      -0.002512
 1880 Fit      -0.000204
 1881 Fit      -0.001857
 1882 Fit      -0.001135
 1883 Fit       0.003059
 1884 Fit       0.003491
 1885 Fit       0.008042
 1886 Fit       0.009565
 1887 Fit      -0.005969
 1888 Fit      -0.004323
 1889 Fit      -0.006687
 1890 Fit      -0.005364
 1891 Fit      -0.004287
 1892 Fit      -0.003630
 1893 Fit      -0.007077
 1894 Fit      -0.003548
 1895 Fit      -0.003712
 1896 Fit      -0.008311
 1897 Fit      -0.004796
 1898 Fit      -0.002480
 1899 Fit      -0.005007
 1900 Fit      -0.003502
 1901 Fit      -0.001377
 1902 Fit       0.005113
 1903 Fit      -0.005920
 1904 Fit      -0.005268
 1905 Fit      -0.005495
 1906 Fit      -0.005954
 1907 Fit      -0.005774
 1908 Fit      -0.007608
 1909 Fit      -0.010780
 1910 Fit      -0.006364
 1911 Fit      -0.005846
 1912 Fit      -0.010144
 1913 Fit      -0.014351
 1914 Fit      -0.013614
 1915 Fit      -0.015143
 1916 Fit      -0.015036
 1917 Fit      -0.015257
 1918 Fit      -0.013360
 1919 Fit      -0.011685
 1920 Fit      -0.012653
 1921 Fit      -0.015221
 1922 Fit      -0.015294
 1923 Fit      -0.013899
 1924 Fit      -0.013399
 1925 Fit      -0.014602
 1926 Fit      -0.015971
 1927 Fit      -0.015371
 1928 Fit      -0.012288
 1929 Fit      -0.008681
 1930 Fit      -0.007676
 1931 Fit      -0.009459
 1932 Fit      -0.010082
 1933 Fit      -0.014216
 1934 Fit      -0.015219
 1935 Fit      -0.013390
 1936 Fit      -0.010695
 1937 Fit      -0.009409
 1938 Fit      -0.010524
 1939 Fit      -0.013174
 1940 Fit      -0.015624
 1941 Fit      -0.016151
 1942 Fit      -0.013870
 1943 Fit      -0.009253
 1944 Fit      -0.011177
 1945 Fit      -0.013421
 1946 Fit      -0.011930
 1947 Fit      -0.008331
 1948 Fit      -0.004717
 1949 Fit      -0.003445
 1950 Fit      -0.005091
 1951 Fit      -0.008231
 1952 Fit      -0.011601
 1953 Fit      -0.014211
 1954 Fit      -0.014592
 1955 Fit      -0.012112
 1956 Fit      -0.009465
 1957 Fit      -0.008395
 1958 Fit      -0.004736
 1959 Fit      -0.010898
 1960 Fit      -0.009501
 1961 Fit      -0.003147
 1962 Fit      -0.002230
 1963 Fit      -0.001470
 1964 Fit       0.007031
 1965 Fit       0.007906
 1966 Fit      -0.000906
 1967 Fit       0.001580
 1968 Fit       0.001612
 1969 Fit       0.001203
 1970 Fit       0.003580
 1971 Fit       0.004652
 1972 Fit       0.004594
 1973 Fit       0.003672
 1974 Fit       0.004227
 1975 Fit       0.005529
 1976 Fit       0.006266
 1977 Fit       0.006251
 1978 Fit       0.006773
 1979 Fit       0.007365
 1980 Fit       0.007707
 1981 Fit       0.001298
 1982 Fit       0.001689
 1983 Fit       0.006505
 1984 Fit       0.005710
 1985 Fit       0.008904
 1986 Fit       0.008081
 1987 Fit       0.011780
 1988 Fit       0.009972
 1989 Fit       0.014424
 1990 Fit       0.011427
 1991 Fit       0.003514
 1992 Fit      -0.006281
 1993 Fit       0.003628
 1994 Fit      -0.000696
 1995 Fit       0.003027
 1996 Fit       0.001299
 1997 Fit       0.003185
 1998 Fit       0.002506
 1999 Fit       0.002846
 2000 Fit       0.011849
 2001 Fit       0.004057
 2002 Fit       0.005044
 2003 Fit       0.012970
 2004 Fit       0.006523
 2005 Fit       0.008662
 2006 Fit      -0.008162
 2007 Fit       0.001047
 2008 Fit      -0.000391
 2009 Fit      -0.001248
 2010 Fit      -0.003042
 2011 Fit      -0.006598
 2012 Fit       0.002145
 2013 Fit       0.001508
 2014 Fit       0.000757
 2015 Fit      -0.000536
 2016 Fit      -0.002301
 2017 Fit       0.002340
 2018 Fit       0.001789
 2019 Fit       0.001012
 2020 Fit       0.006646
 2021 Fit       0.007967
 2022 Fit       0.006758
 2023 Fit       0.005435
 2024 Fit       0.004189
 2025 Fit       0.009392
 2026 Fit       0.008350
 2027 Fit       0.007434
 2028 Fit       0.006345
 2029 Fit       0.005215
 2030 Fit       0.004434
 2031 Fit       0.008722
 2032 Fit       0.008219
 2033 Fit       0.007266
 2034 Fit       0.006262
 2035 Fit       0.006417
 2036 Fit       0.008004
 2037 Fit       0.007519
 2038 Fit       0.001782
 2039 Fit       0.004428
 2040 Fit       0.008156
 2041 Fit       0.005992
 2042 Fit       0.009489
 2043 Fit       0.007745
 2044 Fit       0.011011
 Job cpu time:       0 days  0 hours 13 minutes 45.0 seconds.
 Normal termination of Gaussian 16 at Sun Jul  9 07:35:01 2023.
