 Copyright (c) 1988-2019, Gaussian, Inc.  All Rights Reserved.
  
 This is part of the Gaussian(R) 16 program.  It is based on
 the Gaussian(R) 09 system (copyright 2009, Gaussian, Inc.),
 the Gaussian(R) 03 system (copyright 2003, Gaussian, Inc.),
 the Gaussian(R) 98 system (copyright 1998, Gaussian, Inc.),
 the Gaussian(R) 94 system (copyright 1995, Gaussian, Inc.),
 the Gaussian 92(TM) system (copyright 1992, Gaussian, Inc.),
 the Gaussian 90(TM) system (copyright 1990, Gaussian, Inc.),
 the Gaussian 88(TM) system (copyright 1988, Gaussian, Inc.),
 the Gaussian 86(TM) system (copyright 1986, Carnegie Mellon
 University), and the Gaussian 82(TM) system (copyright 1983,
 Carnegie Mellon University). Gaussian is a federally registered
 trademark of Gaussian, Inc.
 Cite this work as:
 Gaussian 16, Revision C.01,
 M. J. Frisch, G. W. Trucks, H. B. Schlegel, G. E. Scuseria, 
 M. A. Robb, J. R. Cheeseman, G. Scalmani, V. Barone, 
 G. A. Petersson, H. Nakatsuji, X. Li, M. Caricato, A. V. Marenich, 
 J. Bloino, B. G. Janesko, R. Gomperts, B. Mennucci, H. P. Hratchian, 
 J. V. Ortiz, A. F. Izmaylov, J. L. Sonnenberg, D. Williams-Young, 
 F. Ding, F. Lipparini, F. Egidi, J. Goings, B. Peng, A. Petrone, 
 T. Henderson, D. Ranasinghe, V. G. Zakrzewski, J. Gao, N. Rega, 
 G. Zheng, W. Liang, M. Hada, M. Ehara, K. Toyota, R. Fukuda, 
 J. Hasegawa, M. Ishida, T. Nakajima, Y. Honda, O. Kitao, H. Nakai, 
 T. Vreven, K. Throssell, J. A. Montgomery, Jr., J. E. Peralta, 
 F. Ogliaro, M. J. Bearpark, J. J. Heyd, E. N. Brothers, K. N. Kudin, 
 V. N. Staroverov, T. A. Keith, R. Kobayashi, J. Normand, 
 K. Raghavachari, A. P. Rendell, J. C. Burant, S. S. Iyengar, 
 J. Tomasi, M. Cossi, J. M. Millam, M. Klene, C. Adamo, R. Cammi, 
 J. W. Ochterski, R. L. Martin, K. Morokuma, O. Farkas, 
 J. B. Foresman, and D. J. Fox, Gaussian, Inc., Wallingford CT, 2019.
 
 ******************************************
 Gaussian 16:  EM64L-G16RevC.01  3-Jul-2019
                 9-Jul-2023 
 ******************************************
 ----------------------------------------------------------------------
 #P B3LYP/6-31G(d) Integral=Ultrafine SCF(Conver=8,XQC,MaxConventionalC
 ycles=64,MaxCycle=128) NoSymm Test Pop=mk IOp(6/33=2) GFInput GFPrint
 ----------------------------------------------------------------------
 1/38=1,172=1/1;
 2/12=2,15=1,17=6,18=5,40=1/2;
 3/5=1,6=6,7=1,11=2,24=110,25=1,30=1,74=-5,75=-5/1,2,3;
 4//1;
 5/5=2,6=8,7=128,8=3,13=1,38=5,85=64/2,8;
 6/7=2,8=2,9=2,10=2,15=8,20=1,28=1,33=2/1,2;
 99/5=1,9=1/99;
 -------------------------------------------------
 MEP step - Input generated by PyRED DVE-DMDS-OPLS
 -------------------------------------------------
 Symbolic Z-matrix:
 Charge =  0 Multiplicity = 1
 C                     4.73099   7.72525   2.7157 
 H                     5.81149   7.77111   2.54155 
 H                     4.23305   8.32091   1.94325 
 H                     4.53232   8.18752   3.68974 
 C                     4.20765   6.28968   2.69997 
 H                     4.71635   5.68676   3.47024 
 H                     3.13652   6.28078   2.92768 
 O                     4.32394   5.65345   1.43272 
 C                     5.63802   5.2472    1.09079 
 H                     6.08434   4.65425   1.90618 
 H                     6.29126   6.11777   0.91129 
 C                     5.59729   4.40444  -0.17747 
 H                     5.02402   4.93934  -0.95102 
 H                     6.62523   4.28084  -0.53899 
 O                     5.09328   3.09455   0.00782 
 C                     3.6771    2.97815   0.00812 
 H                     3.24666   3.45835  -0.88478 
 H                     3.23179   3.45311   0.88933 
 C                     3.36098   1.48957  -0.00676 
 H                     3.80931   1.00459   0.87556 
 H                     3.80059   1.02161  -0.9021 
 O                     1.95101   1.34933   0. 
 C                     1.52514   0.        0. 
 H                     1.91472  -0.52683   0.88732 
 H                     1.9026   -0.5328   -0.88739 
 C                     0.        0.        0. 
 H                    -0.3707    0.47421  -0.91363 
 H                    -0.37799   0.58583   0.84368 
 S                    -0.72149  -1.68733   0.02411 
 C                    -0.62575  -2.10499   1.81693 
 H                    -0.70269  -3.19577   1.8508 
 H                     0.3597   -1.83751   2.20944 
 C                    -1.7368   -1.45676   2.64399 
 H                    -2.72183  -1.7626    2.27721 
 H                    -1.68764  -0.36627   2.56151 
 S                    -1.63814  -1.77399   4.45491 
 C                    -2.22949  -3.51735   4.59109 
 H                    -2.91808  -3.70856   3.7616 
 H                    -2.81497  -3.56551   5.5136 
 C                    -1.10384  -4.55356   4.64294 
 H                    -0.49138  -4.52852   3.73564 
 H                    -0.43815  -4.33858   5.48421 
 S                    -1.69478  -6.27214   4.92083 
 C                    -2.37014  -6.68744   3.25924 
 H                    -3.20969  -6.02436   3.02513 
 H                    -1.58527  -6.52077   2.51227 
 C                    -2.82879  -8.14539   3.2372 
 H                    -1.9976   -8.82523   3.45108 
 H                    -3.61503  -8.32504   3.97806 
 H                    -3.23057  -8.39788   2.24944 
 
 ITRead=  0  0  0  0  0  0  0  0  0  0  0  0  0  0  0  0  0  0  0  0
 ITRead=  0  0  0  0  0  0  0  0  0  0  0  0  0  0  0  0  0  0  0  0
 ITRead=  0  0  0  0  0  0  0  0  0  0
 MicOpt= -1 -1 -1 -1 -1 -1 -1 -1 -1 -1 -1 -1 -1 -1 -1 -1 -1 -1 -1 -1
 MicOpt= -1 -1 -1 -1 -1 -1 -1 -1 -1 -1 -1 -1 -1 -1 -1 -1 -1 -1 -1 -1
 MicOpt= -1 -1 -1 -1 -1 -1 -1 -1 -1 -1
 NAtoms=     50 NQM=       50 NQMF=       0 NMMI=      0 NMMIF=      0
                NMic=       0 NMicF=      0.
                          Input orientation:                          
 ---------------------------------------------------------------------
 Center     Atomic      Atomic             Coordinates (Angstroms)
 Number     Number       Type             X           Y           Z
 ---------------------------------------------------------------------
      1          6           0        4.730990    7.725248    2.715700
      2          1           0        5.811486    7.771114    2.541549
      3          1           0        4.233048    8.320906    1.943251
      4          1           0        4.532316    8.187522    3.689744
      5          6           0        4.207647    6.289682    2.699973
      6          1           0        4.716348    5.686764    3.470236
      7          1           0        3.136521    6.280775    2.927675
      8          8           0        4.323939    5.653450    1.432718
      9          6           0        5.638023    5.247197    1.090794
     10          1           0        6.084339    4.654254    1.906183
     11          1           0        6.291256    6.117770    0.911294
     12          6           0        5.597294    4.404444   -0.177471
     13          1           0        5.024017    4.939336   -0.951024
     14          1           0        6.625228    4.280836   -0.538989
     15          8           0        5.093284    3.094553    0.007822
     16          6           0        3.677101    2.978154    0.008121
     17          1           0        3.246661    3.458350   -0.884776
     18          1           0        3.231790    3.453109    0.889334
     19          6           0        3.360976    1.489572   -0.006755
     20          1           0        3.809312    1.004586    0.875558
     21          1           0        3.800591    1.021613   -0.902101
     22          8           0        1.951013    1.349325    0.000000
     23          6           0        1.525135    0.000000    0.000000
     24          1           0        1.914719   -0.526831    0.887315
     25          1           0        1.902597   -0.532796   -0.887393
     26          6           0        0.000000    0.000000    0.000000
     27          1           0       -0.370701    0.474212   -0.913625
     28          1           0       -0.377992    0.585829    0.843675
     29         16           0       -0.721493   -1.687326    0.024113
     30          6           0       -0.625751   -2.104986    1.816925
     31          1           0       -0.702689   -3.195771    1.850799
     32          1           0        0.359695   -1.837513    2.209438
     33          6           0       -1.736795   -1.456758    2.643991
     34          1           0       -2.721831   -1.762602    2.277207
     35          1           0       -1.687641   -0.366273    2.561509
     36         16           0       -1.638139   -1.773989    4.454910
     37          6           0       -2.229494   -3.517350    4.591092
     38          1           0       -2.918083   -3.708564    3.761597
     39          1           0       -2.814966   -3.565506    5.513600
     40          6           0       -1.103840   -4.553562    4.642935
     41          1           0       -0.491379   -4.528516    3.735644
     42          1           0       -0.438149   -4.338575    5.484212
     43         16           0       -1.694776   -6.272141    4.920834
     44          6           0       -2.370143   -6.687436    3.259235
     45          1           0       -3.209687   -6.024357    3.025132
     46          1           0       -1.585271   -6.520773    2.512267
     47          6           0       -2.828787   -8.145393    3.237199
     48          1           0       -1.997596   -8.825227    3.451081
     49          1           0       -3.615028   -8.325038    3.978063
     50          1           0       -3.230568   -8.397878    2.249440
 ---------------------------------------------------------------------
 Stoichiometry    C14H30O3S3
 Framework group  C1[X(C14H30O3S3)]
 Standard basis: 6-31G(d) (6D, 7F)
   372 basis functions,   752 primitive gaussians,   372 cartesian basis functions
    93 alpha electrons       93 beta electrons
 Requested convergence on RMS density matrix=1.00D-08 within  64 cycles.
 Requested convergence on MAX density matrix=1.00D-06.
 Requested convergence on             energy=1.00D-06.
 SCF Done:  E(RB3LYP) =  -1971.75716793     A.U. after   13 cycles
            NFock= 13  Conv=0.42D-08     -V/T= 2.0058
 Mulliken charges:
     1  C   -0.461969
     2  H    0.150343
     3  H    0.158842
     4  H    0.146193
     5  C   -0.015251
     6  H    0.122837
     7  H    0.147257
     8  O   -0.468520
     9  C   -0.023884
    10  H    0.129194
    11  H    0.118306
    12  C   -0.034959
    13  H    0.134289
    14  H    0.142291
    15  O   -0.485039
    16  C   -0.029496
    17  H    0.128520
    18  H    0.156693
    19  C   -0.024704
    20  H    0.130247
    21  H    0.129853
    22  O   -0.486671
    23  C    0.005965
    24  H    0.125214
    25  H    0.136354
    26  C   -0.438777
    27  H    0.189189
    28  H    0.181076
    29  S    0.083066
    30  C   -0.414994
    31  H    0.177604
    32  H    0.188396
    33  C   -0.410552
    34  H    0.183647
    35  H    0.184706
    36  S    0.084283
    37  C   -0.415049
    38  H    0.172864
    39  H    0.194614
    40  C   -0.409955
    41  H    0.172940
    42  H    0.189835
    43  S    0.083712
    44  C   -0.395899
    45  H    0.167446
    46  H    0.165869
    47  C   -0.453467
    48  H    0.166916
    49  H    0.165708
    50  H    0.154920
 Sum of Mulliken charges =  -0.00000
 Dipole moment (field-independent basis, Debye):
    X=              0.9043    Y=              1.3801    Z=             -0.6343  Tot=              1.7677
 Quadrupole moment (field-independent basis, Debye-Ang):
   XX=           -137.0984   YY=           -134.7958   ZZ=           -159.7119
   XY=             15.7185   XZ=              5.4158   YZ=             12.7914
 Traceless Quadrupole moment (field-independent basis, Debye-Ang):
   XX=              6.7703   YY=              9.0729   ZZ=            -15.8432
   XY=             15.7185   XZ=              5.4158   YZ=             12.7914
 Octapole moment (field-independent basis, Debye-Ang**2):
  XXX=           -319.6395  YYY=            281.9000  ZZZ=          -1012.8285  XYY=            -73.8867
  XXY=            126.4417  XXZ=           -288.8002  XZZ=            -78.4370  YZZ=            170.1157
  YYZ=           -325.2710  XYZ=             26.1018
 Hexadecapole moment (field-independent basis, Debye-Ang**3):
 XXXX=          -8007.7188 YYYY=         -17179.2878 ZZZZ=          -7811.6629 XXXY=          -4492.2858
 XXXZ=            754.2690 YYYX=          -4312.6980 YYYZ=           3162.7058 ZZZX=            912.9572
 ZZZY=           2943.9045 XXYY=          -3708.6219 XXZZ=          -2607.7753 YYZZ=          -4590.9545
 XXYZ=            892.4636 YYXZ=            426.6252 ZZXY=          -1693.6880
 Merz-Kollman atomic radii used.
 Atom Element Radius
    1     6    1.50
    2     1    1.20
    3     1    1.20
    4     1    1.20
    5     6    1.50
    6     1    1.20
    7     1    1.20
    8     8    1.40
    9     6    1.50
   10     1    1.20
   11     1    1.20
   12     6    1.50
   13     1    1.20
   14     1    1.20
   15     8    1.40
   16     6    1.50
   17     1    1.20
   18     1    1.20
   19     6    1.50
   20     1    1.20
   21     1    1.20
   22     8    1.40
   23     6    1.50
   24     1    1.20
   25     1    1.20
   26     6    1.50
   27     1    1.20
   28     1    1.20
   29    16    1.75
   30     6    1.50
   31     1    1.20
   32     1    1.20
   33     6    1.50
   34     1    1.20
   35     1    1.20
   36    16    1.75
   37     6    1.50
   38     1    1.20
   39     1    1.20
   40     6    1.50
   41     1    1.20
   42     1    1.20
   43    16    1.75
   44     6    1.50
   45     1    1.20
   46     1    1.20
   47     6    1.50
   48     1    1.20
   49     1    1.20
   50     1    1.20
 Generate VDW surfaces: Layer= 4 Dens= 1 Start= 1.400 Inc= 0.200
            Electrostatic Properties Using The SCF Density.


       Atomic Center    1 is at   4.730990  7.725248  2.715700
       Atomic Center    2 is at   5.811486  7.771114  2.541549
       Atomic Center    3 is at   4.233048  8.320906  1.943251
       Atomic Center    4 is at   4.532316  8.187522  3.689744
       Atomic Center    5 is at   4.207647  6.289682  2.699973
       Atomic Center    6 is at   4.716348  5.686764  3.470236
       Atomic Center    7 is at   3.136521  6.280775  2.927675
       Atomic Center    8 is at   4.323939  5.653450  1.432718
       Atomic Center    9 is at   5.638023  5.247197  1.090794
       Atomic Center   10 is at   6.084339  4.654254  1.906183
       Atomic Center   11 is at   6.291256  6.117770  0.911294
       Atomic Center   12 is at   5.597294  4.404444 -0.177471
       Atomic Center   13 is at   5.024017  4.939336 -0.951024
       Atomic Center   14 is at   6.625228  4.280836 -0.538989
       Atomic Center   15 is at   5.093284  3.094553  0.007822
       Atomic Center   16 is at   3.677101  2.978154  0.008121
       Atomic Center   17 is at   3.246661  3.458350 -0.884776
       Atomic Center   18 is at   3.231790  3.453109  0.889334
       Atomic Center   19 is at   3.360976  1.489572 -0.006755
       Atomic Center   20 is at   3.809312  1.004586  0.875558
       Atomic Center   21 is at   3.800591  1.021613 -0.902101
       Atomic Center   22 is at   1.951013  1.349325  0.000000
       Atomic Center   23 is at   1.525135  0.000000  0.000000
       Atomic Center   24 is at   1.914719 -0.526831  0.887315
       Atomic Center   25 is at   1.902597 -0.532796 -0.887393
       Atomic Center   26 is at   0.000000  0.000000  0.000000
       Atomic Center   27 is at  -0.370701  0.474212 -0.913625
       Atomic Center   28 is at  -0.377992  0.585829  0.843675
       Atomic Center   29 is at  -0.721493 -1.687326  0.024113
       Atomic Center   30 is at  -0.625751 -2.104986  1.816925
       Atomic Center   31 is at  -0.702689 -3.195771  1.850799
       Atomic Center   32 is at   0.359695 -1.837513  2.209438
       Atomic Center   33 is at  -1.736795 -1.456758  2.643991
       Atomic Center   34 is at  -2.721831 -1.762602  2.277207
       Atomic Center   35 is at  -1.687641 -0.366273  2.561509
       Atomic Center   36 is at  -1.638139 -1.773989  4.454910
       Atomic Center   37 is at  -2.229494 -3.517350  4.591092
       Atomic Center   38 is at  -2.918083 -3.708564  3.761597
       Atomic Center   39 is at  -2.814966 -3.565506  5.513600
       Atomic Center   40 is at  -1.103840 -4.553562  4.642935
       Atomic Center   41 is at  -0.491379 -4.528516  3.735644
       Atomic Center   42 is at  -0.438149 -4.338575  5.484212
       Atomic Center   43 is at  -1.694776 -6.272141  4.920834
       Atomic Center   44 is at  -2.370143 -6.687436  3.259235
       Atomic Center   45 is at  -3.209687 -6.024357  3.025132
       Atomic Center   46 is at  -1.585271 -6.520773  2.512267
       Atomic Center   47 is at  -2.828787 -8.145393  3.237199
       Atomic Center   48 is at  -1.997596 -8.825227  3.451081
       Atomic Center   49 is at  -3.615028 -8.325038  3.978063
       Atomic Center   50 is at  -3.230568 -8.397878  2.249440
      ESP Fit Center   51 is at   5.923926  9.453514  2.715700
      ESP Fit Center   52 is at   4.984117  9.809937  2.715700
      ESP Fit Center   53 is at   2.692012  8.227811  2.715700
      ESP Fit Center   54 is at   6.798965  7.771114  3.900698
      ESP Fit Center   55 is at   7.409261  7.771114  3.060698
      ESP Fit Center   56 is at   7.035453  8.798144  3.060698
      ESP Fit Center   57 is at   6.088937  9.344615  3.060698
      ESP Fit Center   58 is at   7.035453  6.744084  3.060698
      ESP Fit Center   59 is at   7.409261  7.771114  2.022400
      ESP Fit Center   60 is at   7.035453  8.798144  2.022400
      ESP Fit Center   61 is at   6.088937  9.344615  2.022400
      ESP Fit Center   62 is at   6.798965  7.771114  1.182400
      ESP Fit Center   63 is at   6.116634  8.710263  1.182400
      ESP Fit Center   64 is at   5.811486  7.771114  0.861549
      ESP Fit Center   65 is at   4.510499  9.894407  2.462400
      ESP Fit Center   66 is at   3.434161  9.704620  2.462400
      ESP Fit Center   67 is at   2.731631  8.867377  2.462400
      ESP Fit Center   68 is at   5.457015  9.347936  1.424102
      ESP Fit Center   69 is at   4.510499  9.894407  1.424102
      ESP Fit Center   70 is at   3.434161  9.704620  1.424102
      ESP Fit Center   71 is at   2.731631  8.867377  1.424102
      ESP Fit Center   72 is at   2.731631  7.774435  1.424102
      ESP Fit Center   73 is at   5.220527  8.320906  0.584102
      ESP Fit Center   74 is at   4.538196  9.260055  0.584102
      ESP Fit Center   75 is at   3.434161  8.901332  0.584102
      ESP Fit Center   76 is at   3.434161  7.740480  0.584102
      ESP Fit Center   77 is at   4.233048  8.320906  0.263251
      ESP Fit Center   78 is at   4.532316  8.187522  5.369744
      ESP Fit Center   79 is at   5.519795  8.187522  5.048893
      ESP Fit Center   80 is at   4.837464  9.126671  5.048893
      ESP Fit Center   81 is at   3.733429  8.767948  5.048893
      ESP Fit Center   82 is at   3.733429  7.607096  5.048893
      ESP Fit Center   83 is at   4.837464  7.248373  5.048893
      ESP Fit Center   84 is at   5.756283  9.214552  4.208893
      ESP Fit Center   85 is at   4.809767  9.761023  4.208893
      ESP Fit Center   86 is at   3.733429  9.571236  4.208893
      ESP Fit Center   87 is at   3.030899  8.733993  4.208893
      ESP Fit Center   88 is at   3.030899  7.641051  4.208893
      ESP Fit Center   89 is at   3.733429  9.571236  3.170595
      ESP Fit Center   90 is at   3.462977  4.326148  2.699973
      ESP Fit Center   91 is at   4.716348  5.686764  5.150236
      ESP Fit Center   92 is at   5.703827  5.686764  4.829385
      ESP Fit Center   93 is at   5.021496  6.625913  4.829385
      ESP Fit Center   94 is at   3.917461  6.267190  4.829385
      ESP Fit Center   95 is at   3.917461  5.106338  4.829385
      ESP Fit Center   96 is at   5.021496  4.747615  4.829385
      ESP Fit Center   97 is at   6.314123  5.686764  3.989385
      ESP Fit Center   98 is at   3.917461  4.303050  3.989385
      ESP Fit Center   99 is at   4.993799  4.113263  3.989385
      ESP Fit Center  100 is at   5.940315  4.659734  3.989385
      ESP Fit Center  101 is at   3.136521  6.280775  4.607675
      ESP Fit Center  102 is at   2.337634  6.861201  4.286824
      ESP Fit Center  103 is at   2.337634  5.700349  4.286824
      ESP Fit Center  104 is at   2.337634  7.664489  3.446824
      ESP Fit Center  105 is at   1.635104  6.827246  3.446824
      ESP Fit Center  106 is at   1.635104  5.734304  3.446824
      ESP Fit Center  107 is at   2.337634  4.897061  3.446824
      ESP Fit Center  108 is at   2.337634  7.664489  2.408526
      ESP Fit Center  109 is at   1.635104  6.827246  2.408526
      ESP Fit Center  110 is at   1.635104  5.734304  2.408526
      ESP Fit Center  111 is at   2.337634  4.897061  2.408526
      ESP Fit Center  112 is at   2.337634  6.861201  1.568526
      ESP Fit Center  113 is at   2.337634  5.700349  1.568526
      ESP Fit Center  114 is at   3.799411  4.039117  2.412718
      ESP Fit Center  115 is at   2.363939  5.653450  1.432718
      ESP Fit Center  116 is at   4.848467  7.267783  0.452718
      ESP Fit Center  117 is at   3.799411  7.267783  0.452718
      ESP Fit Center  118 is at   2.950706  6.651162  0.452718
      ESP Fit Center  119 is at   2.626529  5.653450  0.452718
      ESP Fit Center  120 is at   3.833939  6.502155 -0.264692
      ESP Fit Center  121 is at   3.343939  5.653450 -0.264692
      ESP Fit Center  122 is at   7.738023  5.247197  1.090794
      ESP Fit Center  123 is at   6.084339  4.654254  3.586183
      ESP Fit Center  124 is at   7.071818  4.654254  3.265332
      ESP Fit Center  125 is at   6.389487  5.593403  3.265332
      ESP Fit Center  126 is at   5.285452  4.073828  3.265332
      ESP Fit Center  127 is at   6.389487  3.715105  3.265332
      ESP Fit Center  128 is at   7.682114  4.654254  2.425332
      ESP Fit Center  129 is at   7.308306  5.681284  2.425332
      ESP Fit Center  130 is at   5.285452  3.270540  2.425332
      ESP Fit Center  131 is at   6.361790  3.080753  2.425332
      ESP Fit Center  132 is at   7.308306  3.627224  2.425332
      ESP Fit Center  133 is at   7.682114  4.654254  1.387034
      ESP Fit Center  134 is at   7.308306  3.627224  1.387034
      ESP Fit Center  135 is at   7.278735  6.117770  2.270443
      ESP Fit Center  136 is at   7.889031  6.117770  1.430443
      ESP Fit Center  137 is at   7.515223  7.144800  1.430443
      ESP Fit Center  138 is at   7.889031  6.117770  0.392145
      ESP Fit Center  139 is at   7.515223  7.144800  0.392145
      ESP Fit Center  140 is at   6.568707  7.691271  0.392145
      ESP Fit Center  141 is at   5.492369  7.501484  0.392145
      ESP Fit Center  142 is at   7.278735  6.117770 -0.447855
      ESP Fit Center  143 is at   6.596404  7.056919 -0.447855
      ESP Fit Center  144 is at   5.492369  6.698196 -0.447855
      ESP Fit Center  145 is at   7.127243  3.421206  0.872529
      ESP Fit Center  146 is at   6.352790  6.058749 -1.227471
      ESP Fit Center  147 is at   5.072294  3.495117 -1.996124
      ESP Fit Center  148 is at   6.122294  3.495117 -1.996124
      ESP Fit Center  149 is at   4.225130  6.323050 -0.431875
      ESP Fit Center  150 is at   3.522600  5.485807 -0.431875
      ESP Fit Center  151 is at   6.247984  5.966366 -1.470173
      ESP Fit Center  152 is at   5.301468  6.512837 -1.470173
      ESP Fit Center  153 is at   4.225130  6.323050 -1.470173
      ESP Fit Center  154 is at   3.522600  5.485807 -1.470173
      ESP Fit Center  155 is at   6.011496  4.939336 -2.310173
      ESP Fit Center  156 is at   5.329165  5.878485 -2.310173
      ESP Fit Center  157 is at   4.225130  5.519762 -2.310173
      ESP Fit Center  158 is at   4.225130  4.358910 -2.310173
      ESP Fit Center  159 is at   5.329165  4.000187 -2.310173
      ESP Fit Center  160 is at   5.024017  4.939336 -2.631024
      ESP Fit Center  161 is at   7.612707  4.280836  0.820160
      ESP Fit Center  162 is at   8.223003  4.280836 -0.019840
      ESP Fit Center  163 is at   7.849195  5.307866 -0.019840
      ESP Fit Center  164 is at   7.849195  3.253806 -0.019840
      ESP Fit Center  165 is at   8.223003  4.280836 -1.058138
      ESP Fit Center  166 is at   7.849195  5.307866 -1.058138
      ESP Fit Center  167 is at   6.902679  5.854337 -1.058138
      ESP Fit Center  168 is at   6.902679  2.707335 -1.058138
      ESP Fit Center  169 is at   7.849195  3.253806 -1.058138
      ESP Fit Center  170 is at   7.612707  4.280836 -1.898138
      ESP Fit Center  171 is at   6.930376  5.219985 -1.898138
      ESP Fit Center  172 is at   6.930376  3.341687 -1.898138
      ESP Fit Center  173 is at   6.625228  4.280836 -2.218989
      ESP Fit Center  174 is at   5.093284  3.094553  1.967822
      ESP Fit Center  175 is at   5.583284  2.245848  1.705232
      ESP Fit Center  176 is at   6.790694  3.094553  0.987822
      ESP Fit Center  177 is at   5.617812  1.480220  0.987822
      ESP Fit Center  178 is at   6.466517  2.096841  0.987822
      ESP Fit Center  179 is at   6.073284  1.397143  0.007822
      ESP Fit Center  180 is at   6.790694  2.114553  0.007822
      ESP Fit Center  181 is at   5.617812  1.480220 -0.972178
      ESP Fit Center  182 is at   6.466517  2.096841 -0.972178
      ESP Fit Center  183 is at   5.583284  2.245848 -1.689588
      ESP Fit Center  184 is at   5.093284  3.094553 -1.952178
      ESP Fit Center  185 is at   2.932431  4.941688  0.008121
      ESP Fit Center  186 is at   2.105228  4.370712  0.008121
      ESP Fit Center  187 is at   1.638123  3.480717  0.008121
      ESP Fit Center  188 is at   2.447774  4.842064 -0.365627
      ESP Fit Center  189 is at   1.745244  4.004821 -0.365627
      ESP Fit Center  190 is at   2.447774  4.842064 -1.403925
      ESP Fit Center  191 is at   1.745244  4.004821 -1.403925
      ESP Fit Center  192 is at   1.745244  2.911879 -1.403925
      ESP Fit Center  193 is at   4.234140  3.458350 -2.243925
      ESP Fit Center  194 is at   3.551809  4.397499 -2.243925
      ESP Fit Center  195 is at   2.447774  4.038776 -2.243925
      ESP Fit Center  196 is at   2.447774  2.877924 -2.243925
      ESP Fit Center  197 is at   3.551809  2.519201 -2.243925
      ESP Fit Center  198 is at   3.246661  3.458350 -2.564776
      ESP Fit Center  199 is at   3.231790  3.453109  2.569334
      ESP Fit Center  200 is at   4.219269  3.453109  2.248483
      ESP Fit Center  201 is at   2.432903  4.033535  2.248483
      ESP Fit Center  202 is at   2.432903  2.872683  2.248483
      ESP Fit Center  203 is at   3.536938  2.513960  2.248483
      ESP Fit Center  204 is at   2.432903  4.836823  1.408483
      ESP Fit Center  205 is at   1.730373  3.999580  1.408483
      ESP Fit Center  206 is at   1.730373  2.906638  1.408483
      ESP Fit Center  207 is at   2.432903  4.836823  0.370185
      ESP Fit Center  208 is at   1.730373  3.999580  0.370185
      ESP Fit Center  209 is at   3.614103 -0.595117 -0.006755
      ESP Fit Center  210 is at   4.553912 -0.238694 -0.006755
      ESP Fit Center  211 is at   5.220434  0.513653 -0.006755
      ESP Fit Center  212 is at   3.809312  1.004586  2.555558
      ESP Fit Center  213 is at   4.796791  1.004586  2.234707
      ESP Fit Center  214 is at   4.114460  1.943735  2.234707
      ESP Fit Center  215 is at   3.010425  1.585012  2.234707
      ESP Fit Center  216 is at   3.010425  0.424160  2.234707
      ESP Fit Center  217 is at   4.114460  0.065437  2.234707
      ESP Fit Center  218 is at   5.407087  1.004586  1.394707
      ESP Fit Center  219 is at   4.086763 -0.568915  1.394707
      ESP Fit Center  220 is at   5.033279 -0.022444  1.394707
      ESP Fit Center  221 is at   5.407087  1.004586  0.356409
      ESP Fit Center  222 is at   4.086763 -0.568915  0.356409
      ESP Fit Center  223 is at   5.033279 -0.022444  0.356409
      ESP Fit Center  224 is at   5.398366  1.021613 -0.382952
      ESP Fit Center  225 is at   4.078042 -0.551888 -0.382952
      ESP Fit Center  226 is at   5.024558 -0.005417 -0.382952
      ESP Fit Center  227 is at   5.398366  1.021613 -1.421250
      ESP Fit Center  228 is at   4.078042 -0.551888 -1.421250
      ESP Fit Center  229 is at   5.024558 -0.005417 -1.421250
      ESP Fit Center  230 is at   4.788070  1.021613 -2.261250
      ESP Fit Center  231 is at   4.105739  1.960762 -2.261250
      ESP Fit Center  232 is at   3.001704  1.602039 -2.261250
      ESP Fit Center  233 is at   3.001704  0.441187 -2.261250
      ESP Fit Center  234 is at   4.105739  0.082464 -2.261250
      ESP Fit Center  235 is at   3.800591  1.021613 -2.582101
      ESP Fit Center  236 is at   1.951013  1.349325  1.960000
      ESP Fit Center  237 is at   1.461013  2.198030  1.697410
      ESP Fit Center  238 is at   0.971013  1.349325  1.697410
      ESP Fit Center  239 is at   1.426485  2.963658  0.980000
      ESP Fit Center  240 is at   0.577780  2.347037  0.980000
      ESP Fit Center  241 is at   0.971013  3.046735  0.000000
      ESP Fit Center  242 is at   0.253603  2.329325  0.000000
      ESP Fit Center  243 is at   1.426485  2.963658 -0.980000
      ESP Fit Center  244 is at   0.577780  2.347037 -0.980000
      ESP Fit Center  245 is at   1.461013  2.198030 -1.697410
      ESP Fit Center  246 is at   0.971013  1.349325 -1.697410
      ESP Fit Center  247 is at   1.951013  1.349325 -1.960000
      ESP Fit Center  248 is at   1.000135  0.909327  1.818653
      ESP Fit Center  249 is at   1.778262 -2.084689  0.000000
      ESP Fit Center  250 is at   2.718071 -1.728266  0.000000
      ESP Fit Center  251 is at   3.384593 -0.975919  0.000000
      ESP Fit Center  252 is at   1.000135  0.909327 -1.818653
      ESP Fit Center  253 is at   1.914719 -0.526831  2.567315
      ESP Fit Center  254 is at   2.902198 -0.526831  2.246464
      ESP Fit Center  255 is at   2.219867  0.412318  2.246464
      ESP Fit Center  256 is at   1.115832  0.053595  2.246464
      ESP Fit Center  257 is at   2.219867 -1.465980  2.246464
      ESP Fit Center  258 is at   2.192170 -2.100332  1.406464
      ESP Fit Center  259 is at   3.138686 -1.553861  1.406464
      ESP Fit Center  260 is at   2.192170 -2.100332  0.368166
      ESP Fit Center  261 is at   3.138686 -1.553861  0.368166
      ESP Fit Center  262 is at   2.180048 -2.106297 -0.368244
      ESP Fit Center  263 is at   3.126564 -1.559826 -0.368244
      ESP Fit Center  264 is at   2.180048 -2.106297 -1.406542
      ESP Fit Center  265 is at   3.126564 -1.559826 -1.406542
      ESP Fit Center  266 is at   2.890076 -0.532796 -2.246542
      ESP Fit Center  267 is at   2.207745  0.406353 -2.246542
      ESP Fit Center  268 is at   1.103710  0.047630 -2.246542
      ESP Fit Center  269 is at   1.103710 -1.113222 -2.246542
      ESP Fit Center  270 is at   2.207745 -1.471945 -2.246542
      ESP Fit Center  271 is at   1.902597 -0.532796 -2.567393
      ESP Fit Center  272 is at  -2.038978  0.502563  0.000000
      ESP Fit Center  273 is at  -1.169588  1.857926 -0.394476
      ESP Fit Center  274 is at  -1.872118  1.020683 -0.394476
      ESP Fit Center  275 is at  -0.093250  2.047713 -1.432774
      ESP Fit Center  276 is at  -1.169588  1.857926 -1.432774
      ESP Fit Center  277 is at  -1.872118  1.020683 -1.432774
      ESP Fit Center  278 is at  -1.872118 -0.072259 -1.432774
      ESP Fit Center  279 is at   0.616778  0.474212 -2.272774
      ESP Fit Center  280 is at  -0.065553  1.413361 -2.272774
      ESP Fit Center  281 is at  -1.169588  1.054638 -2.272774
      ESP Fit Center  282 is at  -1.169588 -0.106214 -2.272774
      ESP Fit Center  283 is at  -0.065553 -0.464937 -2.272774
      ESP Fit Center  284 is at  -0.370701  0.474212 -2.593625
      ESP Fit Center  285 is at   0.609487  0.585829  2.202824
      ESP Fit Center  286 is at  -0.072844  1.524978  2.202824
      ESP Fit Center  287 is at  -0.100541  2.159330  1.362824
      ESP Fit Center  288 is at  -1.176879  1.969543  1.362824
      ESP Fit Center  289 is at  -1.879409  1.132300  1.362824
      ESP Fit Center  290 is at  -0.100541  2.159330  0.324526
      ESP Fit Center  291 is at  -1.176879  1.969543  0.324526
      ESP Fit Center  292 is at  -1.879409  1.132300  0.324526
      ESP Fit Center  293 is at  -2.210744  0.180136  0.569289
      ESP Fit Center  294 is at  -2.873523 -0.650963  0.569289
      ESP Fit Center  295 is at  -3.110066 -1.687326  0.569289
      ESP Fit Center  296 is at  -2.873523 -2.723689  0.569289
      ESP Fit Center  297 is at  -2.210744 -3.554788  0.569289
      ESP Fit Center  298 is at   0.767758 -3.554788  0.569289
      ESP Fit Center  299 is at   1.430537 -2.723689  0.569289
      ESP Fit Center  300 is at  -2.210744  0.180136 -0.521063
      ESP Fit Center  301 is at  -2.873523 -0.650963 -0.521063
      ESP Fit Center  302 is at  -3.110066 -1.687326 -0.521063
      ESP Fit Center  303 is at  -2.873523 -2.723689 -0.521063
      ESP Fit Center  304 is at  -2.210744 -3.554788 -0.521063
      ESP Fit Center  305 is at  -1.253001 -4.016013 -0.521063
      ESP Fit Center  306 is at  -0.189985 -4.016013 -0.521063
      ESP Fit Center  307 is at   0.767758 -3.554788 -0.521063
      ESP Fit Center  308 is at   1.430537 -2.723689 -0.521063
      ESP Fit Center  309 is at  -1.975870 -0.239697 -1.503437
      ESP Fit Center  310 is at  -2.559389 -1.147671 -1.503437
      ESP Fit Center  311 is at  -2.559389 -2.226981 -1.503437
      ESP Fit Center  312 is at  -1.975870 -3.134955 -1.503437
      ESP Fit Center  313 is at  -0.994095 -3.583316 -1.503437
      ESP Fit Center  314 is at   0.074229 -3.429714 -1.503437
      ESP Fit Center  315 is at   0.889917 -2.722917 -1.503437
      ESP Fit Center  316 is at   0.341522 -1.687326 -2.183261
      ESP Fit Center  317 is at  -0.189985 -0.766728 -2.183261
      ESP Fit Center  318 is at  -1.253001 -0.766728 -2.183261
      ESP Fit Center  319 is at  -1.784508 -1.687326 -2.183261
      ESP Fit Center  320 is at  -1.253001 -2.607924 -2.183261
      ESP Fit Center  321 is at  -0.189985 -2.607924 -2.183261
      ESP Fit Center  322 is at  -0.721493 -1.687326 -2.425887
      ESP Fit Center  323 is at  -1.501576 -4.579485  2.369948
      ESP Fit Center  324 is at   0.521278 -4.222801  2.369948
      ESP Fit Center  325 is at  -2.204106 -3.742242  1.331650
      ESP Fit Center  326 is at  -1.501576 -4.579485  1.331650
      ESP Fit Center  327 is at  -0.425238 -4.769272  1.331650
      ESP Fit Center  328 is at   0.521278 -4.222801  1.331650
      ESP Fit Center  329 is at  -0.397541 -4.134920  0.491650
      ESP Fit Center  330 is at   1.347174 -1.837513  3.568587
      ESP Fit Center  331 is at   0.664843 -0.898364  3.568587
      ESP Fit Center  332 is at   0.664843 -2.776662  3.568587
      ESP Fit Center  333 is at   1.957470 -1.837513  2.728587
      ESP Fit Center  334 is at   1.583662 -0.810483  2.728587
      ESP Fit Center  335 is at   0.637146 -0.264012  2.728587
      ESP Fit Center  336 is at   1.583662 -2.864543  2.728587
      ESP Fit Center  337 is at   1.583662 -2.864543  1.690289
      ESP Fit Center  338 is at  -4.223248 -1.216131  2.796356
      ESP Fit Center  339 is at  -4.223248 -2.309073  2.796356
      ESP Fit Center  340 is at  -3.520718 -0.378888  1.758058
      ESP Fit Center  341 is at  -4.223248 -1.216131  1.758058
      ESP Fit Center  342 is at  -4.223248 -2.309073  1.758058
      ESP Fit Center  343 is at  -3.520718 -3.146316  1.758058
      ESP Fit Center  344 is at  -2.444380 -3.336103  1.758058
      ESP Fit Center  345 is at  -3.520718 -1.182176  0.918058
      ESP Fit Center  346 is at  -3.520718 -2.343028  0.918058
      ESP Fit Center  347 is at  -0.463674  0.660757  3.080658
      ESP Fit Center  348 is at  -1.410190  1.207228  3.080658
      ESP Fit Center  349 is at  -2.486528  1.017441  3.080658
      ESP Fit Center  350 is at  -3.189058  0.180198  3.080658
      ESP Fit Center  351 is at  -1.410190  1.207228  2.042360
      ESP Fit Center  352 is at  -2.486528  1.017441  2.042360
      ESP Fit Center  353 is at  -3.189058  0.180198  2.042360
      ESP Fit Center  354 is at  -2.486528  0.214153  1.202360
      ESP Fit Center  355 is at  -1.638139 -1.773989  6.904910
      ESP Fit Center  356 is at  -0.575124 -1.773989  6.662284
      ESP Fit Center  357 is at  -1.106631 -0.853391  6.662284
      ESP Fit Center  358 is at  -2.169647 -0.853391  6.662284
      ESP Fit Center  359 is at  -2.701154 -1.773989  6.662284
      ESP Fit Center  360 is at  -1.106631 -2.694587  6.662284
      ESP Fit Center  361 is at   0.277348 -1.773989  5.982460
      ESP Fit Center  362 is at  -0.026729 -0.738398  5.982460
      ESP Fit Center  363 is at  -0.842417 -0.031601  5.982460
      ESP Fit Center  364 is at  -1.910741  0.122001  5.982460
      ESP Fit Center  365 is at  -2.892516 -0.326360  5.982460
      ESP Fit Center  366 is at  -3.476035 -1.234334  5.982460
      ESP Fit Center  367 is at   0.750434 -1.773989  5.000086
      ESP Fit Center  368 is at   0.513891 -0.737626  5.000086
      ESP Fit Center  369 is at  -0.148888  0.093473  5.000086
      ESP Fit Center  370 is at  -1.106631  0.554698  5.000086
      ESP Fit Center  371 is at  -2.169647  0.554698  5.000086
      ESP Fit Center  372 is at  -3.127390  0.093473  5.000086
      ESP Fit Center  373 is at  -3.790169 -0.737626  5.000086
      ESP Fit Center  374 is at  -4.026712 -1.773989  5.000086
      ESP Fit Center  375 is at   0.513891 -2.810352  5.000086
      ESP Fit Center  376 is at   0.750434 -1.773989  3.909734
      ESP Fit Center  377 is at   0.513891 -0.737626  3.909734
      ESP Fit Center  378 is at  -0.148888  0.093473  3.909734
      ESP Fit Center  379 is at  -1.106631  0.554698  3.909734
      ESP Fit Center  380 is at  -2.169647  0.554698  3.909734
      ESP Fit Center  381 is at  -3.127390  0.093473  3.909734
      ESP Fit Center  382 is at  -3.790169 -0.737626  3.909734
      ESP Fit Center  383 is at  -4.026712 -1.773989  3.909734
      ESP Fit Center  384 is at   0.513891 -2.810352  3.909734
      ESP Fit Center  385 is at  -4.268472 -3.014787  4.591092
      ESP Fit Center  386 is at  -3.801367 -4.909908  4.591092
      ESP Fit Center  387 is at  -4.419500 -3.162093  4.280746
      ESP Fit Center  388 is at  -4.419500 -4.255035  4.280746
      ESP Fit Center  389 is at  -4.419500 -3.162093  3.242448
      ESP Fit Center  390 is at  -4.419500 -4.255035  3.242448
      ESP Fit Center  391 is at  -3.716970 -3.128138  2.402448
      ESP Fit Center  392 is at  -3.716970 -4.288990  2.402448
      ESP Fit Center  393 is at  -2.918083 -3.708564  2.081597
      ESP Fit Center  394 is at  -2.814966 -3.565506  7.193600
      ESP Fit Center  395 is at  -1.827487 -3.565506  6.872749
      ESP Fit Center  396 is at  -2.509818 -2.626357  6.872749
      ESP Fit Center  397 is at  -3.613853 -2.985080  6.872749
      ESP Fit Center  398 is at  -3.613853 -4.145932  6.872749
      ESP Fit Center  399 is at  -2.509818 -4.504655  6.872749
      ESP Fit Center  400 is at  -3.613853 -2.181792  6.032749
      ESP Fit Center  401 is at  -4.316383 -3.019035  6.032749
      ESP Fit Center  402 is at  -4.316383 -4.111977  6.032749
      ESP Fit Center  403 is at  -3.613853 -4.949220  6.032749
      ESP Fit Center  404 is at  -4.316383 -3.019035  4.994451
      ESP Fit Center  405 is at  -4.316383 -4.111977  4.994451
      ESP Fit Center  406 is at   0.755618 -5.529481  4.642935
      ESP Fit Center  407 is at   1.106396 -4.528516  4.254793
      ESP Fit Center  408 is at   0.732588 -3.501486  4.254793
      ESP Fit Center  409 is at   0.732588 -5.555546  4.254793
      ESP Fit Center  410 is at   1.106396 -4.528516  3.216495
      ESP Fit Center  411 is at   0.732588 -3.501486  3.216495
      ESP Fit Center  412 is at   0.732588 -5.555546  3.216495
      ESP Fit Center  413 is at   0.496100 -4.528516  2.376495
      ESP Fit Center  414 is at  -0.186231 -5.467665  2.376495
      ESP Fit Center  415 is at  -0.438149 -4.338575  7.164212
      ESP Fit Center  416 is at   0.549330 -4.338575  6.843361
      ESP Fit Center  417 is at  -0.133001 -3.399426  6.843361
      ESP Fit Center  418 is at  -1.237036 -3.758149  6.843361
      ESP Fit Center  419 is at  -0.133001 -5.277724  6.843361
      ESP Fit Center  420 is at   1.159626 -4.338575  6.003361
      ESP Fit Center  421 is at   0.785818 -3.311545  6.003361
      ESP Fit Center  422 is at   0.785818 -5.365605  6.003361
      ESP Fit Center  423 is at   1.159626 -4.338575  4.965063
      ESP Fit Center  424 is at   0.785818 -3.311545  4.965063
      ESP Fit Center  425 is at  -1.694776 -6.272141  7.370834
      ESP Fit Center  426 is at  -0.631761 -6.272141  7.128208
      ESP Fit Center  427 is at  -1.163268 -5.351543  7.128208
      ESP Fit Center  428 is at  -2.226284 -5.351543  7.128208
      ESP Fit Center  429 is at  -2.757791 -6.272141  7.128208
      ESP Fit Center  430 is at  -2.226284 -7.192739  7.128208
      ESP Fit Center  431 is at  -1.163268 -7.192739  7.128208
      ESP Fit Center  432 is at   0.220711 -6.272141  6.448384
      ESP Fit Center  433 is at  -3.532672 -5.732486  6.448384
      ESP Fit Center  434 is at  -3.532672 -6.811796  6.448384
      ESP Fit Center  435 is at  -2.949153 -7.719770  6.448384
      ESP Fit Center  436 is at  -1.967378 -8.168131  6.448384
      ESP Fit Center  437 is at  -0.899054 -8.014529  6.448384
      ESP Fit Center  438 is at  -0.083366 -7.307732  6.448384
      ESP Fit Center  439 is at   0.693797 -6.272141  5.466010
      ESP Fit Center  440 is at  -3.846806 -5.235778  5.466010
      ESP Fit Center  441 is at  -4.083349 -6.272141  5.466010
      ESP Fit Center  442 is at  -3.846806 -7.308504  5.466010
      ESP Fit Center  443 is at  -2.226284 -8.600828  5.466010
      ESP Fit Center  444 is at  -1.163268 -8.600828  5.466010
      ESP Fit Center  445 is at  -0.205525 -8.139603  5.466010
      ESP Fit Center  446 is at   0.457254 -7.308504  5.466010
      ESP Fit Center  447 is at   0.693797 -6.272141  4.375658
      ESP Fit Center  448 is at  -3.846806 -5.235778  4.375658
      ESP Fit Center  449 is at  -0.205525 -8.139603  4.375658
      ESP Fit Center  450 is at   0.457254 -7.308504  4.375658
      ESP Fit Center  451 is at   0.220711 -6.272141  3.393284
      ESP Fit Center  452 is at  -0.083366 -7.307732  3.393284
      ESP Fit Center  453 is at  -0.510685 -7.663355  3.259235
      ESP Fit Center  454 is at  -3.420143 -6.687436  1.440582
      ESP Fit Center  455 is at  -4.008574 -5.443931  4.384281
      ESP Fit Center  456 is at  -4.711104 -5.477886  3.544281
      ESP Fit Center  457 is at  -4.711104 -6.570828  3.544281
      ESP Fit Center  458 is at  -4.008574 -4.640643  2.505983
      ESP Fit Center  459 is at  -4.711104 -5.477886  2.505983
      ESP Fit Center  460 is at  -4.711104 -6.570828  2.505983
      ESP Fit Center  461 is at  -2.904539 -5.085208  1.665983
      ESP Fit Center  462 is at  -4.008574 -5.443931  1.665983
      ESP Fit Center  463 is at  -4.008574 -6.604783  1.665983
      ESP Fit Center  464 is at  -3.209687 -6.024357  1.345132
      ESP Fit Center  465 is at   0.012504 -6.520773  3.031416
      ESP Fit Center  466 is at  -0.361304 -7.547803  3.031416
      ESP Fit Center  467 is at   0.012504 -6.520773  1.993118
      ESP Fit Center  468 is at  -0.361304 -5.493743  1.993118
      ESP Fit Center  469 is at  -1.307820 -4.947272  1.993118
      ESP Fit Center  470 is at  -0.361304 -7.547803  1.993118
      ESP Fit Center  471 is at  -0.597792 -6.520773  1.153118
      ESP Fit Center  472 is at  -1.280123 -5.581624  1.153118
      ESP Fit Center  473 is at  -2.384158 -5.940347  1.153118
      ESP Fit Center  474 is at  -2.384158 -7.101199  1.153118
      ESP Fit Center  475 is at  -1.280123 -7.459922  1.153118
      ESP Fit Center  476 is at  -1.585271 -6.520773  0.832267
      ESP Fit Center  477 is at  -3.087608 -9.945535  4.287199
      ESP Fit Center  478 is at  -3.573457-10.108927  3.237199
      ESP Fit Center  479 is at  -1.010134 -8.145393  2.187199
      ESP Fit Center  480 is at  -1.778787 -8.145393  1.418546
      ESP Fit Center  481 is at  -1.997596 -8.825227  5.131081
      ESP Fit Center  482 is at  -1.010117 -8.825227  4.810230
      ESP Fit Center  483 is at  -1.692448 -9.764376  4.810230
      ESP Fit Center  484 is at  -0.399821 -8.825227  3.970230
      ESP Fit Center  485 is at  -2.796483-10.208941  3.970230
      ESP Fit Center  486 is at  -1.720145-10.398728  3.970230
      ESP Fit Center  487 is at  -0.773629 -9.852257  3.970230
      ESP Fit Center  488 is at  -0.399821 -8.825227  2.931932
      ESP Fit Center  489 is at  -1.720145-10.398728  2.931932
      ESP Fit Center  490 is at  -0.773629 -9.852257  2.931932
      ESP Fit Center  491 is at  -1.010117 -8.825227  2.091932
      ESP Fit Center  492 is at  -1.692448 -9.764376  2.091932
      ESP Fit Center  493 is at  -3.615028 -8.325038  5.658063
      ESP Fit Center  494 is at  -4.413915 -7.744612  5.337212
      ESP Fit Center  495 is at  -4.413915 -8.905464  5.337212
      ESP Fit Center  496 is at  -3.309880 -9.264187  5.337212
      ESP Fit Center  497 is at  -4.413915 -6.941324  4.497212
      ESP Fit Center  498 is at  -5.116445 -7.778567  4.497212
      ESP Fit Center  499 is at  -5.116445 -8.871509  4.497212
      ESP Fit Center  500 is at  -4.413915 -9.708752  4.497212
      ESP Fit Center  501 is at  -3.337577 -9.898539  4.497212
      ESP Fit Center  502 is at  -5.116445 -7.778567  3.458914
      ESP Fit Center  503 is at  -5.116445 -8.871509  3.458914
      ESP Fit Center  504 is at  -4.413915 -9.708752  3.458914
      ESP Fit Center  505 is at  -4.731985 -8.944349  2.768589
      ESP Fit Center  506 is at  -4.029455 -7.014164  1.730291
      ESP Fit Center  507 is at  -4.731985 -7.851407  1.730291
      ESP Fit Center  508 is at  -4.731985 -8.944349  1.730291
      ESP Fit Center  509 is at  -4.029455 -9.781592  1.730291
      ESP Fit Center  510 is at  -2.953117 -9.971379  1.730291
      ESP Fit Center  511 is at  -2.006601 -9.424908  1.730291
      ESP Fit Center  512 is at  -2.243089 -8.397878  0.890291
      ESP Fit Center  513 is at  -2.925420 -7.458729  0.890291
      ESP Fit Center  514 is at  -4.029455 -7.817452  0.890291
      ESP Fit Center  515 is at  -4.029455 -8.978304  0.890291
      ESP Fit Center  516 is at  -2.925420 -9.337027  0.890291
      ESP Fit Center  517 is at  -3.230568 -8.397878  0.569440
      ESP Fit Center  518 is at   6.309514  8.739704  4.212076
      ESP Fit Center  519 is at   6.309514  6.710792  4.212076
      ESP Fit Center  520 is at   6.189848  9.554598  3.249750
      ESP Fit Center  521 is at   5.251650 10.006411  3.249750
      ESP Fit Center  522 is at   2.622879  8.740461  3.249750
      ESP Fit Center  523 is at   5.251650 10.006411  2.181650
      ESP Fit Center  524 is at   6.771486  7.771114  4.204318
      ESP Fit Center  525 is at   7.474255  7.771114  3.501549
      ESP Fit Center  526 is at   7.156694  8.748465  3.501549
      ESP Fit Center  527 is at   6.325310  9.352501  3.501549
      ESP Fit Center  528 is at   7.156694  6.793763  3.501549
      ESP Fit Center  529 is at   7.731486  7.771114  2.541549
      ESP Fit Center  530 is at   7.474255  8.731114  2.541549
      ESP Fit Center  531 is at   6.771486  9.433883  2.541549
      ESP Fit Center  532 is at   7.474255  6.811114  2.541549
      ESP Fit Center  533 is at   7.474255  7.771114  1.581549
      ESP Fit Center  534 is at   7.156694  8.748465  1.581549
      ESP Fit Center  535 is at   6.325310  9.352501  1.581549
      ESP Fit Center  536 is at   6.291486  8.602498  0.878780
      ESP Fit Center  537 is at   3.719224  9.902293  2.903251
      ESP Fit Center  538 is at   2.887840  9.298257  2.903251
      ESP Fit Center  539 is at   5.193048  9.983675  1.943251
      ESP Fit Center  540 is at   4.233048 10.240906  1.943251
      ESP Fit Center  541 is at   3.273048  9.983675  1.943251
      ESP Fit Center  542 is at   2.570279  9.280906  1.943251
      ESP Fit Center  543 is at   2.313048  8.320906  1.943251
      ESP Fit Center  544 is at   5.578256  9.298257  0.983251
      ESP Fit Center  545 is at   4.746872  9.902293  0.983251
      ESP Fit Center  546 is at   3.719224  9.902293  0.983251
      ESP Fit Center  547 is at   2.887840  9.298257  0.983251
      ESP Fit Center  548 is at   2.570279  8.320906  0.983251
      ESP Fit Center  549 is at   2.887840  7.343555  0.983251
      ESP Fit Center  550 is at   5.193048  8.320906  0.280482
      ESP Fit Center  551 is at   4.713048  9.152290  0.280482
      ESP Fit Center  552 is at   3.753048  9.152290  0.280482
      ESP Fit Center  553 is at   3.273048  8.320906  0.280482
      ESP Fit Center  554 is at   3.753048  7.489522  0.280482
      ESP Fit Center  555 is at   4.233048  8.320906  0.023251
      ESP Fit Center  556 is at   4.532316  8.187522  5.609744
      ESP Fit Center  557 is at   5.492316  8.187522  5.352513
      ESP Fit Center  558 is at   5.012316  9.018906  5.352513
      ESP Fit Center  559 is at   4.052316  9.018906  5.352513
      ESP Fit Center  560 is at   3.572316  8.187522  5.352513
      ESP Fit Center  561 is at   4.052316  7.356138  5.352513
      ESP Fit Center  562 is at   5.012316  7.356138  5.352513
      ESP Fit Center  563 is at   6.195085  8.187522  4.649744
      ESP Fit Center  564 is at   5.877524  9.164873  4.649744
      ESP Fit Center  565 is at   5.046140  9.768909  4.649744
      ESP Fit Center  566 is at   4.018492  9.768909  4.649744
      ESP Fit Center  567 is at   3.187108  9.164873  4.649744
      ESP Fit Center  568 is at   2.869547  8.187522  4.649744
      ESP Fit Center  569 is at   5.492316  9.850291  3.689744
      ESP Fit Center  570 is at   4.532316 10.107522  3.689744
      ESP Fit Center  571 is at   3.572316  9.850291  3.689744
      ESP Fit Center  572 is at   2.869547  9.147522  3.689744
      ESP Fit Center  573 is at   3.166326  6.289682  4.862298
      ESP Fit Center  574 is at   3.686987  4.008519  3.234023
      ESP Fit Center  575 is at   2.407259  6.818324  1.203597
      ESP Fit Center  576 is at   4.716348  5.686764  5.390236
      ESP Fit Center  577 is at   5.676348  5.686764  5.133005
      ESP Fit Center  578 is at   5.196348  6.518148  5.133005
      ESP Fit Center  579 is at   4.236348  6.518148  5.133005
      ESP Fit Center  580 is at   3.756348  5.686764  5.133005
      ESP Fit Center  581 is at   4.236348  4.855380  5.133005
      ESP Fit Center  582 is at   5.196348  4.855380  5.133005
      ESP Fit Center  583 is at   6.379117  5.686764  4.430236
      ESP Fit Center  584 is at   6.061556  6.664115  4.430236
      ESP Fit Center  585 is at   3.371140  4.709413  4.430236
      ESP Fit Center  586 is at   4.202524  4.105377  4.430236
      ESP Fit Center  587 is at   5.230172  4.105377  4.430236
      ESP Fit Center  588 is at   6.061556  4.709413  4.430236
      ESP Fit Center  589 is at   6.636348  5.686764  3.470236
      ESP Fit Center  590 is at   3.756348  4.023995  3.470236
      ESP Fit Center  591 is at   4.716348  3.766764  3.470236
      ESP Fit Center  592 is at   3.136521  6.280775  4.847675
      ESP Fit Center  593 is at   2.656521  7.112159  4.590444
      ESP Fit Center  594 is at   2.176521  6.280775  4.590444
      ESP Fit Center  595 is at   2.656521  5.449391  4.590444
      ESP Fit Center  596 is at   2.622697  7.862162  3.887675
      ESP Fit Center  597 is at   1.791313  7.258126  3.887675
      ESP Fit Center  598 is at   1.473752  6.280775  3.887675
      ESP Fit Center  599 is at   1.791313  5.303424  3.887675
      ESP Fit Center  600 is at   2.622697  4.699388  3.887675
      ESP Fit Center  601 is at   2.176521  7.943544  2.927675
      ESP Fit Center  602 is at   1.473752  7.240775  2.927675
      ESP Fit Center  603 is at   1.216521  6.280775  2.927675
      ESP Fit Center  604 is at   1.473752  5.320775  2.927675
      ESP Fit Center  605 is at   2.176521  4.618006  2.927675
      ESP Fit Center  606 is at   1.791313  7.258126  1.967675
      ESP Fit Center  607 is at   1.473752  6.280775  1.967675
      ESP Fit Center  608 is at   1.791313  5.303424  1.967675
      ESP Fit Center  609 is at   2.176521  6.280775  1.264906
      ESP Fit Center  610 is at   2.689312  7.101603  0.934271
      ESP Fit Center  611 is at   2.203559  6.176077  0.934271
      ESP Fit Center  612 is at   2.203559  5.130823  0.934271
      ESP Fit Center  613 is at   4.865121  7.319038  0.036101
      ESP Fit Center  614 is at   3.782757  7.319038  0.036101
      ESP Fit Center  615 is at   2.907105  6.682840  0.036101
      ESP Fit Center  616 is at   2.572636  5.653450  0.036101
      ESP Fit Center  617 is at   3.837989  6.495140 -0.585452
      ESP Fit Center  618 is at   7.977850  5.247197  1.624844
      ESP Fit Center  619 is at   7.977850  5.247197  0.556744
      ESP Fit Center  620 is at   7.044339  4.654254  3.568952
      ESP Fit Center  621 is at   5.604339  3.822870  3.568952
      ESP Fit Center  622 is at   6.564339  3.822870  3.568952
      ESP Fit Center  623 is at   7.747108  4.654254  2.866183
      ESP Fit Center  624 is at   7.429547  5.631605  2.866183
      ESP Fit Center  625 is at   4.739131  3.676903  2.866183
      ESP Fit Center  626 is at   5.570515  3.072867  2.866183
      ESP Fit Center  627 is at   6.598163  3.072867  2.866183
      ESP Fit Center  628 is at   7.429547  3.676903  2.866183
      ESP Fit Center  629 is at   8.004339  4.654254  1.906183
      ESP Fit Center  630 is at   7.044339  2.991485  1.906183
      ESP Fit Center  631 is at   7.747108  3.694254  1.906183
      ESP Fit Center  632 is at   7.954025  6.117770  1.871294
      ESP Fit Center  633 is at   7.636464  7.095121  1.871294
      ESP Fit Center  634 is at   8.211256  6.117770  0.911294
      ESP Fit Center  635 is at   7.954025  7.077770  0.911294
      ESP Fit Center  636 is at   7.251256  7.780539  0.911294
      ESP Fit Center  637 is at   7.954025  6.117770 -0.048706
      ESP Fit Center  638 is at   7.636464  7.095121 -0.048706
      ESP Fit Center  639 is at   6.805080  7.699157 -0.048706
      ESP Fit Center  640 is at   5.777432  7.699157 -0.048706
      ESP Fit Center  641 is at   7.251256  6.117770 -0.751475
      ESP Fit Center  642 is at   6.771256  6.949154 -0.751475
      ESP Fit Center  643 is at   5.811256  6.949154 -0.751475
      ESP Fit Center  644 is at   6.376777  6.111273 -1.673847
      ESP Fit Center  645 is at   5.076634  3.502634 -2.339796
      ESP Fit Center  646 is at   6.117954  3.502634 -2.339796
      ESP Fit Center  647 is at   5.024017  6.859336 -0.951024
      ESP Fit Center  648 is at   4.064017  6.602105 -0.951024
      ESP Fit Center  649 is at   3.361248  5.899336 -0.951024
      ESP Fit Center  650 is at   6.369225  5.916687 -1.911024
      ESP Fit Center  651 is at   5.537841  6.520723 -1.911024
      ESP Fit Center  652 is at   4.510193  6.520723 -1.911024
      ESP Fit Center  653 is at   3.678809  5.916687 -1.911024
      ESP Fit Center  654 is at   5.984017  4.939336 -2.613793
      ESP Fit Center  655 is at   5.504017  5.770720 -2.613793
      ESP Fit Center  656 is at   4.544017  5.770720 -2.613793
      ESP Fit Center  657 is at   4.064017  4.939336 -2.613793
      ESP Fit Center  658 is at   4.544017  4.107952 -2.613793
      ESP Fit Center  659 is at   5.504017  4.107952 -2.613793
      ESP Fit Center  660 is at   5.024017  4.939336 -2.871024
      ESP Fit Center  661 is at   8.287997  4.280836  0.421011
      ESP Fit Center  662 is at   7.970436  5.258187  0.421011
      ESP Fit Center  663 is at   7.970436  3.303485  0.421011
      ESP Fit Center  664 is at   8.545228  4.280836 -0.538989
      ESP Fit Center  665 is at   8.287997  5.240836 -0.538989
      ESP Fit Center  666 is at   7.585228  5.943605 -0.538989
      ESP Fit Center  667 is at   7.585228  2.618067 -0.538989
      ESP Fit Center  668 is at   8.287997  3.320836 -0.538989
      ESP Fit Center  669 is at   8.287997  4.280836 -1.498989
      ESP Fit Center  670 is at   7.970436  5.258187 -1.498989
      ESP Fit Center  671 is at   7.139052  5.862223 -1.498989
      ESP Fit Center  672 is at   7.139052  2.699449 -1.498989
      ESP Fit Center  673 is at   7.970436  3.303485 -1.498989
      ESP Fit Center  674 is at   7.585228  4.280836 -2.201758
      ESP Fit Center  675 is at   7.105228  5.112220 -2.201758
      ESP Fit Center  676 is at   7.105228  3.449452 -2.201758
      ESP Fit Center  677 is at   6.625228  4.280836 -2.458989
      ESP Fit Center  678 is at   5.579234  2.252863  2.025992
      ESP Fit Center  679 is at   5.634466  1.428965  1.404439
      ESP Fit Center  680 is at   6.510118  2.065163  1.404439
      ESP Fit Center  681 is at   6.333846  1.297289  0.506269
      ESP Fit Center  682 is at   7.026977  2.079673  0.506269
      ESP Fit Center  683 is at   6.333846  1.297289 -0.490625
      ESP Fit Center  684 is at   7.026977  2.079673 -0.490625
      ESP Fit Center  685 is at   5.634466  1.428965 -1.388795
      ESP Fit Center  686 is at   6.510118  2.065163 -1.388795
      ESP Fit Center  687 is at   5.579234  2.252863 -2.010348
      ESP Fit Center  688 is at   5.093284  3.094553 -2.232178
      ESP Fit Center  689 is at   2.286661  5.121119 -0.884776
      ESP Fit Center  690 is at   1.583892  4.418350 -0.884776
      ESP Fit Center  691 is at   1.326661  3.458350 -0.884776
      ESP Fit Center  692 is at   2.732837  5.039737 -1.844776
      ESP Fit Center  693 is at   1.901453  4.435701 -1.844776
      ESP Fit Center  694 is at   1.583892  3.458350 -1.844776
      ESP Fit Center  695 is at   4.206661  3.458350 -2.547545
      ESP Fit Center  696 is at   3.726661  4.289734 -2.547545
      ESP Fit Center  697 is at   2.766661  4.289734 -2.547545
      ESP Fit Center  698 is at   2.286661  3.458350 -2.547545
      ESP Fit Center  699 is at   2.766661  2.626966 -2.547545
      ESP Fit Center  700 is at   3.726661  2.626966 -2.547545
      ESP Fit Center  701 is at   3.246661  3.458350 -2.804776
      ESP Fit Center  702 is at   3.231790  3.453109  2.809334
      ESP Fit Center  703 is at   4.191790  3.453109  2.552103
      ESP Fit Center  704 is at   2.751790  4.284493  2.552103
      ESP Fit Center  705 is at   2.271790  3.453109  2.552103
      ESP Fit Center  706 is at   2.751790  2.621725  2.552103
      ESP Fit Center  707 is at   3.711790  2.621725  2.552103
      ESP Fit Center  708 is at   1.886582  4.430460  1.849334
      ESP Fit Center  709 is at   1.569021  3.453109  1.849334
      ESP Fit Center  710 is at   1.569021  4.413109  0.889334
      ESP Fit Center  711 is at   1.311790  3.453109  0.889334
      ESP Fit Center  712 is at   3.809312  1.004586  2.795558
      ESP Fit Center  713 is at   4.769312  1.004586  2.538327
      ESP Fit Center  714 is at   4.289312  1.835970  2.538327
      ESP Fit Center  715 is at   3.329312  1.835970  2.538327
      ESP Fit Center  716 is at   2.849312  1.004586  2.538327
      ESP Fit Center  717 is at   3.329312  0.173202  2.538327
      ESP Fit Center  718 is at   4.289312  0.173202  2.538327
      ESP Fit Center  719 is at   5.472081  1.004586  1.835558
      ESP Fit Center  720 is at   4.323136 -0.576801  1.835558
      ESP Fit Center  721 is at   5.154520  0.027235  1.835558
      ESP Fit Center  722 is at   5.729312  1.004586  0.875558
      ESP Fit Center  723 is at   3.809312 -0.915414  0.875558
      ESP Fit Center  724 is at   4.769312 -0.658183  0.875558
      ESP Fit Center  725 is at   5.472081  0.044586  0.875558
      ESP Fit Center  726 is at   5.720591  1.021613 -0.902101
      ESP Fit Center  727 is at   3.800591 -0.898387 -0.902101
      ESP Fit Center  728 is at   4.760591 -0.641156 -0.902101
      ESP Fit Center  729 is at   5.463360  0.061613 -0.902101
      ESP Fit Center  730 is at   5.463360  1.021613 -1.862101
      ESP Fit Center  731 is at   4.314415 -0.559774 -1.862101
      ESP Fit Center  732 is at   5.145799  0.044262 -1.862101
      ESP Fit Center  733 is at   4.760591  1.021613 -2.564870
      ESP Fit Center  734 is at   4.280591  1.852997 -2.564870
      ESP Fit Center  735 is at   3.320591  1.852997 -2.564870
      ESP Fit Center  736 is at   2.840591  1.021613 -2.564870
      ESP Fit Center  737 is at   3.320591  0.190229 -2.564870
      ESP Fit Center  738 is at   4.280591  0.190229 -2.564870
      ESP Fit Center  739 is at   3.800591  1.021613 -2.822101
      ESP Fit Center  740 is at   1.951013  1.349325  2.240000
      ESP Fit Center  741 is at   1.465063  2.191015  2.018170
      ESP Fit Center  742 is at   0.979113  1.349325  2.018170
      ESP Fit Center  743 is at   1.409831  3.014913  1.396617
      ESP Fit Center  744 is at   0.534179  2.378715  1.396617
      ESP Fit Center  745 is at   1.176613  3.391249  0.498447
      ESP Fit Center  746 is at   0.316386  2.797478  0.498447
      ESP Fit Center  747 is at   1.176613  3.391249 -0.498447
      ESP Fit Center  748 is at   0.316386  2.797478 -0.498447
      ESP Fit Center  749 is at   1.409831  3.014913 -1.396617
      ESP Fit Center  750 is at   0.534179  2.378715 -1.396617
      ESP Fit Center  751 is at   1.465063  2.191015 -2.018170
      ESP Fit Center  752 is at   0.979113  1.349325 -2.018170
      ESP Fit Center  753 is at   1.951013  1.349325 -2.240000
      ESP Fit Center  754 is at   1.004475  0.901810  2.162325
      ESP Fit Center  755 is at   1.914719 -0.526831  2.807315
      ESP Fit Center  756 is at   2.874719 -0.526831  2.550084
      ESP Fit Center  757 is at   2.394719  0.304553  2.550084
      ESP Fit Center  758 is at   1.434719  0.304553  2.550084
      ESP Fit Center  759 is at   2.394719 -1.358215  2.550084
      ESP Fit Center  760 is at   2.428543 -2.108218  1.847315
      ESP Fit Center  761 is at   3.259927 -1.504182  1.847315
      ESP Fit Center  762 is at   1.914719 -2.446831  0.887315
      ESP Fit Center  763 is at   2.874719 -2.189600  0.887315
      ESP Fit Center  764 is at   3.577488 -1.486831  0.887315
      ESP Fit Center  765 is at   1.902597 -2.452796 -0.887393
      ESP Fit Center  766 is at   2.862597 -2.195565 -0.887393
      ESP Fit Center  767 is at   3.565366 -1.492796 -0.887393
      ESP Fit Center  768 is at   1.388773 -2.114183 -1.847393
      ESP Fit Center  769 is at   2.416421 -2.114183 -1.847393
      ESP Fit Center  770 is at   3.247805 -1.510147 -1.847393
      ESP Fit Center  771 is at   2.862597 -0.532796 -2.550162
      ESP Fit Center  772 is at   2.382597  0.298588 -2.550162
      ESP Fit Center  773 is at   1.422597  0.298588 -2.550162
      ESP Fit Center  774 is at   0.942597 -0.532796 -2.550162
      ESP Fit Center  775 is at   1.422597 -1.364180 -2.550162
      ESP Fit Center  776 is at   2.382597 -1.364180 -2.550162
      ESP Fit Center  777 is at   1.902597 -0.532796 -2.807393
      ESP Fit Center  778 is at  -0.370701  2.394212 -0.913625
      ESP Fit Center  779 is at  -1.330701  2.136981 -0.913625
      ESP Fit Center  780 is at  -2.033470  1.434212 -0.913625
      ESP Fit Center  781 is at  -2.290701  0.474212 -0.913625
      ESP Fit Center  782 is at   0.143123  2.055599 -1.873625
      ESP Fit Center  783 is at  -0.884525  2.055599 -1.873625
      ESP Fit Center  784 is at  -1.715909  1.451563 -1.873625
      ESP Fit Center  785 is at  -2.033470  0.474212 -1.873625
      ESP Fit Center  786 is at   0.589299  0.474212 -2.576394
      ESP Fit Center  787 is at   0.109299  1.305596 -2.576394
      ESP Fit Center  788 is at  -0.850701  1.305596 -2.576394
      ESP Fit Center  789 is at  -1.330701  0.474212 -2.576394
      ESP Fit Center  790 is at  -0.850701 -0.357172 -2.576394
      ESP Fit Center  791 is at   0.109299 -0.357172 -2.576394
      ESP Fit Center  792 is at  -0.370701  0.474212 -2.833625
      ESP Fit Center  793 is at   0.582008  0.585829  2.506444
      ESP Fit Center  794 is at   0.102008  1.417213  2.506444
      ESP Fit Center  795 is at  -0.857992  1.417213  2.506444
      ESP Fit Center  796 is at   0.135832  2.167216  1.803675
      ESP Fit Center  797 is at  -0.891816  2.167216  1.803675
      ESP Fit Center  798 is at  -1.723200  1.563180  1.803675
      ESP Fit Center  799 is at  -0.377992  2.505829  0.843675
      ESP Fit Center  800 is at  -1.337992  2.248598  0.843675
      ESP Fit Center  801 is at  -2.040761  1.545829  0.843675
      ESP Fit Center  802 is at  -2.297992  0.585829  0.843675
      ESP Fit Center  803 is at   1.641724 -2.739498  1.095627
      ESP Fit Center  804 is at  -2.408870  0.547122  0.024113
      ESP Fit Center  805 is at  -3.102101 -0.213316  0.024113
      ESP Fit Center  806 is at  -3.473818 -1.172827  0.024113
      ESP Fit Center  807 is at  -3.473818 -2.201825  0.024113
      ESP Fit Center  808 is at  -3.102101 -3.161336  0.024113
      ESP Fit Center  809 is at  -2.408870 -3.921774  0.024113
      ESP Fit Center  810 is at  -1.487749 -4.380438  0.024113
      ESP Fit Center  811 is at  -0.463142 -4.475382  0.024113
      ESP Fit Center  812 is at   0.526574 -4.193783  0.024113
      ESP Fit Center  813 is at   1.347732 -3.573674  0.024113
      ESP Fit Center  814 is at   1.889429 -2.698803  0.024113
      ESP Fit Center  815 is at  -2.814309 -0.166806 -1.047401
      ESP Fit Center  816 is at  -3.251827 -1.149487 -1.047401
      ESP Fit Center  817 is at  -3.251827 -2.225165 -1.047401
      ESP Fit Center  818 is at  -2.814309 -3.207846 -1.047401
      ESP Fit Center  819 is at  -2.014924 -3.927615 -1.047401
      ESP Fit Center  820 is at  -0.991894 -4.260018 -1.047401
      ESP Fit Center  821 is at   0.077892 -4.147579 -1.047401
      ESP Fit Center  822 is at   1.009456 -3.609740 -1.047401
      ESP Fit Center  823 is at   1.641724 -2.739498 -1.047401
      ESP Fit Center  824 is at  -2.436136 -0.697377 -1.955786
      ESP Fit Center  825 is at  -2.701392 -1.687326 -1.955786
      ESP Fit Center  826 is at  -2.436136 -2.677275 -1.955786
      ESP Fit Center  827 is at  -1.711442 -3.401969 -1.955786
      ESP Fit Center  828 is at  -0.721493 -3.667225 -1.955786
      ESP Fit Center  829 is at   0.268456 -3.401969 -1.955786
      ESP Fit Center  830 is at   0.993150 -2.677275 -1.955786
      ESP Fit Center  831 is at   0.350021 -1.687326 -2.562750
      ESP Fit Center  832 is at  -0.185736 -0.759368 -2.562750
      ESP Fit Center  833 is at  -1.257250 -0.759368 -2.562750
      ESP Fit Center  834 is at  -1.793007 -1.687326 -2.562750
      ESP Fit Center  835 is at  -1.257250 -2.615284 -2.562750
      ESP Fit Center  836 is at  -0.185736 -2.615284 -2.562750
      ESP Fit Center  837 is at  -0.721493 -1.687326 -2.775887
      ESP Fit Center  838 is at   1.482360 -3.120199  1.282875
      ESP Fit Center  839 is at  -2.365458 -4.155771  1.850799
      ESP Fit Center  840 is at   0.257311 -4.858540  1.850799
      ESP Fit Center  841 is at   0.960080 -4.155771  1.850799
      ESP Fit Center  842 is at  -2.047897 -4.173122  0.890799
      ESP Fit Center  843 is at  -1.216513 -4.777158  0.890799
      ESP Fit Center  844 is at  -0.188865 -4.777158  0.890799
      ESP Fit Center  845 is at   0.642519 -4.173122  0.890799
      ESP Fit Center  846 is at   1.319695 -1.837513  3.872207
      ESP Fit Center  847 is at   2.022464 -1.837513  3.169438
      ESP Fit Center  848 is at   1.704903 -0.860162  3.169438
      ESP Fit Center  849 is at   0.873519 -0.256126  3.169438
      ESP Fit Center  850 is at   1.704903 -2.814864  3.169438
      ESP Fit Center  851 is at   1.319695 -3.500282  2.209438
      ESP Fit Center  852 is at   2.022464 -2.797513  2.209438
      ESP Fit Center  853 is at   1.704903 -2.814864  1.249438
      ESP Fit Center  854 is at  -3.844906 -0.441545  3.178041
      ESP Fit Center  855 is at  -2.965573 -0.038673  1.147615
      ESP Fit Center  856 is at  -4.067039 -0.785251  3.237207
      ESP Fit Center  857 is at  -4.384600 -1.762602  3.237207
      ESP Fit Center  858 is at  -4.384600 -0.802602  2.277207
      ESP Fit Center  859 is at  -4.641831 -1.762602  2.277207
      ESP Fit Center  860 is at  -4.384600 -2.722602  2.277207
      ESP Fit Center  861 is at  -4.067039 -0.785251  1.317207
      ESP Fit Center  862 is at  -4.384600 -1.762602  1.317207
      ESP Fit Center  863 is at  -4.067039 -2.739953  1.317207
      ESP Fit Center  864 is at  -3.235655 -3.343989  1.317207
      ESP Fit Center  865 is at  -3.681831 -1.762602  0.614438
      ESP Fit Center  866 is at  -0.342433  0.611078  3.521509
      ESP Fit Center  867 is at  -1.173817  1.215114  3.521509
      ESP Fit Center  868 is at  -2.201465  1.215114  3.521509
      ESP Fit Center  869 is at  -3.032849  0.611078  3.521509
      ESP Fit Center  870 is at  -1.687641  1.553727  2.561509
      ESP Fit Center  871 is at  -2.647641  1.296496  2.561509
      ESP Fit Center  872 is at  -3.350410  0.593727  2.561509
      ESP Fit Center  873 is at  -2.201465  1.215114  1.601509
      ESP Fit Center  874 is at  -3.032849  0.611078  1.601509
      ESP Fit Center  875 is at  -1.638139 -1.773989  7.254910
      ESP Fit Center  876 is at  -0.566625 -1.773989  7.041773
      ESP Fit Center  877 is at  -1.102382 -0.846031  7.041773
      ESP Fit Center  878 is at  -2.173896 -0.846031  7.041773
      ESP Fit Center  879 is at  -2.709653 -1.773989  7.041773
      ESP Fit Center  880 is at  -1.102382 -2.701947  7.041773
      ESP Fit Center  881 is at   0.341760 -1.773989  6.434809
      ESP Fit Center  882 is at   0.076504 -0.784040  6.434809
      ESP Fit Center  883 is at  -0.648190 -0.059346  6.434809
      ESP Fit Center  884 is at  -1.638139  0.205910  6.434809
      ESP Fit Center  885 is at  -2.628088 -0.059346  6.434809
      ESP Fit Center  886 is at  -3.352782 -0.784040  6.434809
      ESP Fit Center  887 is at  -3.618038 -1.773989  6.434809
      ESP Fit Center  888 is at   0.948724 -1.773989  5.526424
      ESP Fit Center  889 is at   0.725078 -0.721817  5.526424
      ESP Fit Center  890 is at   0.092810  0.148425  5.526424
      ESP Fit Center  891 is at  -0.838754  0.686264  5.526424
      ESP Fit Center  892 is at  -1.908540  0.798703  5.526424
      ESP Fit Center  893 is at  -2.931570  0.466300  5.526424
      ESP Fit Center  894 is at  -3.730955 -0.253469  5.526424
      ESP Fit Center  895 is at  -4.168473 -1.236150  5.526424
      ESP Fit Center  896 is at   1.161861 -1.773989  4.454910
      ESP Fit Center  897 is at   0.972783 -0.762512  4.454910
      ESP Fit Center  898 is at   0.431086  0.112359  4.454910
      ESP Fit Center  899 is at  -0.390072  0.732468  4.454910
      ESP Fit Center  900 is at  -1.379788  1.014067  4.454910
      ESP Fit Center  901 is at  -2.404395  0.919123  4.454910
      ESP Fit Center  902 is at  -3.325516  0.460459  4.454910
      ESP Fit Center  903 is at  -4.018747 -0.299979  4.454910
      ESP Fit Center  904 is at  -4.390464 -1.259490  4.454910
      ESP Fit Center  905 is at  -4.390464 -2.288488  4.454910
      ESP Fit Center  906 is at   0.972783 -2.785466  4.454910
      ESP Fit Center  907 is at   0.092810  0.148425  3.383396
      ESP Fit Center  908 is at  -3.730955 -0.253469  3.383396
      ESP Fit Center  909 is at  -4.580852 -2.748564  3.761597
      ESP Fit Center  910 is at  -4.838083 -3.708564  3.761597
      ESP Fit Center  911 is at  -4.580852 -4.668564  3.761597
      ESP Fit Center  912 is at  -4.580852 -3.708564  2.801597
      ESP Fit Center  913 is at  -3.878083 -3.708564  2.098828
      ESP Fit Center  914 is at  -2.918083 -3.708564  1.841597
      ESP Fit Center  915 is at  -2.814966 -3.565506  7.433600
      ESP Fit Center  916 is at  -1.854966 -3.565506  7.176369
      ESP Fit Center  917 is at  -2.334966 -2.734122  7.176369
      ESP Fit Center  918 is at  -3.294966 -2.734122  7.176369
      ESP Fit Center  919 is at  -3.774966 -3.565506  7.176369
      ESP Fit Center  920 is at  -3.294966 -4.396890  7.176369
      ESP Fit Center  921 is at  -2.334966 -4.396890  7.176369
      ESP Fit Center  922 is at  -4.160174 -2.588155  6.473600
      ESP Fit Center  923 is at  -4.477735 -3.565506  6.473600
      ESP Fit Center  924 is at  -4.160174 -4.542857  6.473600
      ESP Fit Center  925 is at  -4.477735 -2.605506  5.513600
      ESP Fit Center  926 is at  -4.734966 -3.565506  5.513600
      ESP Fit Center  927 is at  -4.477735 -4.525506  5.513600
      ESP Fit Center  928 is at   1.004271 -5.568775  5.176985
      ESP Fit Center  929 is at   1.428621 -4.528516  3.735644
      ESP Fit Center  930 is at   1.171390 -3.568516  3.735644
      ESP Fit Center  931 is at   1.171390 -5.488516  3.735644
      ESP Fit Center  932 is at   1.171390 -4.528516  2.775644
      ESP Fit Center  933 is at   0.853829 -5.505867  2.775644
      ESP Fit Center  934 is at  -0.011379 -5.359900  2.072875
      ESP Fit Center  935 is at  -0.438149 -4.338575  7.404212
      ESP Fit Center  936 is at   0.521851 -4.338575  7.146981
      ESP Fit Center  937 is at   0.041851 -3.507191  7.146981
      ESP Fit Center  938 is at  -0.918149 -3.507191  7.146981
      ESP Fit Center  939 is at  -1.398149 -4.338575  7.146981
      ESP Fit Center  940 is at   0.041851 -5.169959  7.146981
      ESP Fit Center  941 is at   1.224620 -4.338575  6.444212
      ESP Fit Center  942 is at   0.907059 -3.361224  6.444212
      ESP Fit Center  943 is at   0.075675 -2.757188  6.444212
      ESP Fit Center  944 is at   0.907059 -5.315926  6.444212
      ESP Fit Center  945 is at   1.481851 -4.338575  5.484212
      ESP Fit Center  946 is at   1.224620 -3.378575  5.484212
      ESP Fit Center  947 is at   1.224620 -5.298575  5.484212
      ESP Fit Center  948 is at  -1.694776 -6.272141  7.720834
      ESP Fit Center  949 is at  -0.623262 -6.272141  7.507697
      ESP Fit Center  950 is at  -1.159019 -5.344183  7.507697
      ESP Fit Center  951 is at  -2.230533 -5.344183  7.507697
      ESP Fit Center  952 is at  -2.766290 -6.272141  7.507697
      ESP Fit Center  953 is at  -2.230533 -7.200099  7.507697
      ESP Fit Center  954 is at  -1.159019 -7.200099  7.507697
      ESP Fit Center  955 is at   0.285123 -6.272141  6.900733
      ESP Fit Center  956 is at  -3.409419 -5.282192  6.900733
      ESP Fit Center  957 is at  -3.674675 -6.272141  6.900733
      ESP Fit Center  958 is at  -3.409419 -7.262090  6.900733
      ESP Fit Center  959 is at  -2.684725 -7.986784  6.900733
      ESP Fit Center  960 is at  -1.694776 -8.252040  6.900733
      ESP Fit Center  961 is at  -0.704827 -7.986784  6.900733
      ESP Fit Center  962 is at   0.019867 -7.262090  6.900733
      ESP Fit Center  963 is at   0.892087 -6.272141  5.992348
      ESP Fit Center  964 is at  -4.225110 -5.734302  5.992348
      ESP Fit Center  965 is at  -4.225110 -6.809980  5.992348
      ESP Fit Center  966 is at  -3.787592 -7.792661  5.992348
      ESP Fit Center  967 is at  -2.988207 -8.512430  5.992348
      ESP Fit Center  968 is at  -1.965177 -8.844833  5.992348
      ESP Fit Center  969 is at  -0.895391 -8.732394  5.992348
      ESP Fit Center  970 is at   0.036173 -8.194555  5.992348
      ESP Fit Center  971 is at   0.668441 -7.324313  5.992348
      ESP Fit Center  972 is at   1.105224 -6.272141  4.920834
      ESP Fit Center  973 is at  -4.447101 -5.757642  4.920834
      ESP Fit Center  974 is at  -4.447101 -6.786640  4.920834
      ESP Fit Center  975 is at  -0.446709 -8.778598  4.920834
      ESP Fit Center  976 is at   0.374449 -8.158489  4.920834
      ESP Fit Center  977 is at   0.916146 -7.283618  4.920834
      ESP Fit Center  978 is at   0.892087 -6.272141  3.849320
      ESP Fit Center  979 is at   0.036173 -8.194555  3.849320
      ESP Fit Center  980 is at   0.668441 -7.324313  3.849320
      ESP Fit Center  981 is at   0.285123 -6.272141  2.940935
      ESP Fit Center  982 is at  -2.890803 -5.785626  1.096910
      ESP Fit Center  983 is at  -3.411464 -6.687436  1.096910
      ESP Fit Center  984 is at  -4.554895 -5.047006  3.985132
      ESP Fit Center  985 is at  -4.872456 -6.024357  3.985132
      ESP Fit Center  986 is at  -4.872456 -5.064357  3.025132
      ESP Fit Center  987 is at  -5.129687 -6.024357  3.025132
      ESP Fit Center  988 is at  -3.723511 -4.442970  2.065132
      ESP Fit Center  989 is at  -4.554895 -5.047006  2.065132
      ESP Fit Center  990 is at  -4.872456 -6.024357  2.065132
      ESP Fit Center  991 is at  -2.729687 -5.192973  1.362363
      ESP Fit Center  992 is at  -3.689687 -5.192973  1.362363
      ESP Fit Center  993 is at  -4.169687 -6.024357  1.362363
      ESP Fit Center  994 is at  -3.209687 -6.024357  1.105132
      ESP Fit Center  995 is at   0.334729 -6.520773  2.512267
      ESP Fit Center  996 is at   0.077498 -7.480773  2.512267
      ESP Fit Center  997 is at   0.077498 -6.520773  1.552267
      ESP Fit Center  998 is at  -0.240063 -5.543422  1.552267
      ESP Fit Center  999 is at  -2.099095 -4.939386  1.552267
      ESP Fit Center 1000 is at  -1.071447 -8.102160  1.552267
      ESP Fit Center 1001 is at  -0.240063 -7.498124  1.552267
      ESP Fit Center 1002 is at  -0.625271 -6.520773  0.849498
      ESP Fit Center 1003 is at  -1.105271 -5.689389  0.849498
      ESP Fit Center 1004 is at  -2.065271 -5.689389  0.849498
      ESP Fit Center 1005 is at  -2.545271 -6.520773  0.849498
      ESP Fit Center 1006 is at  -2.065271 -7.352157  0.849498
      ESP Fit Center 1007 is at  -1.105271 -7.352157  0.849498
      ESP Fit Center 1008 is at  -1.585271 -6.520773  0.592267
      ESP Fit Center 1009 is at  -2.308127 -9.047203  5.399524
      ESP Fit Center 1010 is at  -3.349447-10.426556  3.771249
      ESP Fit Center 1011 is at  -4.936898 -7.130180  2.703149
      ESP Fit Center 1012 is at  -5.168614 -8.145393  2.703149
      ESP Fit Center 1013 is at  -4.936898 -9.160606  2.703149
      ESP Fit Center 1014 is at  -4.287645 -9.974743  2.703149
      ESP Fit Center 1015 is at  -3.349447-10.426556  2.703149
      ESP Fit Center 1016 is at  -2.049304 -9.852222  1.740823
      ESP Fit Center 1017 is at  -2.477596 -9.656611  5.113850
      ESP Fit Center 1018 is at  -1.517596 -9.656611  5.113850
      ESP Fit Center 1019 is at  -0.334827 -8.825227  4.411081
      ESP Fit Center 1020 is at  -2.511420-10.406614  4.411081
      ESP Fit Center 1021 is at  -1.483772-10.406614  4.411081
      ESP Fit Center 1022 is at  -0.652388 -9.802578  4.411081
      ESP Fit Center 1023 is at  -0.077596 -8.825227  3.451081
      ESP Fit Center 1024 is at  -1.997596-10.745227  3.451081
      ESP Fit Center 1025 is at  -1.037596-10.487996  3.451081
      ESP Fit Center 1026 is at  -0.334827 -9.785227  3.451081
      ESP Fit Center 1027 is at  -0.334827 -8.825227  2.491081
      ESP Fit Center 1028 is at  -2.511420-10.406614  2.491081
      ESP Fit Center 1029 is at  -1.483772-10.406614  2.491081
      ESP Fit Center 1030 is at  -0.652388 -9.802578  2.491081
      ESP Fit Center 1031 is at  -1.037596 -8.825227  1.788312
      ESP Fit Center 1032 is at  -1.517596 -9.656611  1.788312
      ESP Fit Center 1033 is at  -3.615028 -8.325038  5.898063
      ESP Fit Center 1034 is at  -4.575028 -8.325038  5.640832
      ESP Fit Center 1035 is at  -4.095028 -9.156422  5.640832
      ESP Fit Center 1036 is at  -3.135028 -9.156422  5.640832
      ESP Fit Center 1037 is at  -4.960236 -7.347687  4.938063
      ESP Fit Center 1038 is at  -5.277797 -8.325038  4.938063
      ESP Fit Center 1039 is at  -4.960236 -9.302389  4.938063
      ESP Fit Center 1040 is at  -4.128852 -9.906425  4.938063
      ESP Fit Center 1041 is at  -3.101204 -9.906425  4.938063
      ESP Fit Center 1042 is at  -5.277797 -7.365038  3.978063
      ESP Fit Center 1043 is at  -5.535028 -8.325038  3.978063
      ESP Fit Center 1044 is at  -5.277797 -9.285038  3.978063
      ESP Fit Center 1045 is at  -4.575028 -9.987807  3.978063
      ESP Fit Center 1046 is at  -5.277797 -8.325038  3.018063
      ESP Fit Center 1047 is at  -4.960236 -9.302389  3.018063
[...]
 1404 Fit      -0.005345
 1405 Fit      -0.006974
 1406 Fit      -0.010468
 1407 Fit      -0.010486
 1408 Fit      -0.005039
 1409 Fit       0.001794
 1410 Fit       0.000054
 1411 Fit      -0.009627
 1412 Fit      -0.012263
 1413 Fit      -0.012673
 1414 Fit      -0.013456
 1415 Fit      -0.014325
 1416 Fit      -0.012528
 1417 Fit      -0.005832
 1418 Fit      -0.011754
 1419 Fit      -0.013057
 1420 Fit      -0.011968
 1421 Fit      -0.011128
 1422 Fit      -0.012097
 1423 Fit      -0.014408
 1424 Fit      -0.015771
 1425 Fit      -0.013704
 1426 Fit      -0.007088
 1427 Fit      -0.010483
 1428 Fit      -0.010470
 1429 Fit      -0.008450
 1430 Fit      -0.006308
 1431 Fit      -0.005937
 1432 Fit      -0.008191
 1433 Fit      -0.011735
 1434 Fit      -0.013778
 1435 Fit      -0.012087
 1436 Fit      -0.006238
 1437 Fit      -0.006406
 1438 Fit      -0.001705
 1439 Fit      -0.000617
 1440 Fit       0.001889
 1441 Fit       0.003403
 1442 Fit       0.000982
 1443 Fit      -0.004182
 1444 Fit      -0.007565
 1445 Fit      -0.006473
 1446 Fit      -0.000938
 1447 Fit      -0.000941
 1448 Fit       0.000509
 1449 Fit       0.005223
 1450 Fit       0.007891
 1451 Fit       0.009615
 1452 Fit       0.013187
 1453 Fit       0.015003
 1454 Fit       0.016966
 1455 Fit       0.002066
 1456 Fit       0.004445
 1457 Fit       0.000973
 1458 Fit       0.001647
 1459 Fit      -0.002588
 1460 Fit      -0.002624
 1461 Fit       0.001527
 1462 Fit       0.000463
 1463 Fit      -0.008030
 1464 Fit       0.001835
 1465 Fit       0.001927
 1466 Fit       0.002229
 1467 Fit       0.000055
 1468 Fit      -0.002806
 1469 Fit       0.004667
 1470 Fit       0.004001
 1471 Fit       0.001724
 1472 Fit       0.009196
 1473 Fit       0.007927
 1474 Fit       0.003072
 1475 Fit       0.003093
 1476 Fit       0.002475
 1477 Fit       0.004046
 1478 Fit       0.000533
 1479 Fit       0.002478
 1480 Fit       0.000756
 1481 Fit      -0.000281
 1482 Fit       0.001758
 1483 Fit      -0.000922
 1484 Fit      -0.001282
 1485 Fit      -0.010865
 1486 Fit      -0.008311
 1487 Fit      -0.004096
 1488 Fit      -0.008017
 1489 Fit      -0.013920
 1490 Fit      -0.014542
 1491 Fit      -0.013043
 1492 Fit      -0.007437
 1493 Fit       0.003233
 1494 Fit      -0.010804
 1495 Fit      -0.015546
 1496 Fit      -0.015436
 1497 Fit      -0.014191
 1498 Fit      -0.014271
 1499 Fit      -0.014863
 1500 Fit      -0.013158
 1501 Fit      -0.008254
 1502 Fit      -0.010215
 1503 Fit      -0.013878
 1504 Fit      -0.012518
 1505 Fit      -0.010131
 1506 Fit      -0.009979
 1507 Fit      -0.011775
 1508 Fit      -0.014660
 1509 Fit      -0.016444
 1510 Fit      -0.014590
 1511 Fit      -0.009186
 1512 Fit      -0.005843
 1513 Fit      -0.007950
 1514 Fit      -0.008547
 1515 Fit      -0.013622
 1516 Fit      -0.016676
 1517 Fit      -0.015266
 1518 Fit      -0.007322
 1519 Fit      -0.013220
 1520 Fit      -0.012861
 1521 Fit      -0.000911
 1522 Fit      -0.004903
 1523 Fit      -0.006111
 1524 Fit       0.011242
 1525 Fit       0.011024
 1526 Fit       0.005506
 1527 Fit       0.004320
 1528 Fit       0.014073
 1529 Fit       0.009939
 1530 Fit       0.008271
 1531 Fit       0.014888
 1532 Fit       0.011469
 1533 Fit       0.010075
 1534 Fit       0.012658
 1535 Fit       0.011066
 1536 Fit       0.005642
 1537 Fit       0.002428
 1538 Fit       0.009232
 1539 Fit       0.014227
 1540 Fit       0.007239
 1541 Fit       0.007266
 1542 Fit       0.009680
 1543 Fit       0.011887
 1544 Fit       0.011565
 1545 Fit       0.010437
 1546 Fit       0.008898
 1547 Fit       0.009753
 1548 Fit       0.001090
 1549 Fit       0.006628
 1550 Fit       0.003205
 1551 Fit       0.002231
 1552 Fit       0.002220
 1553 Fit       0.008759
 1554 Fit       0.003525
 1555 Fit       0.003367
 1556 Fit       0.004953
 1557 Fit      -0.004386
 1558 Fit       0.000669
 1559 Fit       0.000503
 1560 Fit      -0.002144
 1561 Fit      -0.002391
 1562 Fit       0.002090
 1563 Fit       0.002737
 1564 Fit       0.002750
 1565 Fit       0.001256
 1566 Fit       0.003214
 1567 Fit       0.003233
 1568 Fit       0.003687
 1569 Fit       0.003568
 1570 Fit      -0.001364
 1571 Fit      -0.000594
 1572 Fit      -0.004269
 1573 Fit      -0.002754
 1574 Fit       0.001842
 1575 Fit       0.003092
 1576 Fit       0.002635
 1577 Fit       0.001016
 1578 Fit       0.004835
 1579 Fit       0.004451
 1580 Fit       0.004288
 1581 Fit       0.003658
 1582 Fit       0.002515
 1583 Fit       0.006487
 1584 Fit       0.005273
 1585 Fit       0.004576
 1586 Fit       0.003877
 1587 Fit       0.010308
 1588 Fit       0.008176
 1589 Fit       0.007149
 1590 Fit       0.006440
 1591 Fit       0.005656
 1592 Fit       0.005000
 1593 Fit       0.007934
 1594 Fit       0.009842
 1595 Fit       0.009648
 1596 Fit       0.008628
 1597 Fit       0.007742
 1598 Fit       0.007049
 1599 Fit       0.008606
 1600 Fit       0.006484
 1601 Fit       0.007809
 1602 Fit       0.004792
 1603 Fit       0.006497
 1604 Fit       0.003596
 1605 Fit       0.003273
 1606 Fit       0.003404
 1607 Fit       0.003601
 1608 Fit       0.003880
 1609 Fit       0.004980
 1610 Fit       0.003353
 1611 Fit       0.002969
 1612 Fit       0.002839
 1613 Fit       0.005177
 1614 Fit       0.007300
 1615 Fit       0.006105
 1616 Fit       0.008334
 1617 Fit       0.008407
 1618 Fit       0.007082
 1619 Fit       0.005488
 1620 Fit       0.009452
 1621 Fit       0.009508
 1622 Fit       0.007658
 1623 Fit       0.005720
 1624 Fit       0.007342
 1625 Fit       0.004829
 1626 Fit       0.003239
 1627 Fit       0.003351
 1628 Fit       0.003283
 1629 Fit       0.003303
 1630 Fit       0.003496
 1631 Fit       0.003318
 1632 Fit       0.002499
 1633 Fit       0.000746
 1634 Fit       0.003321
 1635 Fit       0.003330
 1636 Fit       0.002681
 1637 Fit       0.000511
 1638 Fit      -0.005261
 1639 Fit       0.001684
 1640 Fit       0.002319
 1641 Fit       0.001545
 1642 Fit      -0.002585
 1643 Fit      -0.001311
 1644 Fit       0.007349
 1645 Fit       0.006886
 1646 Fit       0.006745
 1647 Fit       0.006976
 1648 Fit       0.007390
 1649 Fit       0.007929
 1650 Fit       0.007688
 1651 Fit       0.006289
 1652 Fit       0.005819
 1653 Fit       0.005809
 1654 Fit       0.005986
 1655 Fit       0.006200
 1656 Fit       0.006641
 1657 Fit       0.007714
 1658 Fit       0.004603
 1659 Fit       0.004544
 1660 Fit       0.004673
 1661 Fit       0.004849
 1662 Fit       0.005265
 1663 Fit       0.006812
 1664 Fit       0.003684
 1665 Fit       0.000502
 1666 Fit      -0.003138
 1667 Fit       0.006613
 1668 Fit       0.007034
 1669 Fit       0.007975
 1670 Fit       0.006197
 1671 Fit       0.004971
 1672 Fit       0.005794
 1673 Fit       0.007587
 1674 Fit       0.002943
 1675 Fit       0.003240
 1676 Fit       0.004723
 1677 Fit       0.006469
 1678 Fit       0.008854
 1679 Fit       0.000223
 1680 Fit       0.002023
 1681 Fit       0.007774
 1682 Fit       0.005742
 1683 Fit       0.004727
 1684 Fit       0.006586
 1685 Fit       0.005266
 1686 Fit       0.003865
 1687 Fit       0.002441
 1688 Fit       0.005210
 1689 Fit       0.004273
 1690 Fit       0.002988
 1691 Fit       0.001225
 1692 Fit      -0.000748
 1693 Fit       0.003165
 1694 Fit       0.001858
 1695 Fit       0.000093
 1696 Fit      -0.002552
 1697 Fit      -0.003496
 1698 Fit      -0.007386
 1699 Fit      -0.010551
 1700 Fit      -0.009970
 1701 Fit      -0.012878
 1702 Fit      -0.005066
 1703 Fit      -0.009560
 1704 Fit      -0.012539
 1705 Fit       0.009724
 1706 Fit       0.008426
 1707 Fit       0.009722
 1708 Fit       0.007025
 1709 Fit       0.004708
 1710 Fit       0.006622
 1711 Fit       0.008650
 1712 Fit      -0.001397
 1713 Fit      -0.001194
 1714 Fit       0.001184
 1715 Fit       0.004234
 1716 Fit       0.006814
 1717 Fit      -0.006856
 1718 Fit      -0.000592
 1719 Fit       0.003965
 1720 Fit       0.004068
 1721 Fit       0.009082
 1722 Fit       0.009498
 1723 Fit       0.009491
 1724 Fit       0.009014
 1725 Fit       0.008563
 1726 Fit       0.007116
 1727 Fit       0.008689
 1728 Fit       0.007254
 1729 Fit       0.004662
 1730 Fit       0.007921
 1731 Fit       0.008111
 1732 Fit       0.006800
 1733 Fit      -0.007275
 1734 Fit       0.002248
 1735 Fit      -0.002049
 1736 Fit      -0.001805
 1737 Fit       0.004236
 1738 Fit      -0.000112
 1739 Fit      -0.003836
 1740 Fit      -0.005102
 1741 Fit       0.004849
 1742 Fit       0.002811
 1743 Fit       0.000866
 1744 Fit       0.000296
 1745 Fit       0.002990
 1746 Fit       0.003766
 1747 Fit       0.002707
 1748 Fit       0.001788
 1749 Fit       0.000463
 1750 Fit       0.002252
 1751 Fit       0.007304
 1752 Fit       0.001689
 1753 Fit       0.006563
 1754 Fit       0.009222
 1755 Fit      -0.004055
 1756 Fit       0.002698
 1757 Fit       0.005975
 1758 Fit       0.007942
 1759 Fit       0.009267
 1760 Fit      -0.002865
 1761 Fit       0.002734
 1762 Fit       0.005005
 1763 Fit       0.006672
 1764 Fit       0.007277
 1765 Fit      -0.004111
 1766 Fit       0.001685
 1767 Fit       0.003561
 1768 Fit       0.004955
 1769 Fit      -0.000352
 1770 Fit      -0.008963
 1771 Fit      -0.011486
 1772 Fit      -0.010382
 1773 Fit      -0.013779
 1774 Fit      -0.010413
 1775 Fit      -0.013049
 1776 Fit      -0.013973
 1777 Fit      -0.009285
 1778 Fit      -0.013594
 1779 Fit      -0.009575
 1780 Fit      -0.011422
 1781 Fit      -0.010092
 1782 Fit      -0.008779
 1783 Fit      -0.003851
 1784 Fit      -0.011466
 1785 Fit      -0.005583
 1786 Fit      -0.005718
 1787 Fit      -0.007031
 1788 Fit      -0.000307
 1789 Fit      -0.002332
 1790 Fit      -0.004417
 1791 Fit      -0.007991
 1792 Fit      -0.000949
 1793 Fit       0.001132
 1794 Fit      -0.000351
 1795 Fit      -0.002170
 1796 Fit      -0.002223
 1797 Fit      -0.001495
 1798 Fit      -0.000520
 1799 Fit      -0.003317
 1800 Fit      -0.004005
 1801 Fit      -0.003538
 1802 Fit      -0.003248
 1803 Fit      -0.006107
 1804 Fit      -0.008555
 1805 Fit      -0.009222
 1806 Fit      -0.003167
 1807 Fit      -0.010460
 1808 Fit      -0.010530
 1809 Fit      -0.003480
 1810 Fit      -0.000002
 1811 Fit      -0.001606
 1812 Fit      -0.002835
 1813 Fit      -0.002014
 1814 Fit      -0.000094
 1815 Fit       0.002786
 1816 Fit       0.001267
 1817 Fit      -0.005782
 1818 Fit       0.002200
 1819 Fit      -0.001068
 1820 Fit       0.003456
 1821 Fit       0.000175
 1822 Fit      -0.004271
 1823 Fit      -0.000657
 1824 Fit      -0.000881
 1825 Fit       0.001951
 1826 Fit      -0.000543
 1827 Fit      -0.004633
 1828 Fit      -0.005857
 1829 Fit       0.000941
 1830 Fit      -0.001640
 1831 Fit      -0.001820
 1832 Fit      -0.002211
 1833 Fit      -0.001371
 1834 Fit      -0.000765
 1835 Fit       0.001327
 1836 Fit       0.000447
 1837 Fit      -0.000261
 1838 Fit      -0.003110
 1839 Fit      -0.007571
 1840 Fit      -0.010897
 1841 Fit      -0.013579
 1842 Fit      -0.014042
 1843 Fit      -0.013220
 1844 Fit      -0.010106
 1845 Fit      -0.010787
 1846 Fit      -0.007897
 1847 Fit      -0.004034
 1848 Fit       0.002862
 1849 Fit      -0.001746
 1850 Fit       0.004517
 1851 Fit       0.002393
 1852 Fit       0.004060
 1853 Fit       0.005339
 1854 Fit       0.005047
 1855 Fit       0.004509
 1856 Fit       0.004220
 1857 Fit       0.002488
 1858 Fit       0.001269
 1859 Fit      -0.004126
 1860 Fit       0.000477
 1861 Fit       0.002178
 1862 Fit      -0.000597
 1863 Fit       0.001713
 1864 Fit       0.001803
 1865 Fit       0.000599
 1866 Fit       0.000741
 1867 Fit       0.001506
 1868 Fit      -0.000930
 1869 Fit       0.000703
 1870 Fit       0.001133
 1871 Fit      -0.005186
 1872 Fit       0.000422
 1873 Fit      -0.002666
 1874 Fit       0.000695
 1875 Fit       0.000592
 1876 Fit      -0.005080
 1877 Fit      -0.000557
 1878 Fit       0.001714
 1879 Fit       0.001167
 1880 Fit       0.001780
 1881 Fit       0.000654
 1882 Fit       0.002153
 1883 Fit       0.001861
 1884 Fit       0.002355
 1885 Fit       0.006291
 1886 Fit       0.003928
 1887 Fit      -0.004001
 1888 Fit       0.002044
 1889 Fit      -0.001182
 1890 Fit       0.003396
 1891 Fit       0.005784
 1892 Fit      -0.004185
 1893 Fit       0.000992
 1894 Fit       0.013900
 1895 Fit       0.001833
 1896 Fit      -0.003092
 1897 Fit      -0.005719
 1898 Fit      -0.005654
 1899 Fit      -0.003414
 1900 Fit      -0.000159
 1901 Fit       0.003231
 1902 Fit       0.005729
 1903 Fit       0.006439
 1904 Fit       0.004333
 1905 Fit       0.000211
 1906 Fit      -0.003201
 1907 Fit      -0.003933
 1908 Fit      -0.003188
 1909 Fit      -0.007328
 1910 Fit      -0.008909
 1911 Fit      -0.007988
 1912 Fit      -0.005526
 1913 Fit      -0.002919
 1914 Fit      -0.001555
 1915 Fit      -0.002286
 1916 Fit      -0.004789
 1917 Fit      -0.007301
 1918 Fit      -0.007685
 1919 Fit      -0.003054
 1920 Fit      -0.007618
 1921 Fit      -0.009281
 1922 Fit      -0.008642
 1923 Fit      -0.007168
 1924 Fit      -0.006487
 1925 Fit      -0.007365
 1926 Fit      -0.008994
 1927 Fit      -0.009344
 1928 Fit      -0.006276
 1929 Fit      -0.004991
 1930 Fit      -0.007939
 1931 Fit      -0.008544
 1932 Fit      -0.008433
 1933 Fit      -0.008889
 1934 Fit      -0.009211
 1935 Fit      -0.007277
 1936 Fit      -0.003773
 1937 Fit      -0.000265
 1938 Fit      -0.001945
 1939 Fit      -0.006073
 1940 Fit      -0.007633
 1941 Fit      -0.007314
 1942 Fit      -0.004657
 1943 Fit       0.007959
 1944 Fit       0.003973
 1945 Fit       0.016656
 1946 Fit       0.008850
 1947 Fit       0.002572
 1948 Fit       0.002148
 1949 Fit       0.002531
 1950 Fit       0.007314
 1951 Fit       0.006784
 1952 Fit       0.005900
 1953 Fit       0.005726
 1954 Fit       0.001906
 1955 Fit       0.000166
 1956 Fit       0.001587
 1957 Fit       0.005053
 1958 Fit       0.001861
 1959 Fit       0.002850
 1960 Fit       0.005428
 1961 Fit       0.009154
 1962 Fit      -0.001972
 1963 Fit       0.000544
 1964 Fit       0.003422
 1965 Fit       0.006329
 1966 Fit       0.005892
 1967 Fit       0.005516
 1968 Fit       0.004234
 1969 Fit       0.002053
 1970 Fit       0.006460
 1971 Fit       0.004148
 1972 Fit       0.002477
 1973 Fit       0.003207
 1974 Fit      -0.004708
 1975 Fit      -0.005606
 1976 Fit      -0.008272
 1977 Fit      -0.008215
 1978 Fit      -0.004408
 1979 Fit       0.000001
 1980 Fit      -0.000897
 1981 Fit      -0.007025
 1982 Fit      -0.009366
 1983 Fit      -0.010063
 1984 Fit      -0.010645
 1985 Fit      -0.010936
 1986 Fit      -0.009325
 1987 Fit      -0.004623
 1988 Fit      -0.001375
 1989 Fit      -0.008326
 1990 Fit      -0.009969
 1991 Fit      -0.009832
 1992 Fit      -0.009625
 1993 Fit      -0.010318
 1994 Fit      -0.011598
 1995 Fit      -0.012048
 1996 Fit      -0.010140
 1997 Fit      -0.005184
 1998 Fit      -0.008084
 1999 Fit      -0.008857
 2000 Fit      -0.008113
 2001 Fit      -0.007051
 2002 Fit      -0.006776
 2003 Fit      -0.007875
 2004 Fit      -0.009849
 2005 Fit      -0.011294
 2006 Fit      -0.010759
 2007 Fit      -0.007545
 2008 Fit      -0.001985
 2009 Fit      -0.004284
 2010 Fit      -0.004201
 2011 Fit      -0.004441
 2012 Fit      -0.003976
 2013 Fit      -0.002879
 2014 Fit      -0.001762
 2015 Fit      -0.001864
 2016 Fit      -0.003712
 2017 Fit      -0.006359
 2018 Fit      -0.008112
 2019 Fit      -0.007695
 2020 Fit      -0.004759
 2021 Fit       0.000179
 2022 Fit      -0.002529
 2023 Fit       0.003667
 2024 Fit       0.004567
 2025 Fit      -0.002143
 2026 Fit      -0.002677
 2027 Fit       0.000315
 2028 Fit       0.005895
 2029 Fit       0.001628
 2030 Fit       0.002600
 2031 Fit       0.005486
 2032 Fit       0.005590
 2033 Fit       0.007808
 2034 Fit       0.009285
 2035 Fit       0.012405
 2036 Fit       0.013827
 2037 Fit       0.014653
 2038 Fit       0.000596
 2039 Fit       0.002319
 2040 Fit      -0.000088
 2041 Fit       0.000253
 2042 Fit      -0.002856
 2043 Fit      -0.002446
 2044 Fit       0.000374
 2045 Fit      -0.000672
 2046 Fit      -0.000793
 2047 Fit       0.001047
 2048 Fit      -0.001617
 2049 Fit       0.001639
 2050 Fit      -0.000892
 2051 Fit       0.005275
 2052 Fit       0.003345
 2053 Fit       0.008682
 2054 Fit       0.008096
 2055 Fit       0.001408
 2056 Fit       0.001526
 2057 Fit       0.001253
 2058 Fit       0.002249
 2059 Fit       0.001272
 2060 Fit       0.000163
 2061 Fit      -0.000965
 2062 Fit       0.000860
 2063 Fit      -0.000786
 2064 Fit      -0.001478
 2065 Fit       0.001213
 2066 Fit      -0.001180
 2067 Fit      -0.008963
 2068 Fit      -0.007261
 2069 Fit      -0.004347
 2070 Fit      -0.006749
 2071 Fit      -0.010805
 2072 Fit      -0.011612
 2073 Fit      -0.010601
 2074 Fit      -0.006368
 2075 Fit      -0.001074
 2076 Fit       0.000735
 2077 Fit      -0.002614
 2078 Fit      -0.008299
 2079 Fit      -0.011782
 2080 Fit      -0.012229
 2081 Fit      -0.011737
 2082 Fit      -0.011780
 2083 Fit      -0.011876
 2084 Fit      -0.010382
 2085 Fit      -0.006443
 2086 Fit      -0.007834
 2087 Fit      -0.010892
 2088 Fit      -0.010571
 2089 Fit      -0.009388
 2090 Fit      -0.009309
 2091 Fit      -0.010396
 2092 Fit      -0.011995
 2093 Fit      -0.012717
 2094 Fit      -0.011035
 2095 Fit      -0.006921
 2096 Fit      -0.006991
 2097 Fit      -0.007115
 2098 Fit      -0.006729
 2099 Fit      -0.009167
 2100 Fit      -0.011910
 2101 Fit      -0.013075
 2102 Fit      -0.011448
 2103 Fit      -0.006367
 2104 Fit      -0.001279
 2105 Fit      -0.010109
 2106 Fit      -0.011762
 2107 Fit      -0.010414
 2108 Fit      -0.003305
 2109 Fit      -0.007685
 2110 Fit      -0.007294
 2111 Fit       0.002463
 2112 Fit      -0.000676
 2113 Fit      -0.001402
 2114 Fit       0.013392
 2115 Fit       0.009491
 2116 Fit       0.009538
 2117 Fit       0.008291
 2118 Fit       0.006308
 2119 Fit       0.010335
 2120 Fit       0.008467
 2121 Fit       0.012354
 2122 Fit       0.009987
 2123 Fit       0.009264
 2124 Fit       0.010696
 2125 Fit       0.009783
 2126 Fit       0.006360
 2127 Fit       0.004059
 2128 Fit       0.007796
 2129 Fit       0.011065
 2130 Fit       0.006704
 2131 Fit       0.006557
 2132 Fit       0.007906
 2133 Fit       0.009233
 2134 Fit       0.009516
 2135 Fit       0.009083
 2136 Fit       0.007706
 2137 Fit       0.008218
 2138 Fit       0.000187
 2139 Fit       0.002376
 2140 Fit       0.001510
 2141 Fit       0.005522
 2142 Fit       0.004440
 2143 Fit       0.003743
 2144 Fit       0.003018
 2145 Fit       0.002439
 2146 Fit       0.002465
 2147 Fit       0.003396
 2148 Fit       0.004887
 2149 Fit      -0.005856
 2150 Fit      -0.000577
 2151 Fit      -0.001313
 2152 Fit      -0.004402
 2153 Fit       0.001294
 2154 Fit       0.001399
 2155 Fit       0.000749
 2156 Fit      -0.001468
 2157 Fit      -0.000183
 2158 Fit       0.002580
 2159 Fit       0.002417
 2160 Fit       0.001470
 2161 Fit       0.003646
 2162 Fit       0.003278
 2163 Fit       0.003248
 2164 Fit      -0.003134
 2165 Fit      -0.002118
 2166 Fit      -0.000212
 2167 Fit       0.001365
 2168 Fit       0.001208
 2169 Fit      -0.000074
 2170 Fit       0.002540
 2171 Fit       0.003068
 2172 Fit       0.003037
 2173 Fit       0.002448
 2174 Fit       0.001455
 2175 Fit       0.005066
 2176 Fit       0.004157
 2177 Fit       0.003640
 2178 Fit       0.002988
 2179 Fit       0.007425
 2180 Fit       0.005851
 2181 Fit       0.005099
 2182 Fit       0.004527
 2183 Fit       0.003975
 2184 Fit       0.009029
 2185 Fit       0.007430
 2186 Fit       0.006531
 2187 Fit       0.005906
 2188 Fit       0.005309
 2189 Fit       0.004885
 2190 Fit       0.005097
 2191 Fit       0.007052
 2192 Fit       0.008446
 2193 Fit       0.008285
 2194 Fit       0.007432
 2195 Fit       0.006701
 2196 Fit       0.006275
 2197 Fit       0.007378
 Job cpu time:       0 days  0 hours 11 minutes 27.6 seconds.
 Normal termination of Gaussian 16 at Sun Jul  9 06:57:22 2023.
