 Copyright (c) 1988-2019, Gaussian, Inc.  All Rights Reserved.
  
 This is part of the Gaussian(R) 16 program.  It is based on
 the Gaussian(R) 09 system (copyright 2009, Gaussian, Inc.),
 the Gaussian(R) 03 system (copyright 2003, Gaussian, Inc.),
 the Gaussian(R) 98 system (copyright 1998, Gaussian, Inc.),
 the Gaussian(R) 94 system (copyright 1995, Gaussian, Inc.),
 the Gaussian 92(TM) system (copyright 1992, Gaussian, Inc.),
 the Gaussian 90(TM) system (copyright 1990, Gaussian, Inc.),
 the Gaussian 88(TM) system (copyright 1988, Gaussian, Inc.),
 the Gaussian 86(TM) system (copyright 1986, Carnegie Mellon
 University), and the Gaussian 82(TM) system (copyright 1983,
 Carnegie Mellon University). Gaussian is a federally registered
 trademark of Gaussian, Inc.
 Cite this work as:
 Gaussian 16, Revision C.01,
 M. J. Frisch, G. W. Trucks, H. B. Schlegel, G. E. Scuseria, 
 M. A. Robb, J. R. Cheeseman, G. Scalmani, V. Barone, 
 G. A. Petersson, H. Nakatsuji, X. Li, M. Caricato, A. V. Marenich, 
 J. Bloino, B. G. Janesko, R. Gomperts, B. Mennucci, H. P. Hratchian, 
 J. V. Ortiz, A. F. Izmaylov, J. L. Sonnenberg, D. Williams-Young, 
 F. Ding, F. Lipparini, F. Egidi, J. Goings, B. Peng, A. Petrone, 
 T. Henderson, D. Ranasinghe, V. G. Zakrzewski, J. Gao, N. Rega, 
 G. Zheng, W. Liang, M. Hada, M. Ehara, K. Toyota, R. Fukuda, 
 J. Hasegawa, M. Ishida, T. Nakajima, Y. Honda, O. Kitao, H. Nakai, 
 T. Vreven, K. Throssell, J. A. Montgomery, Jr., J. E. Peralta, 
 F. Ogliaro, M. J. Bearpark, J. J. Heyd, E. N. Brothers, K. N. Kudin, 
 V. N. Staroverov, T. A. Keith, R. Kobayashi, J. Normand, 
 K. Raghavachari, A. P. Rendell, J. C. Burant, S. S. Iyengar, 
 J. Tomasi, M. Cossi, J. M. Millam, M. Klene, C. Adamo, R. Cammi, 
 J. W. Ochterski, R. L. Martin, K. Morokuma, O. Farkas, 
 J. B. Foresman, and D. J. Fox, Gaussian, Inc., Wallingford CT, 2019.
 
 ******************************************
 Gaussian 16:  EM64L-G16RevC.01  3-Jul-2019
                 9-Jul-2023 
 ******************************************
 ----------------------------------------------------------------------
 #P B3LYP/6-31G(d) Integral=Ultrafine SCF(Conver=8,XQC,MaxConventionalC
 ycles=64,MaxCycle=128) NoSymm Test Pop=mk IOp(6/33=2) GFInput GFPrint
 ----------------------------------------------------------------------
 1/38=1,172=1/1;
 2/12=2,15=1,17=6,18=5,40=1/2;
 3/5=1,6=6,7=1,11=2,24=110,25=1,30=1,74=-5,75=-5/1,2,3;
 4//1;
 5/5=2,6=8,7=128,8=3,13=1,38=5,85=64/2,8;
 6/7=2,8=2,9=2,10=2,15=8,20=1,28=1,33=2/1,2;
 99/5=1,9=1/99;
 -------------------------------------------------
 MEP step - Input generated by PyRED DVE-DMDS-OPLS
 -------------------------------------------------
 Symbolic Z-matrix:
 Charge =  0 Multiplicity = 1
 C                     1.40077   2.49845  -8.11009 
 H                     0.91942   2.80114  -9.04742 
 H                     1.13418   3.23786  -7.34711 
 H                     2.48602   2.52888  -8.2543 
 C                     0.95476   1.08941  -7.72274 
 H                    -0.13635   1.06193  -7.56582 
 H                     1.19042   0.38792  -8.53013 
 O                     1.62016   0.57204  -6.57734 
 C                     1.20205   1.12527  -5.34454 
 H                     0.10407   1.0986   -5.25015 
 H                     1.51672   2.1758   -5.24321 
 C                     1.82824   0.2732   -4.23999 
 H                     1.45283  -0.75164  -4.32069 
 H                     2.91997   0.24334  -4.3683 
 O                     1.47667   0.74263  -2.94533 
 C                     2.32632   1.76104  -2.42978 
 H                     2.31418   2.64976  -3.08158 
 H                     3.36552   1.40061  -2.37089 
 C                     1.84347   2.17411  -1.0457 
 H                     0.76477   2.37686  -1.07969 
 H                     2.34723   3.10685  -0.77049 
 O                     2.16907   1.26992   0. 
 C                     1.53238   0.        0. 
 H                     1.907    -0.48952   0.90502 
 H                     1.85607  -0.59859  -0.86228 
 C                     0.        0.        0. 
 H                    -0.33279  -1.03572   0.13933 
 H                    -0.37929   0.32865  -0.97217 
 S                    -0.85529   1.0829    1.21528 
 C                    -0.08087   0.5821    2.8118 
 H                    -0.88055   0.63315   3.55696 
 H                     0.22868  -0.46554   2.74609 
 C                     1.09423   1.47823   3.21148 
 H                     0.76399   2.51581   3.32163 
 H                     1.86252   1.47596   2.43427 
 S                     1.94424   0.92825   4.75008 
 C                     0.76187   1.46276   6.05827 
 H                     1.06364   0.89867   6.94627 
 H                    -0.25217   1.14037   5.80435 
 C                     0.79873   2.96666   6.33408 
 H                     1.81261   3.28925   6.58827 
 H                     0.49724   3.53047   5.44586 
 S                    -0.38055   3.5046    7.64102 
 C                     0.46027   2.93205   9.17586 
 H                    -0.31082   3.02397   9.9482 
 H                     0.68907   1.86451   9.0864 
 C                     1.70273   3.73338   9.56212 
 H                     1.46028   4.79251   9.69279 
 H                     2.11975   3.35487   10.504 
 H                     2.48699   3.65819   8.80127 
 
 ITRead=  0  0  0  0  0  0  0  0  0  0  0  0  0  0  0  0  0  0  0  0
 ITRead=  0  0  0  0  0  0  0  0  0  0  0  0  0  0  0  0  0  0  0  0
 ITRead=  0  0  0  0  0  0  0  0  0  0
 MicOpt= -1 -1 -1 -1 -1 -1 -1 -1 -1 -1 -1 -1 -1 -1 -1 -1 -1 -1 -1 -1
 MicOpt= -1 -1 -1 -1 -1 -1 -1 -1 -1 -1 -1 -1 -1 -1 -1 -1 -1 -1 -1 -1
 MicOpt= -1 -1 -1 -1 -1 -1 -1 -1 -1 -1
 NAtoms=     50 NQM=       50 NQMF=       0 NMMI=      0 NMMIF=      0
                NMic=       0 NMicF=      0.
                          Input orientation:                          
 ---------------------------------------------------------------------
 Center     Atomic      Atomic             Coordinates (Angstroms)
 Number     Number       Type             X           Y           Z
 ---------------------------------------------------------------------
      1          6           0        1.400770    2.498448   -8.110093
      2          1           0        0.919420    2.801142   -9.047415
      3          1           0        1.134184    3.237858   -7.347109
      4          1           0        2.486016    2.528875   -8.254297
      5          6           0        0.954763    1.089407   -7.722739
      6          1           0       -0.136346    1.061930   -7.565821
      7          1           0        1.190421    0.387918   -8.530126
      8          8           0        1.620164    0.572041   -6.577344
      9          6           0        1.202045    1.125266   -5.344542
     10          1           0        0.104072    1.098598   -5.250150
     11          1           0        1.516715    2.175800   -5.243210
     12          6           0        1.828238    0.273199   -4.239991
     13          1           0        1.452833   -0.751639   -4.320688
     14          1           0        2.919974    0.243339   -4.368302
     15          8           0        1.476666    0.742633   -2.945332
     16          6           0        2.326317    1.761043   -2.429779
     17          1           0        2.314183    2.649761   -3.081577
     18          1           0        3.365517    1.400614   -2.370892
     19          6           0        1.843468    2.174113   -1.045700
     20          1           0        0.764768    2.376862   -1.079694
     21          1           0        2.347235    3.106855   -0.770493
     22          8           0        2.169071    1.269919    0.000000
     23          6           0        1.532375    0.000000    0.000000
     24          1           0        1.906999   -0.489523    0.905023
     25          1           0        1.856069   -0.598592   -0.862284
     26          6           0        0.000000    0.000000    0.000000
     27          1           0       -0.332786   -1.035718    0.139329
     28          1           0       -0.379288    0.328653   -0.972165
     29         16           0       -0.855287    1.082904    1.215278
     30          6           0       -0.080874    0.582099    2.811798
     31          1           0       -0.880551    0.633150    3.556956
     32          1           0        0.228681   -0.465536    2.746091
     33          6           0        1.094229    1.478233    3.211476
     34          1           0        0.763990    2.515806    3.321634
     35          1           0        1.862519    1.475957    2.434265
     36         16           0        1.944243    0.928251    4.750081
     37          6           0        0.761870    1.462758    6.058268
     38          1           0        1.063644    0.898672    6.946270
     39          1           0       -0.252165    1.140372    5.804352
     40          6           0        0.798731    2.966662    6.334081
     41          1           0        1.812613    3.289254    6.588271
     42          1           0        0.497235    3.530471    5.445858
     43         16           0       -0.380551    3.504600    7.641025
     44          6           0        0.460268    2.932049    9.175864
     45          1           0       -0.310816    3.023965    9.948202
     46          1           0        0.689071    1.864509    9.086405
     47          6           0        1.702733    3.733375    9.562119
     48          1           0        1.460280    4.792513    9.692789
     49          1           0        2.119750    3.354874   10.503999
     50          1           0        2.486986    3.658189    8.801269
 ---------------------------------------------------------------------
 Stoichiometry    C14H30O3S3
 Framework group  C1[X(C14H30O3S3)]
 Standard basis: 6-31G(d) (6D, 7F)
   372 basis functions,   752 primitive gaussians,   372 cartesian basis functions
    93 alpha electrons       93 beta electrons
 Requested convergence on RMS density matrix=1.00D-08 within  64 cycles.
 Requested convergence on MAX density matrix=1.00D-06.
 Requested convergence on             energy=1.00D-06.
 SCF Done:  E(RB3LYP) =  -1971.75409611     A.U. after   13 cycles
            NFock= 13  Conv=0.54D-08     -V/T= 2.0058
 Mulliken charges:
     1  C   -0.461881
     2  H    0.146893
     3  H    0.150524
     4  H    0.158759
     5  C   -0.014284
     6  H    0.122522
     7  H    0.147118
     8  O   -0.474423
     9  C   -0.029120
    10  H    0.128299
    11  H    0.125162
    12  C   -0.039196
    13  H    0.155632
    14  H    0.138409
    15  O   -0.482237
    16  C   -0.040147
    17  H    0.125575
    18  H    0.138617
    19  C   -0.042094
    20  H    0.151769
    21  H    0.149454
    22  O   -0.468726
    23  C   -0.017804
    24  H    0.146544
    25  H    0.154253
    26  C   -0.453068
    27  H    0.170065
    28  H    0.193586
    29  S    0.080853
    30  C   -0.415964
    31  H    0.179692
    32  H    0.180336
    33  C   -0.422577
    34  H    0.177429
    35  H    0.216589
    36  S    0.070886
    37  C   -0.412289
    38  H    0.178273
    39  H    0.184160
    40  C   -0.412352
    41  H    0.185830
    42  H    0.181394
    43  S    0.078491
    44  C   -0.410179
    45  H    0.177345
    46  H    0.169004
    47  C   -0.435784
    48  H    0.164679
    49  H    0.149128
    50  H    0.154853
 Sum of Mulliken charges =  -0.00000
 Dipole moment (field-independent basis, Debye):
    X=              0.7731    Y=             -0.0201    Z=             -2.1991  Tot=              2.3311
 Quadrupole moment (field-independent basis, Debye-Ang):
   XX=           -154.8183   YY=           -147.9169   ZZ=           -120.9370
   XY=              6.4090   XZ=              4.3868   YZ=            -11.6244
 Traceless Quadrupole moment (field-independent basis, Debye-Ang):
   XX=            -13.5942   YY=             -6.6928   ZZ=             20.2871
   XY=              6.4090   XZ=              4.3868   YZ=            -11.6244
 Octapole moment (field-independent basis, Debye-Ang**2):
  XXX=           -436.1243  YYY=           -720.5932  ZZZ=           -454.0886  XYY=           -118.8579
  XXY=           -236.0400  XXZ=           -205.7801  XZZ=           -105.2428  YZZ=           -177.7871
  YYZ=           -233.0804  XYZ=             16.5995
 Hexadecapole moment (field-independent basis, Debye-Ang**3):
 XXXX=          -1941.7347 YYYY=          -3763.1238 ZZZZ=         -23005.0102 XXXY=           -628.3963
 XXXZ=             83.4447 YYYX=           -550.3007 YYYZ=          -2483.9299 ZZZX=            760.4658
 ZZZY=          -2303.7676 XXYY=           -910.8581 XXZZ=          -4917.1140 YYZZ=          -5168.3660
 XXYZ=           -792.4763 YYXZ=            117.9883 ZZXY=             66.8285
 Merz-Kollman atomic radii used.
 Atom Element Radius
    1     6    1.50
    2     1    1.20
    3     1    1.20
    4     1    1.20
    5     6    1.50
    6     1    1.20
    7     1    1.20
    8     8    1.40
    9     6    1.50
   10     1    1.20
   11     1    1.20
   12     6    1.50
   13     1    1.20
   14     1    1.20
   15     8    1.40
   16     6    1.50
   17     1    1.20
   18     1    1.20
   19     6    1.50
   20     1    1.20
   21     1    1.20
   22     8    1.40
   23     6    1.50
   24     1    1.20
   25     1    1.20
   26     6    1.50
   27     1    1.20
   28     1    1.20
   29    16    1.75
   30     6    1.50
   31     1    1.20
   32     1    1.20
   33     6    1.50
   34     1    1.20
   35     1    1.20
   36    16    1.75
   37     6    1.50
   38     1    1.20
   39     1    1.20
   40     6    1.50
   41     1    1.20
   42     1    1.20
   43    16    1.75
   44     6    1.50
   45     1    1.20
   46     1    1.20
   47     6    1.50
   48     1    1.20
   49     1    1.20
   50     1    1.20
 Generate VDW surfaces: Layer= 4 Dens= 1 Start= 1.400 Inc= 0.200
            Electrostatic Properties Using The SCF Density.


       Atomic Center    1 is at   1.400770  2.498448 -8.110093
       Atomic Center    2 is at   0.919420  2.801142 -9.047415
       Atomic Center    3 is at   1.134184  3.237858 -7.347109
       Atomic Center    4 is at   2.486016  2.528875 -8.254297
       Atomic Center    5 is at   0.954763  1.089407 -7.722739
       Atomic Center    6 is at  -0.136346  1.061930 -7.565821
       Atomic Center    7 is at   1.190421  0.387918 -8.530126
       Atomic Center    8 is at   1.620164  0.572041 -6.577344
       Atomic Center    9 is at   1.202045  1.125266 -5.344542
       Atomic Center   10 is at   0.104072  1.098598 -5.250150
       Atomic Center   11 is at   1.516715  2.175800 -5.243210
       Atomic Center   12 is at   1.828238  0.273199 -4.239991
       Atomic Center   13 is at   1.452833 -0.751639 -4.320688
       Atomic Center   14 is at   2.919974  0.243339 -4.368302
       Atomic Center   15 is at   1.476666  0.742633 -2.945332
       Atomic Center   16 is at   2.326317  1.761043 -2.429779
       Atomic Center   17 is at   2.314183  2.649761 -3.081577
       Atomic Center   18 is at   3.365517  1.400614 -2.370892
       Atomic Center   19 is at   1.843468  2.174113 -1.045700
       Atomic Center   20 is at   0.764768  2.376862 -1.079694
       Atomic Center   21 is at   2.347235  3.106855 -0.770493
       Atomic Center   22 is at   2.169071  1.269919  0.000000
       Atomic Center   23 is at   1.532375  0.000000  0.000000
       Atomic Center   24 is at   1.906999 -0.489523  0.905023
       Atomic Center   25 is at   1.856069 -0.598592 -0.862284
       Atomic Center   26 is at   0.000000  0.000000  0.000000
       Atomic Center   27 is at  -0.332786 -1.035718  0.139329
       Atomic Center   28 is at  -0.379288  0.328653 -0.972165
       Atomic Center   29 is at  -0.855287  1.082904  1.215278
       Atomic Center   30 is at  -0.080874  0.582099  2.811798
       Atomic Center   31 is at  -0.880551  0.633150  3.556956
       Atomic Center   32 is at   0.228681 -0.465536  2.746091
       Atomic Center   33 is at   1.094229  1.478233  3.211476
       Atomic Center   34 is at   0.763990  2.515806  3.321634
       Atomic Center   35 is at   1.862519  1.475957  2.434265
       Atomic Center   36 is at   1.944243  0.928251  4.750081
       Atomic Center   37 is at   0.761870  1.462758  6.058268
       Atomic Center   38 is at   1.063644  0.898672  6.946270
       Atomic Center   39 is at  -0.252165  1.140372  5.804352
       Atomic Center   40 is at   0.798731  2.966662  6.334081
       Atomic Center   41 is at   1.812613  3.289254  6.588271
       Atomic Center   42 is at   0.497235  3.530471  5.445858
       Atomic Center   43 is at  -0.380551  3.504600  7.641025
       Atomic Center   44 is at   0.460268  2.932049  9.175864
       Atomic Center   45 is at  -0.310816  3.023965  9.948202
       Atomic Center   46 is at   0.689071  1.864509  9.086405
       Atomic Center   47 is at   1.702733  3.733375  9.562119
       Atomic Center   48 is at   1.460280  4.792513  9.692789
       Atomic Center   49 is at   2.119750  3.354874 10.503999
       Atomic Center   50 is at   2.486986  3.658189  8.801269
      ESP Fit Center   51 is at   2.593706  4.226714 -8.110093
      ESP Fit Center   52 is at  -0.638208  3.001011 -8.110093
      ESP Fit Center   53 is at   2.156266  4.152753 -9.160093
      ESP Fit Center   54 is at   1.925770  1.589121 -9.928746
      ESP Fit Center   55 is at   0.120533  4.184856 -8.528266
      ESP Fit Center   56 is at  -0.581997  3.347613 -8.528266
      ESP Fit Center   57 is at   2.143387  3.828172 -9.566564
      ESP Fit Center   58 is at   1.196871  4.374643 -9.566564
      ESP Fit Center   59 is at   0.120533  4.184856 -9.566564
      ESP Fit Center   60 is at  -0.581997  3.347613 -9.566564
      ESP Fit Center   61 is at  -0.581997  2.254671 -9.566564
      ESP Fit Center   62 is at   1.906899  2.801142-10.406564
      ESP Fit Center   63 is at   1.224568  3.740291-10.406564
      ESP Fit Center   64 is at   0.120533  3.381568-10.406564
      ESP Fit Center   65 is at   0.120533  2.220716-10.406564
      ESP Fit Center   66 is at   1.224568  1.861993-10.406564
      ESP Fit Center   67 is at   0.919420  2.801142-10.727415
      ESP Fit Center   68 is at   1.439332  4.177007 -5.987960
      ESP Fit Center   69 is at   0.335297  3.818284 -5.987960
      ESP Fit Center   70 is at   2.358151  4.264888 -6.827960
      ESP Fit Center   71 is at   1.411635  4.811359 -6.827960
      ESP Fit Center   72 is at   0.335297  4.621572 -6.827960
      ESP Fit Center   73 is at  -0.367233  3.784329 -6.827960
      ESP Fit Center   74 is at  -0.367233  2.691387 -6.827960
      ESP Fit Center   75 is at   1.411635  4.811359 -7.866258
      ESP Fit Center   76 is at   0.335297  4.621572 -7.866258
      ESP Fit Center   77 is at  -0.367233  3.784329 -7.866258
      ESP Fit Center   78 is at   3.473495  2.528875 -6.895148
      ESP Fit Center   79 is at   4.083791  2.528875 -7.735148
      ESP Fit Center   80 is at   3.709983  3.555905 -7.735148
      ESP Fit Center   81 is at   2.763467  4.102376 -7.735148
      ESP Fit Center   82 is at   3.709983  1.501845 -7.735148
      ESP Fit Center   83 is at   4.083791  2.528875 -8.773446
      ESP Fit Center   84 is at   3.709983  3.555905 -8.773446
      ESP Fit Center   85 is at   2.763467  4.102376 -8.773446
      ESP Fit Center   86 is at   3.709983  1.501845 -8.773446
      ESP Fit Center   87 is at   3.473495  2.528875 -9.613446
      ESP Fit Center   88 is at   2.791164  3.468024 -9.613446
      ESP Fit Center   89 is at   2.791164  1.589726 -9.613446
      ESP Fit Center   90 is at   2.486016  2.528875 -9.934297
      ESP Fit Center   91 is at   0.210093 -0.874127 -7.722739
      ESP Fit Center   92 is at  -0.095237  1.089407 -9.541392
      ESP Fit Center   93 is at  -0.935233  2.445644 -7.046672
      ESP Fit Center   94 is at  -1.637763  1.608401 -7.046672
      ESP Fit Center   95 is at  -1.637763  0.515459 -7.046672
      ESP Fit Center   96 is at  -0.935233 -0.321784 -7.046672
      ESP Fit Center   97 is at  -0.935233  2.445644 -8.084970
      ESP Fit Center   98 is at  -1.637763  1.608401 -8.084970
      ESP Fit Center   99 is at  -1.637763  0.515459 -8.084970
      ESP Fit Center  100 is at  -0.935233 -0.321784 -8.084970
      ESP Fit Center  101 is at  -0.935233  1.642356 -8.924970
      ESP Fit Center  102 is at  -0.935233  0.481504 -8.924970
      ESP Fit Center  103 is at   0.391534 -0.995796 -8.010977
      ESP Fit Center  104 is at   1.467872 -1.185583 -8.010977
      ESP Fit Center  105 is at   2.414388 -0.639112 -8.010977
      ESP Fit Center  106 is at   2.788196  0.387918 -9.049275
      ESP Fit Center  107 is at  -0.310996 -0.158553 -9.049275
      ESP Fit Center  108 is at   0.391534 -0.995796 -9.049275
      ESP Fit Center  109 is at   1.467872 -1.185583 -9.049275
      ESP Fit Center  110 is at   2.414388 -0.639112 -9.049275
      ESP Fit Center  111 is at   2.177900  0.387918 -9.889275
      ESP Fit Center  112 is at   1.495569  1.327067 -9.889275
      ESP Fit Center  113 is at   0.391534  0.968344 -9.889275
      ESP Fit Center  114 is at   0.391534 -0.192508 -9.889275
      ESP Fit Center  115 is at   1.495569 -0.551231 -9.889275
      ESP Fit Center  116 is at   1.190421  0.387918-10.210126
      ESP Fit Center  117 is at   3.580164  0.572041 -6.577344
      ESP Fit Center  118 is at   3.317574  1.552041 -6.577344
      ESP Fit Center  119 is at  -0.077246 -0.407959 -6.577344
      ESP Fit Center  120 is at   0.640164 -1.125369 -6.577344
      ESP Fit Center  121 is at   1.620164 -1.387959 -6.577344
      ESP Fit Center  122 is at   2.600164 -1.125369 -6.577344
      ESP Fit Center  123 is at   3.317574 -0.407959 -6.577344
      ESP Fit Center  124 is at   3.317574  0.572041 -7.557344
      ESP Fit Center  125 is at   1.095636 -1.042292 -7.557344
      ESP Fit Center  126 is at   2.144692 -1.042292 -7.557344
      ESP Fit Center  127 is at   2.993397 -0.425671 -7.557344
      ESP Fit Center  128 is at   0.011080  2.499712 -4.294542
      ESP Fit Center  129 is at  -0.694815  1.679024 -3.891001
      ESP Fit Center  130 is at  -0.694815  0.518172 -3.891001
      ESP Fit Center  131 is at  -0.694815  2.482312 -4.731001
      ESP Fit Center  132 is at  -1.397345  1.645069 -4.731001
      ESP Fit Center  133 is at  -1.397345  0.552127 -4.731001
      ESP Fit Center  134 is at  -0.694815 -0.285116 -4.731001
      ESP Fit Center  135 is at  -0.694815  2.482312 -5.769299
      ESP Fit Center  136 is at  -1.397345  1.645069 -5.769299
      ESP Fit Center  137 is at  -1.397345  0.552127 -5.769299
      ESP Fit Center  138 is at  -0.694815 -0.285116 -5.769299
      ESP Fit Center  139 is at   0.717828  2.756226 -3.884061
      ESP Fit Center  140 is at   3.114490  2.175800 -4.724061
      ESP Fit Center  141 is at   2.740682  3.202830 -4.724061
      ESP Fit Center  142 is at   1.794166  3.749301 -4.724061
      ESP Fit Center  143 is at   0.717828  3.559514 -4.724061
      ESP Fit Center  144 is at   3.114490  2.175800 -5.762359
      ESP Fit Center  145 is at   2.740682  3.202830 -5.762359
      ESP Fit Center  146 is at   1.794166  3.749301 -5.762359
      ESP Fit Center  147 is at   2.583734 -1.381106 -3.189991
      ESP Fit Center  148 is at  -0.210740 -0.229364 -4.239991
      ESP Fit Center  149 is at   3.021174 -1.455067 -4.239991
      ESP Fit Center  150 is at   0.653946 -1.332065 -2.961539
      ESP Fit Center  151 is at   1.757981 -1.690788 -2.961539
      ESP Fit Center  152 is at  -0.048584 -1.298110 -3.801539
      ESP Fit Center  153 is at   0.653946 -2.135353 -3.801539
      ESP Fit Center  154 is at   1.730284 -2.325140 -3.801539
      ESP Fit Center  155 is at   2.676800 -1.778669 -3.801539
      ESP Fit Center  156 is at  -0.048584 -1.298110 -4.839837
      ESP Fit Center  157 is at   0.653946 -2.135353 -4.839837
      ESP Fit Center  158 is at   1.730284 -2.325140 -4.839837
      ESP Fit Center  159 is at   2.676800 -1.778669 -4.839837
      ESP Fit Center  160 is at   0.653946 -1.332065 -5.679837
      ESP Fit Center  161 is at   1.757981 -1.690788 -5.679837
      ESP Fit Center  162 is at   4.517749  0.243339 -3.849153
      ESP Fit Center  163 is at   3.197425 -1.330162 -3.849153
      ESP Fit Center  164 is at   4.143941 -0.783691 -3.849153
      ESP Fit Center  165 is at   4.517749  0.243339 -4.887451
      ESP Fit Center  166 is at   4.143941  1.270369 -4.887451
      ESP Fit Center  167 is at   3.197425  1.816840 -4.887451
      ESP Fit Center  168 is at   3.197425 -1.330162 -4.887451
      ESP Fit Center  169 is at   4.143941 -0.783691 -4.887451
      ESP Fit Center  170 is at   3.907453  0.243339 -5.727451
      ESP Fit Center  171 is at   3.225122 -0.695810 -5.727451
      ESP Fit Center  172 is at  -0.220744  1.722633 -2.945332
      ESP Fit Center  173 is at  -0.483334  0.742633 -2.945332
      ESP Fit Center  174 is at  -0.220744 -0.237367 -2.945332
      ESP Fit Center  175 is at   0.496666 -0.954777 -2.945332
      ESP Fit Center  176 is at   3.538150  3.676791 -2.562428
      ESP Fit Center  177 is at   2.591634  4.223262 -2.562428
      ESP Fit Center  178 is at   1.515296  4.033475 -2.562428
      ESP Fit Center  179 is at   3.911958  2.649761 -3.600726
      ESP Fit Center  180 is at   3.538150  3.676791 -3.600726
      ESP Fit Center  181 is at   2.591634  4.223262 -3.600726
      ESP Fit Center  182 is at   1.515296  4.033475 -3.600726
      ESP Fit Center  183 is at   0.812766  3.196232 -3.600726
      ESP Fit Center  184 is at   3.301662  2.649761 -4.440726
      ESP Fit Center  185 is at   2.619331  3.588910 -4.440726
      ESP Fit Center  186 is at   4.352996  1.400614 -1.011743
      ESP Fit Center  187 is at   3.670665  0.461465 -1.011743
      ESP Fit Center  188 is at   4.963292  1.400614 -1.851743
      ESP Fit Center  189 is at   4.589484  2.427644 -1.851743
      ESP Fit Center  190 is at   3.642968 -0.172887 -1.851743
      ESP Fit Center  191 is at   4.589484  0.373584 -1.851743
      ESP Fit Center  192 is at   4.963292  1.400614 -2.890041
      ESP Fit Center  193 is at   4.589484  2.427644 -2.890041
      ESP Fit Center  194 is at   3.642968 -0.172887 -2.890041
      ESP Fit Center  195 is at   4.589484  0.373584 -2.890041
      ESP Fit Center  196 is at   4.352996  1.400614 -3.730041
      ESP Fit Center  197 is at   1.318468  3.083440  0.772953
      ESP Fit Center  198 is at   1.584647  3.974255 -2.095700
      ESP Fit Center  199 is at  -0.034119  3.760576 -0.560545
      ESP Fit Center  200 is at  -0.736649  2.923333 -0.560545
      ESP Fit Center  201 is at  -0.034119  3.760576 -1.598843
      ESP Fit Center  202 is at  -0.736649  2.923333 -1.598843
      ESP Fit Center  203 is at  -0.034119  2.957288 -2.438843
      ESP Fit Center  204 is at   2.347235  3.106855  0.909507
      ESP Fit Center  205 is at   3.334714  3.106855  0.588656
      ESP Fit Center  206 is at   2.652383  4.046004  0.588656
      ESP Fit Center  207 is at   1.548348  3.687281  0.588656
      ESP Fit Center  208 is at   3.945010  3.106855 -0.251344
      ESP Fit Center  209 is at   3.571202  4.133885 -0.251344
      ESP Fit Center  210 is at   2.624686  4.680356 -0.251344
      ESP Fit Center  211 is at   1.548348  4.490569 -0.251344
      ESP Fit Center  212 is at   3.945010  3.106855 -1.289642
      ESP Fit Center  213 is at   3.571202  4.133885 -1.289642
      ESP Fit Center  214 is at   2.624686  4.680356 -1.289642
      ESP Fit Center  215 is at   1.548348  4.490569 -1.289642
      ESP Fit Center  216 is at   2.652383  4.046004 -2.129642
      ESP Fit Center  217 is at   3.866481  1.269919  0.980000
      ESP Fit Center  218 is at   3.542304  2.267631  0.980000
      ESP Fit Center  219 is at   2.693599  2.884252  0.980000
      ESP Fit Center  220 is at   1.644543  2.884252  0.980000
      ESP Fit Center  221 is at   3.542304  0.272207  0.980000
      ESP Fit Center  222 is at   4.129071  1.269919  0.000000
      ESP Fit Center  223 is at   3.866481  2.249919  0.000000
      ESP Fit Center  224 is at   3.866481  0.289919  0.000000
      ESP Fit Center  225 is at   3.542304  0.272207 -0.980000
      ESP Fit Center  226 is at   1.785502 -2.084689  0.000000
      ESP Fit Center  227 is at   3.391833 -0.975919  0.000000
      ESP Fit Center  228 is at   1.906999 -0.489523  2.585023
      ESP Fit Center  229 is at   2.894478 -0.489523  2.264172
      ESP Fit Center  230 is at   2.212147 -1.428672  2.264172
      ESP Fit Center  231 is at   3.504774 -0.489523  1.424172
      ESP Fit Center  232 is at   1.108112 -1.873237  1.424172
      ESP Fit Center  233 is at   2.184450 -2.063024  1.424172
      ESP Fit Center  234 is at   3.130966 -1.516553  1.424172
      ESP Fit Center  235 is at   2.184450 -2.063024  0.385874
      ESP Fit Center  236 is at   3.130966 -1.516553  0.385874
      ESP Fit Center  237 is at   2.133520 -2.172093 -0.343135
      ESP Fit Center  238 is at   3.080036 -1.625622 -0.343135
      ESP Fit Center  239 is at   3.453844 -0.598592 -1.381433
      ESP Fit Center  240 is at   1.057182 -1.982306 -1.381433
      ESP Fit Center  241 is at   2.133520 -2.172093 -1.381433
      ESP Fit Center  242 is at   3.080036 -1.625622 -1.381433
      ESP Fit Center  243 is at   2.843548 -0.598592 -2.221433
      ESP Fit Center  244 is at   1.057182 -1.179018 -2.221433
      ESP Fit Center  245 is at   2.161217 -1.537741 -2.221433
      ESP Fit Center  246 is at  -1.131673 -1.616144  1.498478
      ESP Fit Center  247 is at  -0.027638 -1.974867  1.498478
      ESP Fit Center  248 is at  -1.834203 -1.582189  0.658478
      ESP Fit Center  249 is at  -1.131673 -2.419432  0.658478
      ESP Fit Center  250 is at  -0.055335 -2.609219  0.658478
      ESP Fit Center  251 is at   0.891181 -2.062748  0.658478
      ESP Fit Center  252 is at  -1.834203 -1.582189 -0.379820
      ESP Fit Center  253 is at  -1.131673 -2.419432 -0.379820
      ESP Fit Center  254 is at  -0.055335 -2.609219 -0.379820
      ESP Fit Center  255 is at   0.891181 -2.062748 -0.379820
      ESP Fit Center  256 is at  -1.131673 -1.616144 -1.219820
      ESP Fit Center  257 is at  -0.027638 -1.974867 -1.219820
      ESP Fit Center  258 is at  -1.178175  1.712367 -1.491314
      ESP Fit Center  259 is at  -1.880705  0.875124 -1.491314
      ESP Fit Center  260 is at  -1.880705 -0.217818 -1.491314
      ESP Fit Center  261 is at  -1.178175 -1.055061 -1.491314
      ESP Fit Center  262 is at  -1.178175  0.909079 -2.331314
      ESP Fit Center  263 is at  -1.178175 -0.251773 -2.331314
      ESP Fit Center  264 is at  -0.074140 -0.610496 -2.331314
      ESP Fit Center  265 is at  -1.127889  2.978894  2.742828
      ESP Fit Center  266 is at  -2.109664  2.530533  2.742828
      ESP Fit Center  267 is at  -2.693183  1.622559  2.742828
      ESP Fit Center  268 is at  -2.693183  0.543249  2.742828
      ESP Fit Center  269 is at  -2.109664 -0.364725  2.742828
      ESP Fit Center  270 is at  -0.323779  3.411591  1.760454
      ESP Fit Center  271 is at  -1.386795  3.411591  1.760454
      ESP Fit Center  272 is at  -2.344538  2.950366  1.760454
      ESP Fit Center  273 is at  -3.007317  2.119267  1.760454
      ESP Fit Center  274 is at  -3.243860  1.082904  1.760454
      ESP Fit Center  275 is at  -3.007317  0.046541  1.760454
      ESP Fit Center  276 is at  -2.344538 -0.784558  1.760454
      ESP Fit Center  277 is at  -1.386795 -1.245783  1.760454
      ESP Fit Center  278 is at   0.633964  2.950366  0.670102
      ESP Fit Center  279 is at  -0.323779  3.411591  0.670102
      ESP Fit Center  280 is at  -1.386795  3.411591  0.670102
      ESP Fit Center  281 is at  -2.344538  2.950366  0.670102
      ESP Fit Center  282 is at  -3.007317  2.119267  0.670102
      ESP Fit Center  283 is at  -3.243860  1.082904  0.670102
      ESP Fit Center  284 is at  -3.007317  0.046541  0.670102
      ESP Fit Center  285 is at  -2.344538 -0.784558  0.670102
      ESP Fit Center  286 is at  -1.127889  2.978894 -0.312272
      ESP Fit Center  287 is at  -2.109664  2.530533 -0.312272
      ESP Fit Center  288 is at  -2.693183  1.622559 -0.312272
      ESP Fit Center  289 is at  -2.693183  0.543249 -0.312272
      ESP Fit Center  290 is at  -2.109664 -0.364725 -0.312272
      ESP Fit Center  291 is at  -1.386795  2.003502 -0.992096
      ESP Fit Center  292 is at  -1.918302  1.082904 -0.992096
      ESP Fit Center  293 is at  -1.652747 -0.810459  2.811798
      ESP Fit Center  294 is at  -1.679438  1.213576  4.916105
      ESP Fit Center  295 is at  -1.679438  0.052724  4.916105
      ESP Fit Center  296 is at  -0.575403 -0.305999  4.916105
      ESP Fit Center  297 is at  -1.679438  2.016864  4.076105
      ESP Fit Center  298 is at  -2.381968  1.179621  4.076105
      ESP Fit Center  299 is at  -2.381968  0.086679  4.076105
      ESP Fit Center  300 is at  -1.679438 -0.750564  4.076105
      ESP Fit Center  301 is at  -2.381968  0.086679  3.037807
      ESP Fit Center  302 is at  -0.570206 -1.045962  4.105240
      ESP Fit Center  303 is at   0.533829 -1.404685  4.105240
      ESP Fit Center  304 is at  -0.570206 -1.849250  3.265240
      ESP Fit Center  305 is at   0.506132 -2.039037  3.265240
      ESP Fit Center  306 is at   1.452648 -1.492566  3.265240
      ESP Fit Center  307 is at  -0.570206 -1.849250  2.226942
      ESP Fit Center  308 is at   0.506132 -2.039037  2.226942
      ESP Fit Center  309 is at   1.452648 -1.492566  2.226942
      ESP Fit Center  310 is at   1.987957  3.542836  3.840783
      ESP Fit Center  311 is at   1.041441  4.089307  3.840783
      ESP Fit Center  312 is at  -0.034897  3.899520  3.840783
      ESP Fit Center  313 is at  -0.737427  3.062277  3.840783
      ESP Fit Center  314 is at   1.987957  3.542836  2.802485
      ESP Fit Center  315 is at   1.041441  4.089307  2.802485
      ESP Fit Center  316 is at  -0.034897  3.899520  2.802485
      ESP Fit Center  317 is at  -0.737427  3.062277  2.802485
      ESP Fit Center  318 is at   1.069138  3.454955  1.962485
      ESP Fit Center  319 is at   3.086486  2.502987  2.953414
      ESP Fit Center  320 is at   3.460294  1.475957  1.915116
      ESP Fit Center  321 is at   3.086486  2.502987  1.915116
      ESP Fit Center  322 is at   2.139970  3.049458  1.915116
      ESP Fit Center  323 is at   3.086486  0.448927  1.915116
      ESP Fit Center  324 is at   3.007258  0.928251  6.957455
      ESP Fit Center  325 is at   3.859730  0.928251  6.277631
      ESP Fit Center  326 is at   3.555653  1.963842  6.277631
      ESP Fit Center  327 is at   1.671641 -0.967739  6.277631
      ESP Fit Center  328 is at   2.739965 -0.814137  6.277631
      ESP Fit Center  329 is at   3.555653 -0.107340  6.277631
      ESP Fit Center  330 is at   4.332816  0.928251  5.295257
      ESP Fit Center  331 is at   4.096273  1.964614  5.295257
      ESP Fit Center  332 is at   3.433494  2.795713  5.295257
      ESP Fit Center  333 is at   0.454992 -0.939211  5.295257
      ESP Fit Center  334 is at   1.412735 -1.400436  5.295257
      ESP Fit Center  335 is at   2.475751 -1.400436  5.295257
      ESP Fit Center  336 is at   3.433494 -0.939211  5.295257
      ESP Fit Center  337 is at   4.096273 -0.108112  5.295257
      ESP Fit Center  338 is at   4.332816  0.928251  4.204905
      ESP Fit Center  339 is at   4.096273  1.964614  4.204905
      ESP Fit Center  340 is at   3.433494  2.795713  4.204905
      ESP Fit Center  341 is at   2.475751  3.256938  4.204905
      ESP Fit Center  342 is at   1.412735 -1.400436  4.204905
      ESP Fit Center  343 is at   2.475751 -1.400436  4.204905
      ESP Fit Center  344 is at   3.433494 -0.939211  4.204905
      ESP Fit Center  345 is at   4.096273 -0.108112  4.204905
      ESP Fit Center  346 is at   3.859730  0.928251  3.222531
      ESP Fit Center  347 is at   3.555653  1.963842  3.222531
      ESP Fit Center  348 is at   2.739965 -0.814137  3.222531
      ESP Fit Center  349 is at   3.555653 -0.107340  3.222531
      ESP Fit Center  350 is at  -0.429095  0.088312  7.108268
      ESP Fit Center  351 is at   0.017200 -0.500776  6.058268
      ESP Fit Center  352 is at   2.051123  0.898672  8.305419
      ESP Fit Center  353 is at   0.264757  0.318246  8.305419
      ESP Fit Center  354 is at   1.368792 -0.040477  8.305419
      ESP Fit Center  355 is at   2.661419  0.898672  7.465419
      ESP Fit Center  356 is at   2.287611  1.925702  7.465419
      ESP Fit Center  357 is at  -0.437773  0.352201  7.465419
      ESP Fit Center  358 is at   0.264757 -0.485042  7.465419
      ESP Fit Center  359 is at   1.341095 -0.674829  7.465419
      ESP Fit Center  360 is at   2.287611 -0.128358  7.465419
      ESP Fit Center  361 is at  -1.051052  0.559946  7.163501
      ESP Fit Center  362 is at  -1.753582  1.686843  6.323501
      ESP Fit Center  363 is at  -1.753582  0.593901  6.323501
      ESP Fit Center  364 is at  -1.051052 -0.243342  6.323501
      ESP Fit Center  365 is at  -1.051052  2.524086  5.285203
      ESP Fit Center  366 is at  -1.753582  1.686843  5.285203
      ESP Fit Center  367 is at  -1.753582  0.593901  5.285203
      ESP Fit Center  368 is at  -1.051052 -0.243342  5.285203
      ESP Fit Center  369 is at   1.051858  5.051351  6.334081
      ESP Fit Center  370 is at   3.410388  3.289254  7.107420
      ESP Fit Center  371 is at   3.036580  4.316284  7.107420
      ESP Fit Center  372 is at   2.090064  4.862755  7.107420
      ESP Fit Center  373 is at   3.036580  2.262224  7.107420
      ESP Fit Center  374 is at   3.410388  3.289254  6.069122
      ESP Fit Center  375 is at   3.036580  4.316284  6.069122
      ESP Fit Center  376 is at   2.090064  4.862755  6.069122
      ESP Fit Center  377 is at   2.800092  3.289254  5.229122
      ESP Fit Center  378 is at   2.117761  4.228403  5.229122
      ESP Fit Center  379 is at   0.774686  5.103972  5.965007
      ESP Fit Center  380 is at   1.721202  4.557501  4.926709
      ESP Fit Center  381 is at   0.774686  5.103972  4.926709
      ESP Fit Center  382 is at  -0.301652  4.914185  4.926709
      ESP Fit Center  383 is at  -1.004182  4.076942  4.926709
      ESP Fit Center  384 is at  -1.004182  2.984000  4.926709
      ESP Fit Center  385 is at   0.802383  4.469620  4.086709
      ESP Fit Center  386 is at  -0.301652  4.110897  4.086709
      ESP Fit Center  387 is at  -0.653153  5.400590  9.168575
      ESP Fit Center  388 is at  -1.634928  4.952229  9.168575
      ESP Fit Center  389 is at  -2.218447  4.044255  9.168575
      ESP Fit Center  390 is at  -2.218447  2.964945  9.168575
      ESP Fit Center  391 is at  -1.634928  2.056971  9.168575
      ESP Fit Center  392 is at   0.150957  5.833287  8.186201
      ESP Fit Center  393 is at  -0.912059  5.833287  8.186201
      ESP Fit Center  394 is at  -1.869802  5.372062  8.186201
      ESP Fit Center  395 is at  -2.532581  4.540963  8.186201
      ESP Fit Center  396 is at  -2.769124  3.504600  8.186201
      ESP Fit Center  397 is at  -2.532581  2.468237  8.186201
      ESP Fit Center  398 is at  -1.869802  1.637138  8.186201
      ESP Fit Center  399 is at  -0.912059  1.175913  8.186201
      ESP Fit Center  400 is at   1.108700  5.372062  7.095849
      ESP Fit Center  401 is at   0.150957  5.833287  7.095849
      ESP Fit Center  402 is at  -0.912059  5.833287  7.095849
      ESP Fit Center  403 is at  -1.869802  5.372062  7.095849
      ESP Fit Center  404 is at  -2.532581  4.540963  7.095849
      ESP Fit Center  405 is at  -2.769124  3.504600  7.095849
      ESP Fit Center  406 is at  -2.532581  2.468237  7.095849
      ESP Fit Center  407 is at  -1.869802  1.637138  7.095849
      ESP Fit Center  408 is at   0.415171  5.246988  6.113475
      ESP Fit Center  409 is at  -0.653153  5.400590  6.113475
      ESP Fit Center  410 is at  -1.634928  4.952229  6.113475
      ESP Fit Center  411 is at  -2.218447  4.044255  6.113475
      ESP Fit Center  412 is at  -2.218447  2.964945  6.113475
      ESP Fit Center  413 is at  -1.634928  2.056971  6.113475
      ESP Fit Center  414 is at  -1.443566  3.504600  5.433651
      ESP Fit Center  415 is at   0.985268  2.022722 10.994517
      ESP Fit Center  416 is at  -1.111605  1.539491  9.175864
      ESP Fit Center  417 is at  -0.310816  3.023965 11.628202
      ESP Fit Center  418 is at   0.676663  3.023965 11.307351
      ESP Fit Center  419 is at  -0.005668  3.963114 11.307351
      ESP Fit Center  420 is at  -1.109703  3.604391 11.307351
      ESP Fit Center  421 is at  -1.109703  2.443539 11.307351
      ESP Fit Center  422 is at  -0.005668  2.084816 11.307351
      ESP Fit Center  423 is at  -0.033365  4.597466 10.467351
      ESP Fit Center  424 is at  -1.109703  4.407679 10.467351
      ESP Fit Center  425 is at  -1.812233  3.570436 10.467351
      ESP Fit Center  426 is at  -1.812233  2.477494 10.467351
      ESP Fit Center  427 is at  -1.109703  1.640251 10.467351
      ESP Fit Center  428 is at  -1.812233  2.477494  9.429053
      ESP Fit Center  429 is at  -0.109816  1.284083 10.445554
      ESP Fit Center  430 is at   0.994219  0.925360 10.445554
      ESP Fit Center  431 is at  -0.109816  0.480795  9.605554
      ESP Fit Center  432 is at   0.966522  0.291008  9.605554
      ESP Fit Center  433 is at   1.913038  0.837479  9.605554
      ESP Fit Center  434 is at   2.286846  1.864509  8.567256
      ESP Fit Center  435 is at  -0.109816  0.480795  8.567256
      ESP Fit Center  436 is at   0.966522  0.291008  8.567256
      ESP Fit Center  437 is at   1.913038  0.837479  8.567256
      ESP Fit Center  438 is at   1.177733  4.642702 11.380772
      ESP Fit Center  439 is at   0.652733  3.733375 11.380772
      ESP Fit Center  440 is at   3.232682  4.716613 10.612119
      ESP Fit Center  441 is at   3.562191  4.709294  9.562119
      ESP Fit Center  442 is at   2.895669  2.005109  9.562119
      ESP Fit Center  443 is at   1.460280  4.792513 11.372789
      ESP Fit Center  444 is at   1.765428  5.731662 11.051938
      ESP Fit Center  445 is at   0.661393  5.372939 11.051938
      ESP Fit Center  446 is at   2.684247  5.819543 10.211938
      ESP Fit Center  447 is at   1.737731  6.366014 10.211938
      ESP Fit Center  448 is at   0.661393  6.176227 10.211938
      ESP Fit Center  449 is at  -0.041137  5.338984 10.211938
      ESP Fit Center  450 is at   2.684247  5.819543  9.173640
      ESP Fit Center  451 is at   1.737731  6.366014  9.173640
      ESP Fit Center  452 is at   0.661393  6.176227  9.173640
      ESP Fit Center  453 is at   1.765428  5.731662  8.333640
      ESP Fit Center  454 is at   2.119750  3.354874 12.183999
      ESP Fit Center  455 is at   3.107229  3.354874 11.863148
      ESP Fit Center  456 is at   2.424898  4.294023 11.863148
      ESP Fit Center  457 is at   1.320863  3.935300 11.863148
      ESP Fit Center  458 is at   1.320863  2.774448 11.863148
      ESP Fit Center  459 is at   2.424898  2.415725 11.863148
      ESP Fit Center  460 is at   3.717525  3.354874 11.023148
      ESP Fit Center  461 is at   3.343717  4.381904 11.023148
      ESP Fit Center  462 is at   1.320863  1.971160 11.023148
      ESP Fit Center  463 is at   2.397201  1.781373 11.023148
      ESP Fit Center  464 is at   3.343717  2.327844 11.023148
      ESP Fit Center  465 is at   2.397201  1.781373  9.984850
      ESP Fit Center  466 is at   3.343717  2.327844  9.984850
      ESP Fit Center  467 is at   4.084761  3.658189  9.320418
      ESP Fit Center  468 is at   3.710953  4.685219  9.320418
      ESP Fit Center  469 is at   3.710953  2.631159  9.320418
      ESP Fit Center  470 is at   4.084761  3.658189  8.282120
      ESP Fit Center  471 is at   3.710953  4.685219  8.282120
      ESP Fit Center  472 is at   2.764437  5.231690  8.282120
      ESP Fit Center  473 is at   2.764437  2.084688  8.282120
      ESP Fit Center  474 is at   3.710953  2.631159  8.282120
      ESP Fit Center  475 is at   3.474465  3.658189  7.442120
      ESP Fit Center  476 is at   2.792134  4.597338  7.442120
      ESP Fit Center  477 is at   2.979294  3.512904 -6.613717
      ESP Fit Center  478 is at   2.859628  4.327798 -7.576043
      ESP Fit Center  479 is at   1.921430  4.779611 -8.644143
      ESP Fit Center  480 is at   0.880110  4.779611 -8.644143
      ESP Fit Center  481 is at  -0.939057  2.498448 -8.644143
      ESP Fit Center  482 is at   2.180253  4.205277 -9.606469
      ESP Fit Center  483 is at   2.442091  2.498448-10.272418
      ESP Fit Center  484 is at   1.921430  1.596638-10.272418
      ESP Fit Center  485 is at   0.919420  4.721142 -9.047415
      ESP Fit Center  486 is at  -0.040580  4.463911 -9.047415
      ESP Fit Center  487 is at  -0.743349  3.761142 -9.047415
      ESP Fit Center  488 is at  -1.000580  2.801142 -9.047415
      ESP Fit Center  489 is at   2.264628  3.778493-10.007415
      ESP Fit Center  490 is at   1.433244  4.382529-10.007415
      ESP Fit Center  491 is at   0.405596  4.382529-10.007415
      ESP Fit Center  492 is at  -0.425788  3.778493-10.007415
      ESP Fit Center  493 is at  -0.743349  2.801142-10.007415
      ESP Fit Center  494 is at  -0.425788  1.823791-10.007415
      ESP Fit Center  495 is at   1.879420  2.801142-10.710184
      ESP Fit Center  496 is at   1.399420  3.632526-10.710184
      ESP Fit Center  497 is at   0.439420  3.632526-10.710184
      ESP Fit Center  498 is at  -0.040580  2.801142-10.710184
      ESP Fit Center  499 is at   0.439420  1.969758-10.710184
      ESP Fit Center  500 is at   1.399420  1.969758-10.710184
      ESP Fit Center  501 is at   0.919420  2.801142-10.967415
      ESP Fit Center  502 is at   1.614184  4.069242 -5.684340
      ESP Fit Center  503 is at   0.654184  4.069242 -5.684340
      ESP Fit Center  504 is at   2.479392  4.215209 -6.387109
      ESP Fit Center  505 is at   1.648008  4.819245 -6.387109
      ESP Fit Center  506 is at   0.620360  4.819245 -6.387109
      ESP Fit Center  507 is at  -0.211024  4.215209 -6.387109
      ESP Fit Center  508 is at  -0.528585  3.237858 -6.387109
      ESP Fit Center  509 is at   2.094184  4.900627 -7.347109
      ESP Fit Center  510 is at   1.134184  5.157858 -7.347109
      ESP Fit Center  511 is at   0.174184  4.900627 -7.347109
      ESP Fit Center  512 is at  -0.528585  4.197858 -7.347109
      ESP Fit Center  513 is at  -0.785816  3.237858 -7.347109
      ESP Fit Center  514 is at   0.620360  4.819245 -8.307109
      ESP Fit Center  515 is at   3.446016  2.528875 -6.591528
      ESP Fit Center  516 is at   4.148785  2.528875 -7.294297
      ESP Fit Center  517 is at   3.831224  3.506226 -7.294297
      ESP Fit Center  518 is at   2.999840  4.110262 -7.294297
      ESP Fit Center  519 is at   3.831224  1.551524 -7.294297
      ESP Fit Center  520 is at   4.406016  2.528875 -8.254297
      ESP Fit Center  521 is at   4.148785  3.488875 -8.254297
      ESP Fit Center  522 is at   3.446016  4.191644 -8.254297
      ESP Fit Center  523 is at   3.446016  0.866106 -8.254297
      ESP Fit Center  524 is at   4.148785  1.568875 -8.254297
      ESP Fit Center  525 is at   4.148785  2.528875 -9.214297
      ESP Fit Center  526 is at   3.831224  3.506226 -9.214297
      ESP Fit Center  527 is at   2.999840  4.110262 -9.214297
      ESP Fit Center  528 is at   2.999840  0.947488 -9.214297
      ESP Fit Center  529 is at   3.831224  1.551524 -9.214297
      ESP Fit Center  530 is at   3.446016  2.528875 -9.917066
      ESP Fit Center  531 is at   2.966016  3.360259 -9.917066
      ESP Fit Center  532 is at   2.966016  1.697491 -9.917066
      ESP Fit Center  533 is at  -0.504095 -0.739943 -8.256789
      ESP Fit Center  534 is at  -0.086558  1.089407 -9.885064
      ESP Fit Center  535 is at  -0.650170  2.643317 -6.605821
      ESP Fit Center  536 is at  -1.481554  2.039281 -6.605821
      ESP Fit Center  537 is at  -1.799115  1.061930 -6.605821
      ESP Fit Center  538 is at  -1.481554  0.084579 -6.605821
      ESP Fit Center  539 is at  -0.650170 -0.519457 -6.605821
      ESP Fit Center  540 is at  -1.096346  2.724699 -7.565821
      ESP Fit Center  541 is at  -1.799115  2.021930 -7.565821
      ESP Fit Center  542 is at  -2.056346  1.061930 -7.565821
      ESP Fit Center  543 is at  -1.799115  0.101930 -7.565821
      ESP Fit Center  544 is at  -1.096346 -0.600839 -7.565821
      ESP Fit Center  545 is at  -1.481554  2.039281 -8.525821
      ESP Fit Center  546 is at  -1.799115  1.061930 -8.525821
      ESP Fit Center  547 is at  -1.481554  0.084579 -8.525821
      ESP Fit Center  548 is at  -0.650170 -0.519457 -8.525821
      ESP Fit Center  549 is at  -1.096346  1.061930 -9.228590
      ESP Fit Center  550 is at   3.110421  0.387918 -8.530126
      ESP Fit Center  551 is at   0.230421 -1.274851 -8.530126
      ESP Fit Center  552 is at   1.190421 -1.532082 -8.530126
      ESP Fit Center  553 is at   2.150421 -1.274851 -8.530126
      ESP Fit Center  554 is at   2.853190 -0.572082 -8.530126
      ESP Fit Center  555 is at   2.853190  0.387918 -9.490126
      ESP Fit Center  556 is at  -0.154787 -0.589433 -9.490126
      ESP Fit Center  557 is at   0.676597 -1.193469 -9.490126
      ESP Fit Center  558 is at   1.704245 -1.193469 -9.490126
      ESP Fit Center  559 is at   2.535629 -0.589433 -9.490126
      ESP Fit Center  560 is at   2.150421  0.387918-10.192895
      ESP Fit Center  561 is at   1.670421  1.219302-10.192895
      ESP Fit Center  562 is at   0.710421  1.219302-10.192895
      ESP Fit Center  563 is at   0.230421  0.387918-10.192895
      ESP Fit Center  564 is at   0.710421 -0.443466-10.192895
      ESP Fit Center  565 is at   1.670421 -0.443466-10.192895
      ESP Fit Center  566 is at   1.190421  0.387918-10.450126
      ESP Fit Center  567 is at   3.804003  0.572041 -6.078897
      ESP Fit Center  568 is at   3.553857  1.586921 -6.078897
      ESP Fit Center  569 is at  -0.014463 -0.876112 -6.078897
      ESP Fit Center  570 is at   0.845764 -1.469883 -6.078897
      ESP Fit Center  571 is at   1.883397 -1.595875 -6.078897
      ESP Fit Center  572 is at   2.860726 -1.225223 -6.078897
      ESP Fit Center  573 is at   3.553857 -0.442839 -6.078897
      ESP Fit Center  574 is at   3.804003  0.572041 -7.075791
      ESP Fit Center  575 is at   0.845764 -1.469883 -7.075791
      ESP Fit Center  576 is at   1.883397 -1.595875 -7.075791
      ESP Fit Center  577 is at   2.860726 -1.225223 -7.075791
      ESP Fit Center  578 is at   3.553857 -0.442839 -7.075791
      ESP Fit Center  579 is at   3.371467  0.572041 -7.973961
      ESP Fit Center  580 is at   3.036998 -0.457349 -7.973961
      ESP Fit Center  581 is at  -0.026733  2.543351 -3.848166
      ESP Fit Center  582 is at  -0.256813  2.954616 -4.810492
      ESP Fit Center  583 is at  -0.256813  2.954616 -5.878592
      ESP Fit Center  584 is at  -0.256813 -0.704084 -5.878592
      ESP Fit Center  585 is at  -0.375928  1.929982 -3.587381
      ESP Fit Center  586 is at  -0.855928  1.098598 -3.587381
      ESP Fit Center  587 is at  -0.409752  2.679985 -4.290150
      ESP Fit Center  588 is at  -1.241136  2.075949 -4.290150
      ESP Fit Center  589 is at  -1.558697  1.098598 -4.290150
      ESP Fit Center  590 is at  -1.241136  0.121247 -4.290150
      ESP Fit Center  591 is at  -0.855928  2.761367 -5.250150
      ESP Fit Center  592 is at  -1.558697  2.058598 -5.250150
      ESP Fit Center  593 is at  -1.815928  1.098598 -5.250150
      ESP Fit Center  594 is at  -1.558697  0.138598 -5.250150
      ESP Fit Center  595 is at  -0.855928 -0.564171 -5.250150
      ESP Fit Center  596 is at  -0.409752  2.679985 -6.210150
      ESP Fit Center  597 is at  -1.241136  2.075949 -6.210150
      ESP Fit Center  598 is at  -1.558697  1.098598 -6.210150
      ESP Fit Center  599 is at  -1.241136  0.121247 -6.210150
      ESP Fit Center  600 is at  -0.409752 -0.482789 -6.210150
      ESP Fit Center  601 is at   1.002891  3.757187 -4.283210
      ESP Fit Center  602 is at   0.171507  3.153151 -4.283210
      ESP Fit Center  603 is at   3.436715  2.175800 -5.243210
      ESP Fit Center  604 is at   3.179484  3.135800 -5.243210
      ESP Fit Center  605 is at   2.476715  3.838569 -5.243210
      ESP Fit Center  606 is at   1.516715  4.095800 -5.243210
      ESP Fit Center  607 is at   0.556715  3.838569 -5.243210
      ESP Fit Center  608 is at  -0.146054  3.135800 -5.243210
      ESP Fit Center  609 is at   2.861923  3.153151 -6.203210
      ESP Fit Center  610 is at   2.607721 -1.433630 -2.743615
      ESP Fit Center  611 is at   3.406762 -0.741257 -2.743615
      ESP Fit Center  612 is at   3.287096 -1.556151 -3.705941
      ESP Fit Center  613 is at   2.607721 -1.433630 -5.736367
      ESP Fit Center  614 is at   0.972833 -1.583023 -2.657919
      ESP Fit Center  615 is at   1.932833 -1.583023 -2.657919
      ESP Fit Center  616 is at  -0.209936 -0.751639 -3.360688
      ESP Fit Center  617 is at   0.107625 -1.728990 -3.360688
      ESP Fit Center  618 is at   0.939009 -2.333026 -3.360688
      ESP Fit Center  619 is at   1.966657 -2.333026 -3.360688
      ESP Fit Center  620 is at  -0.467167 -0.751639 -4.320688
      ESP Fit Center  621 is at  -0.209936 -1.711639 -4.320688
      ESP Fit Center  622 is at   0.492833 -2.414408 -4.320688
      ESP Fit Center  623 is at   1.452833 -2.671639 -4.320688
      ESP Fit Center  624 is at   2.412833 -2.414408 -4.320688
      ESP Fit Center  625 is at   0.107625 -1.728990 -5.280688
      ESP Fit Center  626 is at   0.939009 -2.333026 -5.280688
      ESP Fit Center  627 is at   1.966657 -2.333026 -5.280688
      ESP Fit Center  628 is at   2.798041 -1.728990 -5.280688
      ESP Fit Center  629 is at   0.972833 -1.583023 -5.983457
      ESP Fit Center  630 is at   1.932833 -1.583023 -5.983457
      ESP Fit Center  631 is at   4.582743  0.243339 -3.408302
      ESP Fit Center  632 is at   3.433798 -1.338048 -3.408302
      ESP Fit Center  633 is at   4.265182 -0.734012 -3.408302
      ESP Fit Center  634 is at   4.839974  0.243339 -4.368302
      ESP Fit Center  635 is at   4.582743  1.203339 -4.368302
      ESP Fit Center  636 is at   3.879974  1.906108 -4.368302
      ESP Fit Center  637 is at   3.879974 -1.419430 -4.368302
      ESP Fit Center  638 is at   4.582743 -0.716661 -4.368302
      ESP Fit Center  639 is at   4.582743  0.243339 -5.328302
      ESP Fit Center  640 is at   4.265182  1.220690 -5.328302
      ESP Fit Center  641 is at   3.433798 -1.338048 -5.328302
      ESP Fit Center  642 is at   4.265182 -0.734012 -5.328302
      ESP Fit Center  643 is at   3.879974  0.243339 -6.031071
      ESP Fit Center  644 is at   0.702266 -1.299291 -2.446885
      ESP Fit Center  645 is at  -0.157961  2.190786 -3.443779
      ESP Fit Center  646 is at  -0.643714  1.265260 -3.443779
      ESP Fit Center  647 is at  -0.643714  0.220006 -3.443779
      ESP Fit Center  648 is at   0.218206  2.776256 -2.963829
      ESP Fit Center  649 is at   3.976952  3.609761 -3.081577
      ESP Fit Center  650 is at   3.274183  4.312530 -3.081577
      ESP Fit Center  651 is at   2.314183  4.569761 -3.081577
      ESP Fit Center  652 is at   1.354183  4.312530 -3.081577
      ESP Fit Center  653 is at   0.651414  3.609761 -3.081577
      ESP Fit Center  654 is at   3.976952  2.649761 -4.041577
      ESP Fit Center  655 is at   3.659391  3.627112 -4.041577
      ESP Fit Center  656 is at   2.828007  4.231148 -4.041577
      ESP Fit Center  657 is at   1.800359  4.231148 -4.041577
      ESP Fit Center  658 is at   0.968975  3.627112 -4.041577
      ESP Fit Center  659 is at   4.325517  1.400614 -0.708123
      ESP Fit Center  660 is at   5.028286  1.400614 -1.410892
      ESP Fit Center  661 is at   4.710725  2.377965 -1.410892
      ESP Fit Center  662 is at   3.879341 -0.180773 -1.410892
      ESP Fit Center  663 is at   4.710725  0.423263 -1.410892
      ESP Fit Center  664 is at   5.285517  1.400614 -2.370892
      ESP Fit Center  665 is at   5.028286  2.360614 -2.370892
      ESP Fit Center  666 is at   3.365517 -0.519386 -2.370892
      ESP Fit Center  667 is at   4.325517 -0.262155 -2.370892
      ESP Fit Center  668 is at   5.028286  0.440614 -2.370892
      ESP Fit Center  669 is at   5.028286  1.400614 -3.330892
      ESP Fit Center  670 is at   4.710725  2.377965 -3.330892
      ESP Fit Center  671 is at   4.710725  0.423263 -3.330892
      ESP Fit Center  672 is at   1.322808  3.075923  1.116625
      ESP Fit Center  673 is at   0.614690  3.592198  0.450676
      ESP Fit Center  674 is at   4.183295  2.174113 -0.511650
      ESP Fit Center  675 is at   0.250944  3.958249 -0.119694
      ESP Fit Center  676 is at  -0.195232  4.039631 -1.079694
      ESP Fit Center  677 is at  -0.898001  3.336862 -1.079694
      ESP Fit Center  678 is at   0.250944  3.958249 -2.039694
      ESP Fit Center  679 is at  -0.580440  3.354213 -2.039694
      ESP Fit Center  680 is at  -0.898001  2.376862 -2.039694
      ESP Fit Center  681 is at   0.284768  3.208246 -2.742463
      ESP Fit Center  682 is at  -0.195232  2.376862 -2.742463
      ESP Fit Center  683 is at   3.307235  3.106855  0.892276
      ESP Fit Center  684 is at   2.827235  3.938239  0.892276
      ESP Fit Center  685 is at   1.867235  3.938239  0.892276
      ESP Fit Center  686 is at   4.010004  3.106855  0.189507
      ESP Fit Center  687 is at   3.692443  4.084206  0.189507
      ESP Fit Center  688 is at   2.861059  4.688242  0.189507
      ESP Fit Center  689 is at   1.833411  4.688242  0.189507
      ESP Fit Center  690 is at   1.002027  4.084206  0.189507
      ESP Fit Center  691 is at   4.267235  3.106855 -0.770493
      ESP Fit Center  692 is at   4.010004  4.066855 -0.770493
      ESP Fit Center  693 is at   3.307235  4.769624 -0.770493
      ESP Fit Center  694 is at   2.347235  5.026855 -0.770493
      ESP Fit Center  695 is at   1.387235  4.769624 -0.770493
      ESP Fit Center  696 is at   3.692443  4.084206 -1.730493
      ESP Fit Center  697 is at   2.861059  4.688242 -1.730493
      ESP Fit Center  698 is at   1.833411  4.688242 -1.730493
      ESP Fit Center  699 is at   3.920374  1.269919  1.396617
      ESP Fit Center  700 is at   3.585905  2.299309  1.396617
      ESP Fit Center  701 is at   2.710253  2.935507  1.396617
      ESP Fit Center  702 is at   4.352910  1.269919  0.498447
      ESP Fit Center  703 is at   4.102764  2.284799  0.498447
      ESP Fit Center  704 is at   4.102764  0.255039  0.498447
      ESP Fit Center  705 is at   4.352910  1.269919 -0.498447
      ESP Fit Center  706 is at   4.102764  0.255039 -0.498447
      ESP Fit Center  707 is at   2.386999 -1.320907  2.567792
      ESP Fit Center  708 is at   3.569768 -0.489523  1.865023
      ESP Fit Center  709 is at   1.393175 -2.070910  1.865023
      ESP Fit Center  710 is at   2.420823 -2.070910  1.865023
      ESP Fit Center  711 is at   3.252207 -1.466874  1.865023
      ESP Fit Center  712 is at   3.826999 -0.489523  0.905023
      ESP Fit Center  713 is at   1.906999 -2.409523  0.905023
      ESP Fit Center  714 is at   2.866999 -2.152292  0.905023
      ESP Fit Center  715 is at   3.569768 -1.449523  0.905023
      ESP Fit Center  716 is at   3.776069 -0.598592 -0.862284
      ESP Fit Center  717 is at   0.896069 -2.261361 -0.862284
      ESP Fit Center  718 is at   1.856069 -2.518592 -0.862284
      ESP Fit Center  719 is at   2.816069 -2.261361 -0.862284
      ESP Fit Center  720 is at   3.518838 -1.558592 -0.862284
      ESP Fit Center  721 is at   3.518838 -0.598592 -1.822284
      ESP Fit Center  722 is at   0.510861 -1.575943 -1.822284
      ESP Fit Center  723 is at   1.342245 -2.179979 -1.822284
      ESP Fit Center  724 is at   2.369893 -2.179979 -1.822284
      ESP Fit Center  725 is at   3.201277 -1.575943 -1.822284
      ESP Fit Center  726 is at   2.336069 -1.429976 -2.525053
      ESP Fit Center  727 is at  -0.812786 -1.867102  1.802098
      ESP Fit Center  728 is at  -1.677994 -2.013069  1.099329
      ESP Fit Center  729 is at  -0.846610 -2.617105  1.099329
      ESP Fit Center  730 is at   0.181038 -2.617105  1.099329
      ESP Fit Center  731 is at  -1.995555 -1.995718  0.139329
      ESP Fit Center  732 is at  -1.292786 -2.698487  0.139329
      ESP Fit Center  733 is at  -0.332786 -2.955718  0.139329
      ESP Fit Center  734 is at   0.627214 -2.698487  0.139329
      ESP Fit Center  735 is at  -1.677994 -2.013069 -0.820671
      ESP Fit Center  736 is at  -0.846610 -2.617105 -0.820671
      ESP Fit Center  737 is at   0.181038 -2.617105 -0.820671
      ESP Fit Center  738 is at  -0.812786 -1.867102 -1.523440
      ESP Fit Center  739 is at   0.147214 -1.867102 -1.523440
      ESP Fit Center  740 is at  -0.893112  1.910040 -1.932165
      ESP Fit Center  741 is at  -1.724496  1.306004 -1.932165
      ESP Fit Center  742 is at  -2.042057  0.328653 -1.932165
      ESP Fit Center  743 is at  -1.724496 -0.648698 -1.932165
      ESP Fit Center  744 is at  -0.893112 -1.252734 -1.932165
      ESP Fit Center  745 is at  -0.859288  1.160037 -2.634934
      ESP Fit Center  746 is at  -1.339288  0.328653 -2.634934
      ESP Fit Center  747 is at  -0.859288 -0.502731 -2.634934
      ESP Fit Center  748 is at  -1.845236  2.797547  3.195177
      ESP Fit Center  749 is at  -2.569930  2.072853  3.195177
      ESP Fit Center  750 is at  -2.835186  1.082904  3.195177
      ESP Fit Center  751 is at  -1.125688  3.655596  2.286792
      ESP Fit Center  752 is at  -2.148718  3.323193  2.286792
      ESP Fit Center  753 is at  -2.948103  2.603424  2.286792
      ESP Fit Center  754 is at  -3.385621  1.620743  2.286792
      ESP Fit Center  755 is at  -3.385621  0.545065  2.286792
      ESP Fit Center  756 is at  -2.948103 -0.437616  2.286792
      ESP Fit Center  757 is at  -2.148718 -1.157385  2.286792
      ESP Fit Center  758 is at   1.213938  2.969252  1.215278
      ESP Fit Center  759 is at   0.392780  3.589361  1.215278
      ESP Fit Center  760 is at  -0.596936  3.870960  1.215278
      ESP Fit Center  761 is at  -1.621543  3.776016  1.215278
      ESP Fit Center  762 is at  -2.542664  3.317352  1.215278
      ESP Fit Center  763 is at  -3.235895  2.556914  1.215278
      ESP Fit Center  764 is at  -3.607612  1.597403  1.215278
      ESP Fit Center  765 is at  -3.607612  0.568405  1.215278
      ESP Fit Center  766 is at  -3.235895 -0.391106  1.215278
      ESP Fit Center  767 is at  -2.542664 -1.151544  1.215278
      ESP Fit Center  768 is at  -1.125688  3.655596  0.143764
      ESP Fit Center  769 is at  -2.148718  3.323193  0.143764
      ESP Fit Center  770 is at  -2.948103  2.603424  0.143764
      ESP Fit Center  771 is at  -3.385621  1.620743  0.143764
      ESP Fit Center  772 is at  -3.385621  0.545065  0.143764
      ESP Fit Center  773 is at  -2.948103 -0.437616  0.143764
      ESP Fit Center  774 is at  -1.845236  2.797547 -0.764621
      ESP Fit Center  775 is at  -2.569930  2.072853 -0.764621
      ESP Fit Center  776 is at  -2.835186  1.082904 -0.764621
      ESP Fit Center  777 is at  -2.569930  0.092955 -0.764621
      ESP Fit Center  778 is at  -1.391044  2.010862 -1.371585
      ESP Fit Center  779 is at  -1.539732 -1.247251  3.345848
      ESP Fit Center  780 is at  -1.394375  2.214537  4.516956
      ESP Fit Center  781 is at  -2.225759  1.610501  4.516956
      ESP Fit Center  782 is at  -2.543320  0.633150  4.516956
      ESP Fit Center  783 is at  -2.225759 -0.344201  4.516956
      ESP Fit Center  784 is at  -1.394375 -0.948237  4.516956
      ESP Fit Center  785 is at  -1.840551  2.295919  3.556956
      ESP Fit Center  786 is at  -2.543320  1.593150  3.556956
      ESP Fit Center  787 is at  -2.800551  0.633150  3.556956
      ESP Fit Center  788 is at  -2.543320 -0.326850  3.556956
      ESP Fit Center  789 is at  -1.840551 -1.029619  3.556956
      ESP Fit Center  790 is at  -0.251319 -1.296920  4.408860
      ESP Fit Center  791 is at  -1.116527 -1.442887  3.706091
      ESP Fit Center  792 is at  -0.285143 -2.046923  3.706091
      ESP Fit Center  793 is at   0.742505 -2.046923  3.706091
      ESP Fit Center  794 is at  -1.434088 -1.425536  2.746091
      ESP Fit Center  795 is at  -0.731319 -2.128305  2.746091
      ESP Fit Center  796 is at   0.228681 -2.385536  2.746091
      ESP Fit Center  797 is at   1.188681 -2.128305  2.746091
      ESP Fit Center  798 is at   1.891450 -1.425536  2.746091
      ESP Fit Center  799 is at  -0.285143 -2.046923  1.786091
      ESP Fit Center  800 is at   0.742505 -2.046923  1.786091
      ESP Fit Center  801 is at   2.553087  3.307583  2.677426
      ESP Fit Center  802 is at  -0.898779  2.515806  4.281634
      ESP Fit Center  803 is at   2.426759  3.475806  3.321634
      ESP Fit Center  804 is at   1.723990  4.178575  3.321634
      ESP Fit Center  805 is at   0.763990  4.435806  3.321634
      ESP Fit Center  806 is at  -0.196010  4.178575  3.321634
      ESP Fit Center  807 is at  -0.898779  3.475806  3.321634
      ESP Fit Center  808 is at   2.109198  3.493157  2.361634
      ESP Fit Center  809 is at   1.277814  4.097193  2.361634
      ESP Fit Center  810 is at   0.250166  4.097193  2.361634
      ESP Fit Center  811 is at   1.243990  3.347190  1.658865
      ESP Fit Center  812 is at   3.782519  1.475957  2.434265
      ESP Fit Center  813 is at   3.525288  2.435957  2.434265
      ESP Fit Center  814 is at   2.822519  3.138726  2.434265
      ESP Fit Center  815 is at   3.525288  0.515957  2.434265
      ESP Fit Center  816 is at   2.376343  3.057344  1.474265
      ESP Fit Center  817 is at   3.015757  0.928251  7.336944
      ESP Fit Center  818 is at   3.924142  0.928251  6.729980
      ESP Fit Center  819 is at   3.658886  1.918200  6.729980
      ESP Fit Center  820 is at   1.944243 -1.051648  6.729980
      ESP Fit Center  821 is at   2.934192 -0.786392  6.729980
      ESP Fit Center  822 is at   3.658886 -0.061698  6.729980
      ESP Fit Center  823 is at   4.531106  0.928251  5.821595
      ESP Fit Center  824 is at   4.307460  1.980423  5.821595
      ESP Fit Center  825 is at   3.675192  2.850665  5.821595
      ESP Fit Center  826 is at   0.650812 -1.312038  5.821595
      ESP Fit Center  827 is at   1.673842 -1.644441  5.821595
      ESP Fit Center  828 is at   2.743628 -1.532002  5.821595
      ESP Fit Center  829 is at   3.675192 -0.994163  5.821595
      ESP Fit Center  830 is at   4.307460 -0.123921  5.821595
      ESP Fit Center  831 is at   4.744243  0.928251  4.750081
      ESP Fit Center  832 is at   4.555165  1.939728  4.750081
      ESP Fit Center  833 is at   4.013468  2.814599  4.750081
      ESP Fit Center  834 is at   3.192310  3.434708  4.750081
      ESP Fit Center  835 is at   0.256866 -1.306197  4.750081
      ESP Fit Center  836 is at   1.177987 -1.764861  4.750081
      ESP Fit Center  837 is at   2.202594 -1.859805  4.750081
      ESP Fit Center  838 is at   3.192310 -1.578206  4.750081
      ESP Fit Center  839 is at   4.013468 -0.958097  4.750081
      ESP Fit Center  840 is at   4.555165 -0.083226  4.750081
      ESP Fit Center  841 is at   4.531106  0.928251  3.678567
      ESP Fit Center  842 is at   4.307460  1.980423  3.678567
      ESP Fit Center  843 is at   3.675192  2.850665  3.678567
      ESP Fit Center  844 is at   2.743628  3.388504  3.678567
      ESP Fit Center  845 is at   1.673842 -1.644441  3.678567
      ESP Fit Center  846 is at   2.743628 -1.532002  3.678567
      ESP Fit Center  847 is at   3.675192 -0.994163  3.678567
      ESP Fit Center  848 is at   4.307460 -0.123921  3.678567
      ESP Fit Center  849 is at   3.924142  0.928251  2.770182
      ESP Fit Center  850 is at   2.934192 -0.786392  2.770182
      ESP Fit Center  851 is at   3.658886 -0.061698  2.770182
      ESP Fit Center  852 is at   0.241210 -0.818405  6.592318
      ESP Fit Center  853 is at   1.543644  0.067288  8.609039
      ESP Fit Center  854 is at   2.726413  0.898672  7.906270
      ESP Fit Center  855 is at   2.408852  1.876023  7.906270
      ESP Fit Center  856 is at  -0.281564 -0.078679  7.906270
      ESP Fit Center  857 is at   0.549820 -0.682715  7.906270
      ESP Fit Center  858 is at   1.577468 -0.682715  7.906270
      ESP Fit Center  859 is at   2.408852 -0.078679  7.906270
      ESP Fit Center  860 is at   0.103644 -0.764097  6.946270
      ESP Fit Center  861 is at   1.063644 -1.021328  6.946270
      ESP Fit Center  862 is at  -1.914934  1.140372  6.764352
      ESP Fit Center  863 is at  -1.597373  0.163021  6.764352
      ESP Fit Center  864 is at  -0.765989 -0.441015  6.764352
      ESP Fit Center  865 is at  -2.172165  1.140372  5.804352
      ESP Fit Center  866 is at  -1.914934  0.180372  5.804352
      ESP Fit Center  867 is at  -1.212165 -0.522397  5.804352
      ESP Fit Center  868 is at  -0.252165 -0.779628  5.804352
      ESP Fit Center  869 is at  -1.597373  2.117723  4.844352
      ESP Fit Center  870 is at   1.319391  5.247825  5.800031
      ESP Fit Center  871 is at   2.377255  3.981118  4.837705
      ESP Fit Center  872 is at   3.157821  2.311903  7.548271
      ESP Fit Center  873 is at   3.732613  3.289254  6.588271
      ESP Fit Center  874 is at   3.475382  4.249254  6.588271
      ESP Fit Center  875 is at   2.772613  4.952023  6.588271
      ESP Fit Center  876 is at   1.812613  5.209254  6.588271
      ESP Fit Center  877 is at   3.475382  3.289254  5.628271
      ESP Fit Center  878 is at   3.157821  4.266605  5.628271
      ESP Fit Center  879 is at   2.326437  4.870641  5.628271
      ESP Fit Center  880 is at   1.457235  5.193240  5.445858
      ESP Fit Center  881 is at   0.497235  5.450471  5.445858
      ESP Fit Center  882 is at   1.842443  4.507822  4.485858
      ESP Fit Center  883 is at   1.011059  5.111858  4.485858
      ESP Fit Center  884 is at  -0.016589  5.111858  4.485858
      ESP Fit Center  885 is at  -0.847973  4.507822  4.485858
      ESP Fit Center  886 is at  -1.165534  3.530471  4.485858
      ESP Fit Center  887 is at  -0.847973  2.553120  4.485858
      ESP Fit Center  888 is at   0.017235  4.361855  3.783089
      ESP Fit Center  889 is at  -0.380551  5.484499  9.620924
      ESP Fit Center  890 is at  -1.370500  5.219243  9.620924
      ESP Fit Center  891 is at  -2.095194  4.494549  9.620924
      ESP Fit Center  892 is at  -2.360450  3.504600  9.620924
      ESP Fit Center  893 is at  -0.650952  6.077292  8.712539
      ESP Fit Center  894 is at  -1.673982  5.744889  8.712539
      ESP Fit Center  895 is at  -2.473367  5.025120  8.712539
      ESP Fit Center  896 is at  -2.910885  4.042439  8.712539
      ESP Fit Center  897 is at  -2.910885  2.966761  8.712539
      ESP Fit Center  898 is at  -2.473367  1.984080  8.712539
      ESP Fit Center  899 is at  -1.673982  1.264311  8.712539
      ESP Fit Center  900 is at   1.688674  5.390948  7.641025
      ESP Fit Center  901 is at   0.867516  6.011057  7.641025
      ESP Fit Center  902 is at  -0.122200  6.292656  7.641025
      ESP Fit Center  903 is at  -1.146807  6.197712  7.641025
      ESP Fit Center  904 is at  -2.067928  5.739048  7.641025
      ESP Fit Center  905 is at  -2.761159  4.978610  7.641025
      ESP Fit Center  906 is at  -3.132876  4.019099  7.641025
      ESP Fit Center  907 is at  -3.132876  2.990101  7.641025
      ESP Fit Center  908 is at  -2.761159  2.030590  7.641025
      ESP Fit Center  909 is at  -2.067928  1.270152  7.641025
      ESP Fit Center  910 is at  -1.146807  0.811488  7.641025
      ESP Fit Center  911 is at   1.350398  5.427014  6.569511
      ESP Fit Center  912 is at   0.418834  5.964853  6.569511
      ESP Fit Center  913 is at  -0.650952  6.077292  6.569511
      ESP Fit Center  914 is at  -1.673982  5.744889  6.569511
      ESP Fit Center  915 is at  -2.473367  5.025120  6.569511
      ESP Fit Center  916 is at  -2.910885  4.042439  6.569511
      ESP Fit Center  917 is at  -2.910885  2.966761  6.569511
      ESP Fit Center  918 is at  -2.473367  1.984080  6.569511
      ESP Fit Center  919 is at  -0.380551  5.484499  5.661126
      ESP Fit Center  920 is at  -1.370500  5.219243  5.661126
      ESP Fit Center  921 is at  -2.095194  4.494549  5.661126
      ESP Fit Center  922 is at  -2.360450  3.504600  5.661126
      ESP Fit Center  923 is at  -2.095194  2.514651  5.661126
      ESP Fit Center  924 is at  -1.452065  3.504600  5.054162
      ESP Fit Center  925 is at   0.980928  2.030239 11.338189
      ESP Fit Center  926 is at  -0.998590  1.102699  9.709914
      ESP Fit Center  927 is at  -0.310816  3.023965 11.868202
      ESP Fit Center  928 is at   0.169184  3.855349 11.610971
      ESP Fit Center  929 is at  -0.790816  3.855349 11.610971
      ESP Fit Center  930 is at  -1.270816  3.023965 11.610971
      ESP Fit Center  931 is at  -0.790816  2.192581 11.610971
      ESP Fit Center  932 is at   0.169184  2.192581 11.610971
      ESP Fit Center  933 is at  -0.824640  4.605352 10.908202
      ESP Fit Center  934 is at  -1.656024  4.001316 10.908202
      ESP Fit Center  935 is at  -1.973585  3.023965 10.908202
      ESP Fit Center  936 is at  -1.656024  2.046614 10.908202
      ESP Fit Center  937 is at  -0.824640  1.442578 10.908202
      ESP Fit Center  938 is at  -1.973585  3.983965  9.948202
      ESP Fit Center  939 is at  -2.230816  3.023965  9.948202
      ESP Fit Center  940 is at  -1.973585  2.063965  9.948202
      ESP Fit Center  941 is at  -1.270816  1.361196  9.948202
      ESP Fit Center  942 is at   0.209071  1.033125 10.749174
      ESP Fit Center  943 is at   1.169071  1.033125 10.749174
      ESP Fit Center  944 is at  -0.656137  0.887158 10.046405
      ESP Fit Center  945 is at   0.175247  0.283122 10.046405
      ESP Fit Center  946 is at   1.202895  0.283122 10.046405
      ESP Fit Center  947 is at   2.034279  0.887158 10.046405
      ESP Fit Center  948 is at  -0.973698  0.904509  9.086405
      ESP Fit Center  949 is at  -0.270929  0.201740  9.086405
      ESP Fit Center  950 is at   0.689071 -0.055491  9.086405
      ESP Fit Center  951 is at   1.649071  0.201740  9.086405
      ESP Fit Center  952 is at   2.351840  0.904509  9.086405
      ESP Fit Center  953 is at   2.351840  1.864509  8.126405
      ESP Fit Center  954 is at   1.182073  4.635185 11.724444
      ESP Fit Center  955 is at   0.661412  3.733375 11.724444
      ESP Fit Center  956 is at   4.042560  3.733375 10.096169
      ESP Fit Center  957 is at   3.810844  4.748588 10.096169
      ESP Fit Center  958 is at   3.161591  5.562725  9.028069
      ESP Fit Center  959 is at   2.482216  5.440204  8.065743
      ESP Fit Center  960 is at   1.940280  5.623897 11.355558
      ESP Fit Center  961 is at   0.980280  5.623897 11.355558
      ESP Fit Center  962 is at   0.500280  4.792513 11.355558
      ESP Fit Center  963 is at   2.805488  5.769864 10.652789
      ESP Fit Center  964 is at   1.974104  6.373900 10.652789
      ESP Fit Center  965 is at   0.946456  6.373900 10.652789
      ESP Fit Center  966 is at   0.115072  5.769864 10.652789
      ESP Fit Center  967 is at   3.123049  5.752513  9.692789
      ESP Fit Center  968 is at   2.420280  6.455282  9.692789
      ESP Fit Center  969 is at   1.460280  6.712513  9.692789
      ESP Fit Center  970 is at   0.500280  6.455282  9.692789
      ESP Fit Center  971 is at  -0.202489  5.752513  9.692789
      ESP Fit Center  972 is at   2.805488  5.769864  8.732789
      ESP Fit Center  973 is at   1.974104  6.373900  8.732789
      ESP Fit Center  974 is at   0.946456  6.373900  8.732789
      ESP Fit Center  975 is at   1.940280  5.623897  8.030020
      ESP Fit Center  976 is at   2.119750  3.354874 12.423999
      ESP Fit Center  977 is at   3.079750  3.354874 12.166768
      ESP Fit Center  978 is at   2.599750  4.186258 12.166768
      ESP Fit Center  979 is at   1.639750  4.186258 12.166768
      ESP Fit Center  980 is at   1.159750  3.354874 12.166768
      ESP Fit Center  981 is at   1.639750  2.523490 12.166768
      ESP Fit Center  982 is at   2.599750  2.523490 12.166768
      ESP Fit Center  983 is at   3.782519  3.354874 11.463999
      ESP Fit Center  984 is at   3.464958  4.332225 11.463999
      ESP Fit Center  985 is at   2.633574  4.936261 11.463999
      ESP Fit Center  986 is at   1.605926  1.773487 11.463999
      ESP Fit Center  987 is at   2.633574  1.773487 11.463999
      ESP Fit Center  988 is at   3.464958  2.377523 11.463999
      ESP Fit Center  989 is at   4.039750  3.354874 10.503999
      ESP Fit Center  990 is at   2.119750  1.434874 10.503999
      ESP Fit Center  991 is at   3.079750  1.692105 10.503999
      ESP Fit Center  992 is at   3.782519  2.394874 10.503999
      ESP Fit Center  993 is at   4.149755  3.658189  9.761269
      ESP Fit Center  994 is at   4.406986  3.658189  8.801269
      ESP Fit Center  995 is at   4.149755  4.618189  8.801269
      ESP Fit Center  996 is at   3.446986  5.320958  8.801269
      ESP Fit Center  997 is at   3.446986  1.995420  8.801269
      ESP Fit Center  998 is at   4.149755  2.698189  8.801269
      ESP Fit Center  999 is at   4.149755  3.658189  7.841269
      ESP Fit Center 1000 is at   3.832194  4.635540  7.841269
      ESP Fit Center 1001 is at   3.000810  5.239576  7.841269
      ESP Fit Center 1002 is at   3.000810  2.076802  7.841269
      ESP Fit Center 1003 is at   3.832194  2.680838  7.841269
      ESP Fit Center 1004 is at   3.006881  3.530633 -6.200905
      ESP Fit Center 1005 is at   2.956050  4.448707 -7.076848
      ESP Fit Center 1006 is at   2.434015  4.992923 -8.110093
      ESP Fit Center 1007 is at  -1.093705  3.531693 -8.110093
      ESP Fit Center 1008 is at   2.956050  4.448707 -9.143338
      ESP Fit Center 1009 is at   1.955843  4.930381 -9.143338
      ESP Fit Center 1010 is at   2.434015  2.498448-10.604568
      ESP Fit Center 1011 is at   1.917393  1.603631-10.604568
      ESP Fit Center 1012 is at   0.153473  4.820777 -9.047415
      ESP Fit Center 1013 is at  -0.697363  4.233487 -9.047415
      ESP Fit Center 1014 is at  -1.177814  3.318064 -9.047415
      ESP Fit Center 1015 is at  -1.177814  2.284220 -9.047415
      ESP Fit Center 1016 is at   1.696502  4.502713-10.127415
      ESP Fit Center 1017 is at   0.653204  4.652717-10.127415
      ESP Fit Center 1018 is at  -0.305572  4.214858-10.127415
      ESP Fit Center 1019 is at  -0.875422  3.328155-10.127415
      ESP Fit Center 1020 is at  -0.875422  2.274129-10.127415
      ESP Fit Center 1021 is at  -0.305572  1.387426-10.127415
      ESP Fit Center 1022 is at   1.999420  2.801142-10.918030
      ESP Fit Center 1023 is at   1.459420  3.736449-10.918030
      ESP Fit Center 1024 is at   0.379420  3.736449-10.918030
      ESP Fit Center 1025 is at  -0.160580  2.801142-10.918030
      ESP Fit Center 1026 is at   0.379420  1.865835-10.918030
      ESP Fit Center 1027 is at   1.459420  1.865835-10.918030
      ESP Fit Center 1028 is at   0.919420  2.801142-11.207415
      ESP Fit Center 1029 is at   0.594184  4.173165 -5.476494
      ESP Fit Center 1030 is at   2.707845  4.249189 -6.267109
      ESP Fit Center 1031 is at   1.911266  4.939429 -6.267109
      ESP Fit Center 1032 is at   0.867968  5.089433 -6.267109
      ESP Fit Center 1033 is at  -0.090808  4.651574 -6.267109
      ESP Fit Center 1034 is at  -0.660658  3.764871 -6.267109
      ESP Fit Center 1035 is at   2.361204  5.015503 -7.347109
      ESP Fit Center 1036 is at   1.394543  5.382109 -7.347109
      ESP Fit Center 1037 is at   0.368237  5.257493 -7.347109
      ESP Fit Center 1038 is at  -0.482599  4.670203 -7.347109
      ESP Fit Center 1039 is at  -0.963050  3.754780 -7.347109
      ESP Fit Center 1040 is at   3.566016  2.528875 -6.383682
      ESP Fit Center 1041 is at   4.356631  2.528875 -7.174297
      ESP Fit Center 1042 is at   4.059677  3.540206 -7.174297
      ESP Fit Center 1043 is at   3.263098  4.230446 -7.174297
      ESP Fit Center 1044 is at   4.059677  1.517544 -7.174297
      ESP Fit Center 1045 is at   4.646016  2.528875 -8.254297
      ESP Fit Center 1046 is at   4.398601  3.532677 -8.254297
      ESP Fit Center 1047 is at   3.713036  4.306520 -8.254297
[...]
 1269 Fit      -0.014604
 1270 Fit      -0.006496
 1271 Fit      -0.010424
 1272 Fit      -0.012168
 1273 Fit      -0.012724
 1274 Fit      -0.013484
 1275 Fit      -0.014082
 1276 Fit      -0.012976
 1277 Fit      -0.008539
 1278 Fit      -0.005966
 1279 Fit      -0.007020
 1280 Fit      -0.006813
 1281 Fit      -0.004483
 1282 Fit      -0.003434
 1283 Fit       0.003579
 1284 Fit       0.002084
 1285 Fit       0.002272
 1286 Fit       0.002452
 1287 Fit       0.001208
 1288 Fit      -0.004015
 1289 Fit      -0.004293
 1290 Fit      -0.002626
 1291 Fit       0.001051
 1292 Fit       0.000220
 1293 Fit      -0.004931
 1294 Fit       0.000938
 1295 Fit       0.004801
 1296 Fit       0.005456
 1297 Fit       0.003671
 1298 Fit      -0.001244
 1299 Fit       0.002854
 1300 Fit       0.003598
 1301 Fit       0.001754
 1302 Fit      -0.003701
 1303 Fit      -0.003910
 1304 Fit      -0.012822
 1305 Fit      -0.012513
 1306 Fit      -0.009491
 1307 Fit      -0.004536
 1308 Fit      -0.001073
 1309 Fit      -0.001177
 1310 Fit      -0.003679
 1311 Fit      -0.004597
 1312 Fit      -0.012519
 1313 Fit      -0.011882
 1314 Fit      -0.007659
 1315 Fit      -0.010785
 1316 Fit      -0.011703
 1317 Fit      -0.011649
 1318 Fit      -0.011898
 1319 Fit      -0.016759
 1320 Fit      -0.017542
 1321 Fit      -0.015957
 1322 Fit      -0.002531
 1323 Fit      -0.009836
 1324 Fit      -0.014172
 1325 Fit      -0.015843
 1326 Fit      -0.015682
 1327 Fit      -0.015201
 1328 Fit      -0.015557
 1329 Fit      -0.016861
 1330 Fit      -0.018134
 1331 Fit      -0.017473
 1332 Fit      -0.013601
 1333 Fit      -0.005976
 1334 Fit      -0.011615
 1335 Fit      -0.014369
 1336 Fit      -0.014803
 1337 Fit      -0.014694
 1338 Fit      -0.015342
 1339 Fit      -0.014080
 1340 Fit      -0.015327
 1341 Fit      -0.014263
 1342 Fit      -0.010001
 1343 Fit      -0.004250
 1344 Fit      -0.008358
 1345 Fit      -0.010282
 1346 Fit      -0.012055
 1347 Fit      -0.011559
 1348 Fit      -0.006678
 1349 Fit      -0.001894
 1350 Fit       0.007813
 1351 Fit       0.000058
 1352 Fit       0.004730
 1353 Fit       0.005674
 1354 Fit       0.005811
 1355 Fit       0.006343
 1356 Fit       0.000189
 1357 Fit      -0.002261
 1358 Fit      -0.005450
 1359 Fit       0.000257
 1360 Fit      -0.004759
 1361 Fit       0.001037
 1362 Fit       0.003323
 1363 Fit       0.001644
 1364 Fit       0.006481
 1365 Fit      -0.004636
 1366 Fit      -0.001294
 1367 Fit       0.001810
 1368 Fit       0.000958
 1369 Fit      -0.003808
 1370 Fit      -0.003426
 1371 Fit      -0.001105
 1372 Fit      -0.003810
 1373 Fit      -0.000581
 1374 Fit       0.001723
 1375 Fit       0.001849
 1376 Fit       0.001788
 1377 Fit       0.002629
 1378 Fit       0.006814
 1379 Fit      -0.003858
 1380 Fit      -0.002489
 1381 Fit      -0.011325
 1382 Fit      -0.012307
 1383 Fit      -0.011110
 1384 Fit      -0.010117
 1385 Fit      -0.010059
 1386 Fit      -0.010025
 1387 Fit      -0.008288
 1388 Fit      -0.003303
 1389 Fit      -0.016474
 1390 Fit      -0.017929
 1391 Fit      -0.017007
 1392 Fit      -0.015600
 1393 Fit      -0.015126
 1394 Fit      -0.015750
 1395 Fit      -0.016311
 1396 Fit      -0.014990
 1397 Fit      -0.010360
 1398 Fit      -0.001842
 1399 Fit      -0.006099
 1400 Fit      -0.013312
 1401 Fit      -0.017346
 1402 Fit      -0.018477
 1403 Fit      -0.017697
 1404 Fit      -0.016636
 1405 Fit      -0.016507
 1406 Fit      -0.017283
 1407 Fit      -0.017582
 1408 Fit      -0.015313
 1409 Fit      -0.010358
 1410 Fit      -0.013341
 1411 Fit      -0.014027
 1412 Fit      -0.013762
 1413 Fit      -0.013853
 1414 Fit      -0.014272
 1415 Fit      -0.013155
 1416 Fit      -0.004037
 1417 Fit      -0.006564
 1418 Fit      -0.007517
 1419 Fit      -0.007285
 1420 Fit      -0.002869
 1421 Fit       0.007048
 1422 Fit       0.008565
 1423 Fit       0.003219
 1424 Fit       0.007533
 1425 Fit       0.006631
 1426 Fit       0.006376
 1427 Fit       0.006621
 1428 Fit       0.006941
 1429 Fit       0.007960
 1430 Fit       0.003896
 1431 Fit       0.003687
 1432 Fit       0.003980
 1433 Fit       0.004158
 1434 Fit       0.004670
 1435 Fit       0.006007
 1436 Fit      -0.001893
 1437 Fit      -0.000738
 1438 Fit       0.008345
 1439 Fit       0.004976
 1440 Fit       0.007485
 1441 Fit       0.008825
 1442 Fit       0.008947
 1443 Fit       0.001265
 1444 Fit       0.006795
 1445 Fit       0.010078
 1446 Fit       0.010886
 1447 Fit       0.009830
 1448 Fit       0.003494
 1449 Fit       0.001758
 1450 Fit       0.001241
 1451 Fit       0.000880
 1452 Fit       0.001361
 1453 Fit       0.000216
 1454 Fit       0.008551
 1455 Fit       0.004821
 1456 Fit      -0.000496
 1457 Fit       0.002060
 1458 Fit       0.002457
 1459 Fit       0.001149
 1460 Fit       0.001747
 1461 Fit       0.001622
 1462 Fit       0.000852
 1463 Fit       0.001891
 1464 Fit       0.000409
 1465 Fit      -0.000108
 1466 Fit      -0.002163
 1467 Fit      -0.005515
 1468 Fit      -0.002725
 1469 Fit      -0.006591
 1470 Fit       0.006056
 1471 Fit       0.005654
 1472 Fit       0.004234
 1473 Fit       0.004271
 1474 Fit       0.006398
 1475 Fit       0.007347
 1476 Fit       0.006934
 1477 Fit       0.004466
 1478 Fit       0.003094
 1479 Fit       0.008037
 1480 Fit       0.006993
 1481 Fit       0.005769
 1482 Fit       0.002925
 1483 Fit       0.008488
 1484 Fit       0.005896
 1485 Fit       0.004184
 1486 Fit       0.003055
 1487 Fit       0.002185
 1488 Fit       0.000559
 1489 Fit       0.005024
 1490 Fit       0.003548
 1491 Fit       0.003544
 1492 Fit       0.002895
 1493 Fit       0.000544
 1494 Fit       0.006516
 1495 Fit       0.003581
 1496 Fit       0.007012
 1497 Fit       0.005578
 1498 Fit       0.008095
 1499 Fit       0.009326
 1500 Fit       0.004512
 1501 Fit       0.005026
 1502 Fit       0.005851
 1503 Fit       0.006661
 1504 Fit       0.007553
 1505 Fit       0.008864
 1506 Fit       0.004479
 1507 Fit       0.004566
 1508 Fit       0.004776
 1509 Fit       0.005274
 1510 Fit       0.005716
 1511 Fit       0.007048
 1512 Fit       0.006233
 1513 Fit       0.007119
 1514 Fit       0.007971
 1515 Fit       0.008986
 1516 Fit       0.005751
 1517 Fit       0.006766
 1518 Fit       0.007720
 1519 Fit       0.008503
 1520 Fit       0.009181
 1521 Fit       0.009824
 1522 Fit       0.006330
 1523 Fit       0.006685
 1524 Fit       0.007740
 1525 Fit       0.008513
 1526 Fit       0.008606
 1527 Fit       0.007487
 1528 Fit       0.007655
 1529 Fit       0.010308
 1530 Fit       0.010394
 1531 Fit       0.010327
 1532 Fit       0.010162
 1533 Fit       0.010345
 1534 Fit       0.007190
 1535 Fit       0.007844
 1536 Fit       0.008240
 1537 Fit       0.008420
 1538 Fit       0.008720
 1539 Fit       0.009935
 1540 Fit       0.005973
 1541 Fit       0.006613
 1542 Fit       0.007075
 1543 Fit       0.002495
 1544 Fit       0.005305
 1545 Fit       0.003409
 1546 Fit       0.004971
 1547 Fit       0.005266
 1548 Fit      -0.000546
 1549 Fit       0.004324
 1550 Fit       0.005099
 1551 Fit       0.004962
 1552 Fit      -0.000354
 1553 Fit       0.002356
 1554 Fit       0.004741
 1555 Fit       0.004959
 1556 Fit       0.004577
 1557 Fit       0.003932
 1558 Fit       0.004868
 1559 Fit       0.001136
 1560 Fit      -0.004504
 1561 Fit       0.003008
 1562 Fit       0.006388
 1563 Fit       0.008528
 1564 Fit       0.009838
 1565 Fit       0.009481
 1566 Fit       0.008547
 1567 Fit       0.007674
 1568 Fit       0.006425
 1569 Fit       0.004341
 1570 Fit       0.009216
 1571 Fit       0.008553
 1572 Fit       0.007728
 1573 Fit       0.006583
 1574 Fit       0.004917
 1575 Fit       0.008707
 1576 Fit       0.007572
 1577 Fit       0.006403
 1578 Fit      -0.002989
 1579 Fit      -0.006562
 1580 Fit       0.003861
 1581 Fit       0.002122
 1582 Fit       0.000545
 1583 Fit      -0.000716
 1584 Fit      -0.001086
 1585 Fit       0.004518
 1586 Fit       0.007605
 1587 Fit       0.006000
 1588 Fit       0.004864
 1589 Fit       0.004005
 1590 Fit       0.003698
 1591 Fit       0.006597
 1592 Fit       0.008539
 1593 Fit       0.007048
 1594 Fit       0.006292
 1595 Fit       0.007896
 1596 Fit      -0.007460
 1597 Fit      -0.003743
 1598 Fit      -0.003700
 1599 Fit      -0.007253
 1600 Fit      -0.009722
 1601 Fit      -0.011104
 1602 Fit      -0.011120
 1603 Fit      -0.009833
 1604 Fit      -0.007763
 1605 Fit      -0.007706
 1606 Fit      -0.010091
 1607 Fit      -0.011054
 1608 Fit      -0.010444
 1609 Fit       0.008131
 1610 Fit       0.008931
 1611 Fit       0.002912
 1612 Fit       0.001349
 1613 Fit       0.003516
 1614 Fit       0.002434
 1615 Fit       0.001890
 1616 Fit       0.001270
 1617 Fit       0.006813
 1618 Fit       0.005683
 1619 Fit       0.005050
 1620 Fit       0.004485
 1621 Fit       0.004096
 1622 Fit       0.009154
 1623 Fit       0.008037
 1624 Fit       0.007246
 1625 Fit       0.006120
 1626 Fit       0.004311
 1627 Fit       0.013486
 1628 Fit       0.012315
 1629 Fit       0.010451
 1630 Fit       0.007579
 1631 Fit       0.010011
 1632 Fit       0.003559
 1633 Fit       0.003417
 1634 Fit       0.003085
 1635 Fit      -0.005079
 1636 Fit       0.003089
 1637 Fit       0.004139
 1638 Fit       0.003861
 1639 Fit       0.003198
 1640 Fit       0.004014
 1641 Fit       0.004164
 1642 Fit       0.003696
 1643 Fit       0.003095
 1644 Fit       0.003539
 1645 Fit       0.003191
 1646 Fit       0.002747
 1647 Fit       0.001863
 1648 Fit       0.000818
 1649 Fit      -0.000603
 1650 Fit      -0.001745
 1651 Fit      -0.003899
 1652 Fit       0.005202
 1653 Fit       0.006581
 1654 Fit       0.003470
 1655 Fit       0.004733
 1656 Fit       0.004075
 1657 Fit       0.005757
 1658 Fit       0.008067
 1659 Fit       0.001106
 1660 Fit       0.002533
 1661 Fit      -0.001173
 1662 Fit       0.000010
 1663 Fit      -0.006082
 1664 Fit      -0.003115
 1665 Fit      -0.000330
 1666 Fit       0.009426
 1667 Fit       0.010271
 1668 Fit       0.009630
 1669 Fit       0.011543
 1670 Fit       0.011885
 1671 Fit       0.011400
 1672 Fit       0.010364
 1673 Fit       0.010984
 1674 Fit       0.011541
 1675 Fit       0.011650
 1676 Fit       0.011112
 1677 Fit       0.009454
 1678 Fit       0.010830
 1679 Fit       0.012077
 1680 Fit       0.013383
 1681 Fit      -0.002094
 1682 Fit       0.000565
 1683 Fit      -0.003719
 1684 Fit       0.003590
 1685 Fit       0.005067
 1686 Fit       0.002383
 1687 Fit       0.002768
 1688 Fit       0.006273
 1689 Fit       0.007354
 1690 Fit       0.005743
 1691 Fit       0.005812
 1692 Fit       0.007943
 1693 Fit       0.008992
 1694 Fit      -0.006706
 1695 Fit      -0.004027
 1696 Fit       0.006772
 1697 Fit       0.008944
 1698 Fit      -0.005946
 1699 Fit       0.004531
 1700 Fit       0.001045
 1701 Fit      -0.001473
 1702 Fit       0.005086
 1703 Fit       0.002114
 1704 Fit      -0.004921
 1705 Fit      -0.006636
 1706 Fit      -0.007587
 1707 Fit      -0.001138
 1708 Fit       0.001028
 1709 Fit       0.000202
 1710 Fit      -0.004379
 1711 Fit      -0.000907
 1712 Fit       0.003021
 1713 Fit       0.004783
 1714 Fit       0.004979
 1715 Fit       0.003657
 1716 Fit       0.000568
 1717 Fit       0.007553
 1718 Fit       0.008277
 1719 Fit       0.008198
 1720 Fit       0.007217
 1721 Fit       0.012039
 1722 Fit       0.011550
 1723 Fit      -0.014805
 1724 Fit      -0.013388
 1725 Fit      -0.009147
 1726 Fit      -0.012088
 1727 Fit      -0.010744
 1728 Fit      -0.007907
 1729 Fit      -0.010091
 1730 Fit       0.007006
 1731 Fit      -0.003447
 1732 Fit      -0.001741
 1733 Fit       0.000570
 1734 Fit      -0.002915
 1735 Fit      -0.006699
 1736 Fit       0.007800
 1737 Fit       0.004453
 1738 Fit       0.001592
 1739 Fit      -0.001711
 1740 Fit       0.005521
 1741 Fit       0.003240
 1742 Fit       0.005957
 1743 Fit       0.004817
 1744 Fit       0.003516
 1745 Fit       0.002025
 1746 Fit       0.002724
 1747 Fit       0.004196
 1748 Fit       0.003809
 1749 Fit       0.003284
 1750 Fit       0.000672
 1751 Fit       0.002536
 1752 Fit       0.001820
 1753 Fit       0.006151
 1754 Fit       0.008857
 1755 Fit      -0.003082
 1756 Fit       0.002632
 1757 Fit       0.005644
 1758 Fit       0.007415
 1759 Fit      -0.000698
 1760 Fit       0.003204
 1761 Fit       0.005554
 1762 Fit       0.007021
 1763 Fit       0.003202
 1764 Fit       0.005151
 1765 Fit       0.006456
 1766 Fit       0.000283
 1767 Fit       0.000334
 1768 Fit       0.000658
 1769 Fit       0.001338
 1770 Fit      -0.000528
 1771 Fit       0.001530
 1772 Fit      -0.004180
 1773 Fit      -0.006754
 1774 Fit      -0.008128
 1775 Fit      -0.008718
 1776 Fit      -0.008048
 1777 Fit      -0.005662
 1778 Fit      -0.007749
 1779 Fit      -0.009455
 1780 Fit      -0.010647
 1781 Fit      -0.011860
 1782 Fit      -0.013041
 1783 Fit      -0.013536
 1784 Fit      -0.012474
 1785 Fit      -0.009238
 1786 Fit      -0.003796
 1787 Fit      -0.009821
 1788 Fit      -0.010806
 1789 Fit      -0.011583
 1790 Fit      -0.012092
 1791 Fit      -0.012727
 1792 Fit      -0.013688
 1793 Fit      -0.014717
 1794 Fit      -0.015151
 1795 Fit      -0.014176
 1796 Fit      -0.011116
 1797 Fit      -0.005602
 1798 Fit      -0.008432
 1799 Fit      -0.010435
 1800 Fit      -0.011342
 1801 Fit      -0.011904
 1802 Fit      -0.012645
 1803 Fit      -0.013434
 1804 Fit      -0.013547
 1805 Fit      -0.012009
 1806 Fit      -0.007951
 1807 Fit      -0.007754
 1808 Fit      -0.008891
 1809 Fit      -0.009546
 1810 Fit      -0.009695
 1811 Fit      -0.008503
 1812 Fit      -0.005082
 1813 Fit      -0.003195
 1814 Fit      -0.004475
 1815 Fit      -0.004260
 1816 Fit       0.000299
 1817 Fit      -0.001078
 1818 Fit       0.000808
 1819 Fit       0.001663
 1820 Fit       0.002075
 1821 Fit       0.000754
 1822 Fit      -0.000177
 1823 Fit      -0.002172
 1824 Fit      -0.002436
 1825 Fit      -0.001712
 1826 Fit      -0.000497
 1827 Fit      -0.002221
 1828 Fit       0.001165
 1829 Fit       0.002277
 1830 Fit       0.001089
 1831 Fit      -0.002800
 1832 Fit       0.002713
 1833 Fit       0.006073
 1834 Fit       0.006682
 1835 Fit      -0.009248
 1836 Fit      -0.006780
 1837 Fit      -0.002277
 1838 Fit       0.002841
 1839 Fit      -0.003382
 1840 Fit      -0.000728
 1841 Fit      -0.000665
 1842 Fit      -0.002905
 1843 Fit      -0.005456
 1844 Fit      -0.007016
 1845 Fit      -0.013667
 1846 Fit      -0.009954
 1847 Fit      -0.001494
 1848 Fit       0.002257
 1849 Fit      -0.001027
 1850 Fit      -0.001950
 1851 Fit      -0.008072
 1852 Fit      -0.006595
 1853 Fit      -0.003601
 1854 Fit      -0.006197
 1855 Fit      -0.007407
 1856 Fit      -0.007805
 1857 Fit      -0.008056
 1858 Fit      -0.012345
 1859 Fit      -0.012253
 1860 Fit      -0.010269
 1861 Fit      -0.003381
 1862 Fit      -0.007569
 1863 Fit      -0.010182
 1864 Fit      -0.011320
 1865 Fit      -0.011497
 1866 Fit      -0.011489
 1867 Fit      -0.011814
 1868 Fit      -0.013969
 1869 Fit      -0.014498
 1870 Fit      -0.013884
 1871 Fit      -0.011471
 1872 Fit      -0.007231
 1873 Fit      -0.006027
 1874 Fit      -0.009411
 1875 Fit      -0.011495
 1876 Fit      -0.012294
 1877 Fit      -0.012420
 1878 Fit      -0.012568
 1879 Fit      -0.013125
 1880 Fit      -0.013334
 1881 Fit      -0.014090
 1882 Fit      -0.013503
 1883 Fit      -0.010944
 1884 Fit      -0.006100
 1885 Fit      -0.006037
 1886 Fit      -0.008909
 1887 Fit      -0.010216
 1888 Fit      -0.011070
 1889 Fit      -0.012115
 1890 Fit      -0.012019
 1891 Fit      -0.012925
 1892 Fit      -0.011707
 1893 Fit      -0.003209
 1894 Fit      -0.006866
 1895 Fit      -0.009765
 1896 Fit       0.001826
 1897 Fit      -0.001831
 1898 Fit       0.008012
 1899 Fit       0.004869
 1900 Fit       0.005769
 1901 Fit       0.005986
 1902 Fit       0.006522
 1903 Fit       0.001800
 1904 Fit       0.001325
 1905 Fit       0.000303
 1906 Fit      -0.001031
 1907 Fit      -0.001090
 1908 Fit       0.000892
 1909 Fit      -0.000071
 1910 Fit       0.000638
 1911 Fit      -0.002753
 1912 Fit      -0.002197
 1913 Fit      -0.001914
 1914 Fit      -0.000775
 1915 Fit      -0.002468
 1916 Fit      -0.005620
 1917 Fit      -0.001060
 1918 Fit      -0.001700
 1919 Fit      -0.002868
 1920 Fit      -0.000978
 1921 Fit       0.001185
 1922 Fit       0.001295
 1923 Fit       0.001003
 1924 Fit       0.001543
 1925 Fit      -0.001638
 1926 Fit      -0.000763
 1927 Fit      -0.006368
 1928 Fit      -0.007998
 1929 Fit      -0.007558
 1930 Fit      -0.006838
 1931 Fit      -0.006403
 1932 Fit      -0.005790
 1933 Fit      -0.004053
 1934 Fit      -0.012366
 1935 Fit      -0.012675
 1936 Fit      -0.011977
 1937 Fit      -0.011356
 1938 Fit      -0.011273
 1939 Fit      -0.011427
 1940 Fit      -0.010949
 1941 Fit      -0.008864
 1942 Fit      -0.004499
 1943 Fit      -0.007969
 1944 Fit      -0.011773
 1945 Fit      -0.014138
 1946 Fit      -0.014875
 1947 Fit      -0.014502
 1948 Fit      -0.013832
 1949 Fit      -0.013508
 1950 Fit      -0.013696
 1951 Fit      -0.013988
 1952 Fit      -0.013554
 1953 Fit      -0.011501
 1954 Fit      -0.007403
 1955 Fit      -0.008559
 1956 Fit      -0.011923
 1957 Fit      -0.013535
 1958 Fit      -0.013765
 1959 Fit      -0.013413
 1960 Fit      -0.013242
 1961 Fit      -0.013469
 1962 Fit      -0.013515
 1963 Fit      -0.012125
 1964 Fit      -0.007826
 1965 Fit      -0.006337
 1966 Fit      -0.008916
 1967 Fit      -0.010053
 1968 Fit      -0.010396
 1969 Fit      -0.010624
 1970 Fit      -0.010532
 1971 Fit      -0.008566
 1972 Fit      -0.004520
 1973 Fit      -0.005607
 1974 Fit      -0.005047
 1975 Fit      -0.000119
 1976 Fit       0.006238
 1977 Fit       0.007417
 1978 Fit       0.004145
 1979 Fit       0.000610
 1980 Fit       0.006342
 1981 Fit       0.005297
 1982 Fit       0.005431
 1983 Fit       0.005917
 1984 Fit       0.006962
 1985 Fit       0.003598
 1986 Fit       0.003297
 1987 Fit       0.003475
 1988 Fit       0.003754
 1989 Fit       0.004343
 1990 Fit       0.005513
 1991 Fit      -0.000284
 1992 Fit      -0.000137
 1993 Fit       0.000333
 1994 Fit       0.001674
 1995 Fit       0.004692
 1996 Fit       0.006250
 1997 Fit       0.007313
 1998 Fit       0.007840
 1999 Fit       0.003195
 2000 Fit       0.006097
 2001 Fit       0.007745
 2002 Fit       0.008120
 2003 Fit       0.007679
 2004 Fit       0.001808
 2005 Fit       0.003427
 2006 Fit       0.001850
 2007 Fit       0.002843
 2008 Fit       0.001628
 2009 Fit       0.001052
 2010 Fit       0.001993
 2011 Fit       0.001122
 2012 Fit       0.000458
 2013 Fit       0.006524
 2014 Fit       0.004200
 2015 Fit       0.002891
 2016 Fit       0.000160
 2017 Fit       0.007507
 2018 Fit       0.001919
 2019 Fit       0.002153
 2020 Fit       0.001403
 2021 Fit       0.001266
 2022 Fit       0.000948
 2023 Fit       0.002225
 2024 Fit       0.000580
 2025 Fit       0.000360
 2026 Fit      -0.000626
 2027 Fit      -0.002254
 2028 Fit      -0.000748
 2029 Fit      -0.001793
 2030 Fit      -0.004234
 2031 Fit      -0.004071
 2032 Fit      -0.008995
 2033 Fit       0.005156
 2034 Fit       0.004819
 2035 Fit       0.003842
 2036 Fit       0.003991
 2037 Fit       0.005538
 2038 Fit       0.006218
 2039 Fit       0.005819
 2040 Fit       0.004076
 2041 Fit       0.003049
 2042 Fit       0.002310
 2043 Fit       0.007402
 2044 Fit       0.006849
 2045 Fit       0.006056
 2046 Fit       0.005095
 2047 Fit       0.003019
 2048 Fit       0.006728
 2049 Fit       0.005189
 2050 Fit       0.004004
 2051 Fit       0.002142
 2052 Fit       0.001452
 2053 Fit       0.002714
 2054 Fit       0.002169
 2055 Fit       0.001753
 2056 Fit       0.000575
 2057 Fit       0.003382
 2058 Fit       0.002269
 2059 Fit       0.001906
 2060 Fit       0.001972
 2061 Fit       0.000320
 2062 Fit       0.001107
 Job cpu time:       0 days  0 hours 12 minutes 36.1 seconds.
 Normal termination of Gaussian 16 at Sun Jul  9 07:15:43 2023.
