 Copyright (c) 1988-2019, Gaussian, Inc.  All Rights Reserved.
  
 This is part of the Gaussian(R) 16 program.  It is based on
 the Gaussian(R) 09 system (copyright 2009, Gaussian, Inc.),
 the Gaussian(R) 03 system (copyright 2003, Gaussian, Inc.),
 the Gaussian(R) 98 system (copyright 1998, Gaussian, Inc.),
 the Gaussian(R) 94 system (copyright 1995, Gaussian, Inc.),
 the Gaussian 92(TM) system (copyright 1992, Gaussian, Inc.),
 the Gaussian 90(TM) system (copyright 1990, Gaussian, Inc.),
 the Gaussian 88(TM) system (copyright 1988, Gaussian, Inc.),
 the Gaussian 86(TM) system (copyright 1986, Carnegie Mellon
 University), and the Gaussian 82(TM) system (copyright 1983,
 Carnegie Mellon University). Gaussian is a federally registered
 trademark of Gaussian, Inc.
 Cite this work as:
 Gaussian 16, Revision C.01,
 M. J. Frisch, G. W. Trucks, H. B. Schlegel, G. E. Scuseria, 
 M. A. Robb, J. R. Cheeseman, G. Scalmani, V. Barone, 
 G. A. Petersson, H. Nakatsuji, X. Li, M. Caricato, A. V. Marenich, 
 J. Bloino, B. G. Janesko, R. Gomperts, B. Mennucci, H. P. Hratchian, 
 J. V. Ortiz, A. F. Izmaylov, J. L. Sonnenberg, D. Williams-Young, 
 F. Ding, F. Lipparini, F. Egidi, J. Goings, B. Peng, A. Petrone, 
 T. Henderson, D. Ranasinghe, V. G. Zakrzewski, J. Gao, N. Rega, 
 G. Zheng, W. Liang, M. Hada, M. Ehara, K. Toyota, R. Fukuda, 
 J. Hasegawa, M. Ishida, T. Nakajima, Y. Honda, O. Kitao, H. Nakai, 
 T. Vreven, K. Throssell, J. A. Montgomery, Jr., J. E. Peralta, 
 F. Ogliaro, M. J. Bearpark, J. J. Heyd, E. N. Brothers, K. N. Kudin, 
 V. N. Staroverov, T. A. Keith, R. Kobayashi, J. Normand, 
 K. Raghavachari, A. P. Rendell, J. C. Burant, S. S. Iyengar, 
 J. Tomasi, M. Cossi, J. M. Millam, M. Klene, C. Adamo, R. Cammi, 
 J. W. Ochterski, R. L. Martin, K. Morokuma, O. Farkas, 
 J. B. Foresman, and D. J. Fox, Gaussian, Inc., Wallingford CT, 2019.
 
 ******************************************
 Gaussian 16:  EM64L-G16RevC.01  3-Jul-2019
                 9-Jul-2023 
 ******************************************
 ----------------------------------------------------------------------
 #P B3LYP/6-31G(d) Integral=Ultrafine SCF(Conver=8,XQC,MaxConventionalC
 ycles=64,MaxCycle=128) NoSymm Test Pop=mk IOp(6/33=2) GFInput GFPrint
 ----------------------------------------------------------------------
 1/38=1,172=1/1;
 2/12=2,15=1,17=6,18=5,40=1/2;
 3/5=1,6=6,7=1,11=2,24=110,25=1,30=1,74=-5,75=-5/1,2,3;
 4//1;
 5/5=2,6=8,7=128,8=3,13=1,38=5,85=64/2,8;
 6/7=2,8=2,9=2,10=2,15=8,20=1,28=1,33=2/1,2;
 99/5=1,9=1/99;
 -------------------------------------------------
 MEP step - Input generated by PyRED DVE-DMDS-OPLS
 -------------------------------------------------
 Symbolic Z-matrix:
 Charge =  0 Multiplicity = 1
 C                    -0.75388   1.23743   8.11009 
 H                    -0.80874   1.80339   9.04742 
 H                    -1.29539   1.80714   7.34711 
 H                    -1.26748   0.28092   8.2543 
 C                     0.70561   1.00461   7.72274 
 H                     1.2192    1.96768   7.56582 
 H                     1.22708   0.47955   8.53013 
 O                     0.86987   0.17791   6.57734 
 C                     0.56272   0.79963   5.34454 
 H                     1.07866   1.7692    5.25015 
 H                    -0.51742   0.98917   5.24321 
 C                     1.04376  -0.14204   4.23999 
 H                     2.12816  -0.26577   4.32069 
 H                     0.58115  -1.13136   4.3683 
 O                     0.78169   0.38264   2.94533 
 C                    -0.50951   0.07955   2.42978 
 H                    -1.29853   0.48871   3.08158 
 H                    -0.65307  -1.01097   2.37089 
 C                    -0.66236   0.69632   1.0457 
 H                    -0.36014   1.75148   1.07969 
 H                    -1.72196   0.66403   0.77049 
 O                     0.        0.        0. 
 C                     1.42059   0.        0. 
 H                     1.69029  -0.55429  -0.90502 
 H                     1.81062  -0.55765   0.86228 
 C                     2.10739   1.36985   0. 
 H                     3.18241   1.20314  -0.13933 
 H                     1.98359   1.85621   0.97217 
 S                     1.52267   2.61977  -1.21528 
 C                     1.62327   1.70304  -2.8118 
 H                     1.93605   2.44078  -3.55696 
 H                     2.42105   0.95677  -2.74609 
 C                     0.29552   1.05421  -3.21148 
 H                    -0.484     1.81445  -3.32163 
 H                    -0.04679   0.36638  -2.43427 
 S                     0.4062    0.04785  -4.75008 
 C                     0.45831   1.34438  -6.05827 
 H                     0.82731   0.82179  -6.94627 
 H                     1.20098   2.10637  -5.80435 
 C                    -0.90261   1.98546  -6.33408 
 H                    -1.6454    1.2237   -6.58827 
 H                    -1.27149   2.50768  -5.44586 
 S                    -0.85495   3.28077  -7.64102 
 C                    -0.71997   2.27252  -9.17586 
 H                    -0.45655   3.00301  -9.9482 
 H                     0.1318    1.58952  -9.0864 
 C                    -1.99317   1.52098  -9.56212 
 H                    -2.83131   2.21241  -9.69279 
 H                    -1.84172   0.97855  -10.504 
 H                    -2.27745   0.78621  -8.80127 
 
 ITRead=  0  0  0  0  0  0  0  0  0  0  0  0  0  0  0  0  0  0  0  0
 ITRead=  0  0  0  0  0  0  0  0  0  0  0  0  0  0  0  0  0  0  0  0
 ITRead=  0  0  0  0  0  0  0  0  0  0
 MicOpt= -1 -1 -1 -1 -1 -1 -1 -1 -1 -1 -1 -1 -1 -1 -1 -1 -1 -1 -1 -1
 MicOpt= -1 -1 -1 -1 -1 -1 -1 -1 -1 -1 -1 -1 -1 -1 -1 -1 -1 -1 -1 -1
 MicOpt= -1 -1 -1 -1 -1 -1 -1 -1 -1 -1
 NAtoms=     50 NQM=       50 NQMF=       0 NMMI=      0 NMMIF=      0
                NMic=       0 NMicF=      0.
                          Input orientation:                          
 ---------------------------------------------------------------------
 Center     Atomic      Atomic             Coordinates (Angstroms)
 Number     Number       Type             X           Y           Z
 ---------------------------------------------------------------------
      1          6           0       -0.753883    1.237429    8.110093
      2          1           0       -0.808735    1.803391    9.047415
      3          1           0       -1.295388    1.807137    7.347109
      4          1           0       -1.267481    0.280924    8.254297
      5          6           0        0.705609    1.004612    7.722739
      6          1           0        1.219197    1.967680    7.565821
      7          1           0        1.227075    0.479547    8.530126
      8          8           0        0.869874    0.177906    6.577344
      9          6           0        0.562723    0.799629    5.344542
     10          1           0        1.078665    1.769195    5.250150
     11          1           0       -0.517421    0.989173    5.243210
     12          6           0        1.043763   -0.142038    4.239991
     13          1           0        2.128158   -0.265772    4.320688
     14          1           0        0.581151   -1.131365    4.368302
     15          8           0        0.781690    0.382641    2.945332
     16          6           0       -0.509511    0.079549    2.429779
     17          1           0       -1.298531    0.488712    3.081577
     18          1           0       -0.653070   -1.010972    2.370892
     19          6           0       -0.662361    0.696321    1.045700
     20          1           0       -0.360142    1.751481    1.079694
     21          1           0       -1.721959    0.664031    0.770493
     22          8           0        0.000000    0.000000    0.000000
     23          6           0        1.420590    0.000000    0.000000
     24          1           0        1.690290   -0.554291   -0.905023
     25          1           0        1.810617   -0.557646    0.862284
     26          6           0        2.107387    1.369847    0.000000
     27          1           0        3.182406    1.203138   -0.139329
     28          1           0        1.983585    1.856207    0.972165
     29         16           0        1.522670    2.619769   -1.215278
     30          6           0        1.623273    1.703035   -2.811798
     31          1           0        1.936045    2.440778   -3.556956
     32          1           0        2.421054    0.956771   -2.746091
     33          6           0        0.295515    1.054206   -3.211476
     34          1           0       -0.484000    1.814451   -3.321634
     35          1           0       -0.046792    0.366383   -2.434265
     36         16           0        0.406195    0.047849   -4.750081
     37          6           0        0.458308    1.344379   -6.058268
     38          1           0        0.827314    0.821793   -6.946270
     39          1           0        1.200983    2.106372   -5.804352
     40          6           0       -0.902609    1.985464   -6.334081
     41          1           0       -1.645399    1.223699   -6.588271
     42          1           0       -1.271491    2.507677   -5.445858
     43         16           0       -0.854947    3.280768   -7.641025
     44          6           0       -0.719970    2.272515   -9.175864
     45          1           0       -0.456545    3.003012   -9.948202
     46          1           0        0.131796    1.589517   -9.086405
     47          6           0       -1.993168    1.520977   -9.562119
     48          1           0       -2.831307    2.212411   -9.692789
     49          1           0       -1.841715    0.978549  -10.503999
     50          1           0       -2.277451    0.786205   -8.801269
 ---------------------------------------------------------------------
 Stoichiometry    C14H30O3S3
 Framework group  C1[X(C14H30O3S3)]
 Standard basis: 6-31G(d) (6D, 7F)
   372 basis functions,   752 primitive gaussians,   372 cartesian basis functions
    93 alpha electrons       93 beta electrons
 Requested convergence on RMS density matrix=1.00D-08 within  64 cycles.
 Requested convergence on MAX density matrix=1.00D-06.
 Requested convergence on             energy=1.00D-06.
 SCF Done:  E(RB3LYP) =  -1971.75408214     A.U. after   13 cycles
            NFock= 13  Conv=0.44D-08     -V/T= 2.0058
 Mulliken charges:
     1  C   -0.461882
     2  H    0.146893
     3  H    0.150525
     4  H    0.158760
     5  C   -0.014285
     6  H    0.122523
     7  H    0.147118
     8  O   -0.474420
     9  C   -0.029125
    10  H    0.128299
    11  H    0.125164
    12  C   -0.039191
    13  H    0.155630
    14  H    0.138407
    15  O   -0.482237
    16  C   -0.040139
    17  H    0.125575
    18  H    0.138619
    19  C   -0.042110
    20  H    0.151772
    21  H    0.149457
    22  O   -0.468729
    23  C   -0.017795
    24  H    0.146542
    25  H    0.154250
    26  C   -0.453089
    27  H    0.170066
    28  H    0.193581
    29  S    0.080901
    30  C   -0.415988
    31  H    0.179694
    32  H    0.180338
    33  C   -0.422583
    34  H    0.177429
    35  H    0.216587
    36  S    0.070893
    37  C   -0.412294
    38  H    0.178274
    39  H    0.184162
    40  C   -0.412356
    41  H    0.185833
    42  H    0.181396
    43  S    0.078491
    44  C   -0.410175
    45  H    0.177345
    46  H    0.169004
    47  C   -0.435788
    48  H    0.164680
    49  H    0.149128
    50  H    0.154853
 Sum of Mulliken charges =  -0.00000
 Dipole moment (field-independent basis, Debye):
    X=             -0.3287    Y=             -0.7002    Z=              2.1991  Tot=              2.3312
 Quadrupole moment (field-independent basis, Debye-Ang):
   XX=           -145.5528   YY=           -160.4858   ZZ=           -120.9371
   XY=             -0.8568   XZ=             -3.7911   YZ=             12.1440
 Traceless Quadrupole moment (field-independent basis, Debye-Ang):
   XX=             -3.2276   YY=            -18.1606   ZZ=             21.3881
   XY=             -0.8568   XZ=             -3.7911   YZ=             12.1440
 Octapole moment (field-independent basis, Debye-Ang**2):
  XXX=           -106.9282  YYY=           -598.4948  ZZZ=            454.0879  XYY=            -40.8862
  XXY=           -187.7112  XXZ=            188.5512  XZZ=            -48.7604  YZZ=           -151.2673
  YYZ=            253.7092  XYZ=             -6.8184
 Hexadecapole moment (field-independent basis, Debye-Ang**3):
 XXXX=          -1301.0303 YYYY=          -2766.8802 ZZZZ=         -23004.9940 XXXY=            -43.8778
 XXXZ=           -803.9302 YYYX=            -49.0742 YYYZ=           2178.2206 ZZZX=           -761.6617
 ZZZY=           2334.3674 XXYY=           -688.7399 XXZZ=          -4732.7785 YYZZ=          -5208.6220
 XXYZ=            661.1071 YYXZ=           -309.8782 ZZXY=            104.1964
 Merz-Kollman atomic radii used.
 Atom Element Radius
    1     6    1.50
    2     1    1.20
    3     1    1.20
    4     1    1.20
    5     6    1.50
    6     1    1.20
    7     1    1.20
    8     8    1.40
    9     6    1.50
   10     1    1.20
   11     1    1.20
   12     6    1.50
   13     1    1.20
   14     1    1.20
   15     8    1.40
   16     6    1.50
   17     1    1.20
   18     1    1.20
   19     6    1.50
   20     1    1.20
   21     1    1.20
   22     8    1.40
   23     6    1.50
   24     1    1.20
   25     1    1.20
   26     6    1.50
   27     1    1.20
   28     1    1.20
   29    16    1.75
   30     6    1.50
   31     1    1.20
   32     1    1.20
   33     6    1.50
   34     1    1.20
   35     1    1.20
   36    16    1.75
   37     6    1.50
   38     1    1.20
   39     1    1.20
   40     6    1.50
   41     1    1.20
   42     1    1.20
   43    16    1.75
   44     6    1.50
   45     1    1.20
   46     1    1.20
   47     6    1.50
   48     1    1.20
   49     1    1.20
   50     1    1.20
 Generate VDW surfaces: Layer= 4 Dens= 1 Start= 1.400 Inc= 0.200
            Electrostatic Properties Using The SCF Density.


       Atomic Center    1 is at  -0.753883  1.237429  8.110093
       Atomic Center    2 is at  -0.808735  1.803391  9.047415
       Atomic Center    3 is at  -1.295388  1.807137  7.347109
       Atomic Center    4 is at  -1.267481  0.280924  8.254297
       Atomic Center    5 is at   0.705609  1.004612  7.722739
       Atomic Center    6 is at   1.219197  1.967680  7.565821
       Atomic Center    7 is at   1.227075  0.479547  8.530126
       Atomic Center    8 is at   0.869874  0.177906  6.577344
       Atomic Center    9 is at   0.562723  0.799629  5.344542
       Atomic Center   10 is at   1.078665  1.769195  5.250150
       Atomic Center   11 is at  -0.517421  0.989173  5.243210
       Atomic Center   12 is at   1.043763 -0.142038  4.239991
       Atomic Center   13 is at   2.128158 -0.265772  4.320688
       Atomic Center   14 is at   0.581151 -1.131365  4.368302
       Atomic Center   15 is at   0.781690  0.382641  2.945332
       Atomic Center   16 is at  -0.509511  0.079549  2.429779
       Atomic Center   17 is at  -1.298531  0.488712  3.081577
       Atomic Center   18 is at  -0.653070 -1.010972  2.370892
       Atomic Center   19 is at  -0.662361  0.696321  1.045700
       Atomic Center   20 is at  -0.360142  1.751481  1.079694
       Atomic Center   21 is at  -1.721959  0.664031  0.770493
       Atomic Center   22 is at   0.000000  0.000000  0.000000
       Atomic Center   23 is at   1.420590  0.000000  0.000000
       Atomic Center   24 is at   1.690290 -0.554291 -0.905023
       Atomic Center   25 is at   1.810617 -0.557646  0.862284
       Atomic Center   26 is at   2.107387  1.369847  0.000000
       Atomic Center   27 is at   3.182406  1.203138 -0.139329
       Atomic Center   28 is at   1.983585  1.856207  0.972165
       Atomic Center   29 is at   1.522670  2.619769 -1.215278
       Atomic Center   30 is at   1.623273  1.703035 -2.811798
       Atomic Center   31 is at   1.936045  2.440778 -3.556956
       Atomic Center   32 is at   2.421054  0.956771 -2.746091
       Atomic Center   33 is at   0.295515  1.054206 -3.211476
       Atomic Center   34 is at  -0.484000  1.814451 -3.321634
       Atomic Center   35 is at  -0.046792  0.366383 -2.434265
       Atomic Center   36 is at   0.406195  0.047849 -4.750081
       Atomic Center   37 is at   0.458308  1.344379 -6.058268
       Atomic Center   38 is at   0.827314  0.821793 -6.946270
       Atomic Center   39 is at   1.200983  2.106372 -5.804352
       Atomic Center   40 is at  -0.902609  1.985464 -6.334081
       Atomic Center   41 is at  -1.645399  1.223699 -6.588271
       Atomic Center   42 is at  -1.271491  2.507677 -5.445858
       Atomic Center   43 is at  -0.854947  3.280768 -7.641025
       Atomic Center   44 is at  -0.719970  2.272515 -9.175864
       Atomic Center   45 is at  -0.456545  3.003012 -9.948202
       Atomic Center   46 is at   0.131796  1.589517 -9.086405
       Atomic Center   47 is at  -1.993168  1.520977 -9.562119
       Atomic Center   48 is at  -2.831307  2.212411 -9.692789
       Atomic Center   49 is at  -1.841715  0.978549-10.503999
       Atomic Center   50 is at  -2.277451  0.786205 -8.801269
      ESP Fit Center   51 is at  -0.228883  0.328102  9.928746
      ESP Fit Center   52 is at  -2.498868  1.749803  9.160093
      ESP Fit Center   53 is at  -0.500756  3.322118  8.110093
      ESP Fit Center   54 is at  -2.792861  1.739992  8.110093
      ESP Fit Center   55 is at  -0.808735  1.803391 10.727415
      ESP Fit Center   56 is at   0.178744  1.803391 10.406564
      ESP Fit Center   57 is at  -0.503587  2.742540 10.406564
      ESP Fit Center   58 is at  -1.607622  2.383817 10.406564
      ESP Fit Center   59 is at  -1.607622  1.222965 10.406564
      ESP Fit Center   60 is at  -0.503587  0.864242 10.406564
      ESP Fit Center   61 is at   0.415232  2.830421  9.566564
      ESP Fit Center   62 is at  -0.531284  3.376892  9.566564
      ESP Fit Center   63 is at  -1.607622  3.187105  9.566564
      ESP Fit Center   64 is at  -2.310152  2.349862  9.566564
      ESP Fit Center   65 is at  -2.310152  1.256920  9.566564
      ESP Fit Center   66 is at  -0.531284  3.376892  8.528266
      ESP Fit Center   67 is at  -1.607622  3.187105  8.528266
      ESP Fit Center   68 is at  -1.017937  3.380638  7.866258
      ESP Fit Center   69 is at  -2.094275  3.190851  7.866258
      ESP Fit Center   70 is at  -2.796805  2.353608  7.866258
      ESP Fit Center   71 is at  -0.071421  2.834167  6.827960
      ESP Fit Center   72 is at  -1.017937  3.380638  6.827960
      ESP Fit Center   73 is at  -2.094275  3.190851  6.827960
      ESP Fit Center   74 is at  -2.796805  2.353608  6.827960
      ESP Fit Center   75 is at  -2.796805  1.260666  6.827960
      ESP Fit Center   76 is at  -0.990240  2.746286  5.987960
      ESP Fit Center   77 is at  -2.094275  2.387563  5.987960
      ESP Fit Center   78 is at  -2.094275  1.226711  5.987960
      ESP Fit Center   79 is at  -1.267481  0.280924  9.934297
      ESP Fit Center   80 is at  -2.066368 -0.299502  9.613446
      ESP Fit Center   81 is at  -0.962333 -0.658225  9.613446
      ESP Fit Center   82 is at  -2.768898  0.827395  8.773446
      ESP Fit Center   83 is at  -2.768898 -0.265547  8.773446
      ESP Fit Center   84 is at  -2.066368 -1.102790  8.773446
      ESP Fit Center   85 is at  -0.990030 -1.292577  8.773446
      ESP Fit Center   86 is at  -0.043514 -0.746106  8.773446
      ESP Fit Center   87 is at  -2.768898 -0.265547  7.735148
      ESP Fit Center   88 is at  -2.066368 -1.102790  7.735148
      ESP Fit Center   89 is at  -0.990030 -1.292577  7.735148
      ESP Fit Center   90 is at  -2.066368 -0.299502  6.895148
      ESP Fit Center   91 is at  -0.962333 -0.658225  6.895148
      ESP Fit Center   92 is at   1.230609  1.913939  9.541392
      ESP Fit Center   93 is at   2.805609  1.004612  7.722739
      ESP Fit Center   94 is at   2.206676  1.967680  8.924970
      ESP Fit Center   95 is at   1.524345  2.906829  8.924970
      ESP Fit Center   96 is at   2.816972  1.967680  8.084970
      ESP Fit Center   97 is at   2.443164  2.994710  8.084970
      ESP Fit Center   98 is at   1.496648  3.541181  8.084970
      ESP Fit Center   99 is at   0.420310  3.351394  8.084970
      ESP Fit Center  100 is at   2.816972  1.967680  7.046672
      ESP Fit Center  101 is at   2.443164  2.994710  7.046672
      ESP Fit Center  102 is at   1.496648  3.541181  7.046672
      ESP Fit Center  103 is at   0.420310  3.351394  7.046672
      ESP Fit Center  104 is at   1.227075  0.479547 10.210126
      ESP Fit Center  105 is at   2.214554  0.479547  9.889275
      ESP Fit Center  106 is at   1.532223  1.418696  9.889275
      ESP Fit Center  107 is at   0.428188 -0.100879  9.889275
      ESP Fit Center  108 is at   1.532223 -0.459602  9.889275
      ESP Fit Center  109 is at   2.824850  0.479547  9.049275
      ESP Fit Center  110 is at   2.451042  1.506577  9.049275
      ESP Fit Center  111 is at   0.428188 -0.904167  9.049275
      ESP Fit Center  112 is at   1.504526 -1.093954  9.049275
      ESP Fit Center  113 is at   2.451042 -0.547483  9.049275
      ESP Fit Center  114 is at   2.824850  0.479547  8.010977
      ESP Fit Center  115 is at   1.504526 -1.093954  8.010977
      ESP Fit Center  116 is at   2.451042 -0.547483  8.010977
      ESP Fit Center  117 is at   0.345346 -1.436427  7.557344
      ESP Fit Center  118 is at   1.394402 -1.436427  7.557344
      ESP Fit Center  119 is at   2.243107 -0.819806  7.557344
      ESP Fit Center  120 is at   2.829874  0.177906  6.577344
      ESP Fit Center  121 is at   2.567284  1.157906  6.577344
      ESP Fit Center  122 is at  -0.827536 -0.802094  6.577344
      ESP Fit Center  123 is at  -0.110126 -1.519504  6.577344
      ESP Fit Center  124 is at   0.869874 -1.782094  6.577344
      ESP Fit Center  125 is at   1.849874 -1.519504  6.577344
      ESP Fit Center  126 is at   2.567284 -0.802094  6.577344
      ESP Fit Center  127 is at   2.676440  1.769195  5.769299
      ESP Fit Center  128 is at   2.302632  2.796225  5.769299
      ESP Fit Center  129 is at   1.356116  3.342696  5.769299
      ESP Fit Center  130 is at   0.279778  3.152909  5.769299
      ESP Fit Center  131 is at   2.676440  1.769195  4.731001
      ESP Fit Center  132 is at   2.302632  2.796225  4.731001
      ESP Fit Center  133 is at   1.356116  3.342696  4.731001
      ESP Fit Center  134 is at   0.279778  3.152909  4.731001
      ESP Fit Center  135 is at   2.066144  1.769195  3.891001
      ESP Fit Center  136 is at   1.383813  2.708344  3.891001
      ESP Fit Center  137 is at   0.279778  2.349621  3.891001
      ESP Fit Center  138 is at  -1.316308  2.372887  5.762359
      ESP Fit Center  139 is at  -2.018838  1.535644  5.762359
      ESP Fit Center  140 is at  -2.018838  0.442702  5.762359
      ESP Fit Center  141 is at  -1.316308 -0.394541  5.762359
      ESP Fit Center  142 is at  -1.316308  2.372887  4.724061
      ESP Fit Center  143 is at  -2.018838  1.535644  4.724061
      ESP Fit Center  144 is at  -2.018838  0.442702  4.724061
      ESP Fit Center  145 is at  -1.316308 -0.394541  4.724061
      ESP Fit Center  146 is at   1.799259 -1.796343  3.189991
      ESP Fit Center  147 is at   3.115637 -0.265772  5.679837
      ESP Fit Center  148 is at   2.433306 -1.204921  5.679837
      ESP Fit Center  149 is at   3.725933 -0.265772  4.839837
      ESP Fit Center  150 is at   3.352125  0.761258  4.839837
      ESP Fit Center  151 is at   2.405609 -1.839273  4.839837
      ESP Fit Center  152 is at   3.352125 -1.292802  4.839837
      ESP Fit Center  153 is at   3.725933 -0.265772  3.801539
      ESP Fit Center  154 is at   3.352125  0.761258  3.801539
      ESP Fit Center  155 is at   2.405609 -1.839273  3.801539
      ESP Fit Center  156 is at   3.352125 -1.292802  3.801539
      ESP Fit Center  157 is at   3.115637 -0.265772  2.961539
      ESP Fit Center  158 is at   2.433306 -1.204921  2.961539
      ESP Fit Center  159 is at  -0.217736 -1.711791  5.727451
      ESP Fit Center  160 is at   0.886299 -2.070514  5.727451
      ESP Fit Center  161 is at  -0.920266 -1.677836  4.887451
      ESP Fit Center  162 is at  -0.217736 -2.515079  4.887451
      ESP Fit Center  163 is at   0.858602 -2.704866  4.887451
      ESP Fit Center  164 is at   1.805118 -2.158395  4.887451
      ESP Fit Center  165 is at  -0.217736 -2.515079  3.849153
      ESP Fit Center  166 is at   0.858602 -2.704866  3.849153
      ESP Fit Center  167 is at   1.805118 -2.158395  3.849153
      ESP Fit Center  168 is at   0.886299 -2.070514  3.009153
      ESP Fit Center  169 is at   2.479100  1.362641  2.945332
      ESP Fit Center  170 is at   1.761690  2.080051  2.945332
      ESP Fit Center  171 is at   0.781690  2.342641  2.945332
      ESP Fit Center  172 is at  -2.097418  1.069138  4.440726
      ESP Fit Center  173 is at  -2.097418 -0.091714  4.440726
      ESP Fit Center  174 is at  -1.021080  2.062213  3.600726
      ESP Fit Center  175 is at  -2.097418  1.872426  3.600726
      ESP Fit Center  176 is at  -2.799948  1.035183  3.600726
      ESP Fit Center  177 is at  -2.799948 -0.057759  3.600726
      ESP Fit Center  178 is at  -2.097418 -0.895002  3.600726
      ESP Fit Center  179 is at  -2.097418  1.872426  2.562428
      ESP Fit Center  180 is at  -2.799948  1.035183  2.562428
      ESP Fit Center  181 is at  -2.799948 -0.057759  2.562428
      ESP Fit Center  182 is at  -1.451957 -1.591398  3.730041
      ESP Fit Center  183 is at  -2.154487 -1.557443  2.890041
      ESP Fit Center  184 is at  -1.451957 -2.394686  2.890041
      ESP Fit Center  185 is at  -0.375619 -2.584473  2.890041
      ESP Fit Center  186 is at   0.570897 -2.038002  2.890041
      ESP Fit Center  187 is at  -2.154487 -1.557443  1.851743
      ESP Fit Center  188 is at  -1.451957 -2.394686  1.851743
      ESP Fit Center  189 is at  -0.375619 -2.584473  1.851743
      ESP Fit Center  190 is at   0.570897 -2.038002  1.851743
      ESP Fit Center  191 is at  -1.451957 -1.591398  1.011743
      ESP Fit Center  192 is at  -0.347922 -1.950121  1.011743
      ESP Fit Center  193 is at  -1.853326  2.070767  2.095700
      ESP Fit Center  194 is at  -1.187361  1.605648 -0.772953
      ESP Fit Center  195 is at  -0.054994  2.690630  2.438843
      ESP Fit Center  196 is at  -1.159029  2.331907  2.438843
      ESP Fit Center  197 is at  -0.082691  3.324982  1.598843
      ESP Fit Center  198 is at  -1.159029  3.135195  1.598843
      ESP Fit Center  199 is at  -0.082691  3.324982  0.560545
      ESP Fit Center  200 is at  -1.159029  3.135195  0.560545
      ESP Fit Center  201 is at  -1.159029  2.331907 -0.279455
      ESP Fit Center  202 is at  -2.520846  1.244457  2.129642
      ESP Fit Center  203 is at  -2.520846  2.047745  1.289642
      ESP Fit Center  204 is at  -3.223376  1.210502  1.289642
      ESP Fit Center  205 is at  -3.223376  0.117560  1.289642
      ESP Fit Center  206 is at  -2.520846 -0.719683  1.289642
      ESP Fit Center  207 is at  -2.520846  2.047745  0.251344
      ESP Fit Center  208 is at  -3.223376  1.210502  0.251344
      ESP Fit Center  209 is at  -3.223376  0.117560  0.251344
      ESP Fit Center  210 is at  -2.520846 -0.719683  0.251344
      ESP Fit Center  211 is at  -2.520846  1.244457 -0.588656
      ESP Fit Center  212 is at  -2.520846  0.083605 -0.588656
      ESP Fit Center  213 is at  -1.721959  0.664031 -0.909507
      ESP Fit Center  214 is at  -1.697410 -0.980000  0.000000
      ESP Fit Center  215 is at  -0.980000 -1.697410  0.000000
      ESP Fit Center  216 is at  -0.000000 -1.960000  0.000000
      ESP Fit Center  217 is at  -1.373233  0.997712 -0.980000
      ESP Fit Center  218 is at  -1.697410  0.000000 -0.980000
      ESP Fit Center  219 is at  -1.373233 -0.997712 -0.980000
      ESP Fit Center  220 is at  -0.524528 -1.614333 -0.980000
      ESP Fit Center  221 is at   0.675920 -1.963534  0.000000
      ESP Fit Center  222 is at   1.673717 -2.084689  0.000000
      ESP Fit Center  223 is at   3.280048 -0.975919  0.000000
      ESP Fit Center  224 is at   1.967741 -2.127792 -0.385874
      ESP Fit Center  225 is at   2.914257 -1.581321 -0.385874
      ESP Fit Center  226 is at   3.288065 -0.554291 -1.424172
      ESP Fit Center  227 is at   0.891403 -1.938005 -1.424172
      ESP Fit Center  228 is at   1.967741 -2.127792 -1.424172
      ESP Fit Center  229 is at   2.914257 -1.581321 -1.424172
      ESP Fit Center  230 is at   0.891403 -1.134717 -2.264172
      ESP Fit Center  231 is at   1.995438 -1.493440 -2.264172
      ESP Fit Center  232 is at   1.690290 -0.554291 -2.585023
      ESP Fit Center  233 is at   2.798096 -0.557646  2.221433
      ESP Fit Center  234 is at   2.115765 -1.496795  2.221433
      ESP Fit Center  235 is at   3.408392 -0.557646  1.381433
      ESP Fit Center  236 is at   1.011730 -1.941360  1.381433
      ESP Fit Center  237 is at   2.088068 -2.131147  1.381433
      ESP Fit Center  238 is at   3.034584 -1.584676  1.381433
      ESP Fit Center  239 is at   2.088068 -2.131147  0.343135
      ESP Fit Center  240 is at   3.034584 -1.584676  0.343135
      ESP Fit Center  241 is at   3.637336  2.353085  1.050000
      ESP Fit Center  242 is at   4.169885  1.203138  1.219820
      ESP Fit Center  243 is at   3.487554  0.263989  1.219820
      ESP Fit Center  244 is at   4.780181  1.203138  0.379820
      ESP Fit Center  245 is at   4.406373  2.230168  0.379820
      ESP Fit Center  246 is at   3.459857 -0.370363  0.379820
      ESP Fit Center  247 is at   4.406373  0.176108  0.379820
      ESP Fit Center  248 is at   4.780181  1.203138 -0.658478
      ESP Fit Center  249 is at   4.406373  2.230168 -0.658478
      ESP Fit Center  250 is at   3.459857 -0.370363 -0.658478
      ESP Fit Center  251 is at   4.406373  0.176108 -0.658478
      ESP Fit Center  252 is at   4.169885  1.203138 -1.498478
      ESP Fit Center  253 is at   3.487554  0.263989 -1.498478
      ESP Fit Center  254 is at   2.971064  1.856207  2.331314
      ESP Fit Center  255 is at   2.288733  2.795356  2.331314
      ESP Fit Center  256 is at   1.184698  2.436633  2.331314
      ESP Fit Center  257 is at   3.581360  1.856207  1.491314
      ESP Fit Center  258 is at   3.207552  2.883237  1.491314
      ESP Fit Center  259 is at   2.261036  3.429708  1.491314
      ESP Fit Center  260 is at   1.184698  3.239921  1.491314
      ESP Fit Center  261 is at   2.054178  3.540367  0.992096
      ESP Fit Center  262 is at   0.991162  3.540367  0.992096
      ESP Fit Center  263 is at   3.134080  3.655360  0.312272
      ESP Fit Center  264 is at   2.318392  4.362157  0.312272
      ESP Fit Center  265 is at   1.250068  4.515759  0.312272
      ESP Fit Center  266 is at   0.268293  4.067398  0.312272
      ESP Fit Center  267 is at   3.674700  3.656132 -0.670102
      ESP Fit Center  268 is at   3.011921  4.487231 -0.670102
      ESP Fit Center  269 is at   2.054178  4.948456 -0.670102
      ESP Fit Center  270 is at   0.991162  4.948456 -0.670102
      ESP Fit Center  271 is at   0.033419  4.487231 -0.670102
      ESP Fit Center  272 is at  -0.629360  3.656132 -0.670102
      ESP Fit Center  273 is at  -0.865903  2.619769 -0.670102
      ESP Fit Center  274 is at   3.911243  2.619769 -1.760454
      ESP Fit Center  275 is at   3.674700  3.656132 -1.760454
      ESP Fit Center  276 is at   3.011921  4.487231 -1.760454
      ESP Fit Center  277 is at   2.054178  4.948456 -1.760454
      ESP Fit Center  278 is at   0.991162  4.948456 -1.760454
      ESP Fit Center  279 is at   0.033419  4.487231 -1.760454
      ESP Fit Center  280 is at  -0.629360  3.656132 -1.760454
      ESP Fit Center  281 is at  -0.865903  2.619769 -1.760454
      ESP Fit Center  282 is at   3.674700  1.583406 -1.760454
      ESP Fit Center  283 is at   3.134080  3.655360 -2.742828
      ESP Fit Center  284 is at   2.318392  4.362157 -2.742828
      ESP Fit Center  285 is at   1.250068  4.515759 -2.742828
      ESP Fit Center  286 is at   0.268293  4.067398 -2.742828
      ESP Fit Center  287 is at   3.482731  2.678954 -2.811798
      ESP Fit Center  288 is at   3.441926  1.703035 -3.861798
      ESP Fit Center  289 is at   3.160012  3.467808 -3.037807
      ESP Fit Center  290 is at   3.533820  2.440778 -4.076105
      ESP Fit Center  291 is at   3.160012  3.467808 -4.076105
      ESP Fit Center  292 is at   2.213496  4.014279 -4.076105
      ESP Fit Center  293 is at   1.137158  3.824492 -4.076105
      ESP Fit Center  294 is at   2.923524  2.440778 -4.916105
      ESP Fit Center  295 is at   2.241193  3.379927 -4.916105
      ESP Fit Center  296 is at   4.018829  0.956771 -2.226942
      ESP Fit Center  297 is at   3.645021 -0.070259 -2.226942
      ESP Fit Center  298 is at   4.018829  0.956771 -3.265240
      ESP Fit Center  299 is at   2.698505 -0.616730 -3.265240
      ESP Fit Center  300 is at   3.645021 -0.070259 -3.265240
      ESP Fit Center  301 is at   3.408533  0.956771 -4.105240
      ESP Fit Center  302 is at  -1.743463  0.551643 -3.211476
      ESP Fit Center  303 is at  -1.282887  2.394877 -1.962485
      ESP Fit Center  304 is at  -0.206549  3.387952 -2.802485
      ESP Fit Center  305 is at  -1.282887  3.198165 -2.802485
      ESP Fit Center  306 is at  -1.985417  2.360922 -2.802485
      ESP Fit Center  307 is at  -1.985417  1.267980 -2.802485
      ESP Fit Center  308 is at  -0.206549  3.387952 -3.840783
      ESP Fit Center  309 is at  -1.282887  3.198165 -3.840783
      ESP Fit Center  310 is at  -1.985417  2.360922 -3.840783
      ESP Fit Center  311 is at  -1.985417  1.267980 -3.840783
      ESP Fit Center  312 is at  -1.548209  0.912854 -1.915116
      ESP Fit Center  313 is at  -1.548209 -0.180088 -1.915116
      ESP Fit Center  314 is at  -0.845679 -1.017331 -1.915116
      ESP Fit Center  315 is at   0.230659 -1.207118 -1.915116
      ESP Fit Center  316 is at  -1.548209 -0.180088 -2.953414
      ESP Fit Center  317 is at  -1.431701 -0.491806 -3.222531
      ESP Fit Center  318 is at  -0.848182 -1.399780 -3.222531
      ESP Fit Center  319 is at   0.133593 -1.848141 -3.222531
      ESP Fit Center  320 is at   1.201917 -1.694539 -3.222531
      ESP Fit Center  321 is at   2.017605 -0.987742 -3.222531
      ESP Fit Center  322 is at   2.794768  0.047849 -4.204905
      ESP Fit Center  323 is at  -1.745835  1.084212 -4.204905
      ESP Fit Center  324 is at  -1.982378  0.047849 -4.204905
      ESP Fit Center  325 is at  -1.745835 -0.988514 -4.204905
      ESP Fit Center  326 is at  -1.083056 -1.819613 -4.204905
      ESP Fit Center  327 is at  -0.125313 -2.280838 -4.204905
      ESP Fit Center  328 is at   0.937703 -2.280838 -4.204905
      ESP Fit Center  329 is at   1.895446 -1.819613 -4.204905
      ESP Fit Center  330 is at   2.558225 -0.988514 -4.204905
      ESP Fit Center  331 is at   2.794768  0.047849 -5.295257
      ESP Fit Center  332 is at   2.558225  1.084212 -5.295257
      ESP Fit Center  333 is at  -1.982378  0.047849 -5.295257
      ESP Fit Center  334 is at  -1.745835 -0.988514 -5.295257
      ESP Fit Center  335 is at  -1.083056 -1.819613 -5.295257
      ESP Fit Center  336 is at  -0.125313 -2.280838 -5.295257
      ESP Fit Center  337 is at   0.937703 -2.280838 -5.295257
      ESP Fit Center  338 is at   1.895446 -1.819613 -5.295257
      ESP Fit Center  339 is at   2.558225 -0.988514 -5.295257
      ESP Fit Center  340 is at   2.321682  0.047849 -6.277631
      ESP Fit Center  341 is at  -1.431701 -0.491806 -6.277631
      ESP Fit Center  342 is at  -0.848182 -1.399780 -6.277631
      ESP Fit Center  343 is at   0.133593 -1.848141 -6.277631
      ESP Fit Center  344 is at   1.201917 -1.694539 -6.277631
      ESP Fit Center  345 is at   2.017605 -0.987742 -6.277631
      ESP Fit Center  346 is at  -0.125313 -0.872749 -6.957455
      ESP Fit Center  347 is at   0.937703 -0.872749 -6.957455
      ESP Fit Center  348 is at   2.425089  0.821793 -7.465419
      ESP Fit Center  349 is at   2.051281  1.848823 -7.465419
      ESP Fit Center  350 is at   0.028427 -0.561921 -7.465419
      ESP Fit Center  351 is at   1.104765 -0.751708 -7.465419
      ESP Fit Center  352 is at   2.051281 -0.205237 -7.465419
      ESP Fit Center  353 is at   1.814793  0.821793 -8.305419
      ESP Fit Center  354 is at   1.132462 -0.117356 -8.305419
      ESP Fit Center  355 is at   2.798758  2.106372 -5.285203
      ESP Fit Center  356 is at   2.424950  3.133402 -5.285203
      ESP Fit Center  357 is at   1.478434  3.679873 -5.285203
      ESP Fit Center  358 is at   0.402096  3.490086 -5.285203
      ESP Fit Center  359 is at   2.798758  2.106372 -6.323501
      ESP Fit Center  360 is at   2.424950  3.133402 -6.323501
      ESP Fit Center  361 is at   1.478434  3.679873 -6.323501
      ESP Fit Center  362 is at   2.188462  2.106372 -7.163501
      ESP Fit Center  363 is at  -2.941587  2.488027 -6.334081
      ESP Fit Center  364 is at  -2.444286  0.643273 -5.229122
      ESP Fit Center  365 is at  -3.146816  1.770170 -6.069122
      ESP Fit Center  366 is at  -3.146816  0.677228 -6.069122
      ESP Fit Center  367 is at  -2.444286 -0.160015 -6.069122
      ESP Fit Center  368 is at  -3.146816  1.770170 -7.107420
      ESP Fit Center  369 is at  -3.146816  0.677228 -7.107420
      ESP Fit Center  370 is at  -2.444286 -0.160015 -7.107420
      ESP Fit Center  371 is at  -1.367948 -0.349802 -7.107420
      ESP Fit Center  372 is at  -0.966343  3.446826 -4.086709
      ESP Fit Center  373 is at  -2.070378  3.088103 -4.086709
      ESP Fit Center  374 is at  -2.070378  1.927251 -4.086709
      ESP Fit Center  375 is at  -0.047524  3.534707 -4.926709
      ESP Fit Center  376 is at  -0.994040  4.081178 -4.926709
      ESP Fit Center  377 is at  -2.070378  3.891391 -4.926709
      ESP Fit Center  378 is at  -2.772908  3.054148 -4.926709
      ESP Fit Center  379 is at  -2.772908  1.961206 -4.926709
      ESP Fit Center  380 is at  -2.772908  3.054148 -5.965007
      ESP Fit Center  381 is at  -0.323439  4.201366 -5.433651
      ESP Fit Center  382 is at  -1.386455  4.201366 -5.433651
      ESP Fit Center  383 is at   0.756463  4.316359 -6.113475
      ESP Fit Center  384 is at  -0.059225  5.023156 -6.113475
      ESP Fit Center  385 is at  -1.127549  5.176758 -6.113475
      ESP Fit Center  386 is at  -2.109324  4.728397 -6.113475
      ESP Fit Center  387 is at  -2.692843  3.820423 -6.113475
      ESP Fit Center  388 is at   1.533626  3.280768 -7.095849
      ESP Fit Center  389 is at   1.297083  4.317131 -7.095849
      ESP Fit Center  390 is at   0.634304  5.148230 -7.095849
      ESP Fit Center  391 is at  -0.323439  5.609455 -7.095849
      ESP Fit Center  392 is at  -1.386455  5.609455 -7.095849
      ESP Fit Center  393 is at  -2.344198  5.148230 -7.095849
      ESP Fit Center  394 is at  -3.006977  4.317131 -7.095849
      ESP Fit Center  395 is at  -3.243520  3.280768 -7.095849
      ESP Fit Center  396 is at  -3.006977  2.244405 -7.095849
      ESP Fit Center  397 is at   1.533626  3.280768 -8.186201
      ESP Fit Center  398 is at   1.297083  4.317131 -8.186201
      ESP Fit Center  399 is at   0.634304  5.148230 -8.186201
      ESP Fit Center  400 is at  -0.323439  5.609455 -8.186201
      ESP Fit Center  401 is at  -1.386455  5.609455 -8.186201
      ESP Fit Center  402 is at  -2.344198  5.148230 -8.186201
      ESP Fit Center  403 is at  -3.006977  4.317131 -8.186201
      ESP Fit Center  404 is at  -3.243520  3.280768 -8.186201
      ESP Fit Center  405 is at   0.756463  4.316359 -9.168575
      ESP Fit Center  406 is at  -0.059225  5.023156 -9.168575
      ESP Fit Center  407 is at  -1.127549  5.176758 -9.168575
      ESP Fit Center  408 is at  -2.109324  4.728397 -9.168575
      ESP Fit Center  409 is at  -2.692843  3.820423 -9.168575
      ESP Fit Center  410 is at   1.139488  3.248434 -9.175864
      ESP Fit Center  411 is at  -0.194970  1.363188-10.994517
      ESP Fit Center  412 is at   0.767422  4.030042 -9.429053
      ESP Fit Center  413 is at   1.141230  3.003012-10.467351
      ESP Fit Center  414 is at   0.767422  4.030042-10.467351
      ESP Fit Center  415 is at  -0.179094  4.576513-10.467351
      ESP Fit Center  416 is at  -1.255432  4.386726-10.467351
      ESP Fit Center  417 is at  -1.957962  3.549483-10.467351
      ESP Fit Center  418 is at   0.530934  3.003012-11.307351
      ESP Fit Center  419 is at  -0.151397  3.942161-11.307351
      ESP Fit Center  420 is at  -1.255432  3.583438-11.307351
      ESP Fit Center  421 is at  -0.151397  2.063863-11.307351
      ESP Fit Center  422 is at  -0.456545  3.003012-11.628202
      ESP Fit Center  423 is at   1.729571  1.589517 -8.567256
      ESP Fit Center  424 is at   1.355763  2.616547 -8.567256
      ESP Fit Center  425 is at  -0.667091  0.205803 -8.567256
      ESP Fit Center  426 is at   0.409247  0.016016 -8.567256
      ESP Fit Center  427 is at   1.355763  0.562487 -8.567256
      ESP Fit Center  428 is at   1.729571  1.589517 -9.605554
      ESP Fit Center  429 is at   1.355763  2.616547 -9.605554
      ESP Fit Center  430 is at   0.409247  0.016016 -9.605554
      ESP Fit Center  431 is at   1.355763  0.562487 -9.605554
      ESP Fit Center  432 is at   1.119275  1.589517-10.445554
      ESP Fit Center  433 is at   0.436944  0.650368-10.445554
      ESP Fit Center  434 is at  -4.032146  1.018414 -9.562119
      ESP Fit Center  435 is at  -0.800232 -0.207289 -9.562119
      ESP Fit Center  436 is at  -3.738153  1.008603-10.612119
      ESP Fit Center  437 is at  -1.468168  2.430304-11.380772
      ESP Fit Center  438 is at  -2.518168  2.430304-11.380772
      ESP Fit Center  439 is at  -3.630194  2.792837 -8.333640
      ESP Fit Center  440 is at  -3.630194  3.596125 -9.173640
      ESP Fit Center  441 is at  -4.332724  2.758882 -9.173640
      ESP Fit Center  442 is at  -4.332724  1.665940 -9.173640
      ESP Fit Center  443 is at  -2.553856  3.785912-10.211938
      ESP Fit Center  444 is at  -3.630194  3.596125-10.211938
      ESP Fit Center  445 is at  -4.332724  2.758882-10.211938
      ESP Fit Center  446 is at  -4.332724  1.665940-10.211938
      ESP Fit Center  447 is at  -2.526159  3.151560-11.051938
      ESP Fit Center  448 is at  -3.630194  2.792837-11.051938
      ESP Fit Center  449 is at  -3.630194  1.631985-11.051938
      ESP Fit Center  450 is at  -2.831307  2.212411-11.372789
      ESP Fit Center  451 is at  -1.564264 -0.594952 -9.984850
      ESP Fit Center  452 is at  -0.617748 -0.048481 -9.984850
      ESP Fit Center  453 is at  -0.243940  0.978549-11.023148
      ESP Fit Center  454 is at  -3.343132  0.432078-11.023148
      ESP Fit Center  455 is at  -2.640602 -0.405165-11.023148
      ESP Fit Center  456 is at  -1.564264 -0.594952-11.023148
      ESP Fit Center  457 is at  -0.617748 -0.048481-11.023148
      ESP Fit Center  458 is at  -0.854236  0.978549-11.863148
      ESP Fit Center  459 is at  -1.536567  1.917698-11.863148
      ESP Fit Center  460 is at  -2.640602  1.558975-11.863148
      ESP Fit Center  461 is at  -2.640602  0.398123-11.863148
      ESP Fit Center  462 is at  -1.536567  0.039400-11.863148
      ESP Fit Center  463 is at  -1.841715  0.978549-12.183999
      ESP Fit Center  464 is at  -3.076338  0.205779 -7.442120
      ESP Fit Center  465 is at  -3.778868  1.332676 -8.282120
      ESP Fit Center  466 is at  -3.778868  0.239734 -8.282120
      ESP Fit Center  467 is at  -3.076338 -0.597509 -8.282120
      ESP Fit Center  468 is at  -2.000000 -0.787296 -8.282120
      ESP Fit Center  469 is at  -1.053484 -0.240825 -8.282120
      ESP Fit Center  470 is at  -3.778868  0.239734 -9.320418
      ESP Fit Center  471 is at  -3.076338 -0.597509 -9.320418
      ESP Fit Center  472 is at  -2.000000 -0.787296 -9.320418
      ESP Fit Center  473 is at  -1.274543  0.335619 10.272418
      ESP Fit Center  474 is at  -0.233223  0.335619 10.272418
      ESP Fit Center  475 is at  -2.212741  3.066779  8.644143
      ESP Fit Center  476 is at  -2.861994  2.252642  8.644143
      ESP Fit Center  477 is at  -3.093710  1.237429  8.644143
      ESP Fit Center  478 is at  -0.233223  3.518592  7.576043
      ESP Fit Center  479 is at  -0.808735  1.803391 10.967415
      ESP Fit Center  480 is at   0.151265  1.803391 10.710184
      ESP Fit Center  481 is at  -0.328735  2.634775 10.710184
      ESP Fit Center  482 is at  -1.288735  2.634775 10.710184
      ESP Fit Center  483 is at  -1.768735  1.803391 10.710184
      ESP Fit Center  484 is at  -1.288735  0.972007 10.710184
      ESP Fit Center  485 is at  -0.328735  0.972007 10.710184
      ESP Fit Center  486 is at   0.854034  1.803391 10.007415
      ESP Fit Center  487 is at   0.536473  2.780742 10.007415
      ESP Fit Center  488 is at  -0.294911  3.384778 10.007415
      ESP Fit Center  489 is at  -1.322559  3.384778 10.007415
      ESP Fit Center  490 is at  -2.153943  2.780742 10.007415
      ESP Fit Center  491 is at  -2.471504  1.803391 10.007415
      ESP Fit Center  492 is at   0.151265  3.466160  9.047415
      ESP Fit Center  493 is at  -0.808735  3.723391  9.047415
      ESP Fit Center  494 is at  -1.768735  3.466160  9.047415
      ESP Fit Center  495 is at  -2.471504  2.763391  9.047415
      ESP Fit Center  496 is at  -1.809212  3.388524  8.307109
      ESP Fit Center  497 is at  -2.640596  2.784488  8.307109
      ESP Fit Center  498 is at  -1.295388  3.727137  7.347109
      ESP Fit Center  499 is at  -2.255388  3.469906  7.347109
      ESP Fit Center  500 is at  -2.958157  2.767137  7.347109
      ESP Fit Center  501 is at  -3.215388  1.807137  7.347109
      ESP Fit Center  502 is at  -0.781564  3.388524  6.387109
      ESP Fit Center  503 is at  -1.809212  3.388524  6.387109
      ESP Fit Center  504 is at  -2.640596  2.784488  6.387109
      ESP Fit Center  505 is at  -2.958157  1.807137  6.387109
      ESP Fit Center  506 is at  -2.640596  0.829786  6.387109
      ESP Fit Center  507 is at  -1.775388  2.638521  5.684340
      ESP Fit Center  508 is at  -2.255388  1.807137  5.684340
      ESP Fit Center  509 is at  -2.227481  0.280924  9.917066
      ESP Fit Center  510 is at  -1.747481 -0.550460  9.917066
      ESP Fit Center  511 is at  -0.787481 -0.550460  9.917066
      ESP Fit Center  512 is at  -2.930250  0.280924  9.214297
      ESP Fit Center  513 is at  -2.612689 -0.696427  9.214297
      ESP Fit Center  514 is at  -1.781305 -1.300463  9.214297
      ESP Fit Center  515 is at  -0.753657 -1.300463  9.214297
      ESP Fit Center  516 is at  -3.187481  0.280924  8.254297
      ESP Fit Center  517 is at  -2.930250 -0.679076  8.254297
      ESP Fit Center  518 is at  -2.227481 -1.381845  8.254297
      ESP Fit Center  519 is at  -1.267481 -1.639076  8.254297
      ESP Fit Center  520 is at  -0.307481 -1.381845  8.254297
      ESP Fit Center  521 is at  -2.930250  0.280924  7.294297
      ESP Fit Center  522 is at  -2.612689 -0.696427  7.294297
      ESP Fit Center  523 is at  -1.781305 -1.300463  7.294297
      ESP Fit Center  524 is at  -0.753657 -1.300463  7.294297
      ESP Fit Center  525 is at  -1.747481 -0.550460  6.591528
      ESP Fit Center  526 is at   1.226269  1.906422  9.885064
      ESP Fit Center  527 is at   2.284133  2.019068  9.219115
      ESP Fit Center  528 is at   0.184949 -1.276551  8.256789
      ESP Fit Center  529 is at   3.045436  1.004612  7.188689
      ESP Fit Center  530 is at   1.699197  2.799064  9.228590
      ESP Fit Center  531 is at   2.881966  1.967680  8.525821
      ESP Fit Center  532 is at   2.564405  2.945031  8.525821
      ESP Fit Center  533 is at   1.733021  3.549067  8.525821
      ESP Fit Center  534 is at   0.705373  3.549067  8.525821
      ESP Fit Center  535 is at   3.139197  1.967680  7.565821
      ESP Fit Center  536 is at   2.881966  2.927680  7.565821
      ESP Fit Center  537 is at   2.179197  3.630449  7.565821
      ESP Fit Center  538 is at   1.219197  3.887680  7.565821
      ESP Fit Center  539 is at   0.259197  3.630449  7.565821
      ESP Fit Center  540 is at   2.881966  1.967680  6.605821
      ESP Fit Center  541 is at   2.564405  2.945031  6.605821
      ESP Fit Center  542 is at   1.733021  3.549067  6.605821
      ESP Fit Center  543 is at   0.705373  3.549067  6.605821
      ESP Fit Center  544 is at   1.227075  0.479547 10.450126
      ESP Fit Center  545 is at   2.187075  0.479547 10.192895
      ESP Fit Center  546 is at   1.707075  1.310931 10.192895
      ESP Fit Center  547 is at   0.747075  1.310931 10.192895
      ESP Fit Center  548 is at   0.267075  0.479547 10.192895
      ESP Fit Center  549 is at   0.747075 -0.351837 10.192895
      ESP Fit Center  550 is at   1.707075 -0.351837 10.192895
      ESP Fit Center  551 is at   2.889844  0.479547  9.490126
      ESP Fit Center  552 is at   2.572283  1.456898  9.490126
      ESP Fit Center  553 is at   0.713251 -1.101840  9.490126
      ESP Fit Center  554 is at   1.740899 -1.101840  9.490126
      ESP Fit Center  555 is at   2.572283 -0.497804  9.490126
      ESP Fit Center  556 is at   3.147075  0.479547  8.530126
      ESP Fit Center  557 is at   1.227075 -1.440453  8.530126
      ESP Fit Center  558 is at   2.187075 -1.183222  8.530126
      ESP Fit Center  559 is at   2.889844 -0.480453  8.530126
      ESP Fit Center  560 is at   0.328692 -1.487682  7.973961
      ESP Fit Center  561 is at   1.411056 -1.487682  7.973961
      ESP Fit Center  562 is at   3.053713  0.177906  7.075791
      ESP Fit Center  563 is at  -0.764753 -1.270247  7.075791
      ESP Fit Center  564 is at   0.095474 -1.864018  7.075791
      ESP Fit Center  565 is at   1.133107 -1.990010  7.075791
      ESP Fit Center  566 is at   2.110436 -1.619358  7.075791
      ESP Fit Center  567 is at   2.803567 -0.836974  7.075791
      ESP Fit Center  568 is at   3.053713  0.177906  6.078897
      ESP Fit Center  569 is at  -0.764753 -1.270247  6.078897
      ESP Fit Center  570 is at   0.095474 -1.864018  6.078897
      ESP Fit Center  571 is at   1.133107 -1.990010  6.078897
      ESP Fit Center  572 is at   2.110436 -1.619358  6.078897
      ESP Fit Center  573 is at   2.803567 -0.836974  6.078897
      ESP Fit Center  574 is at  -0.896135 -1.029721  5.878592
      ESP Fit Center  575 is at   2.741434  1.769195  6.210150
      ESP Fit Center  576 is at   2.423873  2.746546  6.210150
      ESP Fit Center  577 is at   1.592489  3.350582  6.210150
      ESP Fit Center  578 is at   0.564841  3.350582  6.210150
      ESP Fit Center  579 is at   2.998665  1.769195  5.250150
      ESP Fit Center  580 is at   2.741434  2.729195  5.250150
      ESP Fit Center  581 is at   2.038665  3.431964  5.250150
      ESP Fit Center  582 is at   1.078665  3.689195  5.250150
      ESP Fit Center  583 is at   0.118665  3.431964  5.250150
      ESP Fit Center  584 is at   2.741434  1.769195  4.290150
      ESP Fit Center  585 is at   2.423873  2.746546  4.290150
      ESP Fit Center  586 is at   1.592489  3.350582  4.290150
      ESP Fit Center  587 is at   0.564841  3.350582  4.290150
      ESP Fit Center  588 is at   1.558665  2.600579  3.587381
      ESP Fit Center  589 is at   0.598665  2.600579  3.587381
      ESP Fit Center  590 is at  -1.862629  0.011822  6.203210
      ESP Fit Center  591 is at  -1.477421  2.651942  5.243210
      ESP Fit Center  592 is at  -2.180190  1.949173  5.243210
      ESP Fit Center  593 is at  -2.437421  0.989173  5.243210
      ESP Fit Center  594 is at  -2.180190  0.029173  5.243210
      ESP Fit Center  595 is at  -1.477421 -0.673596  5.243210
      ESP Fit Center  596 is at  -1.031245  2.570560  4.283210
      ESP Fit Center  597 is at  -1.862629  1.966524  4.283210
      ESP Fit Center  598 is at   1.823246 -1.848867  5.736367
      ESP Fit Center  599 is at   2.502621  1.687312  3.705941
      ESP Fit Center  600 is at   1.823246 -1.848867  2.743615
      ESP Fit Center  601 is at   3.088158 -0.265772  5.983457
      ESP Fit Center  602 is at   3.790927 -0.265772  5.280688
      ESP Fit Center  603 is at   3.473366  0.711579  5.280688
      ESP Fit Center  604 is at   2.641982 -1.847159  5.280688
      ESP Fit Center  605 is at   3.473366 -1.243123  5.280688
      ESP Fit Center  606 is at   4.048158 -0.265772  4.320688
      ESP Fit Center  607 is at   3.790927  0.694228  4.320688
      ESP Fit Center  608 is at   3.088158  1.396997  4.320688
      ESP Fit Center  609 is at   3.088158 -1.928541  4.320688
      ESP Fit Center  610 is at   3.790927 -1.225772  4.320688
      ESP Fit Center  611 is at   3.790927 -0.265772  3.360688
      ESP Fit Center  612 is at   3.473366  0.711579  3.360688
      ESP Fit Center  613 is at   2.641982 -1.847159  3.360688
      ESP Fit Center  614 is at   3.473366 -1.243123  3.360688
      ESP Fit Center  615 is at   3.088158 -0.265772  2.657919
      ESP Fit Center  616 is at   2.608158 -1.097156  2.657919
      ESP Fit Center  617 is at   0.101151 -1.962749  6.031071
      ESP Fit Center  618 is at  -1.081618 -1.131365  5.328302
      ESP Fit Center  619 is at  -0.764057 -2.108716  5.328302
      ESP Fit Center  620 is at   0.067327 -2.712752  5.328302
      ESP Fit Center  621 is at   1.094975 -2.712752  5.328302
      ESP Fit Center  622 is at   1.926359 -2.108716  5.328302
      ESP Fit Center  623 is at  -1.338849 -1.131365  4.368302
      ESP Fit Center  624 is at  -1.081618 -2.091365  4.368302
      ESP Fit Center  625 is at  -0.378849 -2.794134  4.368302
      ESP Fit Center  626 is at   0.581151 -3.051365  4.368302
      ESP Fit Center  627 is at   1.541151 -2.794134  4.368302
      ESP Fit Center  628 is at   0.067327 -2.712752  3.408302
      ESP Fit Center  629 is at   1.094975 -2.712752  3.408302
      ESP Fit Center  630 is at   2.715383  1.397521  3.443779
      ESP Fit Center  631 is at   2.022252  2.179905  3.443779
      ESP Fit Center  632 is at   1.044923  2.550557  3.443779
      ESP Fit Center  633 is at   0.007290  2.424565  3.443779
      ESP Fit Center  634 is at   2.965529  0.382641  2.446885
      ESP Fit Center  635 is at  -1.738289 -1.338536  3.926155
      ESP Fit Center  636 is at  -2.617622 -0.935664  2.963829
      ESP Fit Center  637 is at  -2.617622 -0.935664  1.895729
      ESP Fit Center  638 is at  -1.812355  2.070099  4.041577
      ESP Fit Center  639 is at  -2.643739  1.466063  4.041577
      ESP Fit Center  640 is at  -2.961300  0.488712  4.041577
      ESP Fit Center  641 is at  -2.643739 -0.488639  4.041577
      ESP Fit Center  642 is at  -1.298531  2.408712  3.081577
      ESP Fit Center  643 is at  -2.258531  2.151481  3.081577
      ESP Fit Center  644 is at  -2.961300  1.448712  3.081577
      ESP Fit Center  645 is at  -3.218531  0.488712  3.081577
      ESP Fit Center  646 is at  -2.961300 -0.471288  3.081577
      ESP Fit Center  647 is at  -1.998278 -1.988323  3.330892
      ESP Fit Center  648 is at  -1.166894 -2.592359  3.330892
      ESP Fit Center  649 is at  -0.139246 -2.592359  3.330892
      ESP Fit Center  650 is at  -2.315839 -1.970972  2.370892
      ESP Fit Center  651 is at  -1.613070 -2.673741  2.370892
      ESP Fit Center  652 is at  -0.653070 -2.930972  2.370892
      ESP Fit Center  653 is at   0.306930 -2.673741  2.370892
      ESP Fit Center  654 is at   1.009699 -1.970972  2.370892
      ESP Fit Center  655 is at  -1.998278 -1.988323  1.410892
      ESP Fit Center  656 is at  -1.166894 -2.592359  1.410892
      ESP Fit Center  657 is at  -0.139246 -2.592359  1.410892
      ESP Fit Center  658 is at  -1.133070 -1.842356  0.708123
      ESP Fit Center  659 is at  -2.121219  2.525671  1.579750
      ESP Fit Center  660 is at  -2.121219  2.525671  0.511650
      ESP Fit Center  661 is at  -1.183021  1.598131 -1.116625
      ESP Fit Center  662 is at   0.119858  2.582865  2.742463
      ESP Fit Center  663 is at  -0.840142  2.582865  2.742463
      ESP Fit Center  664 is at   0.153682  3.332868  2.039694
      ESP Fit Center  665 is at  -0.873966  3.332868  2.039694
      ESP Fit Center  666 is at  -1.705350  2.728832  2.039694
      ESP Fit Center  667 is at  -0.360142  3.671481  1.079694
      ESP Fit Center  668 is at  -1.320142  3.414250  1.079694
      ESP Fit Center  669 is at  -2.022911  2.711481  1.079694
      ESP Fit Center  670 is at  -0.873966  3.332868  0.119694
      ESP Fit Center  671 is at  -1.705350  2.728832  0.119694
      ESP Fit Center  672 is at  -3.067167  1.641382  1.730493
      ESP Fit Center  673 is at  -3.384728  0.664031  1.730493
      ESP Fit Center  674 is at  -3.067167 -0.313320  1.730493
      ESP Fit Center  675 is at  -2.681959  2.326800  0.770493
      ESP Fit Center  676 is at  -3.384728  1.624031  0.770493
      ESP Fit Center  677 is at  -3.641959  0.664031  0.770493
      ESP Fit Center  678 is at  -3.384728 -0.295969  0.770493
      ESP Fit Center  679 is at  -2.681959 -0.998738  0.770493
      ESP Fit Center  680 is at  -2.235783  2.245418 -0.189507
      ESP Fit Center  681 is at  -3.067167  1.641382 -0.189507
      ESP Fit Center  682 is at  -3.384728  0.664031 -0.189507
      ESP Fit Center  683 is at  -3.067167 -0.313320 -0.189507
      ESP Fit Center  684 is at  -2.235783 -0.917356 -0.189507
      ESP Fit Center  685 is at  -2.201959  1.495415 -0.892276
      ESP Fit Center  686 is at  -2.681959  0.664031 -0.892276
      ESP Fit Center  687 is at  -2.201959 -0.167353 -0.892276
      ESP Fit Center  688 is at  -1.634627 -1.448153  0.498447
      ESP Fit Center  689 is at  -0.774400 -2.041924  0.498447
      ESP Fit Center  690 is at   0.263233 -2.167916  0.498447
      ESP Fit Center  691 is at  -1.634627 -1.448153 -0.498447
      ESP Fit Center  692 is at  -0.774400 -2.041924 -0.498447
      ESP Fit Center  693 is at   0.263233 -2.167916 -0.498447
      ESP Fit Center  694 is at  -1.751303  0.000000 -1.396617
      ESP Fit Center  695 is at  -1.416834 -1.029390 -1.396617
      ESP Fit Center  696 is at  -0.541182 -1.665588 -1.396617
      ESP Fit Center  697 is at   0.899930 -2.281163  0.534050
      ESP Fit Center  698 is at   0.899930 -2.281163 -0.534050
      ESP Fit Center  699 is at   3.528701 -1.015213 -0.534050
      ESP Fit Center  700 is at   3.610290 -0.554291 -0.905023
      ESP Fit Center  701 is at   0.730290 -2.217060 -0.905023
      ESP Fit Center  702 is at   1.690290 -2.474291 -0.905023
      ESP Fit Center  703 is at   2.650290 -2.217060 -0.905023
      ESP Fit Center  704 is at   3.353059 -1.514291 -0.905023
      ESP Fit Center  705 is at   3.353059 -0.554291 -1.865023
      ESP Fit Center  706 is at   0.345082 -1.531642 -1.865023
      ESP Fit Center  707 is at   1.176466 -2.135678 -1.865023
      ESP Fit Center  708 is at   2.204114 -2.135678 -1.865023
      ESP Fit Center  709 is at   3.035498 -1.531642 -1.865023
      ESP Fit Center  710 is at   2.170290 -1.385675 -2.567792
      ESP Fit Center  711 is at   2.290617 -1.389030  2.525053
      ESP Fit Center  712 is at   3.473386 -0.557646  1.822284
      ESP Fit Center  713 is at   1.296793 -2.139033  1.822284
      ESP Fit Center  714 is at   2.324441 -2.139033  1.822284
      ESP Fit Center  715 is at   3.155825 -1.534997  1.822284
      ESP Fit Center  716 is at   3.730617 -0.557646  0.862284
      ESP Fit Center  717 is at   0.850617 -2.220415  0.862284
      ESP Fit Center  718 is at   1.810617 -2.477646  0.862284
      ESP Fit Center  719 is at   2.770617 -2.220415  0.862284
      ESP Fit Center  720 is at   3.473386 -1.517646  0.862284
      ESP Fit Center  721 is at   4.142406  1.203138  1.523440
      ESP Fit Center  722 is at   4.845175  1.203138  0.820671
      ESP Fit Center  723 is at   4.527614  2.180489  0.820671
      ESP Fit Center  724 is at   4.527614  0.225787  0.820671
      ESP Fit Center  725 is at   5.102406  1.203138 -0.139329
      ESP Fit Center  726 is at   4.845175  2.163138 -0.139329
      ESP Fit Center  727 is at   4.142406  2.865907 -0.139329
      ESP Fit Center  728 is at   4.142406 -0.459631 -0.139329
      ESP Fit Center  729 is at   4.845175  0.243138 -0.139329
      ESP Fit Center  730 is at   4.845175  1.203138 -1.099329
      ESP Fit Center  731 is at   4.527614  2.180489 -1.099329
      ESP Fit Center  732 is at   3.696230 -0.378249 -1.099329
      ESP Fit Center  733 is at   4.527614  0.225787 -1.099329
      ESP Fit Center  734 is at   4.142406  1.203138 -1.802098
      ESP Fit Center  735 is at   2.943585  1.856207  2.634934
      ESP Fit Center  736 is at   2.463585  2.687591  2.634934
      ESP Fit Center  737 is at   1.503585  2.687591  2.634934
      ESP Fit Center  738 is at   3.646354  1.856207  1.932165
      ESP Fit Center  739 is at   3.328793  2.833558  1.932165
      ESP Fit Center  740 is at   2.497409  3.437594  1.932165
      ESP Fit Center  741 is at   1.469761  3.437594  1.932165
      ESP Fit Center  742 is at   0.986913  3.547727  1.371585
      ESP Fit Center  743 is at   3.237313  3.609718  0.764621
      ESP Fit Center  744 is at   2.512619  4.334412  0.764621
      ESP Fit Center  745 is at   1.522670  4.599668  0.764621
      ESP Fit Center  746 is at   0.532721  4.334412  0.764621
      ESP Fit Center  747 is at   3.885887  3.671941 -0.143764
      ESP Fit Center  748 is at   3.253619  4.542183 -0.143764
      ESP Fit Center  749 is at   2.322055  5.080022 -0.143764
      ESP Fit Center  750 is at   1.252269  5.192461 -0.143764
      ESP Fit Center  751 is at   0.229239  4.860058 -0.143764
      ESP Fit Center  752 is at  -0.570146  4.140289 -0.143764
      ESP Fit Center  753 is at  -1.007664  3.157608 -0.143764
      ESP Fit Center  754 is at   4.322670  2.619769 -1.215278
      ESP Fit Center  755 is at   4.133592  3.631246 -1.215278
      ESP Fit Center  756 is at   3.591895  4.506117 -1.215278
      ESP Fit Center  757 is at   2.770737  5.126226 -1.215278
      ESP Fit Center  758 is at   1.781021  5.407825 -1.215278
      ESP Fit Center  759 is at   0.756414  5.312881 -1.215278
      ESP Fit Center  760 is at  -0.164707  4.854217 -1.215278
      ESP Fit Center  761 is at  -0.857938  4.093779 -1.215278
      ESP Fit Center  762 is at  -1.229655  3.134268 -1.215278
      ESP Fit Center  763 is at  -1.229655  2.105270 -1.215278
      ESP Fit Center  764 is at   4.109533  2.619769 -2.286792
      ESP Fit Center  765 is at   3.885887  3.671941 -2.286792
      ESP Fit Center  766 is at   3.253619  4.542183 -2.286792
      ESP Fit Center  767 is at   2.322055  5.080022 -2.286792
      ESP Fit Center  768 is at   1.252269  5.192461 -2.286792
      ESP Fit Center  769 is at   0.229239  4.860058 -2.286792
      ESP Fit Center  770 is at  -0.570146  4.140289 -2.286792
      ESP Fit Center  771 is at   2.512619  4.334412 -3.195177
      ESP Fit Center  772 is at   1.522670  4.599668 -3.195177
      ESP Fit Center  773 is at   0.532721  4.334412 -3.195177
      ESP Fit Center  774 is at   3.856045  2.440778 -3.556956
      ESP Fit Center  775 is at   3.598814  3.400778 -3.556956
      ESP Fit Center  776 is at   2.896045  4.103547 -3.556956
      ESP Fit Center  777 is at   1.936045  4.360778 -3.556956
      ESP Fit Center  778 is at   0.976045  4.103547 -3.556956
      ESP Fit Center  779 is at   3.598814  2.440778 -4.516956
      ESP Fit Center  780 is at   3.281253  3.418129 -4.516956
      ESP Fit Center  781 is at   2.449869  4.022165 -4.516956
      ESP Fit Center  782 is at   1.422221  4.022165 -4.516956
      ESP Fit Center  783 is at   0.590837  3.418129 -4.516956
      ESP Fit Center  784 is at   3.766262 -0.020580 -1.786091
      ESP Fit Center  785 is at   4.341054  0.956771 -2.746091
      ESP Fit Center  786 is at   4.083823  1.916771 -2.746091
      ESP Fit Center  787 is at   2.421054 -0.963229 -2.746091
      ESP Fit Center  788 is at   3.381054 -0.705998 -2.746091
      ESP Fit Center  789 is at   4.083823 -0.003229 -2.746091
      ESP Fit Center  790 is at   4.083823  0.956771 -3.706091
      ESP Fit Center  791 is at   2.934878 -0.624616 -3.706091
      ESP Fit Center  792 is at   3.766262 -0.020580 -3.706091
      ESP Fit Center  793 is at   3.381054  0.956771 -4.408860
      ESP Fit Center  794 is at  -1.444000  1.814451 -1.658865
      ESP Fit Center  795 is at  -0.997824  3.395838 -2.361634
      ESP Fit Center  796 is at  -1.829208  2.791802 -2.361634
      ESP Fit Center  797 is at  -2.146769  1.814451 -2.361634
      ESP Fit Center  798 is at  -0.484000  3.734451 -3.321634
      ESP Fit Center  799 is at  -1.444000  3.477220 -3.321634
      ESP Fit Center  800 is at  -2.146769  2.774451 -3.321634
      ESP Fit Center  801 is at  -2.404000  1.814451 -3.321634
      ESP Fit Center  802 is at  -2.146769  0.854451 -3.321634
      ESP Fit Center  803 is at   0.029824  3.395838 -4.281634
      ESP Fit Center  804 is at  -1.392000  1.343734 -1.474265
      ESP Fit Center  805 is at  -1.709561  0.366383 -1.474265
      ESP Fit Center  806 is at  -1.966792  0.366383 -2.434265
      ESP Fit Center  807 is at  -1.709561 -0.593617 -2.434265
      ESP Fit Center  808 is at  -1.006792 -1.296386 -2.434265
      ESP Fit Center  809 is at  -0.046792 -1.553617 -2.434265
      ESP Fit Center  810 is at  -0.583754 -1.666794 -2.770182
      ESP Fit Center  811 is at   0.406195 -1.932050 -2.770182
      ESP Fit Center  812 is at   1.396144 -1.666794 -2.770182
      ESP Fit Center  813 is at   2.120838 -0.942100 -2.770182
      ESP Fit Center  814 is at  -2.124139  0.585688 -3.678567
      ESP Fit Center  815 is at  -2.124139 -0.489990 -3.678567
      ESP Fit Center  816 is at  -1.686621 -1.472671 -3.678567
      ESP Fit Center  817 is at  -0.887236 -2.192440 -3.678567
      ESP Fit Center  818 is at   0.135794 -2.524843 -3.678567
      ESP Fit Center  819 is at   1.205580 -2.412404 -3.678567
      ESP Fit Center  820 is at   2.137144 -1.874565 -3.678567
      ESP Fit Center  821 is at   2.769412 -1.004323 -3.678567
      ESP Fit Center  822 is at   3.206195  0.047849 -4.750081
      ESP Fit Center  823 is at   3.017117  1.059326 -4.750081
      ESP Fit Center  824 is at  -2.346130  0.562348 -4.750081
      ESP Fit Center  825 is at  -2.346130 -0.466650 -4.750081
      ESP Fit Center  826 is at  -1.974413 -1.426161 -4.750081
      ESP Fit Center  827 is at  -1.281182 -2.186599 -4.750081
      ESP Fit Center  828 is at  -0.360061 -2.645263 -4.750081
      ESP Fit Center  829 is at   0.664546 -2.740207 -4.750081
      ESP Fit Center  830 is at   1.654262 -2.458608 -4.750081
      ESP Fit Center  831 is at   2.475420 -1.838499 -4.750081
      ESP Fit Center  832 is at   3.017117 -0.963628 -4.750081
      ESP Fit Center  833 is at   2.993058  0.047849 -5.821595
      ESP Fit Center  834 is at  -2.124139 -0.489990 -5.821595
      ESP Fit Center  835 is at  -1.686621 -1.472671 -5.821595
      ESP Fit Center  836 is at  -0.887236 -2.192440 -5.821595
      ESP Fit Center  837 is at   0.135794 -2.524843 -5.821595
      ESP Fit Center  838 is at   1.205580 -2.412404 -5.821595
      ESP Fit Center  839 is at   2.137144 -1.874565 -5.821595
      ESP Fit Center  840 is at   2.769412 -1.004323 -5.821595
      ESP Fit Center  841 is at  -1.308448 -0.942100 -6.729980
      ESP Fit Center  842 is at  -0.583754 -1.666794 -6.729980
      ESP Fit Center  843 is at   0.406195 -1.932050 -6.729980
      ESP Fit Center  844 is at   1.396144 -1.666794 -6.729980
      ESP Fit Center  845 is at   2.120838 -0.942100 -6.729980
      ESP Fit Center  846 is at  -0.129562 -0.880109 -7.336944
      ESP Fit Center  847 is at   2.798135  1.344379 -6.592318
      ESP Fit Center  848 is at   2.036832  2.358835 -7.554644
      ESP Fit Center  849 is at   2.747314  0.821793 -6.946270
      ESP Fit Center  850 is at   2.490083 -0.138207 -6.946270
      ESP Fit Center  851 is at   2.490083  0.821793 -7.906270
      ESP Fit Center  852 is at   2.172522  1.799144 -7.906270
      ESP Fit Center  853 is at  -0.517894 -0.155558 -7.906270
      ESP Fit Center  854 is at   0.313490 -0.759594 -7.906270
      ESP Fit Center  855 is at   1.341138 -0.759594 -7.906270
      ESP Fit Center  856 is at   2.172522 -0.155558 -7.906270
      ESP Fit Center  857 is at   1.307314 -0.009591 -8.609039
      ESP Fit Center  858 is at   0.687159  3.687759 -4.844352
      ESP Fit Center  859 is at   3.120983  2.106372 -5.804352
      ESP Fit Center  860 is at   2.863752  3.066372 -5.804352
      ESP Fit Center  861 is at   2.160983  3.769141 -5.804352
      ESP Fit Center  862 is at   1.200983  4.026372 -5.804352
      ESP Fit Center  863 is at   2.863752  1.146372 -5.804352
      ESP Fit Center  864 is at   2.863752  2.106372 -6.764352
      ESP Fit Center  865 is at   2.546191  3.083723 -6.764352
      ESP Fit Center  866 is at  -3.242436  1.985464 -5.800031
      ESP Fit Center  867 is at  -3.308168  1.223699 -5.628271
      ESP Fit Center  868 is at  -2.990607  0.246348 -5.628271
      ESP Fit Center  869 is at  -3.308168  2.183699 -6.588271
      ESP Fit Center  870 is at  -3.565399  1.223699 -6.588271
      ESP Fit Center  871 is at  -3.308168  0.263699 -6.588271
      ESP Fit Center  872 is at  -2.605399 -0.439070 -6.588271
      ESP Fit Center  873 is at  -1.645399 -0.696301 -6.588271
      ESP Fit Center  874 is at  -1.131575 -0.357688 -7.548271
      ESP Fit Center  875 is at  -1.751491  3.339061 -3.783089
      ESP Fit Center  876 is at  -2.231491  2.507677 -3.783089
      ESP Fit Center  877 is at   0.073717  3.485028 -4.485858
      ESP Fit Center  878 is at  -0.757667  4.089064 -4.485858
      ESP Fit Center  879 is at  -1.785315  4.089064 -4.485858
      ESP Fit Center  880 is at  -2.616699  3.485028 -4.485858
      ESP Fit Center  881 is at  -2.934260  2.507677 -4.485858
      ESP Fit Center  882 is at  -2.616699  1.530326 -4.485858
      ESP Fit Center  883 is at  -2.934260  3.467677 -5.445858
      ESP Fit Center  884 is at  -3.191491  2.507677 -5.445858
      ESP Fit Center  885 is at  -0.319190  4.208726 -5.054162
      ESP Fit Center  886 is at   0.859696  4.270717 -5.661126
      ESP Fit Center  887 is at   0.135002  4.995411 -5.661126
      ESP Fit Center  888 is at  -0.854947  5.260667 -5.661126
      ESP Fit Center  889 is at  -1.844896  4.995411 -5.661126
      ESP Fit Center  890 is at  -2.569590  4.270717 -5.661126
      ESP Fit Center  891 is at   1.508270  4.332940 -6.569511
      ESP Fit Center  892 is at   0.876002  5.203182 -6.569511
      ESP Fit Center  893 is at  -0.055562  5.741021 -6.569511
      ESP Fit Center  894 is at  -1.125348  5.853460 -6.569511
      ESP Fit Center  895 is at  -2.148378  5.521057 -6.569511
      ESP Fit Center  896 is at  -2.947763  4.801288 -6.569511
      ESP Fit Center  897 is at  -3.385281  3.818607 -6.569511
      ESP Fit Center  898 is at  -3.385281  2.742929 -6.569511
      ESP Fit Center  899 is at   1.945053  3.280768 -7.641025
      ESP Fit Center  900 is at   1.755975  4.292245 -7.641025
      ESP Fit Center  901 is at   1.214278  5.167116 -7.641025
      ESP Fit Center  902 is at   0.393120  5.787225 -7.641025
      ESP Fit Center  903 is at  -0.596596  6.068824 -7.641025
      ESP Fit Center  904 is at  -1.621203  5.973880 -7.641025
      ESP Fit Center  905 is at  -2.542324  5.515216 -7.641025
      ESP Fit Center  906 is at  -3.235555  4.754778 -7.641025
      ESP Fit Center  907 is at  -3.607272  3.795267 -7.641025
      ESP Fit Center  908 is at  -3.607272  2.766269 -7.641025
      ESP Fit Center  909 is at   1.731916  3.280768 -8.712539
      ESP Fit Center  910 is at   1.508270  4.332940 -8.712539
      ESP Fit Center  911 is at   0.876002  5.203182 -8.712539
      ESP Fit Center  912 is at  -0.055562  5.741021 -8.712539
      ESP Fit Center  913 is at  -1.125348  5.853460 -8.712539
      ESP Fit Center  914 is at  -2.148378  5.521057 -8.712539
      ESP Fit Center  915 is at  -2.947763  4.801288 -8.712539
      ESP Fit Center  916 is at  -3.385281  3.818607 -8.712539
      ESP Fit Center  917 is at   0.135002  4.995411 -9.620924
      ESP Fit Center  918 is at  -0.854947  5.260667 -9.620924
      ESP Fit Center  919 is at  -1.844896  4.995411 -9.620924
      ESP Fit Center  920 is at  -2.569590  4.270717 -9.620924
      ESP Fit Center  921 is at   1.463455  3.003012 -9.948202
      ESP Fit Center  922 is at   1.206224  3.963012 -9.948202
      ESP Fit Center  923 is at   0.503455  4.665781 -9.948202
      ESP Fit Center  924 is at  -0.456545  4.923012 -9.948202
      ESP Fit Center  925 is at   1.206224  3.003012-10.908202
      ESP Fit Center  926 is at   0.888663  3.980363-10.908202
      ESP Fit Center  927 is at   0.057279  4.584399-10.908202
      ESP Fit Center  928 is at  -0.970369  4.584399-10.908202
      ESP Fit Center  929 is at  -1.801753  3.980363-10.908202
      ESP Fit Center  930 is at   0.503455  3.003012-11.610971
      ESP Fit Center  931 is at   0.023455  3.834396-11.610971
      ESP Fit Center  932 is at  -0.936545  3.834396-11.610971
      ESP Fit Center  933 is at  -1.416545  3.003012-11.610971
      ESP Fit Center  934 is at   0.023455  2.171628-11.610971
      ESP Fit Center  935 is at  -0.456545  3.003012-11.868202
      ESP Fit Center  936 is at   2.051796  1.589517 -9.086405
      ESP Fit Center  937 is at   1.794565  2.549517 -9.086405
      ESP Fit Center  938 is at   0.131796 -0.330483 -9.086405
      ESP Fit Center  939 is at   1.091796 -0.073252 -9.086405
      ESP Fit Center  940 is at   1.794565  0.629517 -9.086405
      ESP Fit Center  941 is at   1.794565  1.589517-10.046405
      ESP Fit Center  942 is at   0.645620  0.008130-10.046405
      ESP Fit Center  943 is at   1.477004  0.612166-10.046405
      ESP Fit Center  944 is at   1.091796  1.589517-10.749174
      ESP Fit Center  945 is at   0.611796  0.758133-10.749174
      ESP Fit Center  946 is at  -0.534310 -0.308373 -9.028069
      ESP Fit Center  947 is at  -4.101279  0.505764-10.096169
      ESP Fit Center  948 is at  -3.452026 -0.308373-10.096169
      ESP Fit Center  949 is at  -3.793556  0.992335-11.058495
      ESP Fit Center  950 is at  -1.472508  2.422787-11.724444
      ESP Fit Center  951 is at  -2.513828  2.422787-11.724444
      ESP Fit Center  952 is at  -3.791307  2.212411 -8.030020
      ESP Fit Center  953 is at  -4.176515  3.189762 -8.732789
      ESP Fit Center  954 is at  -4.494076  2.212411 -8.732789
      ESP Fit Center  955 is at  -2.831307  4.132411 -9.692789
      ESP Fit Center  956 is at  -3.791307  3.875180 -9.692789
      ESP Fit Center  957 is at  -4.494076  3.172411 -9.692789
      ESP Fit Center  958 is at  -4.751307  2.212411 -9.692789
      ESP Fit Center  959 is at  -4.494076  1.252411 -9.692789
      ESP Fit Center  960 is at  -2.317483  3.793798-10.652789
      ESP Fit Center  961 is at  -3.345131  3.793798-10.652789
      ESP Fit Center  962 is at  -4.176515  3.189762-10.652789
      ESP Fit Center  963 is at  -4.494076  2.212411-10.652789
      ESP Fit Center  964 is at  -4.176515  1.235060-10.652789
      ESP Fit Center  965 is at  -3.311307  3.043795-11.355558
      ESP Fit Center  966 is at  -3.791307  2.212411-11.355558
      ESP Fit Center  967 is at  -2.801715 -0.684220-10.503999
      ESP Fit Center  968 is at  -1.841715 -0.941451-10.503999
      ESP Fit Center  969 is at  -0.881715 -0.684220-10.503999
      ESP Fit Center  970 is at  -0.178946  0.018549-10.503999
      ESP Fit Center  971 is at  -0.178946  0.978549-11.463999
      ESP Fit Center  972 is at  -3.504484  0.978549-11.463999
      ESP Fit Center  973 is at  -3.186923  0.001198-11.463999
      ESP Fit Center  974 is at  -2.355539 -0.602838-11.463999
      ESP Fit Center  975 is at  -1.327891 -0.602838-11.463999
      ESP Fit Center  976 is at  -0.496507  0.001198-11.463999
      ESP Fit Center  977 is at  -0.881715  0.978549-12.166768
      ESP Fit Center  978 is at  -1.361715  1.809933-12.166768
      ESP Fit Center  979 is at  -2.321715  1.809933-12.166768
      ESP Fit Center  980 is at  -2.801715  0.978549-12.166768
      ESP Fit Center  981 is at  -2.321715  0.147165-12.166768
      ESP Fit Center  982 is at  -1.361715  0.147165-12.166768
      ESP Fit Center  983 is at  -1.841715  0.978549-12.423999
      ESP Fit Center  984 is at  -3.940220  0.786205 -7.841269
      ESP Fit Center  985 is at  -3.622659 -0.191146 -7.841269
      ESP Fit Center  986 is at  -2.791275 -0.795182 -7.841269
      ESP Fit Center  987 is at  -1.763627 -0.795182 -7.841269
      ESP Fit Center  988 is at  -0.932243 -0.191146 -7.841269
      ESP Fit Center  989 is at  -4.197451  0.786205 -8.801269
      ESP Fit Center  990 is at  -3.940220 -0.173795 -8.801269
      ESP Fit Center  991 is at  -3.237451 -0.876564 -8.801269
      ESP Fit Center  992 is at  -2.277451 -1.133795 -8.801269
      ESP Fit Center  993 is at  -1.317451 -0.876564 -8.801269
      ESP Fit Center  994 is at  -2.791275 -0.795182 -9.761269
      ESP Fit Center  995 is at  -1.270506  0.342612 10.604568
      ESP Fit Center  996 is at  -0.237260  0.342612 10.604568
      ESP Fit Center  997 is at  -2.585736  0.699548 10.019281
      ESP Fit Center  998 is at  -3.001327  2.319741  9.143338
      ESP Fit Center  999 is at  -3.248358  1.237429  9.143338
      ESP Fit Center 1000 is at  -0.753883  3.937429  8.110093
      ESP Fit Center 1001 is at  -3.453883  1.237429  8.110093
      ESP Fit Center 1002 is at  -0.198810  3.669362  7.076848
      ESP Fit Center 1003 is at  -0.808735  1.803391 11.207415
      ESP Fit Center 1004 is at   0.271265  1.803391 10.918030
      ESP Fit Center 1005 is at  -0.268735  2.738698 10.918030
      ESP Fit Center 1006 is at  -1.348735  2.738698 10.918030
      ESP Fit Center 1007 is at  -1.888735  1.803391 10.918030
      ESP Fit Center 1008 is at  -1.348735  0.868084 10.918030
      ESP Fit Center 1009 is at  -0.268735  0.868084 10.918030
      ESP Fit Center 1010 is at   0.764926  2.814722 10.127415
      ESP Fit Center 1011 is at  -0.031653  3.504962 10.127415
      ESP Fit Center 1012 is at  -1.074951  3.654966 10.127415
      ESP Fit Center 1013 is at  -2.033727  3.217107 10.127415
      ESP Fit Center 1014 is at  -2.603577  2.330404 10.127415
      ESP Fit Center 1015 is at  -2.603577  1.276378 10.127415
      ESP Fit Center 1016 is at   0.418285  3.581036  9.047415
      ESP Fit Center 1017 is at  -0.548376  3.947642  9.047415
      ESP Fit Center 1018 is at  -1.574682  3.823026  9.047415
      ESP Fit Center 1019 is at  -2.425518  3.235736  9.047415
      ESP Fit Center 1020 is at  -1.035029  3.951388  7.347109
      ESP Fit Center 1021 is at  -2.061335  3.826772  7.347109
      ESP Fit Center 1022 is at  -2.912171  3.239482  7.347109
      ESP Fit Center 1023 is at  -3.392622  2.324059  7.347109
      ESP Fit Center 1024 is at  -3.392622  1.290215  7.347109
      ESP Fit Center 1025 is at  -0.518306  3.508708  6.267109
      ESP Fit Center 1026 is at  -1.561604  3.658712  6.267109
      ESP Fit Center 1027 is at  -2.520380  3.220853  6.267109
      ESP Fit Center 1028 is at  -3.090230  2.334150  6.267109
      ESP Fit Center 1029 is at  -3.090230  1.280124  6.267109
      ESP Fit Center 1030 is at  -1.835388  2.742444  5.476494
      ESP Fit Center 1031 is at  -2.347481  0.280924 10.124912
      ESP Fit Center 1032 is at  -1.807481 -0.654383 10.124912
      ESP Fit Center 1033 is at  -0.727481 -0.654383 10.124912
      ESP Fit Center 1034 is at  -3.062323 -0.246089  9.334297
      ESP Fit Center 1035 is at  -2.492473 -1.132792  9.334297
      ESP Fit Center 1036 is at  -1.533697 -1.570651  9.334297
      ESP Fit Center 1037 is at  -0.490399 -1.420647  9.334297
      ESP Fit Center 1038 is at  -3.364715 -0.235998  8.254297
      ESP Fit Center 1039 is at  -2.884264 -1.151421  8.254297
      ESP Fit Center 1040 is at  -2.033428 -1.738711  8.254297
      ESP Fit Center 1041 is at  -1.007122 -1.863327  8.254297
      ESP Fit Center 1042 is at  -3.062323 -0.246089  7.174297
      ESP Fit Center 1043 is at  -2.492473 -1.132792  7.174297
      ESP Fit Center 1044 is at  -1.533697 -1.570651  7.174297
      ESP Fit Center 1045 is at  -1.807481 -0.654383  6.383682
      ESP Fit Center 1046 is at   1.222232  1.899429 10.217214
      ESP Fit Center 1047 is at   2.311720  2.036797  9.631927
[...]
 1246 Fit      -0.017822
 1247 Fit      -0.018519
 1248 Fit      -0.017294
 1249 Fit      -0.015860
 1250 Fit      -0.015231
 1251 Fit      -0.015240
 1252 Fit      -0.014885
 1253 Fit      -0.013749
 1254 Fit      -0.006933
 1255 Fit      -0.014470
 1256 Fit      -0.018103
 1257 Fit      -0.018366
 1258 Fit      -0.016718
 1259 Fit      -0.014833
 1260 Fit      -0.013714
 1261 Fit      -0.013193
 1262 Fit      -0.012347
 1263 Fit      -0.005040
 1264 Fit      -0.010615
 1265 Fit      -0.013054
 1266 Fit      -0.012722
 1267 Fit      -0.010962
 1268 Fit      -0.009008
 1269 Fit      -0.006776
 1270 Fit      -0.002368
 1271 Fit       0.000041
 1272 Fit      -0.003101
 1273 Fit      -0.004420
 1274 Fit       0.002216
 1275 Fit       0.002414
 1276 Fit       0.002095
 1277 Fit       0.002515
 1278 Fit       0.004274
 1279 Fit      -0.000347
 1280 Fit       0.001378
 1281 Fit       0.004204
 1282 Fit       0.005548
 1283 Fit       0.001001
 1284 Fit      -0.001295
 1285 Fit      -0.003940
 1286 Fit      -0.006714
 1287 Fit      -0.005491
 1288 Fit      -0.003225
 1289 Fit      -0.005477
 1290 Fit       0.002210
 1291 Fit       0.003722
 1292 Fit       0.002260
 1293 Fit      -0.002530
 1294 Fit      -0.010232
 1295 Fit      -0.012886
 1296 Fit      -0.007368
 1297 Fit      -0.011043
 1298 Fit      -0.014683
 1299 Fit      -0.015230
 1300 Fit      -0.013721
 1301 Fit      -0.011701
 1302 Fit      -0.009978
 1303 Fit      -0.007862
 1304 Fit      -0.004197
 1305 Fit      -0.012595
 1306 Fit      -0.017065
 1307 Fit      -0.018203
 1308 Fit      -0.017137
 1309 Fit      -0.015554
 1310 Fit      -0.014731
 1311 Fit      -0.014776
 1312 Fit      -0.014558
 1313 Fit      -0.012304
 1314 Fit      -0.010759
 1315 Fit      -0.004039
 1316 Fit      -0.015327
 1317 Fit      -0.017495
 1318 Fit      -0.016970
 1319 Fit      -0.015720
 1320 Fit      -0.015185
 1321 Fit      -0.015582
 1322 Fit      -0.015906
 1323 Fit      -0.014632
 1324 Fit      -0.006817
 1325 Fit      -0.008275
 1326 Fit      -0.012216
 1327 Fit      -0.012429
 1328 Fit      -0.011804
 1329 Fit      -0.011664
 1330 Fit      -0.011653
 1331 Fit      -0.010399
 1332 Fit      -0.000228
 1333 Fit      -0.004397
 1334 Fit      -0.004653
 1335 Fit      -0.003832
 1336 Fit      -0.001592
 1337 Fit       0.001780
 1338 Fit       0.000678
 1339 Fit      -0.001781
 1340 Fit       0.005366
 1341 Fit       0.002896
 1342 Fit       0.009234
 1343 Fit       0.006806
 1344 Fit       0.005965
 1345 Fit       0.005736
 1346 Fit       0.005432
 1347 Fit       0.002351
 1348 Fit       0.003163
 1349 Fit       0.000067
 1350 Fit       0.001103
 1351 Fit      -0.002128
 1352 Fit      -0.000861
 1353 Fit      -0.001872
 1354 Fit      -0.007378
 1355 Fit      -0.002419
 1356 Fit       0.001452
 1357 Fit       0.001489
 1358 Fit      -0.002429
 1359 Fit       0.008378
 1360 Fit       0.003764
 1361 Fit       0.001977
 1362 Fit       0.001771
 1363 Fit       0.001898
 1364 Fit       0.000891
 1365 Fit      -0.003262
 1366 Fit      -0.001843
 1367 Fit      -0.007090
 1368 Fit      -0.007571
 1369 Fit      -0.006720
 1370 Fit      -0.004454
 1371 Fit      -0.008759
 1372 Fit      -0.013611
 1373 Fit      -0.014232
 1374 Fit      -0.013787
 1375 Fit      -0.013811
 1376 Fit      -0.014020
 1377 Fit      -0.012992
 1378 Fit      -0.009522
 1379 Fit      -0.014543
 1380 Fit      -0.017437
 1381 Fit      -0.017420
 1382 Fit      -0.016596
 1383 Fit      -0.016531
 1384 Fit      -0.017493
 1385 Fit      -0.018437
 1386 Fit      -0.017728
 1387 Fit      -0.014205
 1388 Fit      -0.007589
 1389 Fit      -0.009211
 1390 Fit      -0.014465
 1391 Fit      -0.016270
 1392 Fit      -0.015896
 1393 Fit      -0.015171
 1394 Fit      -0.015432
 1395 Fit      -0.016754
 1396 Fit      -0.017891
 1397 Fit      -0.016952
 1398 Fit      -0.012736
 1399 Fit       0.000089
 1400 Fit      -0.004528
 1401 Fit      -0.008810
 1402 Fit      -0.010106
 1403 Fit      -0.010023
 1404 Fit      -0.010227
 1405 Fit      -0.011364
 1406 Fit      -0.012385
 1407 Fit      -0.010607
 1408 Fit      -0.002302
 1409 Fit      -0.003771
 1410 Fit       0.007752
 1411 Fit      -0.001145
 1412 Fit      -0.001915
 1413 Fit       0.005130
 1414 Fit       0.004306
 1415 Fit       0.004055
 1416 Fit       0.003828
 1417 Fit       0.003645
 1418 Fit       0.006973
 1419 Fit       0.006634
 1420 Fit       0.006384
 1421 Fit       0.006584
 1422 Fit       0.008045
 1423 Fit       0.007533
 1424 Fit       0.005817
 1425 Fit      -0.000217
 1426 Fit       0.010119
 1427 Fit       0.010921
 1428 Fit       0.009578
 1429 Fit       0.006142
 1430 Fit       0.008982
 1431 Fit       0.008251
 1432 Fit       0.007054
 1433 Fit       0.008426
 1434 Fit      -0.006725
 1435 Fit       0.010427
 1436 Fit       0.000352
 1437 Fit       0.005293
 1438 Fit       0.000871
 1439 Fit       0.001913
 1440 Fit       0.004191
 1441 Fit       0.001820
 1442 Fit       0.003587
 1443 Fit      -0.009822
 1444 Fit      -0.003954
 1445 Fit      -0.001728
 1446 Fit      -0.004792
 1447 Fit      -0.001587
 1448 Fit       0.000113
 1449 Fit       0.000387
 1450 Fit       0.000820
 1451 Fit       0.001291
 1452 Fit       0.001817
 1453 Fit       0.001438
 1454 Fit       0.002481
 1455 Fit       0.002091
 1456 Fit       0.003179
 1457 Fit       0.004490
 1458 Fit       0.006363
 1459 Fit       0.008431
 1460 Fit       0.002552
 1461 Fit       0.003866
 1462 Fit       0.005213
 1463 Fit       0.006467
 1464 Fit       0.007627
 1465 Fit       0.007352
 1466 Fit       0.006509
 1467 Fit       0.004349
 1468 Fit       0.004180
 1469 Fit       0.005567
 1470 Fit       0.006881
 1471 Fit       0.006056
 1472 Fit      -0.001273
 1473 Fit       0.002119
 1474 Fit       0.003427
 1475 Fit       0.003501
 1476 Fit       0.004497
 1477 Fit       0.000957
 1478 Fit       0.002431
 1479 Fit       0.003162
 1480 Fit       0.003709
 1481 Fit       0.005685
 1482 Fit       0.005702
 1483 Fit       0.006922
 1484 Fit       0.004794
 1485 Fit       0.006247
 1486 Fit       0.004668
 1487 Fit       0.004415
 1488 Fit       0.008120
 1489 Fit       0.007072
 1490 Fit       0.006255
 1491 Fit       0.005425
 1492 Fit       0.004690
 1493 Fit       0.004582
 1494 Fit       0.008514
 1495 Fit       0.005335
 1496 Fit       0.007200
 1497 Fit       0.007655
 1498 Fit       0.008581
 1499 Fit       0.008539
 1500 Fit       0.007797
 1501 Fit       0.006737
 1502 Fit       0.006312
 1503 Fit       0.007395
 1504 Fit       0.009461
 1505 Fit       0.008807
 1506 Fit       0.008080
 1507 Fit       0.007202
 1508 Fit       0.006182
 1509 Fit       0.005298
 1510 Fit       0.009571
 1511 Fit       0.008408
 1512 Fit       0.007509
 1513 Fit       0.006658
 1514 Fit       0.005716
 1515 Fit       0.007302
 1516 Fit       0.006840
 1517 Fit       0.006298
 1518 Fit       0.009097
 1519 Fit       0.008510
 1520 Fit       0.008338
 1521 Fit       0.008063
 1522 Fit       0.007520
 1523 Fit       0.010150
 1524 Fit       0.010255
 1525 Fit       0.010384
 1526 Fit       0.010367
 1527 Fit       0.004868
 1528 Fit       0.004827
 1529 Fit       0.004937
 1530 Fit       0.004300
 1531 Fit       0.003771
 1532 Fit       0.004737
 1533 Fit       0.005120
 1534 Fit       0.004823
 1535 Fit       0.003419
 1536 Fit       0.000895
 1537 Fit       0.005225
 1538 Fit       0.005212
 1539 Fit       0.004351
 1540 Fit       0.001691
 1541 Fit      -0.004349
 1542 Fit       0.005872
 1543 Fit       0.004097
 1544 Fit      -0.001126
 1545 Fit       0.009750
 1546 Fit       0.008014
 1547 Fit       0.009385
 1548 Fit       0.006145
 1549 Fit       0.001573
 1550 Fit      -0.001439
 1551 Fit       0.007054
 1552 Fit       0.008216
 1553 Fit       0.009394
 1554 Fit       0.003909
 1555 Fit       0.005885
 1556 Fit       0.007249
 1557 Fit       0.008196
 1558 Fit       0.008930
 1559 Fit       0.002819
 1560 Fit       0.005602
 1561 Fit       0.007164
 1562 Fit       0.008163
 1563 Fit       0.009005
 1564 Fit       0.007896
 1565 Fit       0.006986
 1566 Fit       0.008437
 1567 Fit       0.006654
 1568 Fit       0.006276
 1569 Fit       0.005467
 1570 Fit       0.006821
 1571 Fit       0.003889
 1572 Fit       0.003771
 1573 Fit       0.004450
 1574 Fit       0.003027
 1575 Fit      -0.000676
 1576 Fit      -0.001051
 1577 Fit      -0.000104
 1578 Fit       0.001370
 1579 Fit      -0.004655
 1580 Fit      -0.007155
 1581 Fit      -0.010211
 1582 Fit      -0.011069
 1583 Fit      -0.010314
 1584 Fit      -0.008125
 1585 Fit      -0.005610
 1586 Fit      -0.001346
 1587 Fit      -0.005825
 1588 Fit      -0.008802
 1589 Fit      -0.010631
 1590 Fit      -0.011289
 1591 Fit      -0.010559
 1592 Fit      -0.008590
 1593 Fit       0.007450
 1594 Fit       0.003104
 1595 Fit       0.005385
 1596 Fit       0.006789
 1597 Fit       0.007680
 1598 Fit       0.008532
 1599 Fit       0.004296
 1600 Fit       0.004243
 1601 Fit       0.004789
 1602 Fit       0.005363
 1603 Fit       0.006183
 1604 Fit       0.007896
 1605 Fit       0.001618
 1606 Fit       0.002188
 1607 Fit       0.002909
 1608 Fit       0.008821
 1609 Fit       0.005675
 1610 Fit       0.009551
 1611 Fit       0.011506
 1612 Fit       0.013051
 1613 Fit       0.000850
 1614 Fit       0.001627
 1615 Fit       0.003018
 1616 Fit       0.003525
 1617 Fit       0.003473
 1618 Fit      -0.001015
 1619 Fit      -0.000070
 1620 Fit      -0.005219
 1621 Fit      -0.002538
 1622 Fit       0.003033
 1623 Fit       0.003339
 1624 Fit       0.004060
 1625 Fit       0.001355
 1626 Fit       0.002389
 1627 Fit       0.004172
 1628 Fit       0.003648
 1629 Fit       0.002552
 1630 Fit       0.003381
 1631 Fit       0.004006
 1632 Fit       0.003771
 1633 Fit       0.001533
 1634 Fit       0.004125
 1635 Fit       0.000389
 1636 Fit      -0.000584
 1637 Fit      -0.002155
 1638 Fit      -0.004645
 1639 Fit       0.009726
 1640 Fit       0.006694
 1641 Fit       0.004823
 1642 Fit       0.003242
 1643 Fit       0.001739
 1644 Fit       0.000535
 1645 Fit       0.007658
 1646 Fit       0.005518
 1647 Fit       0.003977
 1648 Fit       0.003126
 1649 Fit       0.004252
 1650 Fit      -0.000211
 1651 Fit      -0.001404
 1652 Fit       0.009808
 1653 Fit       0.008540
 1654 Fit       0.009408
 1655 Fit       0.008084
 1656 Fit       0.012655
 1657 Fit       0.011347
 1658 Fit       0.010334
 1659 Fit       0.010546
 1660 Fit       0.011494
 1661 Fit       0.011661
 1662 Fit       0.011282
 1663 Fit       0.010621
 1664 Fit       0.010932
 1665 Fit       0.011767
 1666 Fit       0.011789
 1667 Fit       0.008210
 1668 Fit       0.008206
 1669 Fit       0.006675
 1670 Fit       0.005968
 1671 Fit       0.005740
 1672 Fit       0.006176
 1673 Fit       0.004162
 1674 Fit       0.003094
 1675 Fit       0.002503
 1676 Fit       0.002406
 1677 Fit      -0.001133
 1678 Fit      -0.003089
 1679 Fit      -0.004272
 1680 Fit       0.008546
 1681 Fit       0.005236
 1682 Fit       0.000395
 1683 Fit      -0.000949
 1684 Fit      -0.007998
 1685 Fit       0.000981
 1686 Fit       0.003682
 1687 Fit       0.007266
 1688 Fit      -0.000284
 1689 Fit       0.002797
 1690 Fit      -0.003196
 1691 Fit       0.011869
 1692 Fit       0.006492
 1693 Fit       0.007853
 1694 Fit       0.008352
 1695 Fit       0.007975
 1696 Fit       0.006942
 1697 Fit       0.002472
 1698 Fit       0.004562
 1699 Fit       0.005060
 1700 Fit       0.004051
 1701 Fit       0.001278
 1702 Fit      -0.001199
 1703 Fit       0.001034
 1704 Fit       0.000202
 1705 Fit      -0.004028
 1706 Fit      -0.007023
 1707 Fit      -0.004787
 1708 Fit      -0.009757
 1709 Fit      -0.010870
 1710 Fit      -0.008369
 1711 Fit      -0.012919
 1712 Fit      -0.014836
 1713 Fit      -0.012740
 1714 Fit      -0.004293
 1715 Fit       0.000330
 1716 Fit       0.007708
 1717 Fit      -0.006785
 1718 Fit      -0.000827
 1719 Fit       0.005702
 1720 Fit       0.008461
 1721 Fit      -0.003710
 1722 Fit       0.000172
 1723 Fit       0.003120
 1724 Fit       0.006121
 1725 Fit      -0.004409
 1726 Fit      -0.000976
 1727 Fit       0.002805
 1728 Fit       0.003744
 1729 Fit       0.003511
 1730 Fit       0.004138
 1731 Fit       0.006505
 1732 Fit       0.001270
 1733 Fit       0.002848
 1734 Fit       0.004235
 1735 Fit       0.005445
 1736 Fit       0.004475
 1737 Fit       0.002233
 1738 Fit       0.002418
 1739 Fit       0.001115
 1740 Fit      -0.001671
 1741 Fit       0.004164
 1742 Fit       0.001729
 1743 Fit       0.005754
 1744 Fit       0.004449
 1745 Fit       0.001349
 1746 Fit      -0.003649
 1747 Fit       0.007633
 1748 Fit       0.006300
 1749 Fit       0.004257
 1750 Fit       0.000050
 1751 Fit       0.008127
 1752 Fit       0.006555
 1753 Fit       0.004078
 1754 Fit       0.007384
 1755 Fit      -0.000472
 1756 Fit       0.001554
 1757 Fit       0.000939
 1758 Fit       0.000417
 1759 Fit       0.000303
 1760 Fit      -0.004141
 1761 Fit      -0.004519
 1762 Fit      -0.003445
 1763 Fit      -0.005904
 1764 Fit      -0.008868
 1765 Fit      -0.009739
 1766 Fit      -0.009448
 1767 Fit      -0.008737
 1768 Fit      -0.007412
 1769 Fit      -0.008778
 1770 Fit      -0.012394
 1771 Fit      -0.013614
 1772 Fit      -0.013333
 1773 Fit      -0.012515
 1774 Fit      -0.011812
 1775 Fit      -0.011243
 1776 Fit      -0.010210
 1777 Fit      -0.004223
 1778 Fit      -0.010233
 1779 Fit      -0.013757
 1780 Fit      -0.015096
 1781 Fit      -0.014875
 1782 Fit      -0.013902
 1783 Fit      -0.012892
 1784 Fit      -0.012195
 1785 Fit      -0.011692
 1786 Fit      -0.010989
 1787 Fit      -0.009988
 1788 Fit      -0.004770
 1789 Fit      -0.009894
 1790 Fit      -0.012773
 1791 Fit      -0.013541
 1792 Fit      -0.012881
 1793 Fit      -0.011664
 1794 Fit      -0.010468
 1795 Fit      -0.009241
 1796 Fit      -0.007396
 1797 Fit      -0.006230
 1798 Fit      -0.008294
 1799 Fit      -0.008685
 1800 Fit      -0.007930
 1801 Fit      -0.006405
 1802 Fit      -0.003458
 1803 Fit       0.000991
 1804 Fit      -0.002873
 1805 Fit       0.000157
 1806 Fit       0.000046
 1807 Fit      -0.001173
 1808 Fit      -0.002196
 1809 Fit      -0.002448
 1810 Fit      -0.001409
 1811 Fit       0.001843
 1812 Fit       0.001950
 1813 Fit       0.001172
 1814 Fit       0.004744
 1815 Fit       0.006514
 1816 Fit       0.006586
 1817 Fit       0.001941
 1818 Fit      -0.000354
 1819 Fit       0.002033
 1820 Fit      -0.000727
 1821 Fit      -0.004279
 1822 Fit      -0.006979
 1823 Fit      -0.005525
 1824 Fit      -0.001466
 1825 Fit      -0.000380
 1826 Fit      -0.001825
 1827 Fit      -0.008436
 1828 Fit      -0.011999
 1829 Fit      -0.014978
 1830 Fit      -0.012099
 1831 Fit      -0.012903
 1832 Fit      -0.011678
 1833 Fit      -0.009272
 1834 Fit      -0.006268
 1835 Fit      -0.007026
 1836 Fit      -0.011483
 1837 Fit      -0.013713
 1838 Fit      -0.014039
 1839 Fit      -0.013154
 1840 Fit      -0.011933
 1841 Fit      -0.010934
 1842 Fit      -0.010067
 1843 Fit      -0.008598
 1844 Fit      -0.005370
 1845 Fit      -0.006769
 1846 Fit      -0.006229
 1847 Fit      -0.010767
 1848 Fit      -0.013564
 1849 Fit      -0.014493
 1850 Fit      -0.014122
 1851 Fit      -0.013281
 1852 Fit      -0.012641
 1853 Fit      -0.012429
 1854 Fit      -0.012349
 1855 Fit      -0.011740
 1856 Fit      -0.009936
 1857 Fit      -0.007023
 1858 Fit      -0.002571
 1859 Fit      -0.010756
 1860 Fit      -0.012357
 1861 Fit      -0.012275
 1862 Fit      -0.011738
 1863 Fit      -0.011475
 1864 Fit      -0.011500
 1865 Fit      -0.011225
 1866 Fit      -0.009879
 1867 Fit      -0.002983
 1868 Fit      -0.007075
 1869 Fit      -0.008127
 1870 Fit      -0.008010
 1871 Fit      -0.007756
 1872 Fit      -0.007269
 1873 Fit      -0.005830
 1874 Fit      -0.001300
 1875 Fit      -0.001980
 1876 Fit      -0.001194
 1877 Fit      -0.000269
 1878 Fit      -0.000913
 1879 Fit       0.001734
 1880 Fit       0.000841
 1881 Fit       0.005444
 1882 Fit       0.007002
 1883 Fit       0.006146
 1884 Fit       0.005872
 1885 Fit      -0.001409
 1886 Fit       0.000796
 1887 Fit       0.000225
 1888 Fit      -0.003591
 1889 Fit      -0.004034
 1890 Fit      -0.001806
 1891 Fit      -0.004430
 1892 Fit      -0.003520
 1893 Fit      -0.001242
 1894 Fit      -0.000986
 1895 Fit      -0.004007
 1896 Fit      -0.000511
 1897 Fit       0.000013
 1898 Fit       0.002663
 1899 Fit       0.001038
 1900 Fit       0.001150
 1901 Fit       0.001365
 1902 Fit       0.000376
 1903 Fit      -0.002257
 1904 Fit      -0.001201
 1905 Fit       0.000943
 1906 Fit      -0.004793
 1907 Fit      -0.005649
 1908 Fit      -0.004706
 1909 Fit      -0.009183
 1910 Fit      -0.010624
 1911 Fit      -0.010583
 1912 Fit      -0.010355
 1913 Fit      -0.009929
 1914 Fit      -0.008559
 1915 Fit      -0.005711
 1916 Fit      -0.008736
 1917 Fit      -0.012496
 1918 Fit      -0.013565
 1919 Fit      -0.013422
 1920 Fit      -0.013239
 1921 Fit      -0.013471
 1922 Fit      -0.013790
 1923 Fit      -0.013391
 1924 Fit      -0.011517
 1925 Fit      -0.007876
 1926 Fit      -0.006382
 1927 Fit      -0.010856
 1928 Fit      -0.013302
 1929 Fit      -0.013990
 1930 Fit      -0.013767
 1931 Fit      -0.013509
 1932 Fit      -0.013727
 1933 Fit      -0.014369
 1934 Fit      -0.014864
 1935 Fit      -0.014404
 1936 Fit      -0.012369
 1937 Fit      -0.008804
 1938 Fit      -0.005347
 1939 Fit      -0.009325
 1940 Fit      -0.011106
 1941 Fit      -0.011419
 1942 Fit      -0.011254
 1943 Fit      -0.011420
 1944 Fit      -0.012102
 1945 Fit      -0.012725
 1946 Fit      -0.012143
 1947 Fit      -0.004497
 1948 Fit      -0.005957
 1949 Fit      -0.006471
 1950 Fit      -0.006950
 1951 Fit      -0.007696
 1952 Fit      -0.007930
 1953 Fit      -0.000607
 1954 Fit      -0.001612
 1955 Fit      -0.001482
 1956 Fit       0.004427
 1957 Fit       0.006721
 1958 Fit       0.002682
 1959 Fit       0.000826
 1960 Fit       0.000000
 1961 Fit      -0.000212
 1962 Fit       0.004774
 1963 Fit       0.003954
 1964 Fit       0.003580
 1965 Fit       0.003355
 1966 Fit       0.003363
 1967 Fit       0.005959
 1968 Fit       0.005448
 1969 Fit       0.005293
 1970 Fit       0.007034
 1971 Fit       0.006342
 1972 Fit       0.004598
 1973 Fit       0.004685
 1974 Fit       0.001249
 1975 Fit       0.007976
 1976 Fit       0.008061
 1977 Fit       0.007028
 1978 Fit       0.005365
 1979 Fit       0.007564
 1980 Fit       0.006809
 1981 Fit      -0.000379
 1982 Fit       0.005434
 1983 Fit       0.000400
 1984 Fit       0.000736
 1985 Fit       0.001563
 1986 Fit       0.002432
 1987 Fit       0.003464
 1988 Fit       0.005221
 1989 Fit       0.001055
 1990 Fit       0.001494
 1991 Fit       0.003666
 1992 Fit       0.002084
 1993 Fit       0.003497
 1994 Fit      -0.005728
 1995 Fit      -0.006061
 1996 Fit      -0.002702
 1997 Fit      -0.001117
 1998 Fit      -0.002890
 1999 Fit      -0.001347
 2000 Fit       0.000008
 2001 Fit       0.000552
 2002 Fit       0.000538
 2003 Fit       0.001134
 2004 Fit       0.001089
 2005 Fit       0.001404
 2006 Fit       0.001303
 2007 Fit       0.002186
 2008 Fit       0.001922
 2009 Fit       0.002575
 2010 Fit       0.003535
 2011 Fit       0.004599
 2012 Fit       0.005970
 2013 Fit       0.007629
 2014 Fit       0.007161
 2015 Fit       0.002661
 2016 Fit       0.003620
 2017 Fit       0.004657
 2018 Fit       0.005646
 2019 Fit       0.006538
 2020 Fit       0.006218
 2021 Fit       0.005617
 2022 Fit       0.004052
 2023 Fit       0.003809
 2024 Fit       0.004756
 2025 Fit       0.005775
 2026 Fit       0.005156
 2027 Fit      -0.001218
 2028 Fit       0.001503
 2029 Fit       0.002107
 2030 Fit       0.001408
 2031 Fit      -0.000277
 2032 Fit       0.001312
 2033 Fit       0.002055
 2034 Fit       0.002207
 2035 Fit       0.002597
 2036 Fit       0.005309
 2037 Fit       0.001861
 2038 Fit       0.002427
 2039 Fit       0.003224
 Job cpu time:       0 days  0 hours 12 minutes 35.5 seconds.
 Normal termination of Gaussian 16 at Sun Jul  9 07:17:18 2023.
