 Copyright (c) 1988-2019, Gaussian, Inc.  All Rights Reserved.
  
 This is part of the Gaussian(R) 16 program.  It is based on
 the Gaussian(R) 09 system (copyright 2009, Gaussian, Inc.),
 the Gaussian(R) 03 system (copyright 2003, Gaussian, Inc.),
 the Gaussian(R) 98 system (copyright 1998, Gaussian, Inc.),
 the Gaussian(R) 94 system (copyright 1995, Gaussian, Inc.),
 the Gaussian 92(TM) system (copyright 1992, Gaussian, Inc.),
 the Gaussian 90(TM) system (copyright 1990, Gaussian, Inc.),
 the Gaussian 88(TM) system (copyright 1988, Gaussian, Inc.),
 the Gaussian 86(TM) system (copyright 1986, Carnegie Mellon
 University), and the Gaussian 82(TM) system (copyright 1983,
 Carnegie Mellon University). Gaussian is a federally registered
 trademark of Gaussian, Inc.
 Cite this work as:
 Gaussian 16, Revision C.01,
 M. J. Frisch, G. W. Trucks, H. B. Schlegel, G. E. Scuseria, 
 M. A. Robb, J. R. Cheeseman, G. Scalmani, V. Barone, 
 G. A. Petersson, H. Nakatsuji, X. Li, M. Caricato, A. V. Marenich, 
 J. Bloino, B. G. Janesko, R. Gomperts, B. Mennucci, H. P. Hratchian, 
 J. V. Ortiz, A. F. Izmaylov, J. L. Sonnenberg, D. Williams-Young, 
 F. Ding, F. Lipparini, F. Egidi, J. Goings, B. Peng, A. Petrone, 
 T. Henderson, D. Ranasinghe, V. G. Zakrzewski, J. Gao, N. Rega, 
 G. Zheng, W. Liang, M. Hada, M. Ehara, K. Toyota, R. Fukuda, 
 J. Hasegawa, M. Ishida, T. Nakajima, Y. Honda, O. Kitao, H. Nakai, 
 T. Vreven, K. Throssell, J. A. Montgomery, Jr., J. E. Peralta, 
 F. Ogliaro, M. J. Bearpark, J. J. Heyd, E. N. Brothers, K. N. Kudin, 
 V. N. Staroverov, T. A. Keith, R. Kobayashi, J. Normand, 
 K. Raghavachari, A. P. Rendell, J. C. Burant, S. S. Iyengar, 
 J. Tomasi, M. Cossi, J. M. Millam, M. Klene, C. Adamo, R. Cammi, 
 J. W. Ochterski, R. L. Martin, K. Morokuma, O. Farkas, 
 J. B. Foresman, and D. J. Fox, Gaussian, Inc., Wallingford CT, 2019.
 
 ******************************************
 Gaussian 16:  EM64L-G16RevC.01  3-Jul-2019
                 9-Jul-2023 
 ******************************************
 ----------------------------------------------------------------------
 #P B3LYP/6-31G(d) Integral=Ultrafine SCF(Conver=8,XQC,MaxConventionalC
 ycles=64,MaxCycle=128) NoSymm Test Pop=mk IOp(6/33=2) GFInput GFPrint
 ----------------------------------------------------------------------
 1/38=1,172=1/1;
 2/12=2,15=1,17=6,18=5,40=1/2;
 3/5=1,6=6,7=1,11=2,24=110,25=1,30=1,74=-5,75=-5/1,2,3;
 4//1;
 5/5=2,6=8,7=128,8=3,13=1,38=5,85=64/2,8;
 6/7=2,8=2,9=2,10=2,15=8,20=1,28=1,33=2/1,2;
 99/5=1,9=1/99;
 -------------------------------------------------
 MEP step - Input generated by PyRED DVE-DMDS-OPLS
 -------------------------------------------------
 Symbolic Z-matrix:
 Charge =  0 Multiplicity = 1
 C                    -2.81128  -6.54126   1.61952 
 H                    -3.3105   -5.63283   1.9721 
 H                    -3.01747  -6.65399   0.55022 
 H                    -3.23961  -7.39967   2.14836 
 C                    -1.31446  -6.45839   1.86855 
 H                    -1.10387  -6.35482   2.94628 
 H                    -0.81258  -7.37997   1.52709 
 O                    -0.80007  -5.33902   1.16349 
 C                     0.59837  -5.17445   1.31761 
 H                     1.13547  -6.04146   0.89204 
 H                     0.86737  -5.10304   2.38397 
 C                     1.04812  -3.90701   0.60405 
 H                     2.14339  -3.90753   0.55492 
 H                     0.66546  -3.91487  -0.42711 
 O                     0.68202  -2.71942   1.29001 
 C                    -0.60942  -2.19379   0.97517 
 H                    -0.92302  -1.62278   1.85608 
 H                    -1.32772  -3.0072    0.81847 
 C                    -0.60729  -1.26036  -0.23398 
 H                    -1.64823  -1.03795  -0.49964 
 H                    -0.14014  -1.75633  -1.10169 
 O                     0.        0.        0. 
 C                     1.42159   0.        0. 
 H                     1.8007   -0.51182  -0.90047 
 H                     1.8216   -0.52598   0.87422 
 C                     1.85616   1.46266   0. 
 H                     1.50398   1.94905   0.91598 
 H                     1.4083    1.97135  -0.85884 
 S                     3.69109   1.56006  -0.06725 
 C                     3.95079   3.33798   0.32488 
 H                     3.40113   3.59308   1.23672 
 H                     5.01816   3.41425   0.55323 
 C                     3.57371   4.2809   -0.81881 
 H                     2.51433   4.16958  -1.07009 
 H                     4.14664   4.04462  -1.72131 
 S                     3.75467   6.07295  -0.43696 
 C                     5.58085   6.32572  -0.53432 
 H                     5.71775   7.32616  -0.95484 
 H                     5.99235   5.61641  -1.25848 
 C                     6.29459   6.23684   0.81815 
 H                     5.83708   6.93919   1.52095 
 H                     6.20537   5.23992   1.26087 
 S                     8.08207   6.68659   0.74342 
 C                     8.90209   5.04741   0.57596 
 H                     9.95732   5.2671    0.77186 
 H                     8.55555   4.40338   1.39239 
 C                     8.75005   4.35224  -0.77627 
 H                     9.3499    3.43343  -0.79741 
 H                     7.71042   4.06894  -0.97199 
 H                     9.08432   5.00058  -1.59226 
 
 ITRead=  0  0  0  0  0  0  0  0  0  0  0  0  0  0  0  0  0  0  0  0
 ITRead=  0  0  0  0  0  0  0  0  0  0  0  0  0  0  0  0  0  0  0  0
 ITRead=  0  0  0  0  0  0  0  0  0  0
 MicOpt= -1 -1 -1 -1 -1 -1 -1 -1 -1 -1 -1 -1 -1 -1 -1 -1 -1 -1 -1 -1
 MicOpt= -1 -1 -1 -1 -1 -1 -1 -1 -1 -1 -1 -1 -1 -1 -1 -1 -1 -1 -1 -1
 MicOpt= -1 -1 -1 -1 -1 -1 -1 -1 -1 -1
 NAtoms=     50 NQM=       50 NQMF=       0 NMMI=      0 NMMIF=      0
                NMic=       0 NMicF=      0.
                          Input orientation:                          
 ---------------------------------------------------------------------
 Center     Atomic      Atomic             Coordinates (Angstroms)
 Number     Number       Type             X           Y           Z
 ---------------------------------------------------------------------
      1          6           0       -2.811275   -6.541258    1.619519
      2          1           0       -3.310502   -5.632825    1.972095
      3          1           0       -3.017467   -6.653985    0.550220
      4          1           0       -3.239614   -7.399672    2.148360
      5          6           0       -1.314455   -6.458394    1.868549
      6          1           0       -1.103873   -6.354820    2.946281
      7          1           0       -0.812582   -7.379974    1.527087
      8          8           0       -0.800074   -5.339023    1.163494
      9          6           0        0.598372   -5.174453    1.317609
     10          1           0        1.135470   -6.041465    0.892044
     11          1           0        0.867373   -5.103035    2.383972
     12          6           0        1.048117   -3.907010    0.604052
     13          1           0        2.143390   -3.907530    0.554918
     14          1           0        0.665462   -3.914866   -0.427110
     15          8           0        0.682017   -2.719417    1.290012
     16          6           0       -0.609424   -2.193790    0.975169
     17          1           0       -0.923018   -1.622783    1.856080
     18          1           0       -1.327723   -3.007203    0.818471
     19          6           0       -0.607291   -1.260360   -0.233977
     20          1           0       -1.648234   -1.037953   -0.499640
     21          1           0       -0.140139   -1.756334   -1.101685
     22          8           0        0.000000    0.000000    0.000000
     23          6           0        1.421586    0.000000    0.000000
     24          1           0        1.800700   -0.511823   -0.900472
     25          1           0        1.821596   -0.525983    0.874220
     26          6           0        1.856158    1.462657    0.000000
     27          1           0        1.503976    1.949051    0.915978
     28          1           0        1.408303    1.971350   -0.858843
     29         16           0        3.691094    1.560057   -0.067251
     30          6           0        3.950785    3.337978    0.324877
     31          1           0        3.401126    3.593083    1.236722
     32          1           0        5.018155    3.414247    0.553233
     33          6           0        3.573715    4.280903   -0.818809
     34          1           0        2.514326    4.169576   -1.070091
     35          1           0        4.146638    4.044618   -1.721314
     36         16           0        3.754669    6.072948   -0.436956
     37          6           0        5.580848    6.325720   -0.534317
     38          1           0        5.717745    7.326164   -0.954838
     39          1           0        5.992353    5.616405   -1.258483
     40          6           0        6.294588    6.236842    0.818149
     41          1           0        5.837080    6.939191    1.520947
     42          1           0        6.205369    5.239916    1.260873
     43         16           0        8.082068    6.686593    0.743420
     44          6           0        8.902092    5.047405    0.575959
     45          1           0        9.957315    5.267101    0.771855
     46          1           0        8.555552    4.403382    1.392394
     47          6           0        8.750052    4.352242   -0.776265
     48          1           0        9.349905    3.433425   -0.797413
     49          1           0        7.710421    4.068937   -0.971988
     50          1           0        9.084325    5.000578   -1.592262
 ---------------------------------------------------------------------
 Stoichiometry    C14H30O3S3
 Framework group  C1[X(C14H30O3S3)]
 Standard basis: 6-31G(d) (6D, 7F)
   372 basis functions,   752 primitive gaussians,   372 cartesian basis functions
    93 alpha electrons       93 beta electrons
 Requested convergence on RMS density matrix=1.00D-08 within  64 cycles.
 Requested convergence on MAX density matrix=1.00D-06.
 Requested convergence on             energy=1.00D-06.
 SCF Done:  E(RB3LYP) =  -1971.75532437     A.U. after   13 cycles
            NFock= 13  Conv=0.36D-08     -V/T= 2.0058
 Mulliken charges:
     1  C   -0.455534
     2  H    0.158728
     3  H    0.158331
     4  H    0.146123
     5  C   -0.003536
     6  H    0.124609
     7  H    0.119984
     8  O   -0.472326
     9  C   -0.012534
    10  H    0.114695
    11  H    0.133317
    12  C   -0.051483
    13  H    0.146336
    14  H    0.134990
    15  O   -0.472226
    16  C   -0.055402
    17  H    0.150918
    18  H    0.156492
    19  C   -0.037826
    20  H    0.142252
    21  H    0.122719
    22  O   -0.479614
    23  C   -0.023655
    24  H    0.125968
    25  H    0.168240
    26  C   -0.420386
    27  H    0.177323
    28  H    0.177037
    29  S    0.077486
    30  C   -0.409934
    31  H    0.184882
    32  H    0.174608
    33  C   -0.412888
    34  H    0.186513
    35  H    0.182091
    36  S    0.081220
    37  C   -0.411888
    38  H    0.192773
    39  H    0.178042
    40  C   -0.410527
    41  H    0.191725
    42  H    0.172819
    43  S    0.079898
    44  C   -0.408554
    45  H    0.178709
    46  H    0.169506
    47  C   -0.435773
    48  H    0.151982
    49  H    0.148746
    50  H    0.165027
 Sum of Mulliken charges =  -0.00000
 Dipole moment (field-independent basis, Debye):
    X=             -0.4723    Y=             -4.5105    Z=             -0.2319  Tot=              4.5411
 Quadrupole moment (field-independent basis, Debye-Ang):
   XX=           -142.6001   YY=           -153.7205   ZZ=           -148.0117
   XY=             -9.3543   XZ=             -4.2893   YZ=             -5.1018
 Traceless Quadrupole moment (field-independent basis, Debye-Ang):
   XX=              5.5107   YY=             -5.6097   ZZ=              0.0990
   XY=             -9.3543   XZ=             -4.2893   YZ=             -5.1018
 Octapole moment (field-independent basis, Debye-Ang**2):
  XXX=          -1281.6072  YYY=           -869.2418  ZZZ=           -159.6706  XYY=           -600.2770
  XXY=           -266.6249  XXZ=            -76.2043  XZZ=           -460.0308  YZZ=           -194.3738
  YYZ=            -31.0367  XYZ=            -15.9271
 Hexadecapole moment (field-independent basis, Debye-Ang**3):
 XXXX=         -17777.0953 YYYY=         -20334.6222 ZZZZ=           -916.0587 XXXY=          -8101.6874
 XXXZ=           -211.3734 YYYX=          -8862.0457 YYYZ=            420.9048 ZZZX=            -20.9100
 ZZZY=            757.2266 XXYY=          -7500.9976 XXZZ=          -3330.9641 YYZZ=          -3388.5693
 XXYZ=              5.1903 YYXZ=           -242.7504 ZZXY=          -2538.2949
 Merz-Kollman atomic radii used.
 Atom Element Radius
    1     6    1.50
    2     1    1.20
    3     1    1.20
    4     1    1.20
    5     6    1.50
    6     1    1.20
    7     1    1.20
    8     8    1.40
    9     6    1.50
   10     1    1.20
   11     1    1.20
   12     6    1.50
   13     1    1.20
   14     1    1.20
   15     8    1.40
   16     6    1.50
   17     1    1.20
   18     1    1.20
   19     6    1.50
   20     1    1.20
   21     1    1.20
   22     8    1.40
   23     6    1.50
   24     1    1.20
   25     1    1.20
   26     6    1.50
   27     1    1.20
   28     1    1.20
   29    16    1.75
   30     6    1.50
   31     1    1.20
   32     1    1.20
   33     6    1.50
   34     1    1.20
   35     1    1.20
   36    16    1.75
   37     6    1.50
   38     1    1.20
   39     1    1.20
   40     6    1.50
   41     1    1.20
   42     1    1.20
   43    16    1.75
   44     6    1.50
   45     1    1.20
   46     1    1.20
   47     6    1.50
   48     1    1.20
   49     1    1.20
   50     1    1.20
 Generate VDW surfaces: Layer= 4 Dens= 1 Start= 1.400 Inc= 0.200
            Electrostatic Properties Using The SCF Density.


       Atomic Center    1 is at  -2.811275 -6.541258  1.619519
       Atomic Center    2 is at  -3.310502 -5.632825  1.972095
       Atomic Center    3 is at  -3.017467 -6.653985  0.550220
       Atomic Center    4 is at  -3.239614 -7.399672  2.148360
       Atomic Center    5 is at  -1.314455 -6.458394  1.868549
       Atomic Center    6 is at  -1.103873 -6.354820  2.946281
       Atomic Center    7 is at  -0.812582 -7.379974  1.527087
       Atomic Center    8 is at  -0.800074 -5.339023  1.163494
       Atomic Center    9 is at   0.598372 -5.174453  1.317609
       Atomic Center   10 is at   1.135470 -6.041465  0.892044
       Atomic Center   11 is at   0.867373 -5.103035  2.383972
       Atomic Center   12 is at   1.048117 -3.907010  0.604052
       Atomic Center   13 is at   2.143390 -3.907530  0.554918
       Atomic Center   14 is at   0.665462 -3.914866 -0.427110
       Atomic Center   15 is at   0.682017 -2.719417  1.290012
       Atomic Center   16 is at  -0.609424 -2.193790  0.975169
       Atomic Center   17 is at  -0.923018 -1.622783  1.856080
       Atomic Center   18 is at  -1.327723 -3.007203  0.818471
       Atomic Center   19 is at  -0.607291 -1.260360 -0.233977
       Atomic Center   20 is at  -1.648234 -1.037953 -0.499640
       Atomic Center   21 is at  -0.140139 -1.756334 -1.101685
       Atomic Center   22 is at   0.000000  0.000000  0.000000
       Atomic Center   23 is at   1.421586  0.000000  0.000000
       Atomic Center   24 is at   1.800700 -0.511823 -0.900472
       Atomic Center   25 is at   1.821596 -0.525983  0.874220
       Atomic Center   26 is at   1.856158  1.462657  0.000000
       Atomic Center   27 is at   1.503976  1.949051  0.915978
       Atomic Center   28 is at   1.408303  1.971350 -0.858843
       Atomic Center   29 is at   3.691094  1.560057 -0.067251
       Atomic Center   30 is at   3.950785  3.337978  0.324877
       Atomic Center   31 is at   3.401126  3.593083  1.236722
       Atomic Center   32 is at   5.018155  3.414247  0.553233
       Atomic Center   33 is at   3.573715  4.280903 -0.818809
       Atomic Center   34 is at   2.514326  4.169576 -1.070091
       Atomic Center   35 is at   4.146638  4.044618 -1.721314
       Atomic Center   36 is at   3.754669  6.072948 -0.436956
       Atomic Center   37 is at   5.580848  6.325720 -0.534317
       Atomic Center   38 is at   5.717745  7.326164 -0.954838
       Atomic Center   39 is at   5.992353  5.616405 -1.258483
       Atomic Center   40 is at   6.294588  6.236842  0.818149
       Atomic Center   41 is at   5.837080  6.939191  1.520947
       Atomic Center   42 is at   6.205369  5.239916  1.260873
       Atomic Center   43 is at   8.082068  6.686593  0.743420
       Atomic Center   44 is at   8.902092  5.047405  0.575959
       Atomic Center   45 is at   9.957315  5.267101  0.771855
       Atomic Center   46 is at   8.555552  4.403382  1.392394
       Atomic Center   47 is at   8.750052  4.352242 -0.776265
       Atomic Center   48 is at   9.349905  3.433425 -0.797413
       Atomic Center   49 is at   7.710421  4.068937 -0.971988
       Atomic Center   50 is at   9.084325  5.000578 -1.592262
      ESP Fit Center   51 is at  -2.811275 -6.541258  3.719519
      ESP Fit Center   52 is at  -4.850253 -7.043821  1.619519
      ESP Fit Center   53 is at  -3.070096 -8.341400  0.569519
      ESP Fit Center   54 is at  -2.055779 -8.195563  0.569519
      ESP Fit Center   55 is at  -3.310502 -5.632825  3.652095
      ESP Fit Center   56 is at  -3.005354 -4.693676  3.331244
      ESP Fit Center   57 is at  -4.109389 -5.052399  3.331244
      ESP Fit Center   58 is at  -4.109389 -6.213251  3.331244
      ESP Fit Center   59 is at  -2.086535 -4.605795  2.491244
      ESP Fit Center   60 is at  -3.033051 -4.059324  2.491244
      ESP Fit Center   61 is at  -4.109389 -4.249111  2.491244
      ESP Fit Center   62 is at  -4.811919 -5.086354  2.491244
      ESP Fit Center   63 is at  -4.811919 -6.179296  2.491244
      ESP Fit Center   64 is at  -3.033051 -4.059324  1.452946
      ESP Fit Center   65 is at  -4.109389 -4.249111  1.452946
      ESP Fit Center   66 is at  -4.811919 -5.086354  1.452946
      ESP Fit Center   67 is at  -3.005354 -4.693676  0.612946
      ESP Fit Center   68 is at  -4.109389 -5.052399  0.612946
      ESP Fit Center   69 is at  -2.740016 -5.080484  0.031071
      ESP Fit Center   70 is at  -3.816354 -5.270271  0.031071
      ESP Fit Center   71 is at  -4.518884 -6.107514  0.031071
      ESP Fit Center   72 is at  -4.518884 -7.200456  0.031071
      ESP Fit Center   73 is at  -3.816354 -8.037699  0.031071
      ESP Fit Center   74 is at  -2.740016 -8.227486  0.031071
      ESP Fit Center   75 is at  -1.793500 -7.681015  0.031071
      ESP Fit Center   76 is at  -2.029988 -6.653985 -0.808929
      ESP Fit Center   77 is at  -2.712319 -5.714836 -0.808929
      ESP Fit Center   78 is at  -3.816354 -6.073559 -0.808929
      ESP Fit Center   79 is at  -3.816354 -7.234411 -0.808929
      ESP Fit Center   80 is at  -2.712319 -7.593134 -0.808929
      ESP Fit Center   81 is at  -3.017467 -6.653985 -1.129780
      ESP Fit Center   82 is at  -3.239614 -7.399672  3.828360
      ESP Fit Center   83 is at  -4.038501 -6.819246  3.507509
      ESP Fit Center   84 is at  -4.038501 -7.980098  3.507509
      ESP Fit Center   85 is at  -2.934466 -8.338821  3.507509
      ESP Fit Center   86 is at  -4.741031 -6.853201  2.667509
      ESP Fit Center   87 is at  -4.741031 -7.946143  2.667509
      ESP Fit Center   88 is at  -4.038501 -8.783386  2.667509
      ESP Fit Center   89 is at  -2.962163 -8.973173  2.667509
      ESP Fit Center   90 is at  -2.015647 -8.426702  2.667509
      ESP Fit Center   91 is at  -4.741031 -7.946143  1.629211
      ESP Fit Center   92 is at  -4.038501 -8.783386  1.629211
      ESP Fit Center   93 is at  -2.962163 -8.973173  1.629211
      ESP Fit Center   94 is at  -1.573276 -4.658252  2.918549
      ESP Fit Center   95 is at  -1.573276 -8.258536  2.918549
      ESP Fit Center   96 is at   0.215494 -7.441632  2.918549
      ESP Fit Center   97 is at  -1.103873 -6.354820  4.626281
      ESP Fit Center   98 is at  -0.116394 -6.354820  4.305430
      ESP Fit Center   99 is at  -0.798725 -5.415671  4.305430
      ESP Fit Center  100 is at  -1.902760 -5.774394  4.305430
      ESP Fit Center  101 is at  -1.902760 -6.935246  4.305430
      ESP Fit Center  102 is at  -0.798725 -7.293969  4.305430
      ESP Fit Center  103 is at   0.493902 -6.354820  3.465430
      ESP Fit Center  104 is at  -0.826422 -4.781319  3.465430
      ESP Fit Center  105 is at  -1.902760 -4.971106  3.465430
      ESP Fit Center  106 is at  -1.902760 -7.738534  3.465430
      ESP Fit Center  107 is at  -0.826422 -7.928321  3.465430
      ESP Fit Center  108 is at   0.120094 -7.381850  3.465430
      ESP Fit Center  109 is at  -0.507434 -8.319123  2.886236
      ESP Fit Center  110 is at   0.785193 -7.379974  2.046236
      ESP Fit Center  111 is at  -1.611469 -8.763688  2.046236
      ESP Fit Center  112 is at  -0.535131 -8.953475  2.046236
      ESP Fit Center  113 is at   0.411385 -8.407004  2.046236
      ESP Fit Center  114 is at  -1.611469 -8.763688  1.007938
      ESP Fit Center  115 is at  -0.535131 -8.953475  1.007938
      ESP Fit Center  116 is at   0.411385 -8.407004  1.007938
      ESP Fit Center  117 is at   0.174897 -7.379974  0.167938
      ESP Fit Center  118 is at  -1.611469 -7.960400  0.167938
      ESP Fit Center  119 is at  -0.507434 -8.319123  0.167938
      ESP Fit Center  120 is at  -0.812582 -7.379974 -0.152913
      ESP Fit Center  121 is at  -1.290074 -4.490318  2.860904
      ESP Fit Center  122 is at  -2.173307 -4.341311  2.143494
      ESP Fit Center  123 is at  -2.497484 -4.359023  1.163494
      ESP Fit Center  124 is at  -2.173307 -4.341311  0.183494
      ESP Fit Center  125 is at  -1.290074 -4.490318 -0.533916
      ESP Fit Center  126 is at  -1.780074 -5.339023 -0.533916
      ESP Fit Center  127 is at  -1.290074 -6.187728 -0.533916
      ESP Fit Center  128 is at  -0.310074 -6.187728 -0.533916
      ESP Fit Center  129 is at  -0.800074 -5.339023 -0.796506
      ESP Fit Center  130 is at  -0.592593 -3.800007  2.367609
      ESP Fit Center  131 is at   1.353868 -6.828758  2.367609
      ESP Fit Center  132 is at   0.073372 -6.083780 -0.501044
      ESP Fit Center  133 is at   1.440618 -6.980614  2.251193
      ESP Fit Center  134 is at   2.733245 -6.041465  1.411193
      ESP Fit Center  135 is at   1.412921 -7.614966  1.411193
      ESP Fit Center  136 is at   2.359437 -7.068495  1.411193
      ESP Fit Center  137 is at   2.733245 -6.041465  0.372895
      ESP Fit Center  138 is at   1.412921 -7.614966  0.372895
      ESP Fit Center  139 is at   2.359437 -7.068495  0.372895
      ESP Fit Center  140 is at   2.122949 -6.041465 -0.467105
      ESP Fit Center  141 is at   0.336583 -6.621891 -0.467105
      ESP Fit Center  142 is at   1.440618 -6.980614 -0.467105
      ESP Fit Center  143 is at   1.135470 -6.041465 -0.787956
      ESP Fit Center  144 is at   0.867373 -5.103035  4.063972
      ESP Fit Center  145 is at   1.854852 -5.103035  3.743121
      ESP Fit Center  146 is at   1.172521 -4.163886  3.743121
      ESP Fit Center  147 is at   0.068486 -4.522609  3.743121
      ESP Fit Center  148 is at   1.172521 -6.042184  3.743121
      ESP Fit Center  149 is at   2.465148 -5.103035  2.903121
      ESP Fit Center  150 is at   2.091340 -4.076005  2.903121
      ESP Fit Center  151 is at   0.068486 -3.719321  2.903121
      ESP Fit Center  152 is at   1.144824 -6.676536  2.903121
      ESP Fit Center  153 is at   2.091340 -6.130065  2.903121
      ESP Fit Center  154 is at   2.098117 -3.907010  2.422705
      ESP Fit Center  155 is at   1.803613 -2.252705 -0.445948
      ESP Fit Center  156 is at   3.130869 -3.907530  1.914067
      ESP Fit Center  157 is at   3.741165 -3.907530  1.074067
      ESP Fit Center  158 is at   3.367357 -2.880500  1.074067
      ESP Fit Center  159 is at   3.367357 -4.934560  1.074067
      ESP Fit Center  160 is at   3.741165 -3.907530  0.035769
      ESP Fit Center  161 is at   3.367357 -2.880500  0.035769
      ESP Fit Center  162 is at   2.420841 -2.334029  0.035769
      ESP Fit Center  163 is at   3.367357 -4.934560  0.035769
      ESP Fit Center  164 is at   3.130869 -3.907530 -0.804231
      ESP Fit Center  165 is at   2.448538 -2.968381 -0.804231
      ESP Fit Center  166 is at   2.448538 -4.846679 -0.804231
      ESP Fit Center  167 is at  -0.835955 -3.368395 -0.946259
      ESP Fit Center  168 is at  -0.835955 -4.461337 -0.946259
      ESP Fit Center  169 is at  -0.133425 -5.298580 -0.946259
      ESP Fit Center  170 is at   0.942913 -5.488367 -0.946259
      ESP Fit Center  171 is at   1.652941 -3.914866 -1.786259
      ESP Fit Center  172 is at   0.970610 -2.975717 -1.786259
      ESP Fit Center  173 is at  -0.133425 -3.334440 -1.786259
      ESP Fit Center  174 is at  -0.133425 -4.495292 -1.786259
      ESP Fit Center  175 is at   0.970610 -4.854015 -1.786259
      ESP Fit Center  176 is at   0.665462 -3.914866 -2.107110
      ESP Fit Center  177 is at   0.682017 -2.719417  3.250012
      ESP Fit Center  178 is at   1.662017 -2.719417  2.987422
      ESP Fit Center  179 is at   1.172017 -1.870712  2.987422
      ESP Fit Center  180 is at  -0.297983 -2.719417  2.987422
      ESP Fit Center  181 is at   0.192017 -3.568122  2.987422
      ESP Fit Center  182 is at   2.379427 -2.719417  2.270012
      ESP Fit Center  183 is at   2.055250 -1.721705  2.270012
      ESP Fit Center  184 is at  -1.134424 -3.103117  2.793822
      ESP Fit Center  185 is at  -2.648402 -1.691227  0.975169
      ESP Fit Center  186 is at  -0.923018 -1.622783  3.536080
      ESP Fit Center  187 is at   0.064461 -1.622783  3.215229
      ESP Fit Center  188 is at  -0.617870 -0.683634  3.215229
      ESP Fit Center  189 is at  -1.721905 -1.042357  3.215229
      ESP Fit Center  190 is at  -1.721905 -2.203209  3.215229
      ESP Fit Center  191 is at  -0.617870 -2.561932  3.215229
      ESP Fit Center  192 is at   0.300949 -0.595753  2.375229
      ESP Fit Center  193 is at  -0.645567 -0.049282  2.375229
      ESP Fit Center  194 is at  -1.721905 -0.239069  2.375229
      ESP Fit Center  195 is at  -2.424435 -1.076312  2.375229
      ESP Fit Center  196 is at  -2.424435 -2.169254  2.375229
      ESP Fit Center  197 is at  -1.721905 -0.239069  1.336931
      ESP Fit Center  198 is at  -2.424435 -1.076312  1.336931
      ESP Fit Center  199 is at  -2.126610 -3.587629  2.177620
      ESP Fit Center  200 is at  -2.829140 -2.460732  1.337620
      ESP Fit Center  201 is at  -2.829140 -3.553674  1.337620
      ESP Fit Center  202 is at  -2.829140 -2.460732  0.299322
      ESP Fit Center  203 is at  -2.829140 -3.553674  0.299322
      ESP Fit Center  204 is at  -2.126610 -3.587629 -0.540678
      ESP Fit Center  205 is at  -1.022575 -3.946352 -0.540678
      ESP Fit Center  206 is at  -1.798256  0.114086  0.816023
      ESP Fit Center  207 is at  -1.798256 -2.634806 -1.283977
      ESP Fit Center  208 is at  -0.082291 -0.351033 -2.052630
      ESP Fit Center  209 is at  -1.132291 -0.351033 -2.052630
      ESP Fit Center  210 is at  -2.447121 -0.457527  0.859509
      ESP Fit Center  211 is at  -2.447121  0.345761  0.019509
      ESP Fit Center  212 is at  -3.149651 -0.491482  0.019509
      ESP Fit Center  213 is at  -3.149651 -1.584424  0.019509
      ESP Fit Center  214 is at  -2.447121  0.345761 -1.018789
      ESP Fit Center  215 is at  -3.149651 -0.491482 -1.018789
      ESP Fit Center  216 is at  -3.149651 -1.584424 -1.018789
      ESP Fit Center  217 is at  -2.447121 -2.421667 -1.018789
      ESP Fit Center  218 is at  -1.343086 -0.098804 -1.858789
      ESP Fit Center  219 is at  -2.447121 -0.457527 -1.858789
      ESP Fit Center  220 is at  -2.447121 -1.618379 -1.858789
      ESP Fit Center  221 is at  -1.648234 -1.037953 -2.179640
      ESP Fit Center  222 is at  -0.939026 -3.140048 -1.620834
      ESP Fit Center  223 is at   1.083828 -2.783364 -1.620834
      ESP Fit Center  224 is at   0.847340 -1.756334 -2.460834
      ESP Fit Center  225 is at   0.165009 -0.817185 -2.460834
      ESP Fit Center  226 is at  -0.939026 -1.175908 -2.460834
      ESP Fit Center  227 is at  -0.939026 -2.336760 -2.460834
      ESP Fit Center  228 is at   0.165009 -2.695483 -2.460834
      ESP Fit Center  229 is at  -0.140139 -1.756334 -2.781685
      ESP Fit Center  230 is at   0.000000  0.000000  1.960000
      ESP Fit Center  231 is at   0.490000  0.848705  1.697410
      ESP Fit Center  232 is at  -0.490000  0.848705  1.697410
      ESP Fit Center  233 is at  -0.524528  1.614333  0.980000
      ESP Fit Center  234 is at  -1.373233  0.997712  0.980000
      ESP Fit Center  235 is at  -0.980000  1.697410  0.000000
      ESP Fit Center  236 is at  -1.697410  0.980000  0.000000
      ESP Fit Center  237 is at  -0.524528  1.614333 -0.980000
      ESP Fit Center  238 is at  -1.373233  0.997712 -0.980000
      ESP Fit Center  239 is at  -0.490000  0.848705 -1.697410
      ESP Fit Center  240 is at   0.000000  0.000000 -1.960000
      ESP Fit Center  241 is at   2.614522 -1.728266  0.000000
      ESP Fit Center  242 is at   3.281044 -0.975919  0.000000
      ESP Fit Center  243 is at   2.078151 -2.085324 -0.381323
      ESP Fit Center  244 is at   3.024667 -1.538853 -0.381323
      ESP Fit Center  245 is at   3.398475 -0.511823 -1.419621
      ESP Fit Center  246 is at   2.078151 -2.085324 -1.419621
      ESP Fit Center  247 is at   3.024667 -1.538853 -1.419621
      ESP Fit Center  248 is at   2.788179 -0.511823 -2.259621
      ESP Fit Center  249 is at   2.105848  0.427326 -2.259621
      ESP Fit Center  250 is at   1.001813  0.068603 -2.259621
      ESP Fit Center  251 is at   1.001813 -1.092249 -2.259621
      ESP Fit Center  252 is at   2.105848 -1.450972 -2.259621
      ESP Fit Center  253 is at   1.800700 -0.511823 -2.580472
      ESP Fit Center  254 is at   1.821596 -0.525983  2.554220
      ESP Fit Center  255 is at   2.809075 -0.525983  2.233369
      ESP Fit Center  256 is at   2.126744  0.413166  2.233369
      ESP Fit Center  257 is at   1.022709  0.054443  2.233369
      ESP Fit Center  258 is at   2.126744 -1.465132  2.233369
      ESP Fit Center  259 is at   3.419371 -0.525983  1.393369
      ESP Fit Center  260 is at   3.045563 -1.553013  1.393369
      ESP Fit Center  261 is at   3.045563 -1.553013  0.355071
      ESP Fit Center  262 is at   1.111488  3.426191  0.000000
      ESP Fit Center  263 is at  -0.182820  1.965220  0.000000
      ESP Fit Center  264 is at   1.503976  1.949051  2.595978
      ESP Fit Center  265 is at   2.491455  1.949051  2.275127
      ESP Fit Center  266 is at   1.809124  2.888200  2.275127
      ESP Fit Center  267 is at   0.705089  2.529477  2.275127
      ESP Fit Center  268 is at   0.705089  1.368625  2.275127
      ESP Fit Center  269 is at   1.809124  1.009902  2.275127
      ESP Fit Center  270 is at   0.705089  3.332765  1.435127
      ESP Fit Center  271 is at   0.002559  2.495522  1.435127
      ESP Fit Center  272 is at   0.002559  1.402580  1.435127
      ESP Fit Center  273 is at   0.705089  3.332765  0.396829
      ESP Fit Center  274 is at   0.002559  2.495522  0.396829
      ESP Fit Center  275 is at   0.609416  3.355064 -0.339694
      ESP Fit Center  276 is at  -0.093114  2.517821 -0.339694
      ESP Fit Center  277 is at   0.609416  3.355064 -1.377992
      ESP Fit Center  278 is at  -0.093114  2.517821 -1.377992
      ESP Fit Center  279 is at  -0.093114  1.424879 -1.377992
      ESP Fit Center  280 is at   2.395782  1.971350 -2.217992
      ESP Fit Center  281 is at   1.713451  2.910499 -2.217992
      ESP Fit Center  282 is at   0.609416  2.551776 -2.217992
      ESP Fit Center  283 is at   0.609416  1.390924 -2.217992
      ESP Fit Center  284 is at   1.713451  1.032201 -2.217992
      ESP Fit Center  285 is at   1.408303  1.971350 -2.538843
      ESP Fit Center  286 is at   3.691094  1.560057  2.382749
      ESP Fit Center  287 is at   4.754109  1.560057  2.140123
      ESP Fit Center  288 is at   2.628079  1.560057  2.140123
      ESP Fit Center  289 is at   3.159586  0.639459  2.140123
      ESP Fit Center  290 is at   4.222602  0.639459  2.140123
      ESP Fit Center  291 is at   5.606581  1.560057  1.460299
      ESP Fit Center  292 is at   3.418492 -0.335933  1.460299
      ESP Fit Center  293 is at   4.486816 -0.182331  1.460299
      ESP Fit Center  294 is at   5.302504  0.524466  1.460299
      ESP Fit Center  295 is at   6.079667  1.560057  0.477925
      ESP Fit Center  296 is at   4.222602 -0.768630  0.477925
      ESP Fit Center  297 is at   5.180345 -0.307405  0.477925
      ESP Fit Center  298 is at   5.843124  0.523694  0.477925
      ESP Fit Center  299 is at   6.079667  1.560057 -0.612427
      ESP Fit Center  300 is at   4.222602 -0.768630 -0.612427
      ESP Fit Center  301 is at   5.180345 -0.307405 -0.612427
      ESP Fit Center  302 is at   5.843124  0.523694 -0.612427
      ESP Fit Center  303 is at   5.606581  1.560057 -1.594801
      ESP Fit Center  304 is at   5.302504  2.595648 -1.594801
      ESP Fit Center  305 is at   3.418492 -0.335933 -1.594801
      ESP Fit Center  306 is at   4.486816 -0.182331 -1.594801
      ESP Fit Center  307 is at   5.302504  0.524466 -1.594801
      ESP Fit Center  308 is at   4.754109  1.560057 -2.274625
      ESP Fit Center  309 is at   3.159586  2.480655 -2.274625
      ESP Fit Center  310 is at   2.628079  1.560057 -2.274625
      ESP Fit Center  311 is at   3.159586  0.639459 -2.274625
      ESP Fit Center  312 is at   4.222602  0.639459 -2.274625
      ESP Fit Center  313 is at   3.691094  1.560057 -2.517251
      ESP Fit Center  314 is at   4.475785  2.428651  2.143530
      ESP Fit Center  315 is at   3.401126  3.593083  2.916722
      ESP Fit Center  316 is at   4.388605  3.593083  2.595871
      ESP Fit Center  317 is at   3.706274  4.532232  2.595871
      ESP Fit Center  318 is at   2.602239  4.173509  2.595871
      ESP Fit Center  319 is at   2.602239  3.012657  2.595871
      ESP Fit Center  320 is at   3.706274  2.653934  2.595871
      ESP Fit Center  321 is at   2.602239  4.976797  1.755871
      ESP Fit Center  322 is at   1.899709  4.139554  1.755871
      ESP Fit Center  323 is at   1.899709  4.139554  0.717573
      ESP Fit Center  324 is at   5.018155  3.414247  2.233233
      ESP Fit Center  325 is at   6.005634  3.414247  1.912382
      ESP Fit Center  326 is at   5.323303  2.475098  1.912382
      ESP Fit Center  327 is at   6.615930  3.414247  1.072382
      ESP Fit Center  328 is at   6.242122  2.387217  1.072382
      ESP Fit Center  329 is at   6.242122  2.387217  0.034084
      ESP Fit Center  330 is at   6.005634  3.414247 -0.805916
      ESP Fit Center  331 is at   3.048715  5.190230 -2.637462
      ESP Fit Center  332 is at   1.715439  4.750002  0.289058
      ESP Fit Center  333 is at   1.715439  3.589150  0.289058
      ESP Fit Center  334 is at   1.012909  4.716047 -0.550942
      ESP Fit Center  335 is at   1.012909  3.623105 -0.550942
      ESP Fit Center  336 is at   1.012909  4.716047 -1.589240
      ESP Fit Center  337 is at   1.012909  3.623105 -1.589240
      ESP Fit Center  338 is at   1.715439  4.750002 -2.429240
      ESP Fit Center  339 is at   1.715439  3.589150 -2.429240
      ESP Fit Center  340 is at   2.514326  4.169576 -2.750091
      ESP Fit Center  341 is at   5.370605  3.017588 -1.202165
      ESP Fit Center  342 is at   5.744413  4.044618 -2.240463
      ESP Fit Center  343 is at   3.347751  2.660904 -2.240463
      ESP Fit Center  344 is at   4.424089  2.471117 -2.240463
      ESP Fit Center  345 is at   5.370605  3.017588 -2.240463
      ESP Fit Center  346 is at   5.134117  4.044618 -3.080463
      ESP Fit Center  347 is at   4.451786  4.983767 -3.080463
      ESP Fit Center  348 is at   3.347751  4.625044 -3.080463
      ESP Fit Center  349 is at   3.347751  3.464192 -3.080463
      ESP Fit Center  350 is at   4.451786  3.105469 -3.080463
      ESP Fit Center  351 is at   4.146638  4.044618 -3.401314
      ESP Fit Center  352 is at   3.754669  6.072948  2.013044
      ESP Fit Center  353 is at   3.223161  6.993546  1.770418
      ESP Fit Center  354 is at   2.691654  6.072948  1.770418
      ESP Fit Center  355 is at   4.286177  5.152350  1.770418
      ESP Fit Center  356 is at   3.482067  7.968938  1.090594
      ESP Fit Center  357 is at   2.500292  7.520577  1.090594
      ESP Fit Center  358 is at   1.916773  6.612603  1.090594
      ESP Fit Center  359 is at   1.916773  5.533293  1.090594
      ESP Fit Center  360 is at   4.286177  8.401635  0.108220
      ESP Fit Center  361 is at   3.223161  8.401635  0.108220
      ESP Fit Center  362 is at   2.265418  7.940410  0.108220
      ESP Fit Center  363 is at   1.602639  7.109311  0.108220
      ESP Fit Center  364 is at   1.366096  6.072948  0.108220
      ESP Fit Center  365 is at   1.602639  5.036585  0.108220
      ESP Fit Center  366 is at   4.286177  8.401635 -0.982132
      ESP Fit Center  367 is at   3.223161  8.401635 -0.982132
      ESP Fit Center  368 is at   2.265418  7.940410 -0.982132
      ESP Fit Center  369 is at   1.602639  7.109311 -0.982132
      ESP Fit Center  370 is at   1.366096  6.072948 -0.982132
      ESP Fit Center  371 is at   3.482067  7.968938 -1.964506
      ESP Fit Center  372 is at   2.500292  7.520577 -1.964506
      ESP Fit Center  373 is at   1.916773  6.612603 -1.964506
      ESP Fit Center  374 is at   1.916773  5.533293 -1.964506
      ESP Fit Center  375 is at   4.817684  6.072948 -2.644330
      ESP Fit Center  376 is at   4.286177  6.993546 -2.644330
      ESP Fit Center  377 is at   3.223161  6.993546 -2.644330
      ESP Fit Center  378 is at   2.691654  6.072948 -2.644330
      ESP Fit Center  379 is at   3.754669  6.072948 -2.886956
      ESP Fit Center  380 is at   5.995196  8.899665 -0.435689
      ESP Fit Center  381 is at   4.918858  8.709878 -0.435689
      ESP Fit Center  382 is at   6.941712  8.353194 -1.473987
      ESP Fit Center  383 is at   5.995196  8.899665 -1.473987
      ESP Fit Center  384 is at   4.918858  8.709878 -1.473987
      ESP Fit Center  385 is at   6.705224  7.326164 -2.313987
      ESP Fit Center  386 is at   6.022893  8.265313 -2.313987
      ESP Fit Center  387 is at   4.918858  7.906590 -2.313987
      ESP Fit Center  388 is at   5.717745  7.326164 -2.634838
      ESP Fit Center  389 is at   6.979832  5.616405 -2.617632
      ESP Fit Center  390 is at   6.297501  6.555554 -2.617632
      ESP Fit Center  391 is at   5.193466  6.196831 -2.617632
      ESP Fit Center  392 is at   5.193466  5.035979 -2.617632
      ESP Fit Center  393 is at   6.297501  4.677256 -2.617632
      ESP Fit Center  394 is at   5.992353  5.616405 -2.938483
      ESP Fit Center  395 is at   4.549603  5.724468  1.868149
      ESP Fit Center  396 is at   5.837080  6.939191  3.200947
      ESP Fit Center  397 is at   6.824559  6.939191  2.880096
      ESP Fit Center  398 is at   6.142228  7.878340  2.880096
      ESP Fit Center  399 is at   5.038193  7.519617  2.880096
      ESP Fit Center  400 is at   5.038193  6.358765  2.880096
      ESP Fit Center  401 is at   6.114531  8.512692  2.040096
      ESP Fit Center  402 is at   5.038193  8.322905  2.040096
      ESP Fit Center  403 is at   4.335663  7.485662  2.040096
      ESP Fit Center  404 is at   4.335663  6.392720  2.040096
      ESP Fit Center  405 is at   6.114531  8.512692  1.001798
      ESP Fit Center  406 is at   5.038193  8.322905  1.001798
      ESP Fit Center  407 is at   6.205369  5.239916  2.940873
      ESP Fit Center  408 is at   7.192848  5.239916  2.620022
      ESP Fit Center  409 is at   5.406482  4.659490  2.620022
      ESP Fit Center  410 is at   6.510517  4.300767  2.620022
      ESP Fit Center  411 is at   4.703952  4.693445  1.780022
      ESP Fit Center  412 is at   6.482820  3.666415  1.780022
      ESP Fit Center  413 is at   8.082068  6.686593  3.193420
      ESP Fit Center  414 is at   9.145083  6.686593  2.950794
      ESP Fit Center  415 is at   8.613576  7.607191  2.950794
      ESP Fit Center  416 is at   7.550560  7.607191  2.950794
      ESP Fit Center  417 is at   7.019053  6.686593  2.950794
      ESP Fit Center  418 is at   7.550560  5.765995  2.950794
      ESP Fit Center  419 is at   8.613576  5.765995  2.950794
      ESP Fit Center  420 is at   9.997555  6.686593  2.270970
      ESP Fit Center  421 is at   9.693478  7.722184  2.270970
      ESP Fit Center  422 is at   8.877790  8.428981  2.270970
      ESP Fit Center  423 is at   7.809466  8.582583  2.270970
      ESP Fit Center  424 is at   6.827691  8.134222  2.270970
      ESP Fit Center  425 is at  10.234098  7.722956  1.288596
      ESP Fit Center  426 is at   9.571319  8.554055  1.288596
      ESP Fit Center  427 is at   8.613576  9.015280  1.288596
      ESP Fit Center  428 is at   7.550560  9.015280  1.288596
      ESP Fit Center  429 is at   6.592817  8.554055  1.288596
      ESP Fit Center  430 is at  10.234098  7.722956  0.198244
      ESP Fit Center  431 is at   9.571319  8.554055  0.198244
      ESP Fit Center  432 is at   8.613576  9.015280  0.198244
      ESP Fit Center  433 is at   7.550560  9.015280  0.198244
      ESP Fit Center  434 is at   6.592817  8.554055  0.198244
      ESP Fit Center  435 is at   9.997555  6.686593 -0.784130
      ESP Fit Center  436 is at   9.693478  7.722184 -0.784130
      ESP Fit Center  437 is at   8.877790  8.428981 -0.784130
      ESP Fit Center  438 is at   7.809466  8.582583 -0.784130
      ESP Fit Center  439 is at   9.145083  6.686593 -1.463954
      ESP Fit Center  440 is at   8.613576  7.607191 -1.463954
      ESP Fit Center  441 is at   7.550560  7.607191 -1.463954
      ESP Fit Center  442 is at   8.082068  6.686593 -1.706580
      ESP Fit Center  443 is at   9.957315  5.267101  2.451855
      ESP Fit Center  444 is at  10.944794  5.267101  2.131004
      ESP Fit Center  445 is at  10.262463  6.206250  2.131004
      ESP Fit Center  446 is at  10.262463  4.327952  2.131004
      ESP Fit Center  447 is at  11.555090  5.267101  1.291004
      ESP Fit Center  448 is at  11.181282  6.294131  1.291004
      ESP Fit Center  449 is at  11.181282  4.240071  1.291004
      ESP Fit Center  450 is at  11.555090  5.267101  0.252706
      ESP Fit Center  451 is at  11.181282  6.294131  0.252706
      ESP Fit Center  452 is at  11.181282  4.240071  0.252706
      ESP Fit Center  453 is at  10.944794  5.267101 -0.587294
      ESP Fit Center  454 is at  10.262463  6.206250 -0.587294
      ESP Fit Center  455 is at   8.555552  4.403382  3.072394
      ESP Fit Center  456 is at   9.543031  4.403382  2.751543
      ESP Fit Center  457 is at   8.860700  5.342531  2.751543
      ESP Fit Center  458 is at   7.756665  4.983808  2.751543
      ESP Fit Center  459 is at   7.756665  3.822956  2.751543
      ESP Fit Center  460 is at   8.860700  3.464233  2.751543
      ESP Fit Center  461 is at   7.054135  3.856911  1.911543
      ESP Fit Center  462 is at   7.756665  3.019668  1.911543
      ESP Fit Center  463 is at   8.833003  2.829881  1.911543
      ESP Fit Center  464 is at   9.779519  3.376352  1.911543
      ESP Fit Center  465 is at   7.756665  3.019668  0.873245
      ESP Fit Center  466 is at   8.833003  2.829881  0.873245
      ESP Fit Center  467 is at  10.850052  4.352242 -0.776265
      ESP Fit Center  468 is at  10.609510  5.328161 -0.776265
      ESP Fit Center  469 is at   8.005382  2.388708 -0.776265
      ESP Fit Center  470 is at   8.225052  3.442915 -2.594918
      ESP Fit Center  471 is at   9.275052  3.442915 -2.594918
      ESP Fit Center  472 is at  10.337384  3.433425  0.561736
      ESP Fit Center  473 is at   9.655053  2.494276  0.561736
      ESP Fit Center  474 is at  10.947680  3.433425 -0.278264
      ESP Fit Center  475 is at   8.551018  2.049711 -0.278264
      ESP Fit Center  476 is at   9.627356  1.859924 -0.278264
      ESP Fit Center  477 is at  10.573872  2.406395 -0.278264
      ESP Fit Center  478 is at  10.947680  3.433425 -1.316562
      ESP Fit Center  479 is at   8.551018  2.049711 -1.316562
      ESP Fit Center  480 is at   9.627356  1.859924 -1.316562
      ESP Fit Center  481 is at  10.573872  2.406395 -1.316562
      ESP Fit Center  482 is at  10.337384  3.433425 -2.156562
      ESP Fit Center  483 is at   9.655053  2.494276 -2.156562
      ESP Fit Center  484 is at   6.911534  3.488511  0.387161
      ESP Fit Center  485 is at   6.911534  2.685223 -0.452839
      ESP Fit Center  486 is at   6.209004  3.522466 -1.491137
      ESP Fit Center  487 is at   6.911534  2.685223 -1.491137
      ESP Fit Center  488 is at   7.987872  2.495436 -1.491137
      ESP Fit Center  489 is at   6.911534  4.649363 -2.331137
      ESP Fit Center  490 is at   6.911534  3.488511 -2.331137
      ESP Fit Center  491 is at   8.015569  3.129788 -2.331137
      ESP Fit Center  492 is at   7.710421  4.068937 -2.651988
      ESP Fit Center  493 is at  10.308292  6.027608 -1.073113
      ESP Fit Center  494 is at  10.682100  5.000578 -2.111411
      ESP Fit Center  495 is at  10.308292  6.027608 -2.111411
      ESP Fit Center  496 is at   9.361776  6.574079 -2.111411
      ESP Fit Center  497 is at   8.285438  6.384292 -2.111411
      ESP Fit Center  498 is at   7.582908  5.547049 -2.111411
      ESP Fit Center  499 is at  10.071804  5.000578 -2.951411
      ESP Fit Center  500 is at   9.389473  5.939727 -2.951411
      ESP Fit Center  501 is at   8.285438  5.581004 -2.951411
      ESP Fit Center  502 is at   8.285438  4.420152 -2.951411
      ESP Fit Center  503 is at   9.389473  4.061429 -2.951411
      ESP Fit Center  504 is at   9.084325  5.000578 -3.272262
      ESP Fit Center  505 is at  -2.811275 -6.541258  4.019519
      ESP Fit Center  506 is at  -3.852596 -6.541258  3.781844
      ESP Fit Center  507 is at  -5.151102 -6.541258  2.153569
      ESP Fit Center  508 is at  -5.151102 -6.541258  1.085469
      ESP Fit Center  509 is at  -4.919386 -7.556471  1.085469
      ESP Fit Center  510 is at  -2.290615 -8.822421  1.085469
      ESP Fit Center  511 is at  -3.078314 -4.683961  0.123143
      ESP Fit Center  512 is at  -2.031792 -8.248087  0.123143
      ESP Fit Center  513 is at  -3.310502 -5.632825  3.892095
      ESP Fit Center  514 is at  -2.830502 -4.801441  3.634864
      ESP Fit Center  515 is at  -3.790502 -4.801441  3.634864
      ESP Fit Center  516 is at  -4.270502 -5.632825  3.634864
      ESP Fit Center  517 is at  -2.796678 -4.051438  2.932095
      ESP Fit Center  518 is at  -3.824326 -4.051438  2.932095
      ESP Fit Center  519 is at  -4.655710 -4.655474  2.932095
      ESP Fit Center  520 is at  -4.973271 -5.632825  2.932095
      ESP Fit Center  521 is at  -3.310502 -3.712825  1.972095
      ESP Fit Center  522 is at  -4.270502 -3.970056  1.972095
      ESP Fit Center  523 is at  -4.973271 -4.672825  1.972095
      ESP Fit Center  524 is at  -5.230502 -5.632825  1.972095
      ESP Fit Center  525 is at  -3.824326 -4.051438  1.012095
      ESP Fit Center  526 is at  -4.655710 -4.655474  1.012095
      ESP Fit Center  527 is at  -4.973271 -5.632825  1.012095
      ESP Fit Center  528 is at  -4.680236 -7.613985  0.550220
      ESP Fit Center  529 is at  -2.503643 -5.072598 -0.409780
      ESP Fit Center  530 is at  -3.531291 -5.072598 -0.409780
      ESP Fit Center  531 is at  -4.362675 -5.676634 -0.409780
      ESP Fit Center  532 is at  -4.680236 -6.653985 -0.409780
      ESP Fit Center  533 is at  -4.362675 -7.631336 -0.409780
      ESP Fit Center  534 is at  -3.531291 -8.235372 -0.409780
      ESP Fit Center  535 is at  -2.503643 -8.235372 -0.409780
      ESP Fit Center  536 is at  -1.672259 -7.631336 -0.409780
      ESP Fit Center  537 is at  -2.057467 -6.653985 -1.112549
      ESP Fit Center  538 is at  -2.537467 -5.822601 -1.112549
      ESP Fit Center  539 is at  -3.497467 -5.822601 -1.112549
      ESP Fit Center  540 is at  -3.977467 -6.653985 -1.112549
      ESP Fit Center  541 is at  -3.497467 -7.485369 -1.112549
      ESP Fit Center  542 is at  -2.537467 -7.485369 -1.112549
      ESP Fit Center  543 is at  -3.017467 -6.653985 -1.369780
      ESP Fit Center  544 is at  -3.239614 -7.399672  4.068360
      ESP Fit Center  545 is at  -4.199614 -7.399672  3.811129
      ESP Fit Center  546 is at  -3.719614 -8.231056  3.811129
      ESP Fit Center  547 is at  -2.759614 -8.231056  3.811129
      ESP Fit Center  548 is at  -4.902383 -7.399672  3.108360
      ESP Fit Center  549 is at  -4.584822 -8.377023  3.108360
      ESP Fit Center  550 is at  -3.753438 -8.981059  3.108360
      ESP Fit Center  551 is at  -2.725790 -8.981059  3.108360
      ESP Fit Center  552 is at  -5.159614 -7.399672  2.148360
      ESP Fit Center  553 is at  -4.902383 -8.359672  2.148360
      ESP Fit Center  554 is at  -4.199614 -9.062441  2.148360
      ESP Fit Center  555 is at  -3.239614 -9.319672  2.148360
      ESP Fit Center  556 is at  -2.279614 -9.062441  2.148360
      ESP Fit Center  557 is at  -4.584822 -8.377023  1.188360
      ESP Fit Center  558 is at  -3.753438 -8.981059  1.188360
      ESP Fit Center  559 is at  -2.725790 -8.981059  1.188360
      ESP Fit Center  560 is at  -1.581494 -8.315691  3.364925
      ESP Fit Center  561 is at  -0.534972 -8.165223  3.364925
      ESP Fit Center  562 is at  -1.103873 -6.354820  4.866281
      ESP Fit Center  563 is at  -0.143873 -6.354820  4.609050
      ESP Fit Center  564 is at  -0.623873 -5.523436  4.609050
      ESP Fit Center  565 is at  -1.583873 -5.523436  4.609050
      ESP Fit Center  566 is at  -2.063873 -6.354820  4.609050
      ESP Fit Center  567 is at  -1.583873 -7.186204  4.609050
      ESP Fit Center  568 is at  -0.623873 -7.186204  4.609050
      ESP Fit Center  569 is at   0.558896 -6.354820  3.906281
      ESP Fit Center  570 is at  -0.590049 -4.773433  3.906281
      ESP Fit Center  571 is at  -1.617697 -4.773433  3.906281
      ESP Fit Center  572 is at  -2.449081 -5.377469  3.906281
      ESP Fit Center  573 is at  -2.449081 -7.332171  3.906281
      ESP Fit Center  574 is at  -1.617697 -7.936207  3.906281
      ESP Fit Center  575 is at  -0.590049 -7.936207  3.906281
      ESP Fit Center  576 is at   0.241335 -7.332171  3.906281
      ESP Fit Center  577 is at  -0.332582 -8.211358  3.189856
      ESP Fit Center  578 is at   0.850187 -7.379974  2.487087
      ESP Fit Center  579 is at  -1.326406 -8.961361  2.487087
      ESP Fit Center  580 is at  -0.298758 -8.961361  2.487087
      ESP Fit Center  581 is at   0.532626 -8.357325  2.487087
      ESP Fit Center  582 is at  -1.772582 -9.042743  1.527087
      ESP Fit Center  583 is at  -0.812582 -9.299974  1.527087
      ESP Fit Center  584 is at   0.147418 -9.042743  1.527087
      ESP Fit Center  585 is at   0.850187 -8.339974  1.527087
      ESP Fit Center  586 is at  -1.326406 -8.961361  0.567087
      ESP Fit Center  587 is at  -0.298758 -8.961361  0.567087
      ESP Fit Center  588 is at   0.532626 -8.357325  0.567087
      ESP Fit Center  589 is at   0.147418 -7.379974 -0.135682
      ESP Fit Center  590 is at  -1.292582 -8.211358 -0.135682
      ESP Fit Center  591 is at  -0.332582 -8.211358 -0.135682
      ESP Fit Center  592 is at  -0.812582 -7.379974 -0.392913
      ESP Fit Center  593 is at  -1.286024 -4.497333 -0.854676
      ESP Fit Center  594 is at  -1.771974 -5.339023 -0.854676
      ESP Fit Center  595 is at  -1.286024 -6.180713 -0.854676
      ESP Fit Center  596 is at  -0.314124 -6.180713 -0.854676
      ESP Fit Center  597 is at  -0.800074 -5.339023 -1.076506
      ESP Fit Center  598 is at  -0.630406 -3.756368  2.813985
      ESP Fit Center  599 is at   2.938199 -5.174453  1.851659
      ESP Fit Center  600 is at   0.077712 -6.076263 -0.844716
      ESP Fit Center  601 is at   2.798239 -6.041465  1.852044
      ESP Fit Center  602 is at   1.649294 -7.622852  1.852044
      ESP Fit Center  603 is at   2.480678 -7.018816  1.852044
      ESP Fit Center  604 is at   3.055470 -6.041465  0.892044
      ESP Fit Center  605 is at   1.135470 -7.961465  0.892044
      ESP Fit Center  606 is at   2.095470 -7.704234  0.892044
      ESP Fit Center  607 is at   2.798239 -7.001465  0.892044
      ESP Fit Center  608 is at   2.798239 -6.041465 -0.067956
      ESP Fit Center  609 is at   0.621646 -7.622852 -0.067956
      ESP Fit Center  610 is at   1.649294 -7.622852 -0.067956
      ESP Fit Center  611 is at   2.480678 -7.018816 -0.067956
      ESP Fit Center  612 is at   2.095470 -6.041465 -0.770725
      ESP Fit Center  613 is at   0.655470 -6.872849 -0.770725
      ESP Fit Center  614 is at   1.615470 -6.872849 -0.770725
      ESP Fit Center  615 is at   1.135470 -6.041465 -1.027956
      ESP Fit Center  616 is at   0.867373 -5.103035  4.303972
      ESP Fit Center  617 is at   1.827373 -5.103035  4.046741
      ESP Fit Center  618 is at   1.347373 -4.271651  4.046741
      ESP Fit Center  619 is at   0.387373 -4.271651  4.046741
      ESP Fit Center  620 is at  -0.092627 -5.103035  4.046741
      ESP Fit Center  621 is at   1.347373 -5.934419  4.046741
      ESP Fit Center  622 is at   2.530142 -5.103035  3.343972
      ESP Fit Center  623 is at   2.212581 -4.125684  3.343972
      ESP Fit Center  624 is at   1.381197 -3.521648  3.343972
      ESP Fit Center  625 is at  -0.477835 -4.125684  3.343972
      ESP Fit Center  626 is at   1.381197 -6.684422  3.343972
      ESP Fit Center  627 is at   2.212581 -6.080386  3.343972
      ESP Fit Center  628 is at   2.787373 -5.103035  2.383972
      ESP Fit Center  629 is at   1.827600 -5.613839 -0.892324
      ESP Fit Center  630 is at   3.103390 -3.907530  2.217687
      ESP Fit Center  631 is at   3.806159 -3.907530  1.514918
      ESP Fit Center  632 is at   3.488598 -2.930179  1.514918
      ESP Fit Center  633 is at   3.488598 -4.884881  1.514918
      ESP Fit Center  634 is at   4.063390 -3.907530  0.554918
      ESP Fit Center  635 is at   3.806159 -2.947530  0.554918
      ESP Fit Center  636 is at   3.103390 -2.244761  0.554918
      ESP Fit Center  637 is at   3.103390 -5.570299  0.554918
      ESP Fit Center  638 is at   3.806159 -4.867530  0.554918
      ESP Fit Center  639 is at   3.806159 -3.907530 -0.405082
      ESP Fit Center  640 is at   3.488598 -2.930179 -0.405082
      ESP Fit Center  641 is at   2.657214 -2.326143 -0.405082
      ESP Fit Center  642 is at   2.657214 -5.488917 -0.405082
      ESP Fit Center  643 is at   3.488598 -4.884881 -0.405082
      ESP Fit Center  644 is at   3.103390 -3.907530 -1.107851
      ESP Fit Center  645 is at   2.623390 -3.076146 -1.107851
      ESP Fit Center  646 is at   2.623390 -4.738914 -1.107851
      ESP Fit Center  647 is at   2.010670 -2.937515 -1.387110
      ESP Fit Center  648 is at  -0.997307 -3.914866 -1.387110
      ESP Fit Center  649 is at  -0.679746 -4.892217 -1.387110
      ESP Fit Center  650 is at   0.151638 -5.496253 -1.387110
      ESP Fit Center  651 is at   1.179286 -5.496253 -1.387110
      ESP Fit Center  652 is at   2.010670 -4.892217 -1.387110
      ESP Fit Center  653 is at   1.625462 -3.914866 -2.089879
      ESP Fit Center  654 is at   1.145462 -3.083482 -2.089879
      ESP Fit Center  655 is at  -0.294538 -3.914866 -2.089879
      ESP Fit Center  656 is at   0.185462 -4.746250 -2.089879
      ESP Fit Center  657 is at   1.145462 -4.746250 -2.089879
      ESP Fit Center  658 is at   0.665462 -3.914866 -2.347110
      ESP Fit Center  659 is at   0.682017 -2.719417  3.530012
      ESP Fit Center  660 is at   1.653917 -2.719417  3.308182
      ESP Fit Center  661 is at   1.167967 -1.877727  3.308182
      ESP Fit Center  662 is at  -0.289883 -2.719417  3.308182
      ESP Fit Center  663 is at   2.433320 -2.719417  2.686629
      ESP Fit Center  664 is at   2.098851 -1.690027  2.686629
      ESP Fit Center  665 is at   1.223199 -1.053829  2.686629
      ESP Fit Center  666 is at  -1.130084 -3.095600  3.137494
      ESP Fit Center  667 is at  -2.409812 -2.722432  2.471545
      ESP Fit Center  668 is at  -2.949251 -2.193790  1.509219
      ESP Fit Center  669 is at  -0.923018 -1.622783  3.776080
      ESP Fit Center  670 is at   0.036982 -1.622783  3.518849
      ESP Fit Center  671 is at  -0.443018 -0.791399  3.518849
      ESP Fit Center  672 is at  -1.403018 -0.791399  3.518849
      ESP Fit Center  673 is at  -1.883018 -1.622783  3.518849
      ESP Fit Center  674 is at  -1.403018 -2.454167  3.518849
      ESP Fit Center  675 is at  -0.443018 -2.454167  3.518849
      ESP Fit Center  676 is at   0.422190 -0.645432  2.816080
      ESP Fit Center  677 is at  -0.409194 -0.041396  2.816080
      ESP Fit Center  678 is at  -1.436842 -0.041396  2.816080
      ESP Fit Center  679 is at  -2.268226 -0.645432  2.816080
      ESP Fit Center  680 is at  -2.585787 -1.622783  2.816080
      ESP Fit Center  681 is at  -2.268226 -2.600134  2.816080
      ESP Fit Center  682 is at  -1.883018  0.039986  1.856080
      ESP Fit Center  683 is at  -2.585787 -0.662783  1.856080
      ESP Fit Center  684 is at  -2.843018 -1.622783  1.856080
      ESP Fit Center  685 is at  -2.990492 -3.007203  1.778471
      ESP Fit Center  686 is at  -3.247723 -3.007203  0.818471
      ESP Fit Center  687 is at  -2.990492 -3.967203  0.818471
      ESP Fit Center  688 is at  -2.990492 -3.007203 -0.141529
      ESP Fit Center  689 is at  -2.672931 -3.984554 -0.141529
      ESP Fit Center  690 is at  -2.287723 -3.007203 -0.844298
      ESP Fit Center  691 is at  -1.807723 -3.838587 -0.844298
      ESP Fit Center  692 is at  -1.836069 -2.678445 -1.730353
      ESP Fit Center  693 is at  -1.127951 -0.358550 -2.396302
      ESP Fit Center  694 is at  -2.162058  0.543434  0.460360
      ESP Fit Center  695 is at  -2.993442 -0.060602  0.460360
      ESP Fit Center  696 is at  -3.311003 -1.037953  0.460360
      ESP Fit Center  697 is at  -2.993442 -2.015304  0.460360
      ESP Fit Center  698 is at  -2.608234  0.624816 -0.499640
      ESP Fit Center  699 is at  -3.311003 -0.077953 -0.499640
      ESP Fit Center  700 is at  -3.568234 -1.037953 -0.499640
      ESP Fit Center  701 is at  -3.311003 -1.997953 -0.499640
      ESP Fit Center  702 is at  -2.162058  0.543434 -1.459640
      ESP Fit Center  703 is at  -2.993442 -0.060602 -1.459640
      ESP Fit Center  704 is at  -3.311003 -1.037953 -1.459640
      ESP Fit Center  705 is at  -2.993442 -2.015304 -1.459640
      ESP Fit Center  706 is at  -2.162058 -2.619340 -1.459640
      ESP Fit Center  707 is at  -2.128234 -0.206569 -2.162409
      ESP Fit Center  708 is at  -2.608234 -1.037953 -2.162409
      ESP Fit Center  709 is at  -2.128234 -1.869337 -2.162409
      ESP Fit Center  710 is at  -1.648234 -1.037953 -2.419640
      ESP Fit Center  711 is at  -1.485347 -2.733685 -2.061685
      ESP Fit Center  712 is at  -0.653963 -3.337721 -2.061685
      ESP Fit Center  713 is at   1.205069 -2.733685 -2.061685
      ESP Fit Center  714 is at   0.819861 -1.756334 -2.764454
      ESP Fit Center  715 is at   0.339861 -0.924950 -2.764454
      ESP Fit Center  716 is at  -0.620139 -0.924950 -2.764454
      ESP Fit Center  717 is at  -1.100139 -1.756334 -2.764454
      ESP Fit Center  718 is at  -0.620139 -2.587718 -2.764454
      ESP Fit Center  719 is at   0.339861 -2.587718 -2.764454
      ESP Fit Center  720 is at  -0.140139 -1.756334 -3.021685
      ESP Fit Center  721 is at  -0.485950  0.841690  2.018170
      ESP Fit Center  722 is at  -0.541182  1.665588  1.396617
      ESP Fit Center  723 is at  -1.416834  1.029390  1.396617
      ESP Fit Center  724 is at  -0.774400  2.041924  0.498447
      ESP Fit Center  725 is at  -1.634627  1.448153  0.498447
      ESP Fit Center  726 is at  -0.774400  2.041924 -0.498447
      ESP Fit Center  727 is at  -1.634627  1.448153 -0.498447
      ESP Fit Center  728 is at  -0.541182  1.665588 -1.396617
      ESP Fit Center  729 is at  -1.416834  1.029390 -1.396617
      ESP Fit Center  730 is at  -0.485950  0.841690 -2.018170
      ESP Fit Center  731 is at   0.000000  0.000000 -2.240000
      ESP Fit Center  732 is at   2.760700 -2.174592 -0.900472
      ESP Fit Center  733 is at   3.463469 -1.471823 -0.900472
      ESP Fit Center  734 is at   2.314524 -2.093210 -1.860472
      ESP Fit Center  735 is at   3.145908 -1.489174 -1.860472
      ESP Fit Center  736 is at   2.760700 -0.511823 -2.563241
      ESP Fit Center  737 is at   2.280700  0.319561 -2.563241
      ESP Fit Center  738 is at   1.320700  0.319561 -2.563241
      ESP Fit Center  739 is at   0.840700 -0.511823 -2.563241
      ESP Fit Center  740 is at   1.320700 -1.343207 -2.563241
      ESP Fit Center  741 is at   2.280700 -1.343207 -2.563241
      ESP Fit Center  742 is at   1.800700 -0.511823 -2.820472
      ESP Fit Center  743 is at   1.821596 -0.525983  2.794220
      ESP Fit Center  744 is at   2.781596 -0.525983  2.536989
      ESP Fit Center  745 is at   2.301596  0.305401  2.536989
      ESP Fit Center  746 is at   1.341596  0.305401  2.536989
      ESP Fit Center  747 is at   0.861596 -0.525983  2.536989
      ESP Fit Center  748 is at   2.301596 -1.357367  2.536989
      ESP Fit Center  749 is at   3.484365 -0.525983  1.834220
      ESP Fit Center  750 is at   3.166804 -1.503334  1.834220
      ESP Fit Center  751 is at   3.484365 -1.485983  0.874220
      ESP Fit Center  752 is at   1.503976  1.949051  2.835978
      ESP Fit Center  753 is at   2.463976  1.949051  2.578747
      ESP Fit Center  754 is at   1.983976  2.780435  2.578747
      ESP Fit Center  755 is at   1.023976  2.780435  2.578747
      ESP Fit Center  756 is at   0.543976  1.949051  2.578747
      ESP Fit Center  757 is at   1.023976  1.117667  2.578747
      ESP Fit Center  758 is at   1.983976  1.117667  2.578747
      ESP Fit Center  759 is at   0.990152  3.530438  1.875978
      ESP Fit Center  760 is at   0.158768  2.926402  1.875978
      ESP Fit Center  761 is at  -0.158793  1.949051  1.875978
      ESP Fit Center  762 is at   1.503976  3.869051  0.915978
      ESP Fit Center  763 is at   0.543976  3.611820  0.915978
      ESP Fit Center  764 is at  -0.158793  2.909051  0.915978
      ESP Fit Center  765 is at   0.448303  3.634119 -0.858843
      ESP Fit Center  766 is at  -0.254466  2.931350 -0.858843
      ESP Fit Center  767 is at   0.063095  2.948701 -1.818843
      ESP Fit Center  768 is at  -0.254466  1.971350 -1.818843
      ESP Fit Center  769 is at   2.368303  1.971350 -2.521612
      ESP Fit Center  770 is at   1.888303  2.802734 -2.521612
      ESP Fit Center  771 is at   0.928303  2.802734 -2.521612
      ESP Fit Center  772 is at   0.448303  1.971350 -2.521612
      ESP Fit Center  773 is at   0.928303  1.139966 -2.521612
      ESP Fit Center  774 is at   1.888303  1.139966 -2.521612
      ESP Fit Center  775 is at   1.408303  1.971350 -2.778843
      ESP Fit Center  776 is at   3.691094  1.560057  2.732749
      ESP Fit Center  777 is at   4.762608  1.560057  2.519612
      ESP Fit Center  778 is at   2.619580  1.560057  2.519612
      ESP Fit Center  779 is at   3.155337  0.632099  2.519612
      ESP Fit Center  780 is at   4.226851  0.632099  2.519612
      ESP Fit Center  781 is at   5.670993  1.560057  1.912648
      ESP Fit Center  782 is at   3.691094 -0.419842  1.912648
      ESP Fit Center  783 is at   4.681043 -0.154586  1.912648
      ESP Fit Center  784 is at   5.405737  0.570108  1.912648
      ESP Fit Center  785 is at   6.277957  1.560057  1.004263
      ESP Fit Center  786 is at   4.490479 -0.900196  1.004263
      ESP Fit Center  787 is at   5.422043 -0.362357  1.004263
      ESP Fit Center  788 is at   6.054311  0.507885  1.004263
      ESP Fit Center  789 is at   6.491094  1.560057 -0.067251
      ESP Fit Center  790 is at   3.949445 -1.227999 -0.067251
      ESP Fit Center  791 is at   4.939161 -0.946400 -0.067251
      ESP Fit Center  792 is at   5.760319 -0.326291 -0.067251
      ESP Fit Center  793 is at   6.302016  0.548580 -0.067251
      ESP Fit Center  794 is at   6.277957  1.560057 -1.138765
      ESP Fit Center  795 is at   6.054311  2.612229 -1.138765
      ESP Fit Center  796 is at   4.490479 -0.900196 -1.138765
      ESP Fit Center  797 is at   5.422043 -0.362357 -1.138765
      ESP Fit Center  798 is at   6.054311  0.507885 -1.138765
      ESP Fit Center  799 is at   5.670993  1.560057 -2.047150
      ESP Fit Center  800 is at   5.405737  2.550006 -2.047150
      ESP Fit Center  801 is at   3.691094 -0.419842 -2.047150
      ESP Fit Center  802 is at   4.681043 -0.154586 -2.047150
      ESP Fit Center  803 is at   5.405737  0.570108 -2.047150
      ESP Fit Center  804 is at   4.762608  1.560057 -2.654114
      ESP Fit Center  805 is at   3.155337  2.488015 -2.654114
      ESP Fit Center  806 is at   2.619580  1.560057 -2.654114
      ESP Fit Center  807 is at   3.155337  0.632099 -2.654114
      ESP Fit Center  808 is at   4.226851  0.632099 -2.654114
      ESP Fit Center  809 is at   3.691094  1.560057 -2.867251
      ESP Fit Center  810 is at   4.992106  3.337978  2.487202
      ESP Fit Center  811 is at   4.471445  2.436168  2.487202
      ESP Fit Center  812 is at   3.401126  3.593083  3.156722
      ESP Fit Center  813 is at   4.361126  3.593083  2.899491
      ESP Fit Center  814 is at   3.881126  4.424467  2.899491
      ESP Fit Center  815 is at   2.921126  4.424467  2.899491
      ESP Fit Center  816 is at   2.441126  3.593083  2.899491
      ESP Fit Center  817 is at   2.921126  2.761699  2.899491
      ESP Fit Center  818 is at   3.881126  2.761699  2.899491
      ESP Fit Center  819 is at   2.887302  5.174470  2.196722
      ESP Fit Center  820 is at   2.055918  4.570434  2.196722
      ESP Fit Center  821 is at   1.738357  3.593083  2.196722
      ESP Fit Center  822 is at   1.738357  4.553083  1.236722
      ESP Fit Center  823 is at   5.018155  3.414247  2.473233
      ESP Fit Center  824 is at   5.978155  3.414247  2.216002
      ESP Fit Center  825 is at   5.498155  2.582863  2.216002
      ESP Fit Center  826 is at   6.363363  2.436896  1.513233
      ESP Fit Center  827 is at   6.680924  2.454247  0.553233
      ESP Fit Center  828 is at   6.363363  2.436896 -0.406767
      ESP Fit Center  829 is at   1.554326  4.169576  0.592678
      ESP Fit Center  830 is at   0.851557  4.169576 -0.110091
      ESP Fit Center  831 is at   0.851557  5.129576 -1.070091
      ESP Fit Center  832 is at   0.594326  4.169576 -1.070091
      ESP Fit Center  833 is at   1.169118  5.146927 -2.030091
      ESP Fit Center  834 is at   0.851557  4.169576 -2.030091
      ESP Fit Center  835 is at   2.034326  5.000960 -2.732860
      ESP Fit Center  836 is at   1.554326  4.169576 -2.732860
      ESP Fit Center  837 is at   2.034326  3.338192 -2.732860
      ESP Fit Center  838 is at   2.514326  4.169576 -2.990091
      ESP Fit Center  839 is at   5.809407  3.084618 -1.721314
      ESP Fit Center  840 is at   5.809407  4.044618 -2.681314
      ESP Fit Center  841 is at   4.660462  2.463231 -2.681314
      ESP Fit Center  842 is at   5.491846  3.067267 -2.681314
      ESP Fit Center  843 is at   5.106638  4.044618 -3.384083
      ESP Fit Center  844 is at   4.626638  4.876002 -3.384083
      ESP Fit Center  845 is at   3.666638  4.876002 -3.384083
      ESP Fit Center  846 is at   3.186638  4.044618 -3.384083
      ESP Fit Center  847 is at   3.666638  3.213234 -3.384083
      ESP Fit Center  848 is at   4.626638  3.213234 -3.384083
      ESP Fit Center  849 is at   4.146638  4.044618 -3.641314
      ESP Fit Center  850 is at   3.754669  6.072948  2.363044
      ESP Fit Center  851 is at   3.218912  7.000906  2.149907
      ESP Fit Center  852 is at   2.683155  6.072948  2.149907
      ESP Fit Center  853 is at   4.290426  5.144990  2.149907
      ESP Fit Center  854 is at   3.754669  8.052847  1.542943
      ESP Fit Center  855 is at   2.764720  7.787591  1.542943
      ESP Fit Center  856 is at   2.040026  7.062897  1.542943
      ESP Fit Center  857 is at   1.774770  6.072948  1.542943
      ESP Fit Center  858 is at   2.040026  5.082999  1.542943
      ESP Fit Center  859 is at   4.554054  8.533201  0.634558
      ESP Fit Center  860 is at   3.484268  8.645640  0.634558
      ESP Fit Center  861 is at   2.461238  8.313237  0.634558
      ESP Fit Center  862 is at   1.661853  7.593468  0.634558
      ESP Fit Center  863 is at   1.224335  6.610787  0.634558
      ESP Fit Center  864 is at   1.224335  5.535109  0.634558
      ESP Fit Center  865 is at   1.661853  4.552428  0.634558
      ESP Fit Center  866 is at   4.013020  8.861004 -0.436956
      ESP Fit Center  867 is at   2.988413  8.766060 -0.436956
      ESP Fit Center  868 is at   2.067292  8.307396 -0.436956
      ESP Fit Center  869 is at   1.374061  7.546958 -0.436956
      ESP Fit Center  870 is at   1.002344  6.587447 -0.436956
      ESP Fit Center  871 is at   1.002344  5.558449 -0.436956
      ESP Fit Center  872 is at   3.484268  8.645640 -1.508470
      ESP Fit Center  873 is at   2.461238  8.313237 -1.508470
      ESP Fit Center  874 is at   1.661853  7.593468 -1.508470
      ESP Fit Center  875 is at   1.224335  6.610787 -1.508470
      ESP Fit Center  876 is at   1.224335  5.535109 -1.508470
      ESP Fit Center  877 is at   3.754669  8.052847 -2.416855
      ESP Fit Center  878 is at   2.764720  7.787591 -2.416855
      ESP Fit Center  879 is at   2.040026  7.062897 -2.416855
      ESP Fit Center  880 is at   1.774770  6.072948 -2.416855
      ESP Fit Center  881 is at   4.826183  6.072948 -3.023819
      ESP Fit Center  882 is at   4.290426  7.000906 -3.023819
      ESP Fit Center  883 is at   3.218912  7.000906 -3.023819
      ESP Fit Center  884 is at   2.683155  6.072948 -3.023819
      ESP Fit Center  885 is at   3.754669  6.072948 -3.236956
      ESP Fit Center  886 is at   6.231569  8.907551  0.005162
      ESP Fit Center  887 is at   5.203921  8.907551  0.005162
      ESP Fit Center  888 is at   6.677745  8.988933 -0.954838
      ESP Fit Center  889 is at   5.717745  9.246164 -0.954838
      ESP Fit Center  890 is at   4.757745  8.988933 -0.954838
      ESP Fit Center  891 is at   7.380514  7.326164 -1.914838
      ESP Fit Center  892 is at   7.062953  8.303515 -1.914838
      ESP Fit Center  893 is at   6.231569  8.907551 -1.914838
      ESP Fit Center  894 is at   5.203921  8.907551 -1.914838
      ESP Fit Center  895 is at   6.677745  7.326164 -2.617607
      ESP Fit Center  896 is at   6.197745  8.157548 -2.617607
      ESP Fit Center  897 is at   5.237745  8.157548 -2.617607
      ESP Fit Center  898 is at   5.717745  7.326164 -2.874838
      ESP Fit Center  899 is at   7.337561  6.593756 -2.218483
      ESP Fit Center  900 is at   6.952353  5.616405 -2.921252
      ESP Fit Center  901 is at   6.472353  6.447789 -2.921252
      ESP Fit Center  902 is at   5.032353  5.616405 -2.921252
      ESP Fit Center  903 is at   5.512353  4.785021 -2.921252
      ESP Fit Center  904 is at   6.472353  4.785021 -2.921252
      ESP Fit Center  905 is at   5.992353  5.616405 -3.178483
      ESP Fit Center  906 is at   4.494200  5.708200  2.314525
      ESP Fit Center  907 is at   5.837080  6.939191  3.440947
      ESP Fit Center  908 is at   6.317080  7.770575  3.183716
      ESP Fit Center  909 is at   5.357080  7.770575  3.183716
      ESP Fit Center  910 is at   4.877080  6.939191  3.183716
      ESP Fit Center  911 is at   5.357080  6.107807  3.183716
      ESP Fit Center  912 is at   6.350904  8.520578  2.480947
      ESP Fit Center  913 is at   5.323256  8.520578  2.480947
      ESP Fit Center  914 is at   4.491872  7.916542  2.480947
      ESP Fit Center  915 is at   4.174311  6.939191  2.480947
      ESP Fit Center  916 is at   4.491872  5.961840  2.480947
      ESP Fit Center  917 is at   5.837080  8.859191  1.520947
      ESP Fit Center  918 is at   4.877080  8.601960  1.520947
      ESP Fit Center  919 is at   5.323256  8.520578  0.560947
      ESP Fit Center  920 is at   6.205369  5.239916  3.180873
      ESP Fit Center  921 is at   5.245369  5.239916  2.923642
      ESP Fit Center  922 is at   5.725369  4.408532  2.923642
      ESP Fit Center  923 is at   6.685369  4.408532  2.923642
      ESP Fit Center  924 is at   4.542600  5.239916  2.220873
      ESP Fit Center  925 is at   6.719193  3.658529  2.220873
      ESP Fit Center  926 is at   8.082068  6.686593  3.543420
      ESP Fit Center  927 is at   9.153582  6.686593  3.330283
      ESP Fit Center  928 is at   8.617825  7.614551  3.330283
      ESP Fit Center  929 is at   7.546311  7.614551  3.330283
      ESP Fit Center  930 is at   7.010554  6.686593  3.330283
      ESP Fit Center  931 is at   7.546311  5.758635  3.330283
      ESP Fit Center  932 is at   8.617825  5.758635  3.330283
      ESP Fit Center  933 is at  10.061967  6.686593  2.723319
      ESP Fit Center  934 is at   9.796711  7.676542  2.723319
      ESP Fit Center  935 is at   9.072017  8.401236  2.723319
      ESP Fit Center  936 is at   8.082068  8.666492  2.723319
      ESP Fit Center  937 is at   7.092119  8.401236  2.723319
      ESP Fit Center  938 is at   9.796711  5.696644  2.723319
      ESP Fit Center  939 is at  10.445285  7.738765  1.814934
      ESP Fit Center  940 is at   9.813017  8.609007  1.814934
      ESP Fit Center  941 is at   8.881453  9.146846  1.814934
      ESP Fit Center  942 is at   7.811667  9.259285  1.814934
      ESP Fit Center  943 is at   6.788637  8.926882  1.814934
      ESP Fit Center  944 is at  10.692990  7.698070  0.743420
      ESP Fit Center  945 is at  10.151293  8.572941  0.743420
      ESP Fit Center  946 is at   9.330135  9.193050  0.743420
      ESP Fit Center  947 is at   8.340419  9.474649  0.743420
      ESP Fit Center  948 is at   7.315812  9.379705  0.743420
      ESP Fit Center  949 is at   6.394691  8.921041  0.743420
      ESP Fit Center  950 is at  10.668931  6.686593 -0.328094
      ESP Fit Center  951 is at  10.445285  7.738765 -0.328094
      ESP Fit Center  952 is at   9.813017  8.609007 -0.328094
      ESP Fit Center  953 is at   8.881453  9.146846 -0.328094
      ESP Fit Center  954 is at   7.811667  9.259285 -0.328094
      ESP Fit Center  955 is at   6.788637  8.926882 -0.328094
      ESP Fit Center  956 is at  10.061967  6.686593 -1.236479
      ESP Fit Center  957 is at   9.796711  7.676542 -1.236479
      ESP Fit Center  958 is at   9.072017  8.401236 -1.236479
      ESP Fit Center  959 is at   8.082068  8.666492 -1.236479
      ESP Fit Center  960 is at   8.617825  7.614551 -1.843443
      ESP Fit Center  961 is at   7.546311  7.614551 -1.843443
      ESP Fit Center  962 is at   8.082068  6.686593 -2.056580
      ESP Fit Center  963 is at   9.943413  5.047405  2.738284
      ESP Fit Center  964 is at  10.360950  3.218055  1.110009
      ESP Fit Center  965 is at  10.917315  5.267101  2.434624
      ESP Fit Center  966 is at  10.437315  6.098485  2.434624
      ESP Fit Center  967 is at  10.437315  4.435717  2.434624
      ESP Fit Center  968 is at  11.620084  5.267101  1.731855
      ESP Fit Center  969 is at  11.302523  6.244452  1.731855
      ESP Fit Center  970 is at  11.302523  4.289750  1.731855
      ESP Fit Center  971 is at  11.877315  5.267101  0.771855
      ESP Fit Center  972 is at  11.620084  6.227101  0.771855
      ESP Fit Center  973 is at  10.917315  6.929870  0.771855
      ESP Fit Center  974 is at  10.917315  3.604332  0.771855
      ESP Fit Center  975 is at  11.620084  4.307101  0.771855
      ESP Fit Center  976 is at  11.620084  5.267101 -0.188145
      ESP Fit Center  977 is at  11.302523  6.244452 -0.188145
      ESP Fit Center  978 is at  11.302523  4.289750 -0.188145
      ESP Fit Center  979 is at   8.555552  4.403382  3.312394
      ESP Fit Center  980 is at   9.515552  4.403382  3.055163
      ESP Fit Center  981 is at   9.035552  5.234766  3.055163
      ESP Fit Center  982 is at   7.595552  4.403382  3.055163
      ESP Fit Center  983 is at   8.075552  3.571998  3.055163
      ESP Fit Center  984 is at   9.035552  3.571998  3.055163
      ESP Fit Center  985 is at   7.210344  3.426031  2.352394
      ESP Fit Center  986 is at   8.041728  2.821995  2.352394
      ESP Fit Center  987 is at   9.069376  2.821995  2.352394
      ESP Fit Center  988 is at   9.900760  3.426031  2.352394
      ESP Fit Center  989 is at   6.892783  3.443382  1.392394
      ESP Fit Center  990 is at   7.595552  2.740613  1.392394
      ESP Fit Center  991 is at   8.555552  2.483382  1.392394
      ESP Fit Center  992 is at   9.515552  2.740613  1.392394
      ESP Fit Center  993 is at   8.483013  2.494945  0.720111
      ESP Fit Center  994 is at  11.089879  4.352242 -1.310315
      ESP Fit Center  995 is at   8.483013  2.494945 -2.272641
      ESP Fit Center  996 is at   7.708731  4.352242 -2.938590
      ESP Fit Center  997 is at   8.229392  3.450432 -2.938590
      ESP Fit Center  998 is at   9.270712  3.450432 -2.938590
      ESP Fit Center  999 is at   9.829905  2.602041  0.865356
      ESP Fit Center 1000 is at  11.012674  3.433425  0.162587
      ESP Fit Center 1001 is at   8.836081  1.852038  0.162587
      ESP Fit Center 1002 is at   9.863729  1.852038  0.162587
      ESP Fit Center 1003 is at  10.695113  2.456074  0.162587
      ESP Fit Center 1004 is at  11.269905  3.433425 -0.797413
      ESP Fit Center 1005 is at   8.389905  1.770656 -0.797413
      ESP Fit Center 1006 is at   9.349905  1.513425 -0.797413
      ESP Fit Center 1007 is at  10.309905  1.770656 -0.797413
      ESP Fit Center 1008 is at  11.012674  2.473425 -0.797413
      ESP Fit Center 1009 is at  11.012674  3.433425 -1.757413
      ESP Fit Center 1010 is at   8.836081  1.852038 -1.757413
      ESP Fit Center 1011 is at   9.863729  1.852038 -1.757413
      ESP Fit Center 1012 is at  10.695113  2.456074 -1.757413
      ESP Fit Center 1013 is at  10.309905  3.433425 -2.460182
      ESP Fit Center 1014 is at   8.869905  2.602041 -2.460182
      ESP Fit Center 1015 is at   9.829905  2.602041 -2.460182
      ESP Fit Center 1016 is at   7.196597  2.487550 -0.011988
      ESP Fit Center 1017 is at   6.750421  2.406168 -0.971988
      ESP Fit Center 1018 is at   7.710421  2.148937 -0.971988
      ESP Fit Center 1019 is at   6.365213  3.091586 -1.931988
      ESP Fit Center 1020 is at   7.196597  2.487550 -1.931988
      ESP Fit Center 1021 is at   7.230421  4.900321 -2.634757
      ESP Fit Center 1022 is at   6.750421  4.068937 -2.634757
      ESP Fit Center 1023 is at   7.230421  3.237553 -2.634757
      ESP Fit Center 1024 is at  11.004325  5.000578 -1.592262
      ESP Fit Center 1025 is at  10.747094  5.960578 -1.592262
      ESP Fit Center 1026 is at  10.044325  6.663347 -1.592262
      ESP Fit Center 1027 is at  10.747094  5.000578 -2.552262
      ESP Fit Center 1028 is at  10.429533  5.977929 -2.552262
      ESP Fit Center 1029 is at   9.598149  6.581965 -2.552262
      ESP Fit Center 1030 is at   8.570501  6.581965 -2.552262
      ESP Fit Center 1031 is at   7.739117  5.977929 -2.552262
      ESP Fit Center 1032 is at  10.429533  4.023227 -2.552262
      ESP Fit Center 1033 is at  10.044325  5.000578 -3.255031
      ESP Fit Center 1034 is at   9.564325  5.831962 -3.255031
      ESP Fit Center 1035 is at   8.604325  5.831962 -3.255031
      ESP Fit Center 1036 is at   8.124325  5.000578 -3.255031
      ESP Fit Center 1037 is at   8.604325  4.169194 -3.255031
      ESP Fit Center 1038 is at   9.564325  4.169194 -3.255031
      ESP Fit Center 1039 is at   9.084325  5.000578 -3.512262
      ESP Fit Center 1040 is at  -2.811275 -6.541258  4.319519
      ESP Fit Center 1041 is at  -3.844520 -6.541258  4.113994
      ESP Fit Center 1042 is at  -5.305750 -6.541258  2.652764
      ESP Fit Center 1043 is at  -5.511275 -6.541258  1.619519
      ESP Fit Center 1044 is at  -5.058719 -5.458946  0.586274
      ESP Fit Center 1045 is at  -5.305750 -6.541258  0.586274
      ESP Fit Center 1046 is at  -5.058719 -7.623570  0.586274
      ESP Fit Center 1047 is at  -4.366555 -8.491517  0.586274
[...]
 1349 Fit       0.012128
 1350 Fit       0.001306
 1351 Fit       0.003983
 1352 Fit       0.004173
 1353 Fit       0.003523
 1354 Fit       0.007035
 1355 Fit      -0.002246
 1356 Fit       0.003523
 1357 Fit       0.003847
 1358 Fit       0.012995
 1359 Fit       0.006108
 1360 Fit       0.007196
 1361 Fit       0.003997
 1362 Fit      -0.000721
 1363 Fit       0.001693
 1364 Fit       0.000713
 1365 Fit       0.002860
 1366 Fit       0.003626
 1367 Fit      -0.009723
 1368 Fit      -0.013233
 1369 Fit      -0.012735
 1370 Fit      -0.002116
 1371 Fit      -0.007920
 1372 Fit      -0.014053
 1373 Fit      -0.015277
 1374 Fit      -0.011831
 1375 Fit      -0.006464
 1376 Fit      -0.012404
 1377 Fit      -0.014999
 1378 Fit      -0.013757
 1379 Fit      -0.009050
 1380 Fit      -0.001487
 1381 Fit      -0.002274
 1382 Fit      -0.009213
 1383 Fit      -0.013750
 1384 Fit      -0.014861
 1385 Fit      -0.012231
 1386 Fit      -0.006378
 1387 Fit       0.002098
 1388 Fit      -0.003062
 1389 Fit      -0.010561
 1390 Fit      -0.014971
 1391 Fit      -0.015646
 1392 Fit      -0.012338
 1393 Fit      -0.005446
 1394 Fit      -0.010126
 1395 Fit      -0.015680
 1396 Fit      -0.017166
 1397 Fit      -0.014181
 1398 Fit      -0.007096
 1399 Fit      -0.005866
 1400 Fit      -0.013066
 1401 Fit      -0.017194
 1402 Fit      -0.016145
 1403 Fit      -0.010110
 1404 Fit      -0.002416
 1405 Fit      -0.009881
 1406 Fit      -0.014879
 1407 Fit      -0.011379
 1408 Fit      -0.003462
 1409 Fit      -0.008733
 1410 Fit       0.002442
 1411 Fit      -0.005514
 1412 Fit       0.000330
 1413 Fit       0.000447
 1414 Fit      -0.007156
 1415 Fit      -0.001141
 1416 Fit       0.000228
 1417 Fit      -0.004105
 1418 Fit      -0.001074
 1419 Fit      -0.000451
 1420 Fit      -0.002087
 1421 Fit      -0.000640
 1422 Fit       0.005310
 1423 Fit       0.002021
 1424 Fit       0.009599
 1425 Fit       0.005496
 1426 Fit      -0.001525
 1427 Fit      -0.003466
 1428 Fit      -0.000889
 1429 Fit      -0.003619
 1430 Fit       0.000171
 1431 Fit      -0.000763
 1432 Fit       0.000734
 1433 Fit       0.000410
 1434 Fit      -0.000382
 1435 Fit      -0.005439
 1436 Fit       0.000352
 1437 Fit       0.001360
 1438 Fit       0.003010
 1439 Fit       0.002516
 1440 Fit       0.007034
 1441 Fit       0.008404
 1442 Fit      -0.013919
 1443 Fit      -0.014660
 1444 Fit      -0.017615
 1445 Fit      -0.013697
 1446 Fit      -0.008327
 1447 Fit      -0.006522
 1448 Fit      -0.009038
 1449 Fit      -0.010726
 1450 Fit      -0.015948
 1451 Fit      -0.018103
 1452 Fit      -0.015835
 1453 Fit      -0.009752
 1454 Fit      -0.005191
 1455 Fit      -0.003624
 1456 Fit      -0.010904
 1457 Fit      -0.015633
 1458 Fit      -0.016790
 1459 Fit      -0.014049
 1460 Fit      -0.008036
 1461 Fit      -0.006497
 1462 Fit      -0.012722
 1463 Fit      -0.015592
 1464 Fit      -0.014662
 1465 Fit      -0.010224
 1466 Fit      -0.003265
 1467 Fit      -0.005586
 1468 Fit      -0.012151
 1469 Fit      -0.015419
 1470 Fit      -0.014780
 1471 Fit      -0.010343
 1472 Fit      -0.002796
 1473 Fit       0.000114
 1474 Fit      -0.008103
 1475 Fit      -0.014072
 1476 Fit      -0.016325
 1477 Fit      -0.014043
 1478 Fit      -0.006762
 1479 Fit      -0.011625
 1480 Fit      -0.015961
 1481 Fit      -0.014503
 1482 Fit      -0.013146
 1483 Fit      -0.009431
 1484 Fit       0.000290
 1485 Fit       0.006187
 1486 Fit       0.008471
 1487 Fit       0.003378
 1488 Fit       0.005235
 1489 Fit       0.006282
 1490 Fit       0.003144
 1491 Fit       0.007392
 1492 Fit       0.007572
 1493 Fit       0.005213
 1494 Fit       0.009608
 1495 Fit       0.008635
 1496 Fit       0.007440
 1497 Fit       0.004711
 1498 Fit       0.008862
 1499 Fit       0.003257
 1500 Fit       0.003142
 1501 Fit       0.006392
 1502 Fit       0.007884
 1503 Fit       0.006469
 1504 Fit       0.011152
 1505 Fit       0.009023
 1506 Fit       0.008078
 1507 Fit       0.007026
 1508 Fit       0.010483
 1509 Fit       0.009351
 1510 Fit       0.009488
 1511 Fit       0.006999
 1512 Fit       0.007515
 1513 Fit       0.004639
 1514 Fit       0.004813
 1515 Fit       0.003434
 1516 Fit       0.004989
 1517 Fit       0.003638
 1518 Fit       0.003266
 1519 Fit       0.009632
 1520 Fit       0.009768
 1521 Fit       0.007109
 1522 Fit       0.008163
 1523 Fit       0.008760
 1524 Fit       0.007418
 1525 Fit       0.004964
 1526 Fit       0.006603
 1527 Fit       0.007633
 1528 Fit       0.007726
 1529 Fit       0.005419
 1530 Fit       0.004832
 1531 Fit       0.006137
 1532 Fit       0.006279
 1533 Fit       0.004495
 1534 Fit       0.005074
 1535 Fit       0.006404
 1536 Fit       0.003946
 1537 Fit       0.010740
 1538 Fit       0.005934
 1539 Fit       0.005076
 1540 Fit       0.003206
 1541 Fit      -0.002876
 1542 Fit       0.004090
 1543 Fit       0.002841
 1544 Fit      -0.000706
 1545 Fit      -0.004396
 1546 Fit      -0.002012
 1547 Fit       0.003993
 1548 Fit       0.004037
 1549 Fit       0.002902
 1550 Fit       0.002226
 1551 Fit       0.004085
 1552 Fit       0.003745
 1553 Fit       0.003693
 1554 Fit       0.003814
 1555 Fit       0.005169
 1556 Fit       0.005626
 1557 Fit       0.003501
 1558 Fit       0.003950
 1559 Fit       0.002863
 1560 Fit       0.003315
 1561 Fit       0.004445
 1562 Fit       0.007816
 1563 Fit       0.001177
 1564 Fit       0.002195
 1565 Fit       0.002802
 1566 Fit       0.003523
 1567 Fit       0.004333
 1568 Fit       0.005134
 1569 Fit       0.005968
 1570 Fit       0.007230
 1571 Fit       0.003715
 1572 Fit       0.004296
 1573 Fit       0.004671
 1574 Fit       0.000314
 1575 Fit       0.003209
 1576 Fit       0.004382
 1577 Fit       0.004452
 1578 Fit       0.003297
 1579 Fit       0.004242
 1580 Fit       0.004246
 1581 Fit       0.003858
 1582 Fit       0.003137
 1583 Fit       0.003643
 1584 Fit       0.003544
 1585 Fit       0.001184
 1586 Fit       0.002292
 1587 Fit       0.003306
 1588 Fit       0.004041
 1589 Fit       0.004800
 1590 Fit      -0.000553
 1591 Fit       0.002273
 1592 Fit       0.003583
 1593 Fit       0.004432
 1594 Fit       0.005055
 1595 Fit       0.005504
 1596 Fit       0.005637
 1597 Fit       0.004029
 1598 Fit       0.001293
 1599 Fit      -0.000107
 1600 Fit       0.002641
 1601 Fit       0.004339
 1602 Fit       0.005036
 1603 Fit       0.004505
 1604 Fit       0.003626
 1605 Fit       0.007516
 1606 Fit       0.006381
 1607 Fit       0.007824
 1608 Fit       0.008993
 1609 Fit       0.005029
 1610 Fit       0.006327
 1611 Fit       0.007637
 1612 Fit       0.008616
 1613 Fit       0.009588
 1614 Fit       0.004823
 1615 Fit       0.006158
 1616 Fit       0.007316
 1617 Fit       0.008183
 1618 Fit       0.009034
 1619 Fit       0.005260
 1620 Fit       0.006384
 1621 Fit       0.007252
 1622 Fit       0.008199
 1623 Fit       0.009686
 1624 Fit       0.010113
 1625 Fit       0.009483
 1626 Fit       0.009203
 1627 Fit       0.009419
 1628 Fit       0.002352
 1629 Fit       0.006524
 1630 Fit       0.006681
 1631 Fit       0.004904
 1632 Fit       0.004993
 1633 Fit       0.006620
 1634 Fit       0.007726
 1635 Fit       0.007605
 1636 Fit       0.007755
 1637 Fit       0.001786
 1638 Fit       0.001492
 1639 Fit       0.003918
 1640 Fit       0.009218
 1641 Fit       0.009062
 1642 Fit       0.008523
 1643 Fit       0.008132
 1644 Fit       0.009826
 1645 Fit       0.009172
 1646 Fit       0.009292
 1647 Fit       0.009299
 1648 Fit       0.008989
 1649 Fit       0.009111
 1650 Fit       0.009814
 1651 Fit       0.008481
 1652 Fit       0.008633
 1653 Fit       0.009029
 1654 Fit       0.007637
 1655 Fit       0.008091
 1656 Fit       0.009015
 1657 Fit       0.005980
 1658 Fit       0.006526
 1659 Fit      -0.003991
 1660 Fit      -0.004779
 1661 Fit      -0.002995
 1662 Fit       0.000227
 1663 Fit      -0.007382
 1664 Fit       0.009761
 1665 Fit       0.008867
 1666 Fit       0.008223
 1667 Fit       0.009620
 1668 Fit       0.002771
 1669 Fit       0.009509
 1670 Fit       0.009088
 1671 Fit       0.010313
 1672 Fit       0.009870
 1673 Fit       0.009308
 1674 Fit       0.009388
 1675 Fit       0.011086
 1676 Fit       0.009410
 1677 Fit       0.009362
 1678 Fit       0.009729
 1679 Fit       0.011034
 1680 Fit       0.007993
 1681 Fit       0.008868
 1682 Fit       0.009577
 1683 Fit       0.010314
 1684 Fit       0.005892
 1685 Fit       0.008465
 1686 Fit       0.008453
 1687 Fit       0.003683
 1688 Fit       0.003572
 1689 Fit      -0.000799
 1690 Fit      -0.000970
 1691 Fit       0.006274
 1692 Fit       0.004089
 1693 Fit      -0.001197
 1694 Fit      -0.009616
 1695 Fit      -0.006669
 1696 Fit       0.008001
 1697 Fit       0.006583
 1698 Fit       0.006019
 1699 Fit       0.000773
 1700 Fit       0.007963
 1701 Fit      -0.000758
 1702 Fit       0.011099
 1703 Fit       0.005925
 1704 Fit       0.009513
 1705 Fit       0.009085
 1706 Fit       0.000194
 1707 Fit       0.002607
 1708 Fit      -0.004167
 1709 Fit       0.007231
 1710 Fit       0.004208
 1711 Fit      -0.000697
 1712 Fit       0.010773
 1713 Fit       0.007654
 1714 Fit       0.005275
 1715 Fit       0.001340
 1716 Fit      -0.002555
 1717 Fit       0.010706
 1718 Fit       0.008156
 1719 Fit       0.006110
 1720 Fit       0.003298
 1721 Fit       0.008623
 1722 Fit       0.007140
 1723 Fit       0.002718
 1724 Fit       0.001745
 1725 Fit       0.005567
 1726 Fit       0.008663
 1727 Fit       0.008031
 1728 Fit       0.007609
 1729 Fit       0.006604
 1730 Fit       0.007902
 1731 Fit       0.008256
 1732 Fit      -0.013005
 1733 Fit      -0.014039
 1734 Fit      -0.015371
 1735 Fit      -0.012576
 1736 Fit      -0.016313
 1737 Fit      -0.015359
 1738 Fit      -0.008836
 1739 Fit      -0.005287
 1740 Fit      -0.004092
 1741 Fit       0.001913
 1742 Fit       0.002393
 1743 Fit       0.004127
 1744 Fit      -0.003425
 1745 Fit      -0.009426
 1746 Fit      -0.004833
 1747 Fit      -0.001541
 1748 Fit      -0.000313
 1749 Fit      -0.002696
 1750 Fit      -0.008272
 1751 Fit      -0.010865
 1752 Fit      -0.006840
 1753 Fit      -0.004228
 1754 Fit      -0.000983
 1755 Fit       0.001100
 1756 Fit       0.001104
 1757 Fit      -0.009746
 1758 Fit      -0.003033
 1759 Fit       0.001170
 1760 Fit       0.002731
 1761 Fit       0.003352
 1762 Fit       0.004097
 1763 Fit       0.002666
 1764 Fit       0.001628
 1765 Fit      -0.003780
 1766 Fit       0.004899
 1767 Fit       0.005867
 1768 Fit      -0.000623
 1769 Fit       0.002928
 1770 Fit      -0.003619
 1771 Fit       0.002464
 1772 Fit      -0.003914
 1773 Fit       0.001595
 1774 Fit       0.004536
 1775 Fit       0.005994
 1776 Fit      -0.002607
 1777 Fit       0.002050
 1778 Fit       0.004590
 1779 Fit       0.005745
 1780 Fit       0.005828
 1781 Fit      -0.007215
 1782 Fit      -0.000787
 1783 Fit       0.002989
 1784 Fit       0.004902
 1785 Fit       0.005683
 1786 Fit      -0.000227
 1787 Fit       0.003258
 1788 Fit       0.006340
 1789 Fit       0.008247
 1790 Fit       0.008124
 1791 Fit       0.005212
 1792 Fit       0.002366
 1793 Fit       0.001561
 1794 Fit       0.004137
 1795 Fit       0.006083
 1796 Fit       0.006860
 1797 Fit       0.004512
 1798 Fit      -0.011329
 1799 Fit      -0.013163
 1800 Fit      -0.012051
 1801 Fit      -0.014377
 1802 Fit      -0.013670
 1803 Fit      -0.014860
 1804 Fit      -0.012180
 1805 Fit      -0.013086
 1806 Fit      -0.011902
 1807 Fit      -0.010772
 1808 Fit      -0.009205
 1809 Fit      -0.007623
 1810 Fit      -0.001595
 1811 Fit       0.002749
 1812 Fit       0.004562
 1813 Fit      -0.000000
 1814 Fit      -0.001683
 1815 Fit      -0.000222
 1816 Fit       0.001608
 1817 Fit       0.004733
 1818 Fit       0.002806
 1819 Fit       0.001258
 1820 Fit      -0.011444
 1821 Fit      -0.011369
 1822 Fit      -0.008230
 1823 Fit      -0.007124
 1824 Fit      -0.012202
 1825 Fit      -0.007214
 1826 Fit      -0.000464
 1827 Fit       0.003615
 1828 Fit       0.001478
 1829 Fit      -0.002220
 1830 Fit      -0.004431
 1831 Fit      -0.004533
 1832 Fit       0.003866
 1833 Fit       0.000458
 1834 Fit      -0.004024
 1835 Fit      -0.010210
 1836 Fit       0.003249
 1837 Fit      -0.000080
 1838 Fit      -0.005421
 1839 Fit       0.000869
 1840 Fit       0.002302
 1841 Fit      -0.004196
 1842 Fit       0.002540
 1843 Fit      -0.002454
 1844 Fit       0.002558
 1845 Fit       0.002693
 1846 Fit      -0.000337
 1847 Fit      -0.000788
 1848 Fit       0.000589
 1849 Fit      -0.006894
 1850 Fit      -0.007022
 1851 Fit      -0.001696
 1852 Fit      -0.004153
 1853 Fit      -0.009884
 1854 Fit      -0.011300
 1855 Fit      -0.004320
 1856 Fit      -0.013234
 1857 Fit      -0.013025
 1858 Fit      -0.010143
 1859 Fit      -0.000026
 1860 Fit      -0.012395
 1861 Fit      -0.011293
 1862 Fit      -0.007270
 1863 Fit       0.003134
 1864 Fit      -0.009086
 1865 Fit      -0.010188
 1866 Fit      -0.008884
 1867 Fit      -0.004482
 1868 Fit       0.003252
 1869 Fit      -0.003981
 1870 Fit      -0.007173
 1871 Fit      -0.008584
 1872 Fit      -0.007315
 1873 Fit      -0.003287
 1874 Fit       0.001055
 1875 Fit      -0.004897
 1876 Fit      -0.007779
 1877 Fit      -0.007747
 1878 Fit      -0.004692
 1879 Fit      -0.002369
 1880 Fit      -0.007143
 1881 Fit      -0.008708
 1882 Fit      -0.007056
 1883 Fit      -0.005739
 1884 Fit      -0.005883
 1885 Fit      -0.008988
 1886 Fit      -0.009081
 1887 Fit      -0.007735
 1888 Fit      -0.003250
 1889 Fit      -0.004575
 1890 Fit      -0.006685
 1891 Fit      -0.009218
 1892 Fit      -0.007485
 1893 Fit       0.003700
 1894 Fit       0.001920
 1895 Fit       0.002731
 1896 Fit       0.001299
 1897 Fit       0.000670
 1898 Fit       0.002620
 1899 Fit       0.001013
 1900 Fit      -0.000371
 1901 Fit      -0.002422
 1902 Fit       0.002528
 1903 Fit       0.000975
 1904 Fit       0.007597
 1905 Fit       0.011108
 1906 Fit       0.000810
 1907 Fit       0.000349
 1908 Fit       0.003092
 1909 Fit       0.000574
 1910 Fit       0.003518
 1911 Fit       0.001637
 1912 Fit       0.004473
 1913 Fit       0.001895
 1914 Fit       0.002340
 1915 Fit       0.009235
 1916 Fit       0.004465
 1917 Fit       0.005122
 1918 Fit       0.002678
 1919 Fit      -0.000733
 1920 Fit       0.000909
 1921 Fit       0.000457
 1922 Fit       0.002053
 1923 Fit       0.002420
 1924 Fit      -0.006586
 1925 Fit      -0.009663
 1926 Fit      -0.009139
 1927 Fit      -0.000938
 1928 Fit      -0.006385
 1929 Fit      -0.010984
 1930 Fit      -0.011865
 1931 Fit      -0.009230
 1932 Fit      -0.005785
 1933 Fit      -0.010295
 1934 Fit      -0.012236
 1935 Fit      -0.011393
 1936 Fit      -0.007943
 1937 Fit      -0.001940
 1938 Fit      -0.001508
 1939 Fit      -0.006686
 1940 Fit      -0.010488
 1941 Fit      -0.012220
 1942 Fit      -0.011519
 1943 Fit      -0.008506
 1944 Fit      -0.003587
 1945 Fit       0.003168
 1946 Fit      -0.004584
 1947 Fit      -0.009013
 1948 Fit      -0.011839
 1949 Fit      -0.012596
 1950 Fit      -0.011104
 1951 Fit      -0.007530
 1952 Fit      -0.002115
 1953 Fit      -0.008344
 1954 Fit      -0.012062
 1955 Fit      -0.013360
 1956 Fit      -0.011958
 1957 Fit      -0.007961
 1958 Fit      -0.001446
 1959 Fit      -0.009032
 1960 Fit      -0.012879
 1961 Fit      -0.013840
 1962 Fit      -0.011609
 1963 Fit      -0.006449
 1964 Fit      -0.005618
 1965 Fit      -0.010432
 1966 Fit      -0.013213
 1967 Fit      -0.012424
 1968 Fit      -0.008188
 1969 Fit      -0.002372
 1970 Fit      -0.002013
 1971 Fit      -0.007473
 1972 Fit      -0.010966
 1973 Fit      -0.008505
 1974 Fit      -0.002889
 1975 Fit      -0.006367
 1976 Fit      -0.000422
 1977 Fit       0.000626
 1978 Fit       0.001783
 1979 Fit      -0.001696
 1980 Fit      -0.000204
 1981 Fit      -0.001644
 1982 Fit      -0.000946
 1983 Fit      -0.005532
 1984 Fit      -0.001956
 1985 Fit      -0.001323
 1986 Fit      -0.001005
 1987 Fit      -0.001300
 1988 Fit      -0.002943
 1989 Fit       0.004302
 1990 Fit       0.001520
 1991 Fit       0.007409
 1992 Fit       0.004122
 1993 Fit      -0.002141
 1994 Fit       0.001755
 1995 Fit      -0.002167
 1996 Fit      -0.001766
 1997 Fit      -0.004231
 1998 Fit      -0.001142
 1999 Fit      -0.001330
 2000 Fit      -0.000037
 2001 Fit      -0.001212
 2002 Fit      -0.001424
 2003 Fit      -0.004418
 2004 Fit      -0.000466
 2005 Fit      -0.002120
 2006 Fit       0.000917
 2007 Fit       0.001831
 2008 Fit       0.001796
 2009 Fit       0.005013
 2010 Fit       0.005873
 2011 Fit      -0.010469
 2012 Fit      -0.011178
 2013 Fit      -0.013423
 2014 Fit      -0.010787
 2015 Fit      -0.006862
 2016 Fit      -0.005253
 2017 Fit      -0.007011
 2018 Fit      -0.008985
 2019 Fit      -0.012771
 2020 Fit      -0.014345
 2021 Fit      -0.012819
 2022 Fit      -0.008658
 2023 Fit       0.002180
 2024 Fit      -0.004764
 2025 Fit      -0.004571
 2026 Fit      -0.009686
 2027 Fit      -0.013070
 2028 Fit      -0.013898
 2029 Fit      -0.011957
 2030 Fit      -0.007664
 2031 Fit      -0.006083
 2032 Fit      -0.010648
 2033 Fit      -0.012972
 2034 Fit      -0.012783
 2035 Fit      -0.010189
 2036 Fit      -0.005713
 2037 Fit      -0.003826
 2038 Fit      -0.008847
 2039 Fit      -0.011915
 2040 Fit      -0.012780
 2041 Fit      -0.011372
 2042 Fit      -0.007963
 2043 Fit      -0.003111
 2044 Fit      -0.004627
 2045 Fit      -0.009640
 2046 Fit      -0.012449
 2047 Fit      -0.012613
 2048 Fit      -0.010040
 2049 Fit      -0.004868
 2050 Fit      -0.000344
 2051 Fit      -0.006698
 2052 Fit      -0.011226
 2053 Fit      -0.012932
 2054 Fit      -0.011221
 2055 Fit      -0.008508
 2056 Fit      -0.011814
 2057 Fit      -0.010764
 2058 Fit      -0.008908
 2059 Fit      -0.006389
 2060 Fit      -0.000603
 2061 Fit       0.004652
 2062 Fit       0.006821
 2063 Fit       0.008174
 2064 Fit       0.001801
 2065 Fit       0.004270
 2066 Fit       0.001095
 2067 Fit       0.005632
 2068 Fit       0.005724
 2069 Fit       0.003500
 2070 Fit       0.007663
 2071 Fit       0.006851
 2072 Fit       0.006201
 2073 Fit       0.004067
 2074 Fit       0.007440
 2075 Fit       0.005945
 2076 Fit       0.003332
 2077 Fit       0.002060
 2078 Fit       0.002061
 2079 Fit       0.004226
 2080 Fit       0.005845
 2081 Fit       0.004890
 2082 Fit       0.008452
 2083 Fit       0.007114
 2084 Fit       0.006482
 2085 Fit       0.005574
 2086 Fit       0.010403
 2087 Fit       0.007820
 2088 Fit       0.007556
 2089 Fit       0.007533
 2090 Fit       0.008289
 2091 Fit       0.006890
 2092 Fit       0.004233
 2093 Fit       0.005417
 2094 Fit       0.004760
 2095 Fit       0.003016
 2096 Fit       0.004031
 2097 Fit       0.004068
 2098 Fit       0.002982
 2099 Fit       0.003449
 2100 Fit       0.003537
 2101 Fit       0.004273
 2102 Fit       0.003298
 2103 Fit       0.003036
 2104 Fit       0.006694
 2105 Fit       0.007301
 2106 Fit       0.007922
 2107 Fit       0.007539
 2108 Fit       0.004860
 2109 Fit       0.006107
 2110 Fit       0.006875
 2111 Fit       0.007146
 2112 Fit       0.005771
 2113 Fit       0.004017
 2114 Fit       0.005378
 2115 Fit       0.006093
 2116 Fit       0.006110
 2117 Fit       0.004466
 2118 Fit       0.003827
 2119 Fit       0.004800
 2120 Fit       0.004973
 2121 Fit       0.003761
 2122 Fit       0.004378
 2123 Fit       0.002381
 2124 Fit       0.004783
 2125 Fit       0.003156
 2126 Fit       0.008440
 2127 Fit       0.004973
 2128 Fit       0.003894
 2129 Fit       0.002365
 2130 Fit      -0.001464
 2131 Fit       0.003371
 2132 Fit       0.002183
 2133 Fit      -0.000364
 2134 Fit      -0.002477
 2135 Fit      -0.000503
 2136 Fit       0.003555
 2137 Fit       0.003223
 2138 Fit       0.002198
 2139 Fit       0.001870
 2140 Fit       0.003456
 2141 Fit       0.003254
 2142 Fit       0.003080
 Job cpu time:       0 days  0 hours 11 minutes 57.3 seconds.
 Normal termination of Gaussian 16 at Sun Jul  9 07:14:07 2023.
