 Copyright (c) 1988-2019, Gaussian, Inc.  All Rights Reserved.
  
 This is part of the Gaussian(R) 16 program.  It is based on
 the Gaussian(R) 09 system (copyright 2009, Gaussian, Inc.),
 the Gaussian(R) 03 system (copyright 2003, Gaussian, Inc.),
 the Gaussian(R) 98 system (copyright 1998, Gaussian, Inc.),
 the Gaussian(R) 94 system (copyright 1995, Gaussian, Inc.),
 the Gaussian 92(TM) system (copyright 1992, Gaussian, Inc.),
 the Gaussian 90(TM) system (copyright 1990, Gaussian, Inc.),
 the Gaussian 88(TM) system (copyright 1988, Gaussian, Inc.),
 the Gaussian 86(TM) system (copyright 1986, Carnegie Mellon
 University), and the Gaussian 82(TM) system (copyright 1983,
 Carnegie Mellon University). Gaussian is a federally registered
 trademark of Gaussian, Inc.
 Cite this work as:
 Gaussian 16, Revision C.01,
 M. J. Frisch, G. W. Trucks, H. B. Schlegel, G. E. Scuseria, 
 M. A. Robb, J. R. Cheeseman, G. Scalmani, V. Barone, 
 G. A. Petersson, H. Nakatsuji, X. Li, M. Caricato, A. V. Marenich, 
 J. Bloino, B. G. Janesko, R. Gomperts, B. Mennucci, H. P. Hratchian, 
 J. V. Ortiz, A. F. Izmaylov, J. L. Sonnenberg, D. Williams-Young, 
 F. Ding, F. Lipparini, F. Egidi, J. Goings, B. Peng, A. Petrone, 
 T. Henderson, D. Ranasinghe, V. G. Zakrzewski, J. Gao, N. Rega, 
 G. Zheng, W. Liang, M. Hada, M. Ehara, K. Toyota, R. Fukuda, 
 J. Hasegawa, M. Ishida, T. Nakajima, Y. Honda, O. Kitao, H. Nakai, 
 T. Vreven, K. Throssell, J. A. Montgomery, Jr., J. E. Peralta, 
 F. Ogliaro, M. J. Bearpark, J. J. Heyd, E. N. Brothers, K. N. Kudin, 
 V. N. Staroverov, T. A. Keith, R. Kobayashi, J. Normand, 
 K. Raghavachari, A. P. Rendell, J. C. Burant, S. S. Iyengar, 
 J. Tomasi, M. Cossi, J. M. Millam, M. Klene, C. Adamo, R. Cammi, 
 J. W. Ochterski, R. L. Martin, K. Morokuma, O. Farkas, 
 J. B. Foresman, and D. J. Fox, Gaussian, Inc., Wallingford CT, 2019.
 
 ******************************************
 Gaussian 16:  EM64L-G16RevC.01  3-Jul-2019
                 8-Jul-2023 
 ******************************************
 ----------------------------------------------------------------------
 #P HF/6-31G(d) Opt=(Tight,MaxCycle=55) GFInput GFPrint SCF(Conver=8,XQ
 C,MaxConventionalCycles=64,MaxCycle=128) Test
 ----------------------------------------------------------------------
 1/6=55,7=10,18=20,19=15,38=1/1,3;
 2/9=110,12=2,17=6,18=5,40=1/2;
 3/5=1,6=6,7=1,11=9,24=110,25=1,30=1,71=1/1,2,3;
 4//1;
 5/5=2,6=8,7=128,8=3,13=1,38=5,85=64/2,8;
 6/7=2,8=2,9=2,10=2,28=1/1;
 7//1,2,3,16;
 1/6=55,7=10,18=20,19=15/3(2);
 2/9=110/2;
 99//99;
 2/9=110/2;
 3/5=1,6=6,7=1,11=9,25=1,30=1,71=1/1,2,3;
 4/5=5,16=3,69=1/1;
 5/5=2,6=8,7=128,8=3,13=1,38=5,85=64/2,8;
 7//1,2,3,16;
 1/6=55,7=10,18=20,19=15/3(-5);
 2/9=110/2;
 6/7=2,8=2,9=2,10=2,19=2,28=1/1;
 99/9=1/99;
 ----------------------------------------------------------
 Optimization step - Input generated by PyRED DVE-DMDS-OPLS
 ----------------------------------------------------------
 Symbolic Z-matrix:
 Charge =  0 Multiplicity = 1
 C                     6.478     3.246    -0.294 
 H                     5.751     3.783     0.323 
 H                     7.451     3.735    -0.194 
 H                     6.165     3.321    -1.34 
 C                     6.563     1.794     0.129 
 H                     6.883     1.716     1.18 
 H                     5.59      1.299     0.048 
 O                     7.524     1.162    -0.705 
 C                     7.881    -0.145    -0.334 
 H                     8.066    -0.211     0.75 
 H                     8.821    -0.362    -0.853 
 C                     6.861    -1.197    -0.725 
 H                     6.545    -1.019    -1.764 
 H                     7.322    -2.199    -0.678 
 O                     5.759    -1.121     0.148 
 C                     4.647    -1.876    -0.261 
 H                     4.853    -2.956    -0.178 
 H                     4.392    -1.659    -1.308 
 C                     3.473    -1.518     0.618 
 H                     3.771    -1.595     1.675 
 H                     2.655    -2.228     0.433 
 O                     3.078    -0.199     0.312 
 C                     2.179     0.375     1.229 
 H                     2.087     1.422     0.93 
 H                     2.597     0.343     2.248 
 C                     0.8      -0.278     1.246 
 H                     0.144     0.328     1.877 
 H                     0.844    -1.282     1.679 
 S                     0.131    -0.379    -0.448 
 C                    -1.588    -0.864    -0.079 
 H                    -1.978    -1.263    -1.019 
 H                    -1.591    -1.687     0.641 
 C                    -2.461     0.284     0.418 
 H                    -2.453     1.111    -0.298 
 H                    -2.074     0.679     1.361 
 S                    -4.182    -0.201     0.777 
 C                    -4.845    -0.237    -0.924 
 H                    -4.118    -0.724    -1.583 
 H                    -4.976     0.788    -1.283 
 C                    -6.155    -1.012    -1.013 
 H                    -6.498    -1.008    -2.053 
 H                    -5.992    -2.054    -0.725 
 S                    -7.507    -0.439     0.062 
 C                    -7.761     1.251    -0.573 
 H                    -6.879     1.859    -0.355 
 H                    -7.887     1.208    -1.66 
 C                    -8.993     1.864     0.082 
 H                    -9.146     2.884    -0.283 
 H                    -9.891     1.282    -0.143 
 H                    -8.88      1.907     1.169 
 
 ITRead=  0  0  0  0  0  0  0  0  0  0  0  0  0  0  0  0  0  0  0  0
 ITRead=  0  0  0  0  0  0  0  0  0  0  0  0  0  0  0  0  0  0  0  0
 ITRead=  0  0  0  0  0  0  0  0  0  0
 MicOpt= -1 -1 -1 -1 -1 -1 -1 -1 -1 -1 -1 -1 -1 -1 -1 -1 -1 -1 -1 -1
 MicOpt= -1 -1 -1 -1 -1 -1 -1 -1 -1 -1 -1 -1 -1 -1 -1 -1 -1 -1 -1 -1
 MicOpt= -1 -1 -1 -1 -1 -1 -1 -1 -1 -1
 NAtoms=     50 NQM=       50 NQMF=       0 NMMI=      0 NMMIF=      0
                NMic=       0 NMicF=      0.
                          Input orientation:                          
 ---------------------------------------------------------------------
 Center     Atomic      Atomic             Coordinates (Angstroms)
 Number     Number       Type             X           Y           Z
 ---------------------------------------------------------------------
      1          6           0        6.478000    3.246000   -0.294000
      2          1           0        5.751000    3.783000    0.323000
      3          1           0        7.451000    3.735000   -0.194000
      4          1           0        6.165000    3.321000   -1.340000
      5          6           0        6.563000    1.794000    0.129000
      6          1           0        6.883000    1.716000    1.180000
      7          1           0        5.590000    1.299000    0.048000
      8          8           0        7.524000    1.162000   -0.705000
      9          6           0        7.881000   -0.145000   -0.334000
     10          1           0        8.066000   -0.211000    0.750000
     11          1           0        8.821000   -0.362000   -0.853000
     12          6           0        6.861000   -1.197000   -0.725000
     13          1           0        6.545000   -1.019000   -1.764000
     14          1           0        7.322000   -2.199000   -0.678000
     15          8           0        5.759000   -1.121000    0.148000
     16          6           0        4.647000   -1.876000   -0.261000
     17          1           0        4.853000   -2.956000   -0.178000
     18          1           0        4.392000   -1.659000   -1.308000
     19          6           0        3.473000   -1.518000    0.618000
     20          1           0        3.771000   -1.595000    1.675000
     21          1           0        2.655000   -2.228000    0.433000
     22          8           0        3.078000   -0.199000    0.312000
     23          6           0        2.179000    0.375000    1.229000
     24          1           0        2.087000    1.422000    0.930000
     25          1           0        2.597000    0.343000    2.248000
     26          6           0        0.800000   -0.278000    1.246000
     27          1           0        0.144000    0.328000    1.877000
     28          1           0        0.844000   -1.282000    1.679000
     29         16           0        0.131000   -0.379000   -0.448000
     30          6           0       -1.588000   -0.864000   -0.079000
     31          1           0       -1.978000   -1.263000   -1.019000
     32          1           0       -1.591000   -1.687000    0.641000
     33          6           0       -2.461000    0.284000    0.418000
     34          1           0       -2.453000    1.111000   -0.298000
     35          1           0       -2.074000    0.679000    1.361000
     36         16           0       -4.182000   -0.201000    0.777000
     37          6           0       -4.845000   -0.237000   -0.924000
     38          1           0       -4.118000   -0.724000   -1.583000
     39          1           0       -4.976000    0.788000   -1.283000
     40          6           0       -6.155000   -1.012000   -1.013000
     41          1           0       -6.498000   -1.008000   -2.053000
     42          1           0       -5.992000   -2.054000   -0.725000
     43         16           0       -7.507000   -0.439000    0.062000
     44          6           0       -7.761000    1.251000   -0.573000
     45          1           0       -6.879000    1.859000   -0.355000
     46          1           0       -7.887000    1.208000   -1.660000
     47          6           0       -8.993000    1.864000    0.082000
     48          1           0       -9.146000    2.884000   -0.283000
     49          1           0       -9.891000    1.282000   -0.143000
     50          1           0       -8.880000    1.907000    1.169000
 ---------------------------------------------------------------------
 Stoichiometry    C14H30O3S3
 Framework group  C1[X(C14H30O3S3)]
                         Standard orientation:                         
 ---------------------------------------------------------------------
 Center     Atomic      Atomic             Coordinates (Angstroms)
 Number     Number       Type             X           Y           Z
 ---------------------------------------------------------------------
      1          6           0        6.477924    3.246217   -0.294038
      2          1           0        5.750918    3.783209    0.322962
      3          1           0        7.450919    3.735227   -0.194038
      4          1           0        6.164923    3.321214   -1.340038
      5          6           0        6.562939    1.794218    0.128962
      6          1           0        6.882939    1.716221    1.179962
      7          1           0        5.589944    1.299208    0.047962
      8          8           0        7.523945    1.162228   -0.705038
      9          6           0        7.880958   -0.144769   -0.334038
     10          1           0        8.065959   -0.210767    0.749962
     11          1           0        8.820961   -0.361759   -0.853038
     12          6           0        6.860969   -1.196779   -0.725038
     13          1           0        6.544967   -1.018782   -1.764038
     14          1           0        7.321980   -2.198774   -0.678038
     15          8           0        5.758968   -1.120790    0.147962
     16          6           0        4.646976   -1.875802   -0.261038
     17          1           0        4.852987   -2.955800   -0.178038
     18          1           0        4.391974   -1.658804   -1.308038
     19          6           0        3.472973   -1.517814    0.617962
     20          1           0        3.770973   -1.594811    1.674962
     21          1           0        2.654980   -2.227822    0.432962
     22          8           0        3.077959   -0.198818    0.311962
     23          6           0        2.178953    0.375173    1.228962
     24          1           0        2.086942    1.422172    0.929962
     25          1           0        2.596953    0.343177    2.247962
     26          6           0        0.799960   -0.277841    1.245962
     27          1           0        0.143954    0.328152    1.876962
     28          1           0        0.843970   -1.281841    1.678962
     29         16           0        0.130961   -0.378848   -0.448038
     30          6           0       -1.588034   -0.863866   -0.079038
     31          1           0       -1.978030   -1.262870   -1.019038
     32          1           0       -1.591026   -1.686866    0.640962
     33          6           0       -2.461046    0.284125    0.417962
     34          1           0       -2.453054    1.111125   -0.298038
     35          1           0       -2.074050    0.679129    1.360962
     36         16           0       -4.182041   -0.200892    0.776962
     37          6           0       -4.845041   -0.236899   -0.924038
     38          1           0       -4.118036   -0.723892   -1.583038
     39          1           0       -4.976051    0.788100   -1.283038
     40          6           0       -6.155033   -1.011913   -1.013038
     41          1           0       -6.498033   -1.007916   -2.053038
     42          1           0       -5.992022   -2.053911   -0.725038
     43         16           0       -7.507039   -0.438926    0.061962
     44          6           0       -7.761056    1.251071   -0.573038
     45          1           0       -6.879062    1.859080   -0.355038
     46          1           0       -7.887055    1.208070   -1.660038
     47          6           0       -8.993062    1.864058    0.081962
     48          1           0       -9.146073    2.884057   -0.283038
     49          1           0       -9.891056    1.282049   -0.143038
     50          1           0       -8.880063    1.907060    1.168962
 ---------------------------------------------------------------------
 Standard basis: 6-31G(d) (6D, 7F)
   372 basis functions,   752 primitive gaussians,   372 cartesian basis functions
    93 alpha electrons       93 beta electrons
 Requested convergence on RMS density matrix=1.00D-08 within  64 cycles.
 Requested convergence on MAX density matrix=1.00D-06.
 Requested convergence on             energy=1.00D-06.
 SCF Done:  E(RHF) =  -1964.68768348     A.U. after   13 cycles
            NFock= 13  Conv=0.36D-08     -V/T= 2.0009
 Mulliken charges:
     1  C   -0.484944
     2  H    0.148956
     3  H    0.164618
     4  H    0.169351
     5  C    0.006269
     6  H    0.128356
     7  H    0.193187
     8  O   -0.634092
     9  C    0.004150
    10  H    0.150672
    11  H    0.166755
    12  C    0.004174
    13  H    0.157408
    14  H    0.135290
    15  O   -0.629303
    16  C    0.014238
    17  H    0.140062
    18  H    0.166120
    19  C    0.001803
    20  H    0.154313
    21  H    0.155960
    22  O   -0.615156
    23  C    0.004429
    24  H    0.191743
    25  H    0.158859
    26  C   -0.498573
    27  H    0.190923
    28  H    0.189195
    29  S    0.142705
    30  C   -0.478508
    31  H    0.197543
    32  H    0.203106
    33  C   -0.482660
    34  H    0.203979
    35  H    0.198122
    36  S    0.149508
    37  C   -0.461687
    38  H    0.191321
    39  H    0.192926
    40  C   -0.487285
    41  H    0.196614
    42  H    0.212068
    43  S    0.135159
    44  C   -0.459288
    45  H    0.194332
    46  H    0.180009
    47  C   -0.494102
    48  H    0.170960
    49  H    0.179105
    50  H    0.181308
 Sum of Mulliken charges =  -0.00000
 Dipole moment (field-independent basis, Debye):
    X=             -0.7242    Y=             -1.1072    Z=             -0.1125  Tot=              1.3278
 Quadrupole moment (field-independent basis, Debye-Ang):
   XX=           -168.9917   YY=           -143.3942   ZZ=           -146.3908
   XY=            -23.2716   XZ=             20.9387   YZ=              3.9163
 Traceless Quadrupole moment (field-independent basis, Debye-Ang):
   XX=            -16.0661   YY=              9.5314   ZZ=              6.5348
   XY=            -23.2716   XZ=             20.9387   YZ=              3.9163
 Octapole moment (field-independent basis, Debye-Ang**2):
  XXX=             71.9640  YYY=             -9.6869  ZZZ=             -0.8915  XYY=             20.7664
  XXY=            -16.0095  XXZ=            -65.8179  XZZ=             18.2619  YZZ=             -2.8536
  YYZ=              0.9058  XYZ=             19.2420
 Hexadecapole moment (field-independent basis, Debye-Ang**3):
 XXXX=         -28544.2377 YYYY=          -1595.8593 ZZZZ=           -617.0175 XXXY=          -1529.9515
 XXXZ=            690.9172 YYYX=            -46.3399 YYYZ=             -2.4623 ZZZX=             28.7973
 ZZZY=              3.2929 XXYY=          -4721.0797 XXZZ=          -4676.4099 YYZZ=           -376.4504
 XXYZ=            178.4523 YYXZ=             25.4515 ZZXY=            -19.6660
 Step number   1 out of a maximum of   55
     Eigenvalues ---    0.00230   0.00230   0.00230   0.00230   0.00230
     Eigenvalues ---    0.00230   0.00423   0.00429   0.00439   0.00448
     Eigenvalues ---    0.00547   0.00571   0.00638   0.01417   0.01553
     Eigenvalues ---    0.01587   0.01604   0.01626   0.01629   0.04269
     Eigenvalues ---    0.04462   0.04464   0.04705   0.04733   0.04820
     Eigenvalues ---    0.04918   0.05016   0.05318   0.05410   0.05448
     Eigenvalues ---    0.05496   0.05559   0.05642   0.05643   0.05668
     Eigenvalues ---    0.05714   0.05725   0.05767   0.05791   0.05864
     Eigenvalues ---    0.05872   0.05881   0.05905   0.06044   0.06082
     Eigenvalues ---    0.06161   0.06163   0.11012   0.11030   0.11117
     Eigenvalues ---    0.11180   0.11188   0.11253   0.11254   0.11626
     Eigenvalues ---    0.11632   0.11821   0.11834   0.11886   0.13619
     Eigenvalues ---    0.13628   0.13663   0.13663   0.13705   0.13748
     Eigenvalues ---    0.13819   0.13969   0.13972   0.14094   0.14101
     Eigenvalues ---    0.14123   0.16000   0.16000   0.16000   0.16000
     Eigenvalues ---    0.16000   0.16000   0.21930   0.22001   0.22002
     Eigenvalues ---    0.22007   0.22008   0.22013   0.22018   0.22018
     Eigenvalues ---    0.22029   0.22093   0.22100   0.22102   0.24171
     Eigenvalues ---    0.24305   0.24326   0.24334   0.24375   0.24613
     Eigenvalues ---    0.25000   0.25000   0.25000   0.25000   0.25000
     Eigenvalues ---    0.25000   0.29806   0.29846   0.29920   0.29983
     Eigenvalues ---    0.30699   0.30878   0.31384   0.33248   0.33396
     Eigenvalues ---    0.33477   0.33500   0.33528   0.33583   0.33629
     Eigenvalues ---    0.33767   0.33811   0.34188   0.34192   0.34227
     Eigenvalues ---    0.34229   0.34278   0.34309   0.34316   0.34323
     Eigenvalues ---    0.34344   0.34363   0.34364   0.34388   0.34406
     Eigenvalues ---    0.34411   0.34412   0.34412   0.34436   0.34444
     Eigenvalues ---    0.34448   0.34455   0.34498   0.42349   0.43929
     Eigenvalues ---    0.44329   0.44542   0.44812   0.44841
 Maximum Force            0.010257     0.000015     NO 
 RMS     Force            0.003457     0.000010     NO 
 Maximum Displacement     0.798585     0.000060     NO 
 RMS     Displacement     0.146005     0.000040     NO 
                          Input orientation:                          
 ---------------------------------------------------------------------
 Center     Atomic      Atomic             Coordinates (Angstroms)
 Number     Number       Type             X           Y           Z
 ---------------------------------------------------------------------
      1          6           0        6.844285    3.321061   -0.352064
      2          1           0        6.173593    3.940642    0.235165
      3          1           0        7.849754    3.714671   -0.256977
      4          1           0        6.550430    3.392999   -1.392959
      5          6           0        6.784730    1.881787    0.117525
      6          1           0        7.085983    1.807751    1.160712
      7          1           0        5.783373    1.487129    0.038089
      8          8           0        7.676945    1.136561   -0.679272
      9          6           0        7.942569   -0.179488   -0.297786
     10          1           0        8.111980   -0.248747    0.773927
     11          1           0        8.867485   -0.440543   -0.798272
     12          6           0        6.886647   -1.187693   -0.713055
     13          1           0        6.588616   -0.997778   -1.740431
     14          1           0        7.313771   -2.189008   -0.667746
     15          8           0        5.782104   -1.119038    0.141804
     16          6           0        4.675028   -1.863749   -0.264382
     17          1           0        4.896340   -2.927945   -0.196809
     18          1           0        4.417808   -1.638548   -1.294851
     19          6           0        3.501706   -1.538292    0.629281
     20          1           0        3.802017   -1.624106    1.670025
     21          1           0        2.702968   -2.248648    0.440622
     22          8           0        3.072036   -0.235580    0.351540
     23          6           0        2.173481    0.328387    1.258968
     24          1           0        2.087872    1.367819    0.976519
     25          1           0        2.586760    0.285218    2.264509
     26          6           0        0.787385   -0.312765    1.264647
     27          1           0        0.150977    0.283615    1.905431
     28          1           0        0.817549   -1.313458    1.677485
     29         16           0        0.085643   -0.376530   -0.414605
     30          6           0       -1.630815   -0.874238   -0.065846
     31          1           0       -1.999161   -1.278196   -0.999303
     32          1           0       -1.632223   -1.686764    0.648972
     33          6           0       -2.528071    0.264991    0.413728
     34          1           0       -2.522309    1.081582   -0.296362
     35          1           0       -2.163053    0.663298    1.350812
     36         16           0       -4.247214   -0.233018    0.751645
     37          6           0       -4.947056   -0.220531   -0.931758
     38          1           0       -4.243530   -0.692014   -1.605716
     39          1           0       -5.065714    0.803564   -1.260186
     40          6           0       -6.268104   -0.982430   -1.034917
     41          1           0       -6.605268   -0.953946   -2.064757
     42          1           0       -6.108570   -2.021869   -0.778569
     43         16           0       -7.631798   -0.439194    0.037605
     44          6           0       -7.957156    1.243440   -0.573400
     45          1           0       -7.110033    1.878275   -0.350320
     46          1           0       -8.079524    1.208358   -1.649761
     47          6           0       -9.213854    1.804961    0.084803
     48          1           0       -9.401870    2.813122   -0.268437
     49          1           0      -10.082185    1.199137   -0.146019
     50          1           0       -9.106327    1.843749    1.162745
 ---------------------------------------------------------------------
 Stoichiometry    C14H30O3S3
 Framework group  C1[X(C14H30O3S3)]
                         Standard orientation:                         
 ---------------------------------------------------------------------
 Center     Atomic      Atomic             Coordinates (Angstroms)
 Number     Number       Type             X           Y           Z
 ---------------------------------------------------------------------
      1          6           0        6.869687    3.305933   -0.302063
      2          1           0        6.202093    3.917252    0.297231
      3          1           0        7.876761    3.693958   -0.201175
      4          1           0        6.574790    3.397901   -1.341085
      5          6           0        6.805271    1.858589    0.141351
      6          1           0        7.107562    1.764453    1.182616
      7          1           0        5.802326    1.469217    0.056088
      8          8           0        7.693645    1.124625   -0.670058
      9          6           0        7.954761   -0.199137   -0.312924
     10          1           0        8.125264   -0.288519    0.757125
     11          1           0        8.878046   -0.454526   -0.819310
     12          6           0        6.894499   -1.195635   -0.745051
     13          1           0        6.595890   -0.985941   -1.768404
     14          1           0        7.317881   -2.199211   -0.718530
     15          8           0        5.791308   -1.138382    0.112389
     16          6           0        4.680902   -1.871405   -0.305796
     17          1           0        4.898264   -2.937480   -0.257884
     18          1           0        4.423234   -1.626528   -1.331654
     19          6           0        3.509955   -1.557841    0.595204
     20          1           0        3.811256   -1.663704    1.633814
     21          1           0        2.708292   -2.261633    0.394723
     22          8           0        3.084876   -0.248683    0.341775
     23          6           0        2.189615    0.302065    1.260508
     24          1           0        2.107590    1.346778    0.997124
     25          1           0        2.604001    0.239053    2.264546
     26          6           0        0.801106   -0.333858    1.256377
     27          1           0        0.167776    0.253160    1.908750
     28          1           0        0.827999   -1.342002    1.650906
     29         16           0        0.097002   -0.364419   -0.422820
     30          6           0       -1.620887   -0.861920   -0.080879
     31          1           0       -1.991943   -1.247439   -1.021036
     32          1           0       -1.624470   -1.687304    0.619044
     33          6           0       -2.513210    0.271768    0.420532
     34          1           0       -2.505252    1.101115   -0.274596
     35          1           0       -2.145498    0.651585    1.364217
     36         16           0       -4.233799   -0.225825    0.751631
     37          6           0       -4.935719   -0.180079   -0.930332
     38          1           0       -4.234840   -0.641871   -1.613691
     39          1           0       -5.050911    0.850261   -1.239921
     40          6           0       -6.259776   -0.934994   -1.045566
     41          1           0       -6.598134   -0.886510   -2.074267
     42          1           0       -6.103859   -1.979518   -0.808378
     43         16           0       -7.620042   -0.406225    0.038478
     44          6           0       -7.939792    1.288460   -0.541390
     45          1           0       -7.089986    1.915936   -0.307931
     46          1           0       -8.063655    1.273425   -1.618046
     47          6           0       -9.193518    1.842645    0.128594
     48          1           0       -9.378157    2.857766   -0.206001
     49          1           0      -10.064431    1.244395   -0.112049
     50          1           0       -9.084480    1.861411    1.206918
 ---------------------------------------------------------------------
 Standard basis: 6-31G(d) (6D, 7F)
   372 basis functions,   752 primitive gaussians,   372 cartesian basis functions
    93 alpha electrons       93 beta electrons
 Requested convergence on RMS density matrix=1.00D-08 within  64 cycles.
 Requested convergence on MAX density matrix=1.00D-06.
 Requested convergence on             energy=1.00D-06.
 SCF Done:  E(RHF) =  -1964.69147951     A.U. after   12 cycles
            NFock= 12  Conv=0.51D-08     -V/T= 2.0006
 Step number   2 out of a maximum of   55
     Eigenvalues ---    0.00230   0.00230   0.00230   0.00230   0.00230
     Eigenvalues ---    0.00237   0.00423   0.00429   0.00439   0.00448
     Eigenvalues ---    0.00555   0.00571   0.00638   0.01420   0.01553
     Eigenvalues ---    0.01585   0.01603   0.01624   0.01653   0.04159
     Eigenvalues ---    0.04426   0.04431   0.04595   0.04681   0.04759
     Eigenvalues ---    0.04812   0.04972   0.05271   0.05399   0.05414
     Eigenvalues ---    0.05453   0.05544   0.05634   0.05635   0.05670
     Eigenvalues ---    0.05719   0.05727   0.05755   0.05802   0.05863
     Eigenvalues ---    0.05869   0.05875   0.05909   0.06042   0.06058
     Eigenvalues ---    0.06126   0.06136   0.11067   0.11140   0.11199
     Eigenvalues ---    0.11211   0.11301   0.11367   0.11451   0.11667
     Eigenvalues ---    0.11676   0.11935   0.11943   0.11967   0.13630
     Eigenvalues ---    0.13652   0.13704   0.13746   0.13756   0.13829
     Eigenvalues ---    0.13890   0.13993   0.13999   0.14148   0.14169
     Eigenvalues ---    0.14224   0.15997   0.16000   0.16000   0.16000
     Eigenvalues ---    0.16000   0.16002   0.21668   0.21958   0.22014
     Eigenvalues ---    0.22016   0.22018   0.22020   0.22023   0.22031
     Eigenvalues ---    0.22047   0.22082   0.22102   0.22587   0.24059
     Eigenvalues ---    0.24230   0.24314   0.24331   0.24367   0.24566
     Eigenvalues ---    0.24859   0.25000   0.25000   0.25000   0.25000
     Eigenvalues ---    0.26546   0.29808   0.29849   0.29934   0.29980
     Eigenvalues ---    0.30554   0.30875   0.31378   0.33271   0.33408
     Eigenvalues ---    0.33484   0.33501   0.33527   0.33602   0.33630
     Eigenvalues ---    0.33765   0.33863   0.34000   0.34191   0.34205
     Eigenvalues ---    0.34228   0.34260   0.34312   0.34319   0.34333
     Eigenvalues ---    0.34350   0.34362   0.34378   0.34394   0.34403
     Eigenvalues ---    0.34408   0.34411   0.34428   0.34439   0.34446
     Eigenvalues ---    0.34453   0.34493   0.37176   0.42053   0.43409
     Eigenvalues ---    0.44137   0.44474   0.44701   0.44963
 Maximum Force            0.005602     0.000015     NO 
 RMS     Force            0.000942     0.000010     NO 
 Maximum Displacement     0.463581     0.000060     NO 
 RMS     Displacement     0.084529     0.000040     NO 
                          Input orientation:                          
 ---------------------------------------------------------------------
 Center     Atomic      Atomic             Coordinates (Angstroms)
 Number     Number       Type             X           Y           Z
 ---------------------------------------------------------------------
      1          6           0        6.642313    3.253510   -0.293347
      2          1           0        5.928277    3.809608    0.305556
      3          1           0        7.618205    3.710219   -0.180174
      4          1           0        6.349768    3.331594   -1.333594
      5          6           0        6.680063    1.801117    0.138367
      6          1           0        6.978182    1.722024    1.181508
      7          1           0        5.705373    1.342668    0.041211
      8          8           0        7.617806    1.137500   -0.671042
      9          6           0        7.942981   -0.167817   -0.313464
     10          1           0        8.105522   -0.244519    0.758115
     11          1           0        8.875125   -0.400610   -0.813931
     12          6           0        6.904286   -1.188424   -0.731392
     13          1           0        6.614650   -1.000788   -1.761066
     14          1           0        7.342053   -2.184844   -0.679357
     15          8           0        5.794536   -1.102152    0.112177
     16          6           0        4.692468   -1.857272   -0.281349
     17          1           0        4.911888   -2.920694   -0.198399
     18          1           0        4.428856   -1.646703   -1.312992
     19          6           0        3.521155   -1.520371    0.609616
     20          1           0        3.826907   -1.593533    1.649413
     21          1           0        2.725479   -2.237409    0.432639
     22          8           0        3.093397   -0.223388    0.314681
     23          6           0        2.202015    0.355779    1.214344
     24          1           0        2.122150    1.393351    0.924626
     25          1           0        2.606811    0.317123    2.223050
     26          6           0        0.812395   -0.277047    1.226004
     27          1           0        0.184677    0.317357    1.877667
     28          1           0        0.840983   -1.282120    1.627344
     29         16           0        0.100487   -0.318703   -0.447750
     30          6           0       -1.603740   -0.840927   -0.085139
     31          1           0       -1.988469   -1.212342   -1.025176
     32          1           0       -1.587116   -1.676819    0.601199
     33          6           0       -2.494182    0.276123    0.455237
     34          1           0       -2.506562    1.115315   -0.226994
     35          1           0       -2.113852    0.642393    1.398882
     36         16           0       -4.201700   -0.246680    0.805022
     37          6           0       -4.902621   -0.235862   -0.875868
     38          1           0       -4.206429   -0.718836   -1.549574
     39          1           0       -5.017067    0.787347   -1.208131
     40          6           0       -6.229176   -0.988433   -0.967140
     41          1           0       -6.557995   -0.978062   -1.999382
     42          1           0       -6.083314   -2.022614   -0.685142
     43         16           0       -7.589499   -0.406026    0.084165
     44          6           0       -7.919849    1.240912   -0.611705
     45          1           0       -7.066777    1.883684   -0.441190
     46          1           0       -8.066515    1.148928   -1.681071
     47          6           0       -9.161247    1.840952    0.042406
     48          1           0       -9.351032    2.828722   -0.362261
     49          1           0      -10.035353    1.227255   -0.138247
     50          1           0       -9.030315    1.937511    1.113652
 ---------------------------------------------------------------------
 Stoichiometry    C14H30O3S3
 Framework group  C1[X(C14H30O3S3)]
                         Standard orientation:                         
 ---------------------------------------------------------------------
 Center     Atomic      Atomic             Coordinates (Angstroms)
 Number     Number       Type             X           Y           Z
 ---------------------------------------------------------------------
      1          6           0        6.648353    3.251473   -0.265498
      2          1           0        5.934285    3.802223    0.338289
      3          1           0        7.624341    3.706831   -0.147796
      4          1           0        6.356169    3.339253   -1.305073
      5          6           0        6.685542    1.795143    0.152788
      6          1           0        6.983301    1.706325    1.195248
      7          1           0        5.710751    1.337897    0.051086
      8          8           0        7.623354    1.138759   -0.662419
      9          6           0        7.948034   -0.169902   -0.316814
     10          1           0        8.110206   -0.256552    0.754062
     11          1           0        8.880273   -0.398334   -0.819112
     12          6           0        6.909179   -1.186299   -0.744489
     13          1           0        6.619930   -0.989070   -1.772478
     14          1           0        7.346640   -2.183286   -0.701524
     15          8           0        5.799181   -1.107501    0.099484
     16          6           0        4.697021   -1.858628   -0.301357
     17          1           0        4.916105   -2.922836   -0.228167
     18          1           0        4.433804   -1.638457   -1.331094
     19          6           0        3.525518   -1.529632    0.592308
     20          1           0        3.830912   -1.612489    1.631483
     21          1           0        2.729691   -2.244771    0.408456
     22          8           0        3.098232   -0.229853    0.309234
     23          6           0        2.206726    0.341237    1.213924
     24          1           0        2.127257    1.381465    0.933781
     25          1           0        2.611185    0.293142    2.222360
     26          6           0        0.816919   -0.291262    1.219289
     27          1           0        0.189163    0.297279    1.876216
     28          1           0        0.845085   -1.300009    1.611334
     29         16           0        0.105541   -0.317240   -0.455006
     30          6           0       -1.598954   -0.842293   -0.097784
     31          1           0       -1.983487   -1.204892   -1.041336
     32          1           0       -1.582796   -1.684496    0.580805
     33          6           0       -2.489247    0.269977    0.452606
     34          1           0       -2.501163    1.115442   -0.221844
     35          1           0       -2.109117    0.627399    1.399717
     36         16           0       -4.197030   -0.255535    0.796997
     37          6           0       -4.897404   -0.228979   -0.883947
     38          1           0       -4.201134   -0.705910   -1.561863
     39          1           0       -5.011445    0.797291   -1.206776
     40          6           0       -6.224147   -0.980284   -0.982595
     41          1           0       -6.552630   -0.960279   -2.014802
     42          1           0       -6.078677   -2.017070   -0.710119
     43         16           0       -7.584642   -0.407218    0.073610
     44          6           0       -7.914288    1.246176   -0.607116
     45          1           0       -7.061085    1.887095   -0.430394
     46          1           0       -8.060635    1.164121   -1.677334
     47          6           0       -9.155724    1.840510    0.052114
     48          1           0       -9.345091    2.832034   -0.343469
     49          1           0      -10.029949    1.228765   -0.134484
     50          1           0       -9.025110    1.927128    1.124248
 ---------------------------------------------------------------------
 Standard basis: 6-31G(d) (6D, 7F)
   372 basis functions,   752 primitive gaussians,   372 cartesian basis functions
    93 alpha electrons       93 beta electrons
 Requested convergence on RMS density matrix=1.00D-08 within  64 cycles.
 Requested convergence on MAX density matrix=1.00D-06.
 Requested convergence on             energy=1.00D-06.
 SCF Done:  E(RHF) =  -1964.69175215     A.U. after   11 cycles
            NFock= 11  Conv=0.79D-08     -V/T= 2.0006
 Step number   3 out of a maximum of   55
     Eigenvalues ---    0.00228   0.00230   0.00230   0.00230   0.00233
     Eigenvalues ---    0.00242   0.00414   0.00429   0.00433   0.00448
     Eigenvalues ---    0.00571   0.00581   0.00638   0.01427   0.01520
     Eigenvalues ---    0.01555   0.01600   0.01617   0.01718   0.04173
     Eigenvalues ---    0.04457   0.04472   0.04638   0.04703   0.04818
     Eigenvalues ---    0.04993   0.05136   0.05389   0.05416   0.05456
     Eigenvalues ---    0.05543   0.05622   0.05635   0.05695   0.05708
     Eigenvalues ---    0.05735   0.05759   0.05802   0.05830   0.05864
     Eigenvalues ---    0.05878   0.05910   0.05917   0.06086   0.06151
     Eigenvalues ---    0.06159   0.06211   0.10958   0.11067   0.11123
     Eigenvalues ---    0.11177   0.11237   0.11304   0.11432   0.11632
     Eigenvalues ---    0.11643   0.11802   0.11852   0.11925   0.13637
     Eigenvalues ---    0.13651   0.13693   0.13732   0.13735   0.13843
     Eigenvalues ---    0.13860   0.13974   0.13982   0.14071   0.14097
     Eigenvalues ---    0.14199   0.15963   0.16000   0.16000   0.16000
     Eigenvalues ---    0.16000   0.16011   0.21911   0.21985   0.22015
     Eigenvalues ---    0.22018   0.22020   0.22022   0.22024   0.22042
     Eigenvalues ---    0.22066   0.22100   0.22198   0.23414   0.23830
     Eigenvalues ---    0.24220   0.24315   0.24331   0.24366   0.24522
     Eigenvalues ---    0.24830   0.25000   0.25000   0.25000   0.25216
     Eigenvalues ---    0.29365   0.29823   0.29869   0.29960   0.30041
     Eigenvalues ---    0.30835   0.31346   0.33208   0.33297   0.33430
     Eigenvalues ---    0.33486   0.33519   0.33576   0.33609   0.33727
     Eigenvalues ---    0.33801   0.33912   0.34187   0.34205   0.34228
     Eigenvalues ---    0.34255   0.34311   0.34317   0.34332   0.34349
     Eigenvalues ---    0.34361   0.34378   0.34389   0.34401   0.34406
     Eigenvalues ---    0.34411   0.34427   0.34439   0.34443   0.34452
     Eigenvalues ---    0.34490   0.36829   0.38139   0.41846   0.43110
     Eigenvalues ---    0.44117   0.44427   0.44792   0.47433
 Maximum Force            0.004331     0.000015     NO 
 RMS     Force            0.000652     0.000010     NO 
 Maximum Displacement     0.255987     0.000060     NO 
 RMS     Displacement     0.048363     0.000040     NO 
                          Input orientation:                          
 ---------------------------------------------------------------------
 Center     Atomic      Atomic             Coordinates (Angstroms)
 Number     Number       Type             X           Y           Z
 ---------------------------------------------------------------------
      1          6           0        6.759643    3.293997   -0.330530
      2          1           0        6.063739    3.887379    0.255158
      3          1           0        7.752584    3.715402   -0.219342
      4          1           0        6.475402    3.364904   -1.374538
      5          6           0        6.738634    1.848307    0.126158
      6          1           0        7.027489    1.778459    1.173908
      7          1           0        5.745690    1.428196    0.032490
      8          8           0        7.657581    1.135919   -0.664594
      9          6           0        7.945673   -0.172619   -0.282407
     10          1           0        8.092778   -0.242179    0.793486
     11          1           0        8.882051   -0.427205   -0.766049
     12          6           0        6.901870   -1.187196   -0.709594
     13          1           0        6.623980   -0.999035   -1.743882
     14          1           0        7.331505   -2.188419   -0.652495
     15          8           0        5.785279   -1.096937    0.124660
     16          6           0        4.688123   -1.858285   -0.271924
     17          1           0        4.911285   -2.922157   -0.188090
     18          1           0        4.425534   -1.648984   -1.305542
     19          6           0        3.512061   -1.526384    0.615632
     20          1           0        3.815756   -1.599310    1.657516
     21          1           0        2.719817   -2.248736    0.436019
     22          8           0        3.079892   -0.231024    0.319831
     23          6           0        2.185179    0.344280    1.218418
     24          1           0        2.103931    1.383639    0.931156
     25          1           0        2.584894    0.303765    2.230608
     26          6           0        0.796438   -0.291537    1.224002
     27          1           0        0.166735    0.295539    1.882131
     28          1           0        0.828688   -1.301459    1.615553
     29         16           0        0.087473   -0.320029   -0.451277
     30          6           0       -1.610905   -0.865779   -0.095005
     31          1           0       -1.986067   -1.244465   -1.036988
     32          1           0       -1.585955   -1.700428    0.594214
     33          6           0       -2.520094    0.239946    0.438368
     34          1           0       -2.540755    1.078425   -0.246235
     35          1           0       -2.148675    0.612781    1.384038
     36         16           0       -4.221761   -0.305530    0.783268
     37          6           0       -4.935099   -0.239339   -0.890999
     38          1           0       -4.247034   -0.704873   -1.586735
     39          1           0       -5.049439    0.795227   -1.190019
     40          6           0       -6.265602   -0.983823   -0.992318
     41          1           0       -6.598131   -0.951120   -2.023985
     42          1           0       -6.123726   -2.025095   -0.731444
     43         16           0       -7.617797   -0.413873    0.075672
     44          6           0       -7.945296    1.243485   -0.596688
     45          1           0       -7.088139    1.881764   -0.423186
     46          1           0       -8.099582    1.166104   -1.667112
     47          6           0       -9.180414    1.839755    0.073277
     48          1           0       -9.369386    2.833854   -0.318386
     49          1           0      -10.058164    1.230487   -0.109727
     50          1           0       -9.041684    1.922206    1.145530
 ---------------------------------------------------------------------
 Stoichiometry    C14H30O3S3
 Framework group  C1[X(C14H30O3S3)]
                         Standard orientation:                         
 ---------------------------------------------------------------------
 Center     Atomic      Atomic             Coordinates (Angstroms)
 Number     Number       Type             X           Y           Z
 ---------------------------------------------------------------------
      1          6           0        6.779091    3.282706   -0.273094
      2          1           0        6.085049    3.867133    0.323703
      3          1           0        7.773296    3.699024   -0.154299
      4          1           0        6.494883    3.373891   -1.315535
      5          6           0        6.753873    1.828828    0.156589
      6          1           0        7.042698    1.738618    1.202791
      7          1           0        5.759672    1.413477    0.055335
      8          8           0        7.670569    1.128577   -0.647503
      9          6           0        7.954845   -0.187701   -0.289824
     10          1           0        8.101926   -0.277728    0.784554
     11          1           0        8.890382   -0.436006   -0.778336
     12          6           0        6.907965   -1.191049   -0.735602
     13          1           0        6.630459   -0.982831   -1.766142
     14          1           0        7.334640   -2.194430   -0.697261
     15          8           0        5.791789   -1.113041    0.100440
     16          6           0        4.692313   -1.863616   -0.310011
     17          1           0        4.912333   -2.929522   -0.246060
     18          1           0        4.430170   -1.634320   -1.339491
     19          6           0        3.517391   -1.544826    0.583839
     20          1           0        3.821046   -1.638047    1.624115
     21          1           0        2.722979   -2.261358    0.390980
     22          8           0        3.089014   -0.242907    0.312318
     23          6           0        2.196164    0.318205    1.221667
     24          1           0        2.117949    1.362972    0.953835
     25          1           0        2.595930    0.257658    2.232837
     26          6           0        0.805545   -0.313490    1.215719
     27          1           0        0.177698    0.263086    1.884811
     28          1           0        0.834867   -1.330623    1.588381
     29         16           0        0.096213   -0.308668   -0.459641
     30          6           0       -1.603714   -0.855928   -0.113214
     31          1           0       -1.980157   -1.215888   -1.062004
     32          1           0       -1.581122   -1.703343    0.560331
     33          6           0       -2.509530    0.242355    0.440869
     34          1           0       -2.527821    1.093501   -0.227991
     35          1           0       -2.136846    0.596407    1.393236
     36         16           0       -4.212749   -0.304410    0.775931
     37          6           0       -4.926172   -0.204928   -0.896651
     38          1           0       -4.239609   -0.659455   -1.601094
     39          1           0       -5.037494    0.835363   -1.176321
     40          6           0       -6.258894   -0.943451   -1.011521
     41          1           0       -6.591499   -0.890550   -2.042325
     42          1           0       -6.120061   -1.989818   -0.770122
     43         16           0       -7.609211   -0.389494    0.067205
     44          6           0       -7.931909    1.281064   -0.574091
     45          1           0       -7.072834    1.913459   -0.388921
     46          1           0       -8.086606    1.224095   -1.645735
     47          6           0       -9.165139    1.868406    0.107144
     48          1           0       -9.351230    2.870183   -0.265889
     49          1           0      -10.044723    1.265255   -0.086980
     50          1           0       -9.025983    1.930456    1.180716
 ---------------------------------------------------------------------
 Standard basis: 6-31G(d) (6D, 7F)
   372 basis functions,   752 primitive gaussians,   372 cartesian basis functions
    93 alpha electrons       93 beta electrons
 Requested convergence on RMS density matrix=1.00D-08 within  64 cycles.
 Requested convergence on MAX density matrix=1.00D-06.
 Requested convergence on             energy=1.00D-06.
 SCF Done:  E(RHF) =  -1964.69191048     A.U. after   11 cycles
            NFock= 11  Conv=0.54D-08     -V/T= 2.0006
 Step number   4 out of a maximum of   55
     Eigenvalues ---    0.00230   0.00230   0.00230   0.00231   0.00233
     Eigenvalues ---    0.00282   0.00399   0.00429   0.00431   0.00448
     Eigenvalues ---    0.00571   0.00601   0.00638   0.01342   0.01431
     Eigenvalues ---    0.01555   0.01600   0.01614   0.01717   0.04181
     Eigenvalues ---    0.04457   0.04475   0.04659   0.04710   0.04818
     Eigenvalues ---    0.04995   0.05138   0.05388   0.05425   0.05462
     Eigenvalues ---    0.05552   0.05638   0.05653   0.05699   0.05733
     Eigenvalues ---    0.05736   0.05763   0.05809   0.05856   0.05866
     Eigenvalues ---    0.05897   0.05918   0.05941   0.06084   0.06160
     Eigenvalues ---    0.06165   0.06309   0.11018   0.11096   0.11166
     Eigenvalues ---    0.11206   0.11269   0.11340   0.11470   0.11617
     Eigenvalues ---    0.11642   0.11870   0.11910   0.11977   0.13635
     Eigenvalues ---    0.13651   0.13693   0.13725   0.13737   0.13821
     Eigenvalues ---    0.13847   0.13976   0.14008   0.14095   0.14128
     Eigenvalues ---    0.14412   0.15977   0.16000   0.16000   0.16000
     Eigenvalues ---    0.16007   0.16035   0.21887   0.21971   0.22014
     Eigenvalues ---    0.22016   0.22021   0.22024   0.22024   0.22044
     Eigenvalues ---    0.22092   0.22103   0.22565   0.23459   0.24065
     Eigenvalues ---    0.24271   0.24323   0.24333   0.24365   0.24561
     Eigenvalues ---    0.24831   0.24997   0.25000   0.25000   0.26510
     Eigenvalues ---    0.29453   0.29815   0.29894   0.29960   0.30037
     Eigenvalues ---    0.30812   0.31345   0.33205   0.33283   0.33425
     Eigenvalues ---    0.33482   0.33520   0.33578   0.33613   0.33724
     Eigenvalues ---    0.33791   0.33877   0.34184   0.34201   0.34227
     Eigenvalues ---    0.34237   0.34308   0.34317   0.34330   0.34342
     Eigenvalues ---    0.34361   0.34379   0.34389   0.34400   0.34406
     Eigenvalues ---    0.34411   0.34428   0.34439   0.34443   0.34450
     Eigenvalues ---    0.34491   0.36392   0.36934   0.42174   0.43114
     Eigenvalues ---    0.44129   0.44417   0.44810   0.47997
 Maximum Force            0.000581     0.000015     NO 
 RMS     Force            0.000138     0.000010     NO 
 Maximum Displacement     0.229743     0.000060     NO 
 RMS     Displacement     0.046146     0.000040     NO 
                          Input orientation:                          
 ---------------------------------------------------------------------
 Center     Atomic      Atomic             Coordinates (Angstroms)
 Number     Number       Type             X           Y           Z
 ---------------------------------------------------------------------
      1          6           0        6.792948    3.300027   -0.305378
      2          1           0        6.105342    3.892226    0.291449
      3          1           0        7.790390    3.711305   -0.194404
      4          1           0        6.503791    3.386265   -1.347111
      5          6           0        6.761077    1.848812    0.134260
      6          1           0        7.054520    1.763935    1.179972
      7          1           0        5.763426    1.439084    0.041330
      8          8           0        7.668785    1.137080   -0.669151
      9          6           0        7.947611   -0.178043   -0.303298
     10          1           0        8.094182   -0.262404    0.771926
     11          1           0        8.882779   -0.432387   -0.790010
     12          6           0        6.895860   -1.179999   -0.743411
     13          1           0        6.620264   -0.977982   -1.776145
     14          1           0        7.316301   -2.185939   -0.697415
     15          8           0        5.779426   -1.090917    0.090759
     16          6           0        4.682021   -1.850400   -0.307553
     17          1           0        4.909516   -2.914610   -0.237348
     18          1           0        4.413046   -1.630347   -1.337733
     19          6           0        3.509642   -1.532342    0.591060
     20          1           0        3.819091   -1.617930    1.630663
     21          1           0        2.717995   -2.254848    0.407073
     22          8           0        3.071774   -0.235127    0.314725
     23          6           0        2.183816    0.328406    1.226545
     24          1           0        2.102310    1.372109    0.954343
     25          1           0        2.589970    0.274041    2.236008
     26          6           0        0.793315   -0.305292    1.232756
     27          1           0        0.170082    0.271875    1.905934
     28          1           0        0.827972   -1.321585    1.607801
     29         16           0        0.070087   -0.308149   -0.436742
     30          6           0       -1.632321   -0.837854   -0.073796
     31          1           0       -2.025599   -1.189512   -1.019179
     32          1           0       -1.611141   -1.688455    0.596080
     33          6           0       -2.519781    0.267872    0.495614
     34          1           0       -2.536405    1.121615   -0.170256
     35          1           0       -2.131772    0.614436    1.444823
     36         16           0       -4.226129   -0.262023    0.843355
     37          6           0       -4.928109   -0.239834   -0.836723
     38          1           0       -4.231607   -0.716604   -1.516755
     39          1           0       -5.047290    0.786900   -1.160197
     40          6           0       -6.253068   -0.996606   -0.930016
     41          1           0       -6.572418   -1.002375   -1.966656
     42          1           0       -6.106611   -2.027726   -0.632803
     43         16           0       -7.623779   -0.399463    0.099201
     44          6           0       -7.954617    1.231560   -0.633404
     45          1           0       -7.108779    1.885807   -0.462703
     46          1           0       -8.084368    1.117470   -1.704007
     47          6           0       -9.210865    1.835922   -0.010718
     48          1           0       -9.402882    2.814032   -0.439961
     49          1           0      -10.077431    1.210001   -0.191777
     50          1           0       -9.096365    1.955972    1.060976
 ---------------------------------------------------------------------
 Stoichiometry    C14H30O3S3
 Framework group  C1[X(C14H30O3S3)]
                         Standard orientation:                         
 ---------------------------------------------------------------------
 Center     Atomic      Atomic             Coordinates (Angstroms)
 Number     Number       Type             X           Y           Z
 ---------------------------------------------------------------------
      1          6           0        6.814232    3.284645   -0.239820
      2          1           0        6.127327    3.866785    0.367616
      3          1           0        7.812594    3.690996   -0.119362
      4          1           0        6.526812    3.392187   -1.280051
      5          6           0        6.777901    1.825130    0.171054
      6          1           0        7.069606    1.718860    1.215296
      7          1           0        5.779310    1.419974    0.068667
      8          8           0        7.684891    1.126971   -0.644977
      9          6           0        7.959721   -0.195852   -0.304755
     10          1           0        8.104514   -0.301797    0.768797
     11          1           0        8.894918   -0.443035   -0.795087
     12          6           0        6.905972   -1.186126   -0.766019
     13          1           0        6.632402   -0.963042   -1.794949
     14          1           0        7.323693   -2.193893   -0.739294
     15          8           0        5.788570   -1.110544    0.068189
     16          6           0        4.689745   -1.859096   -0.346561
     17          1           0        4.914333   -2.925085   -0.297050
     18          1           0        4.422842   -1.618048   -1.372573
     19          6           0        3.516910   -1.555705    0.556518
     20          1           0        3.824627   -1.662609    1.594660
     21          1           0        2.723627   -2.272330    0.357207
     22          8           0        3.082862   -0.252129    0.305221
     23          6           0        2.195073    0.295669    1.226744
     24          1           0        2.116712    1.344752    0.975074
     25          1           0        2.599622    0.220319    2.235503
     26          6           0        0.802900   -0.334322    1.218511
     27          1           0        0.180217    0.231110    1.902076
     28          1           0        0.834336   -1.357905    1.573478
     29         16           0        0.082083   -0.302318   -0.451725
     30          6           0       -1.622239   -0.834543   -0.101675
     31          1           0       -2.015074   -1.166435   -1.054360
     32          1           0       -1.604269   -1.698248    0.551315
     33          6           0       -2.507604    0.262094    0.488202
     34          1           0       -2.521015    1.128847   -0.160715
     35          1           0       -2.120057    0.588831    1.444604
     36         16           0       -4.215844   -0.270011    0.823040
     37          6           0       -4.915332   -0.212814   -0.857249
     38          1           0       -4.219106   -0.677929   -1.545585
     39          1           0       -5.031339    0.820416   -1.160568
     40          6           0       -6.242145   -0.964066   -0.967304
     41          1           0       -6.560009   -0.948534   -2.004300
     42          1           0       -6.098835   -2.001236   -0.690289
     43         16           0       -7.612764   -0.383694    0.071583
     44          6           0       -7.938243    1.262339   -0.629158
     45          1           0       -7.090931    1.910836   -0.444403
     46          1           0       -8.066744    1.169736   -1.701984
     47          6           0       -9.193793    1.857643    0.003579
     48          1           0       -9.382611    2.844538   -0.406549
     49          1           0      -10.061742    1.237726   -0.191004
     50          1           0       -9.080527    1.956223    1.077591
 ---------------------------------------------------------------------
 Standard basis: 6-31G(d) (6D, 7F)
   372 basis functions,   752 primitive gaussians,   372 cartesian basis functions
    93 alpha electrons       93 beta electrons
 Requested convergence on RMS density matrix=1.00D-08 within  64 cycles.
 Requested convergence on MAX density matrix=1.00D-06.
 Requested convergence on             energy=1.00D-06.
 SCF Done:  E(RHF) =  -1964.69190745     A.U. after   11 cycles
            NFock= 11  Conv=0.50D-08     -V/T= 2.0006
 Step number   5 out of a maximum of   55
     Eigenvalues ---    0.00223   0.00230   0.00230   0.00232   0.00239
     Eigenvalues ---    0.00297   0.00429   0.00432   0.00448   0.00571
     Eigenvalues ---    0.00598   0.00636   0.00683   0.01027   0.01432
     Eigenvalues ---    0.01556   0.01601   0.01614   0.01723   0.04182
     Eigenvalues ---    0.04457   0.04648   0.04701   0.04791   0.04982
     Eigenvalues ---    0.05011   0.05137   0.05383   0.05421   0.05456
     Eigenvalues ---    0.05556   0.05643   0.05667   0.05698   0.05736
     Eigenvalues ---    0.05756   0.05766   0.05807   0.05856   0.05883
     Eigenvalues ---    0.05910   0.05917   0.05945   0.06079   0.06154
     Eigenvalues ---    0.06161   0.06344   0.11023   0.11087   0.11173
     Eigenvalues ---    0.11224   0.11283   0.11381   0.11501   0.11634
     Eigenvalues ---    0.11789   0.11873   0.11914   0.12059   0.13619
     Eigenvalues ---    0.13655   0.13697   0.13730   0.13740   0.13781
     Eigenvalues ---    0.13853   0.13966   0.14067   0.14097   0.14134
     Eigenvalues ---    0.14447   0.15973   0.16000   0.16000   0.16002
     Eigenvalues ---    0.16007   0.16052   0.21725   0.21958   0.22012
     Eigenvalues ---    0.22016   0.22023   0.22024   0.22038   0.22086
     Eigenvalues ---    0.22096   0.22424   0.23043   0.23404   0.24134
     Eigenvalues ---    0.24284   0.24314   0.24333   0.24365   0.24573
     Eigenvalues ---    0.24838   0.24986   0.25000   0.26079   0.26608
     Eigenvalues ---    0.29270   0.29842   0.29948   0.29983   0.30089
     Eigenvalues ---    0.30860   0.31354   0.33255   0.33340   0.33440
     Eigenvalues ---    0.33463   0.33515   0.33579   0.33606   0.33741
     Eigenvalues ---    0.33806   0.33883   0.34122   0.34207   0.34228
     Eigenvalues ---    0.34274   0.34307   0.34318   0.34327   0.34337
     Eigenvalues ---    0.34359   0.34380   0.34388   0.34395   0.34406
     Eigenvalues ---    0.34412   0.34430   0.34438   0.34446   0.34489
     Eigenvalues ---    0.34560   0.36221   0.38232   0.42038   0.43230
     Eigenvalues ---    0.44145   0.44407   0.44814   0.48389
 Maximum Force            0.001057     0.000015     NO 
 RMS     Force            0.000162     0.000010     NO 
 Maximum Displacement     0.129346     0.000060     NO 
 RMS     Displacement     0.037363     0.000040     NO 
                          Input orientation:                          
 ---------------------------------------------------------------------
 Center     Atomic      Atomic             Coordinates (Angstroms)
 Number     Number       Type             X           Y           Z
 ---------------------------------------------------------------------
      1          6           0        6.806464    3.310442   -0.324367
      2          1           0        6.113861    3.906784    0.263091
      3          1           0        7.802513    3.726183   -0.213129
      4          1           0        6.521920    3.384390   -1.368806
      5          6           0        6.776734    1.863734    0.131552
      6          1           0        7.064992    1.791699    1.180386
      7          1           0        5.779748    1.450147    0.039041
      8          8           0        7.689356    1.144714   -0.658792
      9          6           0        7.968063   -0.165186   -0.274679
     10          1           0        8.100280   -0.237209    0.803939
     11          1           0        8.910763   -0.422789   -0.746196
     12          6           0        6.921659   -1.173063   -0.716119
     13          1           0        6.662490   -0.986318   -1.756828
     14          1           0        7.338082   -2.180079   -0.648225
     15          8           0        5.792831   -1.067394    0.098932
     16          6           0        4.708128   -1.848374   -0.291476
     17          1           0        4.950852   -2.908544   -0.203755
     18          1           0        4.440581   -1.648587   -1.327022
     19          6           0        3.527003   -1.532919    0.597652
     20          1           0        3.832534   -1.601189    1.640467
     21          1           0        2.745297   -2.268975    0.420153
     22          8           0        3.073527   -0.245788    0.302467
     23          6           0        2.179640    0.321431    1.205198
     24          1           0        2.091264    1.362073    0.921165
     25          1           0        2.583109    0.281991    2.217334
     26          6           0        0.793092   -0.322530    1.215463
     27          1           0        0.165031    0.255570    1.883961
     28          1           0        0.836515   -1.335680    1.599431
     29         16           0        0.071826   -0.347698   -0.454754
     30          6           0       -1.627515   -0.886754   -0.089650
     31          1           0       -2.014200   -1.257959   -1.030624
     32          1           0       -1.601011   -1.726082    0.594930
     33          6           0       -2.528159    0.220257    0.457549
     34          1           0       -2.550397    1.063361   -0.222420
     35          1           0       -2.145285    0.585658    1.402224
     36         16           0       -4.231295   -0.317841    0.810783
     37          6           0       -4.960323   -0.239355   -0.856049
     38          1           0       -4.280830   -0.702498   -1.562744
     39          1           0       -5.075302    0.798017   -1.146714
     40          6           0       -6.294592   -0.981214   -0.947016
     41          1           0       -6.625122   -0.970291   -1.980733
     42          1           0       -6.154477   -2.018408   -0.666419
     43         16           0       -7.648221   -0.383298    0.104285
     44          6           0       -7.976799    1.256421   -0.609850
     45          1           0       -7.126176    1.905758   -0.441184
     46          1           0       -8.116622    1.152641   -1.680731
     47          6           0       -9.224518    1.862511    0.029131
     48          1           0       -9.416028    2.845211   -0.390837
     49          1           0      -10.095843    1.241688   -0.149019
     50          1           0       -9.099440    1.973344    1.101005
 ---------------------------------------------------------------------
 Stoichiometry    C14H30O3S3
 Framework group  C1[X(C14H30O3S3)]
                         Standard orientation:                         
 ---------------------------------------------------------------------
 Center     Atomic      Atomic             Coordinates (Angstroms)
 Number     Number       Type             X           Y           Z
 ---------------------------------------------------------------------
      1          6           0        6.829666    3.300106   -0.241150
      2          1           0        6.138286    3.883714    0.360368
      3          1           0        7.826845    3.709952   -0.118719
      4          1           0        6.546340    3.400890   -1.283673
      5          6           0        6.795187    1.842589    0.178577
      6          1           0        7.082228    1.743596    1.225544
      7          1           0        5.797060    1.434433    0.074919
      8          8           0        7.706412    1.140731   -0.628626
      9          6           0        7.980845   -0.179158   -0.277006
     10          1           0        8.111818   -0.278413    0.799600
     11          1           0        8.923221   -0.427774   -0.753962
     12          6           0        6.931860   -1.172582   -0.744326
     13          1           0        6.674241   -0.959204   -1.780289
     14          1           0        7.345212   -2.182223   -0.701163
     15          8           0        5.802576   -1.083847    0.072113
     16          6           0        4.715920   -1.851600   -0.338575
     17          1           0        4.955397   -2.914350   -0.277068
     18          1           0        4.449958   -1.625287   -1.369059
     19          6           0        3.534895   -1.554832    0.557095
     20          1           0        3.839226   -1.649964    1.598154
     21          1           0        2.751166   -2.283887    0.360636
     22          8           0        3.085542   -0.259393    0.293655
     23          6           0        2.192491    0.287858    1.209445
     24          1           0        2.107491    1.335510    0.951336
     25          1           0        2.594876    0.222017    2.220639
     26          6           0        0.804019   -0.351989    1.202454
     27          1           0        0.177049    0.211173    1.884588
     28          1           0        0.844054   -1.374511    1.561111
     29         16           0        0.084273   -0.333394   -0.468506
     30          6           0       -1.617015   -0.876263   -0.118430
     31          1           0       -2.003909   -1.222760   -1.068696
     32          1           0       -1.593667   -1.732452    0.545059
     33          6           0       -2.514874    0.219483    0.455374
     34          1           0       -2.533949    1.079319   -0.203410
     35          1           0       -2.131812    0.560096    1.409190
     36         16           0       -4.219944   -0.322122    0.793602
     37          6           0       -4.947146   -0.199968   -0.871398
     38          1           0       -4.268364   -0.647411   -1.588810
     39          1           0       -5.058753    0.844661   -1.136242
     40          6           0       -6.283534   -0.935317   -0.981982
     41          1           0       -6.613045   -0.897666   -2.015397
     42          1           0       -6.146781   -1.979593   -0.727178
     43         16           0       -7.636375   -0.359697    0.082692
     44          6           0       -7.959379    1.298276   -0.590678
     45          1           0       -7.106984    1.940652   -0.405148
     46          1           0       -8.098490    1.221612   -1.663934
     47          6           0       -9.205893    1.892015    0.062101
     48          1           0       -9.394070    2.885438   -0.333434
     49          1           0      -10.078896    1.278442   -0.132218
     50          1           0       -9.081507    1.975749    1.136512
 ---------------------------------------------------------------------
 Standard basis: 6-31G(d) (6D, 7F)
   372 basis functions,   752 primitive gaussians,   372 cartesian basis functions
    93 alpha electrons       93 beta electrons
 Requested convergence on RMS density matrix=1.00D-08 within  64 cycles.
 Requested convergence on MAX density matrix=1.00D-06.
 Requested convergence on             energy=1.00D-06.
 SCF Done:  E(RHF) =  -1964.69190792     A.U. after   11 cycles
            NFock= 11  Conv=0.54D-08     -V/T= 2.0006
 Step number   6 out of a maximum of   55
     Eigenvalues ---    0.00219   0.00230   0.00230   0.00233   0.00236
     Eigenvalues ---    0.00351   0.00429   0.00434   0.00449   0.00571
     Eigenvalues ---    0.00593   0.00633   0.00744   0.00914   0.01433
     Eigenvalues ---    0.01556   0.01601   0.01621   0.01721   0.04191
     Eigenvalues ---    0.04466   0.04657   0.04706   0.04853   0.04985
     Eigenvalues ---    0.05026   0.05143   0.05381   0.05416   0.05448
     Eigenvalues ---    0.05562   0.05648   0.05680   0.05697   0.05738
     Eigenvalues ---    0.05764   0.05786   0.05825   0.05866   0.05883
     Eigenvalues ---    0.05912   0.05939   0.05960   0.06074   0.06157
     Eigenvalues ---    0.06167   0.06331   0.11045   0.11101   0.11176
     Eigenvalues ---    0.11230   0.11312   0.11399   0.11476   0.11644
     Eigenvalues ---    0.11809   0.11879   0.11932   0.12028   0.13643
     Eigenvalues ---    0.13659   0.13703   0.13732   0.13741   0.13843
     Eigenvalues ---    0.13872   0.14012   0.14093   0.14117   0.14183
     Eigenvalues ---    0.14490   0.15992   0.16000   0.16000   0.16007
     Eigenvalues ---    0.16028   0.16060   0.21756   0.21957   0.22013
     Eigenvalues ---    0.22015   0.22022   0.22025   0.22077   0.22082
     Eigenvalues ---    0.22125   0.22537   0.23096   0.23413   0.24153
     Eigenvalues ---    0.24290   0.24333   0.24366   0.24378   0.24596
     Eigenvalues ---    0.24908   0.24998   0.25021   0.26137   0.27871
     Eigenvalues ---    0.29836   0.29920   0.29971   0.29997   0.30586
     Eigenvalues ---    0.30937   0.32002   0.33287   0.33334   0.33430
     Eigenvalues ---    0.33500   0.33523   0.33586   0.33616   0.33739
     Eigenvalues ---    0.33807   0.33968   0.34202   0.34227   0.34268
     Eigenvalues ---    0.34286   0.34315   0.34321   0.34328   0.34359
     Eigenvalues ---    0.34378   0.34381   0.34390   0.34406   0.34411
     Eigenvalues ---    0.34421   0.34433   0.34445   0.34468   0.34493
     Eigenvalues ---    0.34644   0.36879   0.40789   0.42962   0.43999
     Eigenvalues ---    0.44314   0.44690   0.44845   0.47972
 Maximum Force            0.000839     0.000015     NO 
 RMS     Force            0.000229     0.000010     NO 
 Maximum Displacement     0.122585     0.000060     NO 
 RMS     Displacement     0.026926     0.000040     NO 
                          Input orientation:                          
 ---------------------------------------------------------------------
 Center     Atomic      Atomic             Coordinates (Angstroms)
 Number     Number       Type             X           Y           Z
 ---------------------------------------------------------------------
      1          6           0        6.748350    3.290121   -0.312133
      2          1           0        6.048991    3.872524    0.280424
      3          1           0        7.737938    3.719350   -0.200582
      4          1           0        6.460355    3.366849   -1.354780
      5          6           0        6.741351    1.840625    0.133826
      6          1           0        7.033755    1.764712    1.180305
      7          1           0        5.751630    1.412113    0.039987
      8          8           0        7.662104    1.141073   -0.664756
      9          6           0        7.956794   -0.168093   -0.291794
     10          1           0        8.101593   -0.243246    0.784027
     11          1           0        8.894884   -0.416929   -0.775477
     12          6           0        6.912141   -1.179609   -0.724601
     13          1           0        6.639983   -0.990527   -1.760480
     14          1           0        7.336589   -2.182874   -0.665079
     15          8           0        5.791645   -1.082862    0.103189
     16          6           0        4.699125   -1.851957   -0.289498
     17          1           0        4.931623   -2.913898   -0.205810
     18          1           0        4.432787   -1.645625   -1.322994
     19          6           0        3.522501   -1.528625    0.601466
     20          1           0        3.828585   -1.600947    1.642836
     21          1           0        2.734536   -2.256252    0.423199
     22          8           0        3.080130   -0.236607    0.308873
     23          6           0        2.187806    0.334257    1.211709
     24          1           0        2.103319    1.374274    0.927296
     25          1           0        2.591988    0.293060    2.222356
     26          6           0        0.799671   -0.304488    1.221758
     27          1           0        0.172261    0.279159    1.885033
     28          1           0        0.836740   -1.315344    1.610546
     29         16           0        0.081601   -0.332266   -0.449735
     30          6           0       -1.619762   -0.864685   -0.085990
     31          1           0       -2.006366   -1.233556   -1.027296
     32          1           0       -1.597278   -1.704281    0.597345
     33          6           0       -2.515519    0.245488    0.461552
     34          1           0       -2.533706    1.088618   -0.217419
     35          1           0       -2.133111    0.608865    1.406541
     36         16           0       -4.220509   -0.286658    0.812690
     37          6           0       -4.936230   -0.238193   -0.861123
     38          1           0       -4.248633   -0.709880   -1.553177
     39          1           0       -5.051637    0.793201   -1.170124
     40          6           0       -6.266634   -0.985613   -0.952980
     41          1           0       -6.595118   -0.976343   -1.986580
     42          1           0       -6.123751   -2.021178   -0.670389
     43         16           0       -7.624786   -0.393786    0.095876
     44          6           0       -7.954144    1.247826   -0.613303
     45          1           0       -7.103152    1.895278   -0.443428
     46          1           0       -8.095221    1.147478   -1.683701
     47          6           0       -9.200609    1.851410    0.029396
     48          1           0       -9.391503    2.835605   -0.385826
     49          1           0      -10.072414    1.232648   -0.150297
     50          1           0       -9.074695    1.957792    1.101122
 ---------------------------------------------------------------------
 Stoichiometry    C14H30O3S3
 Framework group  C1[X(C14H30O3S3)]
                         Standard orientation:                         
 ---------------------------------------------------------------------
 Center     Atomic      Atomic             Coordinates (Angstroms)
 Number     Number       Type             X           Y           Z
 ---------------------------------------------------------------------
      1          6           0        6.765426    3.282123   -0.249461
      2          1           0        6.066793    3.854489    0.353637
      3          1           0        7.755798    3.707105   -0.128970
      4          1           0        6.478398    3.379415   -1.290658
      5          6           0        6.755132    1.824361    0.168619
      6          1           0        7.046566    1.727800    1.213666
      7          1           0        5.764614    1.399755    0.065850
      8          8           0        7.675080    1.138363   -0.642548
      9          6           0        7.966816   -0.178315   -0.294538
     10          1           0        8.110625   -0.274375    0.779751
     11          1           0        8.904773   -0.419753   -0.782210
     12          6           0        6.920445   -1.179205   -0.747431
     13          1           0        6.649477   -0.969741   -1.779695
     14          1           0        7.342804   -2.184294   -0.706842
     15          8           0        5.799504   -1.096049    0.081234
     16          6           0        4.705728   -1.855235   -0.326934
     17          1           0        4.935999   -2.919060   -0.263450
     18          1           0        4.440614   -1.628582   -1.356480
     19          6           0        3.529071   -1.546634    0.569196
     20          1           0        3.834197   -1.639534    1.609215
     21          1           0        2.739767   -2.269094    0.376430
     22          8           0        3.089557   -0.248340    0.301102
     23          6           0        2.197694    0.306937    1.214059
     24          1           0        2.115545    1.352387    0.949576
     25          1           0        2.601005    0.245545    2.224028
     26          6           0        0.808255   -0.329037    1.210834
     27          1           0        0.181518    0.243071    1.884713
     28          1           0        0.842965   -1.347235    1.580197
     29         16           0        0.091430   -0.323293   -0.461415
     30          6           0       -1.611295   -0.859101   -0.109202
     31          1           0       -1.997915   -1.209066   -1.057692
[...]
     18          1           0        4.425707   -1.631217   -1.334355
     19          6           0        3.510968   -1.524177    0.588661
     20          1           0        3.814171   -1.603840    1.630372
     21          1           0        2.722678   -2.249693    0.403231
     22          8           0        3.070513   -0.229515    0.303472
     23          6           0        2.180418    0.337642    1.211462
     24          1           0        2.096175    1.379176    0.932466
     25          1           0        2.587125    0.290739    2.220844
     26          6           0        0.792283   -0.300498    1.220938
     27          1           0        0.165716    0.280713    1.887167
     28          1           0        0.829388   -1.312966    1.605749
     29         16           0        0.072373   -0.320735   -0.449936
     30          6           0       -1.627261   -0.858953   -0.086659
     31          1           0       -2.012223   -1.227673   -1.028773
     32          1           0       -1.602338   -1.699673    0.595317
     33          6           0       -2.526500    0.247552    0.462191
     34          1           0       -2.547018    1.091908   -0.215315
     35          1           0       -2.145885    0.610687    1.408071
     36         16           0       -4.229720   -0.290321    0.812687
     37          6           0       -4.945823   -0.240690   -0.861104
     38          1           0       -4.257151   -0.709594   -1.554067
     39          1           0       -5.063638    0.790967   -1.168521
     40          6           0       -6.274368   -0.990965   -0.952951
     41          1           0       -6.603992   -0.981494   -1.986218
     42          1           0       -6.129260   -2.026483   -0.671114
     43         16           0       -7.632670   -0.402730    0.097916
     44          6           0       -7.968372    1.236990   -0.612806
     45          1           0       -7.117669    1.886274   -0.448148
     46          1           0       -8.114206    1.134421   -1.682429
     47          6           0       -9.212764    1.839116    0.034778
     48          1           0       -9.407512    2.822315   -0.381098
     49          1           0      -10.084401    1.218480   -0.139588
     50          1           0       -9.082006    1.947565    1.105793
 ---------------------------------------------------------------------
 Stoichiometry    C14H30O3S3
 Framework group  C1[X(C14H30O3S3)]
                         Standard orientation:                         
 ---------------------------------------------------------------------
 Center     Atomic      Atomic             Coordinates (Angstroms)
 Number     Number       Type             X           Y           Z
 ---------------------------------------------------------------------
      1          6           0        6.827701    3.280312   -0.264168
      2          1           0        6.141189    3.871209    0.335052
      3          1           0        7.825607    3.689846   -0.152128
      4          1           0        6.538317    3.371000   -1.305353
      5          6           0        6.794207    1.827829    0.169957
      6          1           0        7.087979    1.738210    1.215061
      7          1           0        5.796620    1.418811    0.075055
      8          8           0        7.700896    1.117863   -0.636568
      9          6           0        7.971284   -0.201373   -0.278637
     10          1           0        8.105154   -0.294407    0.797242
     11          1           0        8.910363   -0.456724   -0.757023
     12          6           0        6.918277   -1.192296   -0.737848
     13          1           0        6.660400   -0.984962   -1.773965
     14          1           0        7.328595   -2.202030   -0.688132
     15          8           0        5.789691   -1.094269    0.079053
     16          6           0        4.696270   -1.852039   -0.333613
     17          1           0        4.925719   -2.916207   -0.272066
     18          1           0        4.434003   -1.622763   -1.363392
     19          6           0        3.517956   -1.544938    0.560405
     20          1           0        3.820002   -1.642993    1.600883
     21          1           0        2.727491   -2.264696    0.362228
     22          8           0        3.081922   -0.244268    0.296556
     23          6           0        2.192877    0.310502    1.213186
     24          1           0        2.112232    1.356823    0.951583
     25          1           0        2.598560    0.245408    2.221971
     26          6           0        0.802685   -0.323210    1.210864
     27          1           0        0.177420    0.248802    1.886215
     28          1           0        0.836193   -1.342088    1.578716
     29         16           0        0.084154   -0.313169   -0.460696
     30          6           0       -1.617518   -0.851883   -0.107848
     31          1           0       -2.002854   -1.203547   -1.056308
     32          1           0       -1.595893   -1.703967    0.559990
     33          6           0       -2.513659    0.248193    0.458707
     34          1           0       -2.530871    1.103824   -0.204598
     35          1           0       -2.132692    0.594225    1.410836
     36         16           0       -4.218906   -0.289949    0.798780
     37          6           0       -4.933401   -0.210015   -0.874526
     38          1           0       -4.245646   -0.669491   -1.574678
     39          1           0       -5.047625    0.827015   -1.164738
     40          6           0       -6.264278   -0.954344   -0.979984
     41          1           0       -6.592978   -0.926527   -2.013214
     42          1           0       -6.122751   -1.994895   -0.715390
     43         16           0       -7.621582   -0.379373    0.079476
     44          6           0       -7.951384    1.273083   -0.603989
     45          1           0       -7.098736    1.916765   -0.427807
     46          1           0       -8.096626    1.188889   -1.675296
     47          6           0       -9.194388    1.868319    0.052569
     48          1           0       -9.385606    2.858961   -0.346960
     49          1           0      -10.067869    1.253511   -0.132859
     50          1           0       -9.064204    1.958417    1.125354
 ---------------------------------------------------------------------
 Standard basis: 6-31G(d) (6D, 7F)
   372 basis functions,   752 primitive gaussians,   372 cartesian basis functions
    93 alpha electrons       93 beta electrons
 Requested convergence on RMS density matrix=1.00D-08 within  64 cycles.
 Requested convergence on MAX density matrix=1.00D-06.
 Requested convergence on             energy=1.00D-06.
 SCF Done:  E(RHF) =  -1964.69194032     A.U. after    7 cycles
            NFock=  7  Conv=0.59D-08     -V/T= 2.0006
 Step number  24 out of a maximum of   55
     Eigenvalues ---    0.00162   0.00244   0.00307   0.00366   0.00383
     Eigenvalues ---    0.00410   0.00432   0.00454   0.00487   0.00544
     Eigenvalues ---    0.00598   0.00640   0.00678   0.00730   0.00814
     Eigenvalues ---    0.01033   0.01288   0.01579   0.01717   0.04628
     Eigenvalues ---    0.04656   0.04829   0.04940   0.04983   0.05034
     Eigenvalues ---    0.05172   0.05226   0.05403   0.05450   0.05563
     Eigenvalues ---    0.05607   0.05678   0.05705   0.05728   0.05745
     Eigenvalues ---    0.05761   0.05790   0.05805   0.05862   0.05906
     Eigenvalues ---    0.05946   0.06034   0.06093   0.06127   0.06222
     Eigenvalues ---    0.06392   0.06741   0.10816   0.11032   0.11162
     Eigenvalues ---    0.11200   0.11288   0.11375   0.11639   0.11765
     Eigenvalues ---    0.11798   0.11870   0.12056   0.12151   0.13456
     Eigenvalues ---    0.13592   0.13668   0.13732   0.13860   0.13957
     Eigenvalues ---    0.13983   0.14019   0.14097   0.14210   0.14456
     Eigenvalues ---    0.14678   0.15908   0.15985   0.16002   0.16026
     Eigenvalues ---    0.16079   0.16203   0.19050   0.21547   0.21889
     Eigenvalues ---    0.22050   0.22294   0.22476   0.22522   0.23019
     Eigenvalues ---    0.23269   0.23443   0.23802   0.23892   0.24279
     Eigenvalues ---    0.24345   0.24373   0.24469   0.24722   0.25068
     Eigenvalues ---    0.25787   0.26212   0.27610   0.28463   0.28838
     Eigenvalues ---    0.29720   0.30173   0.30414   0.30617   0.30898
     Eigenvalues ---    0.31466   0.32439   0.33371   0.33418   0.33433
     Eigenvalues ---    0.33552   0.33602   0.33648   0.33710   0.33794
     Eigenvalues ---    0.33840   0.33966   0.34255   0.34276   0.34301
     Eigenvalues ---    0.34318   0.34325   0.34351   0.34374   0.34385
     Eigenvalues ---    0.34400   0.34409   0.34415   0.34430   0.34473
     Eigenvalues ---    0.34492   0.34573   0.34685   0.34754   0.34992
     Eigenvalues ---    0.35197   0.36345   0.36764   0.41531   0.42950
     Eigenvalues ---    0.44444   0.44994   0.47045   0.50206
 Maximum Force            0.000000     0.000015     YES
 RMS     Force            0.000000     0.000010     YES
 Maximum Displacement     0.000026     0.000060     YES
 RMS     Displacement     0.000006     0.000040     YES
 Optimization completed.
    -- Stationary point found.
                          Input orientation:                          
 ---------------------------------------------------------------------
 Center     Atomic      Atomic             Coordinates (Angstroms)
 Number     Number       Type             X           Y           Z
 ---------------------------------------------------------------------
      1          6           0        6.804408    3.297248   -0.319350
      2          1           0        6.116472    3.895871    0.270496
      3          1           0        7.801073    3.711814   -0.215036
      4          1           0        6.513890    3.369575   -1.361656
      5          6           0        6.775967    1.852130    0.139034
      6          1           0        7.070873    1.780952    1.185237
      7          1           0        5.779633    1.438369    0.051847
      8          8           0        7.684298    1.131699   -0.656286
      9          6           0        7.959244   -0.180487   -0.276576
     10          1           0        8.094285   -0.255080    0.800593
     11          1           0        8.898758   -0.440776   -0.751433
     12          6           0        6.909079   -1.182341   -0.718241
     13          1           0        6.649695   -0.993200   -1.757457
     14          1           0        7.322705   -2.189775   -0.651999
     15          8           0        5.780843   -1.074302    0.097879
     16          6           0        4.689547   -1.842389   -0.301112
     17          1           0        4.922490   -2.904634   -0.221974
     18          1           0        4.425707   -1.631217   -1.334355
     19          6           0        3.510968   -1.524177    0.588661
     20          1           0        3.814171   -1.603840    1.630372
     21          1           0        2.722678   -2.249693    0.403231
     22          8           0        3.070513   -0.229515    0.303472
     23          6           0        2.180418    0.337642    1.211462
     24          1           0        2.096175    1.379176    0.932466
     25          1           0        2.587125    0.290739    2.220844
     26          6           0        0.792283   -0.300498    1.220938
     27          1           0        0.165716    0.280713    1.887167
     28          1           0        0.829388   -1.312966    1.605749
     29         16           0        0.072373   -0.320735   -0.449936
     30          6           0       -1.627261   -0.858953   -0.086659
     31          1           0       -2.012223   -1.227673   -1.028773
     32          1           0       -1.602338   -1.699673    0.595317
     33          6           0       -2.526500    0.247552    0.462191
     34          1           0       -2.547018    1.091908   -0.215315
     35          1           0       -2.145885    0.610687    1.408071
     36         16           0       -4.229720   -0.290321    0.812687
     37          6           0       -4.945823   -0.240690   -0.861104
     38          1           0       -4.257151   -0.709594   -1.554067
     39          1           0       -5.063638    0.790967   -1.168521
     40          6           0       -6.274368   -0.990965   -0.952951
     41          1           0       -6.603992   -0.981494   -1.986218
     42          1           0       -6.129260   -2.026483   -0.671114
     43         16           0       -7.632670   -0.402730    0.097916
     44          6           0       -7.968372    1.236990   -0.612806
     45          1           0       -7.117669    1.886274   -0.448148
     46          1           0       -8.114206    1.134421   -1.682429
     47          6           0       -9.212764    1.839116    0.034778
     48          1           0       -9.407512    2.822315   -0.381098
     49          1           0      -10.084401    1.218480   -0.139588
     50          1           0       -9.082006    1.947565    1.105793
 ---------------------------------------------------------------------
 Stoichiometry    C14H30O3S3
 Framework group  C1[X(C14H30O3S3)]
                         Standard orientation:                         
 ---------------------------------------------------------------------
 Center     Atomic      Atomic             Coordinates (Angstroms)
 Number     Number       Type             X           Y           Z
 ---------------------------------------------------------------------
      1          6           0        6.827701    3.280312   -0.264168
      2          1           0        6.141189    3.871209    0.335052
      3          1           0        7.825607    3.689846   -0.152128
      4          1           0        6.538317    3.371000   -1.305353
      5          6           0        6.794207    1.827829    0.169957
      6          1           0        7.087979    1.738210    1.215061
      7          1           0        5.796620    1.418811    0.075055
      8          8           0        7.700896    1.117863   -0.636568
      9          6           0        7.971284   -0.201373   -0.278637
     10          1           0        8.105154   -0.294407    0.797242
     11          1           0        8.910363   -0.456724   -0.757023
     12          6           0        6.918277   -1.192296   -0.737848
     13          1           0        6.660400   -0.984962   -1.773965
     14          1           0        7.328595   -2.202030   -0.688132
     15          8           0        5.789691   -1.094269    0.079053
     16          6           0        4.696270   -1.852039   -0.333613
     17          1           0        4.925719   -2.916207   -0.272066
     18          1           0        4.434003   -1.622763   -1.363392
     19          6           0        3.517956   -1.544938    0.560405
     20          1           0        3.820002   -1.642993    1.600883
     21          1           0        2.727491   -2.264696    0.362228
     22          8           0        3.081922   -0.244268    0.296556
     23          6           0        2.192877    0.310502    1.213186
     24          1           0        2.112232    1.356823    0.951583
     25          1           0        2.598560    0.245408    2.221971
     26          6           0        0.802685   -0.323210    1.210864
     27          1           0        0.177420    0.248802    1.886215
     28          1           0        0.836193   -1.342088    1.578716
     29         16           0        0.084154   -0.313169   -0.460696
     30          6           0       -1.617518   -0.851883   -0.107848
     31          1           0       -2.002854   -1.203547   -1.056308
     32          1           0       -1.595893   -1.703967    0.559990
     33          6           0       -2.513659    0.248193    0.458707
     34          1           0       -2.530871    1.103824   -0.204598
     35          1           0       -2.132692    0.594225    1.410836
     36         16           0       -4.218906   -0.289949    0.798780
     37          6           0       -4.933401   -0.210015   -0.874526
     38          1           0       -4.245646   -0.669491   -1.574678
     39          1           0       -5.047625    0.827015   -1.164738
     40          6           0       -6.264278   -0.954344   -0.979984
     41          1           0       -6.592978   -0.926527   -2.013214
     42          1           0       -6.122751   -1.994895   -0.715390
     43         16           0       -7.621582   -0.379373    0.079476
     44          6           0       -7.951384    1.273083   -0.603989
     45          1           0       -7.098736    1.916765   -0.427807
     46          1           0       -8.096626    1.188889   -1.675296
     47          6           0       -9.194388    1.868319    0.052569
     48          1           0       -9.385606    2.858961   -0.346960
     49          1           0      -10.067869    1.253511   -0.132859
     50          1           0       -9.064204    1.958417    1.125354
 ---------------------------------------------------------------------
 Mulliken charges:
     1  C   -0.487927
     2  H    0.150621
     3  H    0.165710
     4  H    0.170713
     5  C    0.011426
     6  H    0.129120
     7  H    0.184237
     8  O   -0.630896
     9  C    0.005877
    10  H    0.150582
    11  H    0.167022
    12  C    0.004851
    13  H    0.156755
    14  H    0.133034
    15  O   -0.626258
    16  C    0.015421
    17  H    0.138028
    18  H    0.164818
    19  C    0.004990
    20  H    0.152707
    21  H    0.152598
    22  O   -0.611751
    23  C    0.006271
    24  H    0.191918
    25  H    0.157787
    26  C   -0.499048
    27  H    0.189817
    28  H    0.189609
    29  S    0.137013
    30  C   -0.479154
    31  H    0.199801
    32  H    0.204304
    33  C   -0.482581
    34  H    0.205418
    35  H    0.200803
    36  S    0.142919
    37  C   -0.460528
    38  H    0.191701
    39  H    0.193788
    40  C   -0.492056
    41  H    0.197919
    42  H    0.214943
    43  S    0.135340
    44  C   -0.461000
    45  H    0.192360
    46  H    0.181982
    47  C   -0.495819
    48  H    0.171961
    49  H    0.180434
    50  H    0.182423
 Sum of Mulliken charges =  -0.00000
 Dipole moment (field-independent basis, Debye):
    X=             -0.5845    Y=             -1.0003    Z=             -0.1958  Tot=              1.1750
 Quadrupole moment (field-independent basis, Debye-Ang):
   XX=           -166.4465   YY=           -142.6898   ZZ=           -146.2092
   XY=            -23.5040   XZ=             22.1123   YZ=              3.6034
 Traceless Quadrupole moment (field-independent basis, Debye-Ang):
   XX=            -14.6647   YY=              9.0920   ZZ=              5.5726
   XY=            -23.5040   XZ=             22.1123   YZ=              3.6034
 Octapole moment (field-independent basis, Debye-Ang**2):
  XXX=             62.1442  YYY=             -7.9053  ZZZ=             -1.6665  XYY=             24.4095
  XXY=             -7.7425  XXZ=            -71.2907  XZZ=             20.9371  YZZ=             -2.5490
  YYZ=              0.5593  XYZ=             18.2785
 Hexadecapole moment (field-independent basis, Debye-Ang**3):
 XXXX=         -29496.2656 YYYY=          -1591.2291 ZZZZ=           -604.4585 XXXY=          -1584.8882
 XXXZ=            798.5158 YYYX=            -46.6895 YYYZ=             -1.2334 ZZZX=             29.4546
 ZZZY=              2.8449 XXYY=          -4856.2175 XXZZ=          -4839.8090 YYZZ=           -373.3370
 XXYZ=            168.7108 YYXZ=             23.8499 ZZXY=            -17.4954
 Job cpu time:       0 days  2 hours 16 minutes 55.6 seconds.
 Normal termination of Gaussian 16 at Sat Jul  8 17:12:07 2023.
