 Copyright (c) 1988-2019, Gaussian, Inc.  All Rights Reserved.
  
 This is part of the Gaussian(R) 16 program.  It is based on
 the Gaussian(R) 09 system (copyright 2009, Gaussian, Inc.),
 the Gaussian(R) 03 system (copyright 2003, Gaussian, Inc.),
 the Gaussian(R) 98 system (copyright 1998, Gaussian, Inc.),
 the Gaussian(R) 94 system (copyright 1995, Gaussian, Inc.),
 the Gaussian 92(TM) system (copyright 1992, Gaussian, Inc.),
 the Gaussian 90(TM) system (copyright 1990, Gaussian, Inc.),
 the Gaussian 88(TM) system (copyright 1988, Gaussian, Inc.),
 the Gaussian 86(TM) system (copyright 1986, Carnegie Mellon
 University), and the Gaussian 82(TM) system (copyright 1983,
 Carnegie Mellon University). Gaussian is a federally registered
 trademark of Gaussian, Inc.
 Cite this work as:
 Gaussian 16, Revision C.01,
 M. J. Frisch, G. W. Trucks, H. B. Schlegel, G. E. Scuseria, 
 M. A. Robb, J. R. Cheeseman, G. Scalmani, V. Barone, 
 G. A. Petersson, H. Nakatsuji, X. Li, M. Caricato, A. V. Marenich, 
 J. Bloino, B. G. Janesko, R. Gomperts, B. Mennucci, H. P. Hratchian, 
 J. V. Ortiz, A. F. Izmaylov, J. L. Sonnenberg, D. Williams-Young, 
 F. Ding, F. Lipparini, F. Egidi, J. Goings, B. Peng, A. Petrone, 
 T. Henderson, D. Ranasinghe, V. G. Zakrzewski, J. Gao, N. Rega, 
 G. Zheng, W. Liang, M. Hada, M. Ehara, K. Toyota, R. Fukuda, 
 J. Hasegawa, M. Ishida, T. Nakajima, Y. Honda, O. Kitao, H. Nakai, 
 T. Vreven, K. Throssell, J. A. Montgomery, Jr., J. E. Peralta, 
 F. Ogliaro, M. J. Bearpark, J. J. Heyd, E. N. Brothers, K. N. Kudin, 
 V. N. Staroverov, T. A. Keith, R. Kobayashi, J. Normand, 
 K. Raghavachari, A. P. Rendell, J. C. Burant, S. S. Iyengar, 
 J. Tomasi, M. Cossi, J. M. Millam, M. Klene, C. Adamo, R. Cammi, 
 J. W. Ochterski, R. L. Martin, K. Morokuma, O. Farkas, 
 J. B. Foresman, and D. J. Fox, Gaussian, Inc., Wallingford CT, 2019.
 
 ******************************************
 Gaussian 16:  EM64L-G16RevC.01  3-Jul-2019
                 8-Jul-2023 
 ******************************************
 ----------------------------------------------------------------------
 #P HF/6-31G(d) Opt=(Tight,MaxCycle=55) GFInput GFPrint SCF(Conver=8,XQ
 C,MaxConventionalCycles=64,MaxCycle=128) Test
 ----------------------------------------------------------------------
 1/6=55,7=10,18=20,19=15,38=1/1,3;
 2/9=110,12=2,17=6,18=5,40=1/2;
 3/5=1,6=6,7=1,11=9,24=110,25=1,30=1,71=1/1,2,3;
 4//1;
 5/5=2,6=8,7=128,8=3,13=1,38=5,85=64/2,8;
 6/7=2,8=2,9=2,10=2,28=1/1;
 7//1,2,3,16;
 1/6=55,7=10,18=20,19=15/3(2);
 2/9=110/2;
 99//99;
 2/9=110/2;
 3/5=1,6=6,7=1,11=9,25=1,30=1,71=1/1,2,3;
 4/5=5,16=3,69=1/1;
 5/5=2,6=8,7=128,8=3,13=1,38=5,85=64/2,8;
 7//1,2,3,16;
 1/6=55,7=10,18=20,19=15/3(-5);
 2/9=110/2;
 6/7=2,8=2,9=2,10=2,19=2,28=1/1;
 99/9=1/99;
 ----------------------------------------------------------
 Optimization step - Input generated by PyRED DVE-DMDS-OPLS
 ----------------------------------------------------------
 Symbolic Z-matrix:
 Charge =  0 Multiplicity = 1
 C                     9.69      0.22     -0.613 
 H                     9.959     0.816     0.263 
 H                     10.257   -0.715    -0.587 
 H                     9.977     0.779    -1.508 
 C                     8.202    -0.06     -0.625 
 H                     7.928    -0.668    -1.501 
 H                     7.915    -0.632     0.27 
 O                     7.524     1.18     -0.673 
 C                     6.122     1.082    -0.745 
 H                     5.813     0.244    -1.387 
 H                     5.757     2.006    -1.203 
 C                     5.489     0.931     0.631 
 H                     5.844     0.015     1.13 
 H                     5.779     1.784     1.262 
 O                     4.093     0.887     0.454 
 C                     3.38      0.776     1.665 
 H                     3.592     1.642     2.312 
 H                     3.681    -0.133     2.208 
 C                     1.893     0.72      1.377 
 H                     1.617     1.555     0.718 
 H                     1.351     0.837     2.321 
 O                     1.463    -0.507     0.832 
 C                     1.671    -0.662    -0.558 
 H                     2.735    -0.827    -0.772 
 H                     1.361     0.248    -1.09 
 C                     0.862    -1.849    -1.045 
 H                     1.125    -2.744    -0.471 
 H                     1.114    -2.046    -2.091 
 S                    -0.945    -1.63     -1.006 
 C                    -1.308    -2.015     0.743 
 H                    -0.99     -3.047     0.932 
 H                    -0.72     -1.351     1.377 
 C                    -2.796    -1.894     1.057 
 H                    -2.983    -2.389     2.014 
 H                    -3.401    -2.424     0.314 
 S                    -3.442    -0.202     1.285 
 C                    -3.944     0.266    -0.404 
 H                    -3.127     0.036    -1.092 
 H                    -4.038     1.355    -0.377 
 C                    -5.242    -0.37     -0.898 
 H                    -5.342    -0.204    -1.977 
 H                    -5.219    -1.453    -0.75 
 S                    -6.764     0.211    -0.087 
 C                    -6.987     1.81     -0.934 
 H                    -6.117     2.449    -0.751 
 H                    -7.055     1.636    -2.013 
 C                    -8.25      2.492    -0.424 
 H                    -8.189     2.682     0.651 
 H                    -8.394     3.452    -0.931 
 H                    -9.134     1.875    -0.61 
 
 ITRead=  0  0  0  0  0  0  0  0  0  0  0  0  0  0  0  0  0  0  0  0
 ITRead=  0  0  0  0  0  0  0  0  0  0  0  0  0  0  0  0  0  0  0  0
 ITRead=  0  0  0  0  0  0  0  0  0  0
 MicOpt= -1 -1 -1 -1 -1 -1 -1 -1 -1 -1 -1 -1 -1 -1 -1 -1 -1 -1 -1 -1
 MicOpt= -1 -1 -1 -1 -1 -1 -1 -1 -1 -1 -1 -1 -1 -1 -1 -1 -1 -1 -1 -1
 MicOpt= -1 -1 -1 -1 -1 -1 -1 -1 -1 -1
 NAtoms=     50 NQM=       50 NQMF=       0 NMMI=      0 NMMIF=      0
                NMic=       0 NMicF=      0.
                          Input orientation:                          
 ---------------------------------------------------------------------
 Center     Atomic      Atomic             Coordinates (Angstroms)
 Number     Number       Type             X           Y           Z
 ---------------------------------------------------------------------
      1          6           0        9.690000    0.220000   -0.613000
      2          1           0        9.959000    0.816000    0.263000
      3          1           0       10.257000   -0.715000   -0.587000
      4          1           0        9.977000    0.779000   -1.508000
      5          6           0        8.202000   -0.060000   -0.625000
      6          1           0        7.928000   -0.668000   -1.501000
      7          1           0        7.915000   -0.632000    0.270000
      8          8           0        7.524000    1.180000   -0.673000
      9          6           0        6.122000    1.082000   -0.745000
     10          1           0        5.813000    0.244000   -1.387000
     11          1           0        5.757000    2.006000   -1.203000
     12          6           0        5.489000    0.931000    0.631000
     13          1           0        5.844000    0.015000    1.130000
     14          1           0        5.779000    1.784000    1.262000
     15          8           0        4.093000    0.887000    0.454000
     16          6           0        3.380000    0.776000    1.665000
     17          1           0        3.592000    1.642000    2.312000
     18          1           0        3.681000   -0.133000    2.208000
     19          6           0        1.893000    0.720000    1.377000
     20          1           0        1.617000    1.555000    0.718000
     21          1           0        1.351000    0.837000    2.321000
     22          8           0        1.463000   -0.507000    0.832000
     23          6           0        1.671000   -0.662000   -0.558000
     24          1           0        2.735000   -0.827000   -0.772000
     25          1           0        1.361000    0.248000   -1.090000
     26          6           0        0.862000   -1.849000   -1.045000
     27          1           0        1.125000   -2.744000   -0.471000
     28          1           0        1.114000   -2.046000   -2.091000
     29         16           0       -0.945000   -1.630000   -1.006000
     30          6           0       -1.308000   -2.015000    0.743000
     31          1           0       -0.990000   -3.047000    0.932000
     32          1           0       -0.720000   -1.351000    1.377000
     33          6           0       -2.796000   -1.894000    1.057000
     34          1           0       -2.983000   -2.389000    2.014000
     35          1           0       -3.401000   -2.424000    0.314000
     36         16           0       -3.442000   -0.202000    1.285000
     37          6           0       -3.944000    0.266000   -0.404000
     38          1           0       -3.127000    0.036000   -1.092000
     39          1           0       -4.038000    1.355000   -0.377000
     40          6           0       -5.242000   -0.370000   -0.898000
     41          1           0       -5.342000   -0.204000   -1.977000
     42          1           0       -5.219000   -1.453000   -0.750000
     43         16           0       -6.764000    0.211000   -0.087000
     44          6           0       -6.987000    1.810000   -0.934000
     45          1           0       -6.117000    2.449000   -0.751000
     46          1           0       -7.055000    1.636000   -2.013000
     47          6           0       -8.250000    2.492000   -0.424000
     48          1           0       -8.189000    2.682000    0.651000
     49          1           0       -8.394000    3.452000   -0.931000
     50          1           0       -9.134000    1.875000   -0.610000
 ---------------------------------------------------------------------
 Stoichiometry    C14H30O3S3
 Framework group  C1[X(C14H30O3S3)]
                         Standard orientation:                         
 ---------------------------------------------------------------------
 Center     Atomic      Atomic             Coordinates (Angstroms)
 Number     Number       Type             X           Y           Z
 ---------------------------------------------------------------------
      1          6           0       -9.689935   -0.220015   -0.612995
      2          1           0       -9.958932   -0.816016    0.263005
      3          1           0      -10.256938    0.714983   -0.586995
      4          1           0       -9.976933   -0.779016   -1.507995
      5          6           0       -8.201936    0.059991   -0.624995
      6          1           0       -7.927938    0.667992   -1.500995
      7          1           0       -7.914938    0.631992    0.270005
      8          8           0       -7.523931   -1.180007   -0.672995
      9          6           0       -6.121931   -1.082001   -0.744995
     10          1           0       -5.812935   -0.244000   -1.386995
     11          1           0       -5.756928   -2.006000   -1.202995
     12          6           0       -5.488932   -0.930999    0.631005
     13          1           0       -5.843935   -0.015000    1.130005
     14          1           0       -5.778929   -1.784000    1.262005
     15          8           0       -4.092932   -0.886994    0.454005
     16          6           0       -3.379933   -0.775991    1.665005
     17          1           0       -3.591929   -1.641992    2.312005
     18          1           0       -3.680936    0.133008    2.208005
     19          6           0       -1.892933   -0.719986    1.377005
     20          1           0       -1.616930   -1.554985    0.718005
     21          1           0       -1.350932   -0.836984    2.321005
     22          8           0       -1.462937    0.507016    0.832005
     23          6           0       -1.670938    0.662015   -0.557995
     24          1           0       -2.734939    0.827011   -0.771995
     25          1           0       -1.360935   -0.247984   -1.089995
     26          6           0       -0.861942    1.849018   -1.044995
     27          1           0       -1.124946    2.744017   -0.470995
     28          1           0       -1.113943    2.046017   -2.090995
     29         16           0        0.945058    1.630025   -1.005995
     30          6           0        1.308057    2.015026    0.743005
     31          1           0        0.990053    3.047025    0.932005
     32          1           0        0.720059    1.351024    1.377005
     33          6           0        2.796057    1.894032    1.057005
     34          1           0        2.983056    2.389033    2.014005
     35          1           0        3.401055    2.424034    0.314005
     36         16           0        3.442064    0.202034    1.285005
     37          6           0        3.944066   -0.265964   -0.403995
     38          1           0        3.127065   -0.035967   -1.091995
     39          1           0        4.038070   -1.354963   -0.376995
     40          6           0        5.242063    0.370041   -0.897995
     41          1           0        5.342064    0.204042   -1.976995
     42          1           0        5.219059    1.453041   -0.749995
     43         16           0        6.764065   -0.210953   -0.086995
     44          6           0        6.987071   -1.809952   -0.933995
     45          1           0        6.117074   -2.448956   -0.750995
     46          1           0        7.055071   -1.635952   -2.012995
     47          6           0        8.250074   -2.491948   -0.423995
     48          1           0        8.189075   -2.681948    0.651005
     49          1           0        8.394077   -3.451947   -0.930995
     50          1           0        9.134072   -1.874944   -0.609995
 ---------------------------------------------------------------------
 Standard basis: 6-31G(d) (6D, 7F)
   372 basis functions,   752 primitive gaussians,   372 cartesian basis functions
    93 alpha electrons       93 beta electrons
 Requested convergence on RMS density matrix=1.00D-08 within  64 cycles.
 Requested convergence on MAX density matrix=1.00D-06.
 Requested convergence on             energy=1.00D-06.
 SCF Done:  E(RHF) =  -1964.68689650     A.U. after   13 cycles
            NFock= 13  Conv=0.63D-08     -V/T= 2.0009
 Mulliken charges:
     1  C   -0.486278
     2  H    0.173516
     3  H    0.157126
     4  H    0.175878
     5  C    0.015546
     6  H    0.142670
     7  H    0.137336
     8  O   -0.631993
     9  C    0.002226
    10  H    0.149597
    11  H    0.183979
    12  C    0.008303
    13  H    0.143095
    14  H    0.155153
    15  O   -0.643259
    16  C    0.007243
    17  H    0.144599
    18  H    0.154824
    19  C   -0.004515
    20  H    0.163767
    21  H    0.176551
    22  O   -0.638566
    23  C    0.035640
    24  H    0.170897
    25  H    0.156677
    26  C   -0.500058
    27  H    0.198098
    28  H    0.196177
    29  S    0.095832
    30  C   -0.447165
    31  H    0.182151
    32  H    0.244079
    33  C   -0.501814
    34  H    0.208562
    35  H    0.199124
    36  S    0.135434
    37  C   -0.484779
    38  H    0.231181
    39  H    0.197842
    40  C   -0.473672
    41  H    0.191267
    42  H    0.200253
    43  S    0.135978
    44  C   -0.455380
    45  H    0.182055
    46  H    0.181588
    47  C   -0.493805
    48  H    0.180149
    49  H    0.168871
    50  H    0.178021
 Sum of Mulliken charges =  -0.00000
 Dipole moment (field-independent basis, Debye):
    X=             -3.4613    Y=              0.4860    Z=             -0.7185  Tot=              3.5683
 Quadrupole moment (field-independent basis, Debye-Ang):
   XX=           -156.0264   YY=           -143.5437   ZZ=           -146.3279
   XY=            -16.7302   XZ=            -13.8431   YZ=              1.4141
 Traceless Quadrupole moment (field-independent basis, Debye-Ang):
   XX=             -7.3937   YY=              5.0889   ZZ=              2.3048
   XY=            -16.7302   XZ=            -13.8431   YZ=              1.4141
 Octapole moment (field-independent basis, Debye-Ang**2):
  XXX=           -186.0111  YYY=             -4.4080  ZZZ=              3.7264  XYY=             20.4750
  XXY=             23.2194  XXZ=            -41.8414  XZZ=            -38.4272  YZZ=             -4.7889
  YYZ=             11.8096  XYZ=             33.5159
 Hexadecapole moment (field-independent basis, Debye-Ang**3):
 XXXX=         -25066.5632 YYYY=          -1559.1313 ZZZZ=           -971.3981 XXXY=          -1154.6522
 XXXZ=           -466.4153 YYYX=             -0.8115 YYYZ=             32.1690 ZZZX=            -27.1500
 ZZZY=              6.2620 XXYY=          -4298.8164 XXZZ=          -4228.3740 YYZZ=           -424.2263
 XXYZ=            -10.7695 YYXZ=              1.6258 ZZXY=             18.8113
 Step number   1 out of a maximum of   55
     Eigenvalues ---    0.00230   0.00230   0.00230   0.00230   0.00230
     Eigenvalues ---    0.00230   0.00402   0.00428   0.00458   0.00473
     Eigenvalues ---    0.00544   0.00559   0.00579   0.01506   0.01507
     Eigenvalues ---    0.01563   0.01564   0.01588   0.01596   0.04135
     Eigenvalues ---    0.04276   0.04316   0.04413   0.04749   0.04820
     Eigenvalues ---    0.04955   0.04989   0.05280   0.05324   0.05391
     Eigenvalues ---    0.05404   0.05562   0.05609   0.05636   0.05661
     Eigenvalues ---    0.05739   0.05745   0.05772   0.05797   0.05803
     Eigenvalues ---    0.05803   0.05961   0.05965   0.05990   0.06010
     Eigenvalues ---    0.06020   0.06081   0.11043   0.11147   0.11217
     Eigenvalues ---    0.11247   0.11297   0.11309   0.11613   0.11725
     Eigenvalues ---    0.11784   0.11809   0.11818   0.11874   0.13638
     Eigenvalues ---    0.13639   0.13674   0.13720   0.13776   0.13798
     Eigenvalues ---    0.13960   0.14064   0.14066   0.14084   0.14093
     Eigenvalues ---    0.14173   0.16000   0.16000   0.16000   0.16000
     Eigenvalues ---    0.16000   0.16000   0.21942   0.21948   0.21986
     Eigenvalues ---    0.21997   0.22016   0.22039   0.22042   0.22052
     Eigenvalues ---    0.22053   0.22062   0.22079   0.22101   0.24080
     Eigenvalues ---    0.24212   0.24373   0.24377   0.24556   0.24615
     Eigenvalues ---    0.25000   0.25000   0.25000   0.25000   0.25000
     Eigenvalues ---    0.25000   0.29653   0.29836   0.30052   0.30163
     Eigenvalues ---    0.30679   0.30788   0.30936   0.33478   0.33506
     Eigenvalues ---    0.33576   0.33595   0.33653   0.33688   0.33689
     Eigenvalues ---    0.33799   0.33822   0.33929   0.34095   0.34099
     Eigenvalues ---    0.34208   0.34223   0.34235   0.34244   0.34257
     Eigenvalues ---    0.34264   0.34358   0.34359   0.34376   0.34378
     Eigenvalues ---    0.34404   0.34406   0.34425   0.34427   0.34433
     Eigenvalues ---    0.34452   0.34516   0.34786   0.43366   0.43377
     Eigenvalues ---    0.44039   0.44052   0.44342   0.44438
 Maximum Force            0.010118     0.000015     NO 
 RMS     Force            0.003507     0.000010     NO 
 Maximum Displacement     0.762315     0.000060     NO 
 RMS     Displacement     0.212802     0.000040     NO 
                          Input orientation:                          
 ---------------------------------------------------------------------
 Center     Atomic      Atomic             Coordinates (Angstroms)
 Number     Number       Type             X           Y           Z
 ---------------------------------------------------------------------
      1          6           0        9.911456    0.184016   -0.470700
      2          1           0       10.143436    0.792064    0.395650
      3          1           0       10.484993   -0.735070   -0.410336
      4          1           0       10.219667    0.725959   -1.356746
      5          6           0        8.427772   -0.116774   -0.525466
      6          1           0        8.192767   -0.733498   -1.389974
      7          1           0        8.121250   -0.668577    0.358958
      8          8           0        7.736563    1.100877   -0.615742
      9          6           0        6.345810    1.015693   -0.728122
     10          1           0        6.053957    0.169294   -1.343385
     11          1           0        6.013275    1.915958   -1.226171
     12          6           0        5.670366    0.929944    0.630406
     13          1           0        5.981801    0.041193    1.172974
     14          1           0        5.944207    1.794578    1.229423
     15          8           0        4.290620    0.899536    0.410672
     16          6           0        3.519121    0.852737    1.576728
     17          1           0        3.721738    1.735783    2.180121
     18          1           0        3.777320   -0.022905    2.166825
     19          6           0        2.043455    0.820978    1.233524
     20          1           0        1.811094    1.614692    0.530491
     21          1           0        1.481658    1.002373    2.141159
     22          8           0        1.590327   -0.413735    0.753212
     23          6           0        1.783048   -0.687169   -0.609213
     24          1           0        2.824983   -0.910873   -0.798948
     25          1           0        1.514489    0.178893   -1.205228
     26          6           0        0.933918   -1.881818   -1.007749
     27          1           0        1.157126   -2.732345   -0.375325
     28          1           0        1.195491   -2.159528   -2.022003
     29         16           0       -0.865859   -1.614669   -1.037186
     30          6           0       -1.356979   -1.977509    0.682031
     31          1           0       -1.053573   -2.997111    0.892824
     32          1           0       -0.823188   -1.322269    1.348084
     33          6           0       -2.866701   -1.873747    0.910141
     34          1           0       -3.083040   -2.378277    1.843926
     35          1           0       -3.421467   -2.403631    0.146119
     36         16           0       -3.562148   -0.203255    1.145378
     37          6           0       -4.185998    0.279909   -0.496153
     38          1           0       -3.431479    0.063098   -1.236897
     39          1           0       -4.275939    1.357388   -0.452632
     40          6           0       -5.517148   -0.349211   -0.911589
     41          1           0       -5.679247   -0.175188   -1.969827
     42          1           0       -5.488052   -1.422440   -0.779023
     43         16           0       -6.990300    0.223389   -0.013685
     44          6           0       -7.323450    1.807509   -0.845821
     45          1           0       -6.472849    2.466855   -0.728419
     46          1           0       -7.458400    1.625959   -1.905496
     47          6           0       -8.570812    2.459519   -0.257769
     48          1           0       -8.445794    2.660622    0.799906
     49          1           0       -8.772228    3.401418   -0.756901
     50          1           0       -9.440057    1.823368   -0.379045
 ---------------------------------------------------------------------
 Stoichiometry    C14H30O3S3
 Framework group  C1[X(C14H30O3S3)]
                         Standard orientation:                         
 ---------------------------------------------------------------------
 Center     Atomic      Atomic             Coordinates (Angstroms)
 Number     Number       Type             X           Y           Z
 ---------------------------------------------------------------------
      1          6           0       -9.910408   -0.167907   -0.493972
      2          1           0      -10.141797   -0.855889    0.310541
      3          1           0      -10.487145    0.739512   -0.348127
      4          1           0      -10.215289   -0.624626   -1.427903
      5          6           0       -8.427657    0.141462   -0.517083
      6          1           0       -8.193276    0.837916   -1.318935
      7          1           0       -8.124496    0.608144    0.416163
      8          8           0       -7.732189   -1.059978   -0.720699
      9          6           0       -6.341544   -0.960097   -0.821738
     10          1           0       -6.051511   -0.058384   -1.353633
     11          1           0       -6.005130   -1.808167   -1.402009
     12          6           0       -5.668690   -1.001026    0.540161
     13          1           0       -5.984040   -0.168562    1.163705
     14          1           0       -5.940622   -1.919300    1.054194
     15          8           0       -4.288686   -0.945561    0.327049
     16          6           0       -3.519321   -1.006759    1.493847
     17          1           0       -3.719974   -1.943547    2.010639
     18          1           0       -3.781471   -0.191668    2.163574
     19          6           0       -2.043192   -0.937967    1.158138
     20          1           0       -1.806965   -1.660901    0.383675
     21          1           0       -1.482320   -1.202571    2.045679
     22          8           0       -1.593424    0.338075    0.797626
     23          6           0       -1.784765    0.738490   -0.533225
     24          1           0       -2.827128    0.975796   -0.703044
     25          1           0       -1.512277   -0.066470   -1.207917
     26          6           0       -0.939001    1.968183   -0.815322
     27          1           0       -1.166148    2.754381   -0.105763
     28          1           0       -1.199796    2.339713   -1.799297
     29         16           0        0.861715    1.710778   -0.866284
     30          6           0        1.348701    1.911002    0.880517
     31          1           0        1.041498    2.905127    1.186161
     32          1           0        0.816001    1.194012    1.480564
     33          6           0        2.858377    1.790969    1.100816
     34          1           0        3.071433    2.205634    2.078552
     35          1           0        3.412641    2.392495    0.391428
     36         16           0        3.559062    0.107954    1.178446
     37          6           0        4.187313   -0.215831   -0.500162
     38          1           0        3.433319    0.067634   -1.218597
     39          1           0        4.280817   -1.292304   -0.558531
     40          6           0        5.517031    0.454011   -0.851588
     41          1           0        5.681504    0.381350   -1.921213
     42          1           0        5.484088    1.509798   -0.618202
     43         16           0        6.990588   -0.196206   -0.008899
     44          6           0        7.330491   -1.693471   -0.986416
     45          1           0        6.481924   -2.363683   -0.933584
     46          1           0        7.466617   -1.412105   -2.023907
     47          6           0        8.579052   -2.394166   -0.460150
     48          1           0        8.452926   -2.694776    0.573520
     49          1           0        8.784490   -3.284000   -1.045698
     50          1           0        9.446348   -1.746619   -0.518996
 ---------------------------------------------------------------------
 Standard basis: 6-31G(d) (6D, 7F)
   372 basis functions,   752 primitive gaussians,   372 cartesian basis functions
    93 alpha electrons       93 beta electrons
 Requested convergence on RMS density matrix=1.00D-08 within  64 cycles.
 Requested convergence on MAX density matrix=1.00D-06.
 Requested convergence on             energy=1.00D-06.
 SCF Done:  E(RHF) =  -1964.69022399     A.U. after   12 cycles
            NFock= 12  Conv=0.51D-08     -V/T= 2.0006
 Step number   2 out of a maximum of   55
     Eigenvalues ---    0.00229   0.00230   0.00230   0.00230   0.00230
     Eigenvalues ---    0.00278   0.00402   0.00432   0.00458   0.00473
     Eigenvalues ---    0.00545   0.00561   0.00579   0.01505   0.01506
     Eigenvalues ---    0.01564   0.01568   0.01588   0.01594   0.04085
     Eigenvalues ---    0.04221   0.04264   0.04359   0.04658   0.04803
     Eigenvalues ---    0.04944   0.04951   0.05216   0.05297   0.05376
     Eigenvalues ---    0.05414   0.05551   0.05630   0.05644   0.05666
     Eigenvalues ---    0.05742   0.05775   0.05790   0.05810   0.05818
     Eigenvalues ---    0.05834   0.05917   0.05952   0.05974   0.06012
     Eigenvalues ---    0.06017   0.06060   0.11083   0.11196   0.11257
     Eigenvalues ---    0.11291   0.11393   0.11426   0.11638   0.11819
     Eigenvalues ---    0.11821   0.11865   0.11887   0.11945   0.13631
     Eigenvalues ---    0.13670   0.13686   0.13749   0.13833   0.13889
     Eigenvalues ---    0.13961   0.14084   0.14119   0.14128   0.14151
     Eigenvalues ---    0.14266   0.15993   0.16000   0.16000   0.16000
     Eigenvalues ---    0.16000   0.16003   0.21439   0.21949   0.21958
     Eigenvalues ---    0.22007   0.22011   0.22038   0.22043   0.22050
     Eigenvalues ---    0.22071   0.22086   0.22100   0.22261   0.23677
     Eigenvalues ---    0.24127   0.24294   0.24375   0.24467   0.24600
     Eigenvalues ---    0.24695   0.25000   0.25000   0.25000   0.25000
     Eigenvalues ---    0.26785   0.29650   0.29754   0.30055   0.30169
     Eigenvalues ---    0.30616   0.30776   0.30933   0.33488   0.33520
     Eigenvalues ---    0.33584   0.33611   0.33664   0.33686   0.33721
     Eigenvalues ---    0.33795   0.33817   0.33950   0.34089   0.34128
     Eigenvalues ---    0.34167   0.34217   0.34232   0.34244   0.34258
     Eigenvalues ---    0.34266   0.34321   0.34360   0.34369   0.34377
     Eigenvalues ---    0.34392   0.34405   0.34417   0.34426   0.34432
     Eigenvalues ---    0.34450   0.34688   0.37848   0.42434   0.43383
     Eigenvalues ---    0.43766   0.44114   0.44376   0.44412
 Maximum Force            0.009351     0.000015     NO 
 RMS     Force            0.001327     0.000010     NO 
 Maximum Displacement     0.967565     0.000060     NO 
 RMS     Displacement     0.331702     0.000040     NO 
                          Input orientation:                          
 ---------------------------------------------------------------------
 Center     Atomic      Atomic             Coordinates (Angstroms)
 Number     Number       Type             X           Y           Z
 ---------------------------------------------------------------------
      1          6           0        9.661792    0.395419   -0.778933
      2          1           0        9.931079    0.877648    0.150257
      3          1           0       10.264839   -0.496788   -0.890773
      4          1           0        9.892133    1.071120   -1.590148
      5          6           0        8.187333    0.045021   -0.786201
      6          1           0        7.918614   -0.446659   -1.714403
      7          1           0        7.961394   -0.640823    0.021222
      8          8           0        7.455298    1.228751   -0.651010
      9          6           0        6.066337    1.114074   -0.682740
     10          1           0        5.753325    0.347151   -1.379884
     11          1           0        5.677092    2.056400   -1.032554
     12          6           0        5.491555    0.829276    0.694294
     13          1           0        5.862161   -0.108676    1.089560
     14          1           0        5.787162    1.615560    1.378782
     15          8           0        4.104330    0.783224    0.565621
     16          6           0        3.408391    0.563708    1.754358
     17          1           0        3.619118    1.363789    2.457082
     18          1           0        3.718774   -0.370605    2.206545
     19          6           0        1.917886    0.527910    1.489978
     20          1           0        1.629348    1.399160    0.916901
     21          1           0        1.403586    0.564431    2.438507
     22          8           0        1.484588   -0.639217    0.861352
     23          6           0        1.614561   -0.712942   -0.528034
     24          1           0        2.645269   -0.880064   -0.802774
     25          1           0        1.291386    0.213044   -0.984125
     26          6           0        0.772439   -1.867336   -1.038156
     27          1           0        1.055619   -2.780783   -0.537345
     28          1           0        0.967223   -2.002865   -2.092701
     29         16           0       -1.024634   -1.647795   -0.900547
     30          6           0       -1.313581   -1.951368    0.871273
     31          1           0       -0.976193   -2.953161    1.097098
     32          1           0       -0.732398   -1.257131    1.449529
     33          6           0       -2.793335   -1.849629    1.239143
     34          1           0       -2.923529   -2.285314    2.218895
     35          1           0       -3.398843   -2.429981    0.559663
     36         16           0       -3.471496   -0.166572    1.382212
     37          6           0       -3.891315    0.283937   -0.327961
     38          1           0       -3.062371    0.032409   -0.969827
     39          1           0       -3.963529    1.360363   -0.319820
     40          6           0       -5.175252   -0.337751   -0.882331
     41          1           0       -5.206394   -0.189283   -1.953168
     42          1           0       -5.181299   -1.403980   -0.718746
     43         16           0       -6.731655    0.278947   -0.179705
     44          6           0       -6.934854    1.847136   -1.077554
     45          1           0       -6.096866    2.495642   -0.871922
     46          1           0       -6.946386    1.645258   -2.138788
     47          6           0       -8.233876    2.528833   -0.656517
     48          1           0       -8.232965    2.751328    0.401565
     49          1           0       -8.354697    3.459223   -1.195158
     50          1           0       -9.090167    1.903958   -0.869015
 ---------------------------------------------------------------------
 Stoichiometry    C14H30O3S3
 Framework group  C1[X(C14H30O3S3)]
                         Standard orientation:                         
 ---------------------------------------------------------------------
 Center     Atomic      Atomic             Coordinates (Angstroms)
 Number     Number       Type             X           Y           Z
 ---------------------------------------------------------------------
      1          6           0       -9.666990   -0.568501   -0.716250
      2          1           0       -9.937969   -0.847368    0.292343
      3          1           0      -10.270758    0.279981   -1.012475
      4          1           0       -9.894634   -1.398500   -1.369684
      5          6           0       -8.192908   -0.224939   -0.793115
      6          1           0       -7.922510    0.063377   -1.802707
      7          1           0       -7.969667    0.614187   -0.145508
      8          8           0       -7.459885   -1.353508   -0.413148
      9          6           0       -6.070979   -1.245735   -0.465097
     10          1           0       -5.757149   -0.640071   -1.305833
     11          1           0       -5.679850   -2.239591   -0.610460
     12          6           0       -5.499818   -0.679871    0.823809
     13          1           0       -5.872413    0.319187    1.014579
     14          1           0       -5.796192   -1.307077    1.656231
     15          8           0       -4.112340   -0.659387    0.691305
     16          6           0       -3.419498   -0.196346    1.809865
     17          1           0       -3.631021   -0.833119    2.663172
     18          1           0       -3.732002    0.811087    2.057195
     19          6           0       -1.928404   -0.213950    1.546972
     20          1           0       -1.637525   -1.184875    1.168235
     21          1           0       -1.416340   -0.051591    2.483442
     22          8           0       -1.494897    0.797607    0.690278
     23          6           0       -1.621620    0.580563   -0.684333
     24          1           0       -2.651851    0.685259   -0.990001
     25          1           0       -1.296324   -0.419517   -0.937186
     26          6           0       -0.779560    1.604959   -1.421603
     27          1           0       -1.064955    2.602137   -1.122315
     28          1           0       -0.971966    1.517901   -2.481685
     29         16           0        1.017420    1.421686   -1.237545
     30          6           0        1.301780    2.087566    0.433006
     31          1           0        0.962739    3.113883    0.444832
     32          1           0        0.719984    1.527848    1.141770
     33          6           0        2.780760    2.066904    0.817119
     34          1           0        2.908121    2.697028    1.685110
     35          1           0        3.387251    2.494214    0.033079
     36         16           0        3.460446    0.451478    1.308524
     37          6           0        3.884865   -0.344180   -0.269669
     38          1           0        3.057183   -0.232955   -0.951563
     39          1           0        3.958254   -1.395262   -0.037685
     40          6           0        5.169436    0.150657   -0.938496
     41          1           0        5.203310   -0.217218   -1.954973
     42          1           0        5.173906    1.227602   -1.000223
     43         16           0        6.724834   -0.303963   -0.119687
     44          6           0        6.931927   -2.024266   -0.671330
     45          1           0        6.094169   -2.617155   -0.337095
     46          1           0        6.945780   -2.047489   -1.751319
     47          6           0        8.230692   -2.601434   -0.114979
     48          1           0        8.227491   -2.599016    0.966236
     49          1           0        8.353838   -3.623310   -0.448089
     50          1           0        9.086795   -2.033059   -0.450977
 ---------------------------------------------------------------------
 Standard basis: 6-31G(d) (6D, 7F)
   372 basis functions,   752 primitive gaussians,   372 cartesian basis functions
    93 alpha electrons       93 beta electrons
 Requested convergence on RMS density matrix=1.00D-08 within  64 cycles.
 Requested convergence on MAX density matrix=1.00D-06.
 Requested convergence on             energy=1.00D-06.
 SCF Done:  E(RHF) =  -1964.68956555     A.U. after   13 cycles
            NFock= 13  Conv=0.30D-08     -V/T= 2.0005
 Step number   3 out of a maximum of   55
     Eigenvalues ---    0.00227   0.00230   0.00230   0.00230   0.00232
     Eigenvalues ---    0.00402   0.00404   0.00458   0.00473   0.00534
     Eigenvalues ---    0.00557   0.00579   0.00697   0.01505   0.01507
     Eigenvalues ---    0.01564   0.01567   0.01587   0.01590   0.04231
     Eigenvalues ---    0.04272   0.04333   0.04626   0.04777   0.04958
     Eigenvalues ---    0.04963   0.05203   0.05236   0.05379   0.05421
     Eigenvalues ---    0.05477   0.05552   0.05627   0.05640   0.05693
     Eigenvalues ---    0.05749   0.05764   0.05777   0.05810   0.05819
     Eigenvalues ---    0.05904   0.05929   0.05969   0.05982   0.06025
     Eigenvalues ---    0.06082   0.06084   0.11003   0.11087   0.11193
     Eigenvalues ---    0.11231   0.11275   0.11339   0.11591   0.11747
     Eigenvalues ---    0.11785   0.11819   0.11846   0.11853   0.13626
     Eigenvalues ---    0.13661   0.13685   0.13708   0.13808   0.13821
     Eigenvalues ---    0.13947   0.14031   0.14083   0.14093   0.14121
     Eigenvalues ---    0.14168   0.15972   0.16000   0.16000   0.16000
     Eigenvalues ---    0.16000   0.16000   0.21722   0.21953   0.21956
     Eigenvalues ---    0.22009   0.22012   0.22038   0.22045   0.22051
     Eigenvalues ---    0.22059   0.22079   0.22084   0.23422   0.24027
     Eigenvalues ---    0.24210   0.24309   0.24375   0.24528   0.24601
     Eigenvalues ---    0.24781   0.24890   0.25000   0.25000   0.25000
     Eigenvalues ---    0.28892   0.29645   0.30038   0.30132   0.30350
     Eigenvalues ---    0.30757   0.30920   0.30960   0.33489   0.33521
     Eigenvalues ---    0.33583   0.33618   0.33664   0.33688   0.33752
     Eigenvalues ---    0.33811   0.33883   0.33963   0.34094   0.34132
     Eigenvalues ---    0.34201   0.34219   0.34227   0.34243   0.34255
     Eigenvalues ---    0.34261   0.34320   0.34359   0.34369   0.34377
     Eigenvalues ---    0.34392   0.34405   0.34417   0.34426   0.34431
     Eigenvalues ---    0.34450   0.34720   0.38970   0.42252   0.43370
     Eigenvalues ---    0.43812   0.44090   0.44296   0.44408
 Maximum Force            0.008670     0.000015     NO 
 RMS     Force            0.001815     0.000010     NO 
 Maximum Displacement     1.137983     0.000060     NO 
 RMS     Displacement     0.308676     0.000040     NO 
                          Input orientation:                          
 ---------------------------------------------------------------------
 Center     Atomic      Atomic             Coordinates (Angstroms)
 Number     Number       Type             X           Y           Z
 ---------------------------------------------------------------------
      1          6           0        9.837891    0.041575   -0.699865
      2          1           0       10.131380    0.517286    0.229354
      3          1           0       10.376760   -0.896444   -0.793461
      4          1           0       10.125347    0.689997   -1.519892
      5          6           0        8.341807   -0.201040   -0.720418
      6          1           0        8.048983   -0.687881   -1.649636
      7          1           0        8.058777   -0.862654    0.096124
      8          8           0        7.696203    1.037420   -0.607875
      9          6           0        6.300551    1.012774   -0.651920
     10          1           0        5.940891    0.247250   -1.335718
     11          1           0        5.972388    1.973529   -1.027604
     12          6           0        5.696491    0.794074    0.726113
     13          1           0        6.009298   -0.161854    1.143096
     14          1           0        6.042133    1.576911    1.398591
     15          8           0        4.306899    0.834710    0.586490
     16          6           0        3.593584    0.685391    1.779081
     17          1           0        3.846976    1.487041    2.473548
     18          1           0        3.839688   -0.262328    2.254494
     19          6           0        2.106148    0.733127    1.497300
     20          1           0        1.879462    1.617752    0.907632
     21          1           0        1.580145    0.812526    2.441796
     22          8           0        1.617934   -0.415911    0.869836
     23          6           0        1.776189   -0.496815   -0.518880
     24          1           0        2.807872   -0.721549   -0.771295
     25          1           0        1.515652    0.449447   -0.985198
     26          6           0        0.885036   -1.602829   -1.055331
     27          1           0        1.100083   -2.534450   -0.544731
     28          1           0        1.107762   -1.749630   -2.106518
     29         16           0       -0.902078   -1.281696   -0.989668
     30          6           0       -1.298058   -1.663311    0.747108
     31          1           0       -0.920547   -2.658046    0.960603
     32          1           0       -0.794414   -0.961772    1.393060
     33          6           0       -2.803921   -1.657432    1.015275
     34          1           0       -2.966753   -2.156359    1.963347
     35          1           0       -3.337440   -2.233210    0.267750
     36         16           0       -3.593183   -0.029771    1.230839
     37          6           0       -4.148322    0.414316   -0.442569
     38          1           0       -3.329657    0.277393   -1.136018
     39          1           0       -4.344744    1.478211   -0.393760
     40          6           0       -5.381159   -0.337172   -0.948905
     41          1           0       -5.487507   -0.166967   -2.015825
     42          1           0       -5.257433   -1.404456   -0.814651
     43         16           0       -6.954450    0.081969   -0.144776
     44          6           0       -7.366114    1.641067   -0.986590
     45          1           0       -6.591492    2.375029   -0.797217
     46          1           0       -7.407397    1.465748   -2.055927
     47          6           0       -8.709415    2.163500   -0.485453
     48          1           0       -8.680674    2.356721    0.581393
     49          1           0       -8.956892    3.091947   -0.990450
     50          1           0       -9.503681    1.450870   -0.679678
 ---------------------------------------------------------------------
 Stoichiometry    C14H30O3S3
 Framework group  C1[X(C14H30O3S3)]
                         Standard orientation:                         
 ---------------------------------------------------------------------
 Center     Atomic      Atomic             Coordinates (Angstroms)
 Number     Number       Type             X           Y           Z
 ---------------------------------------------------------------------
      1          6           0       -9.834626    0.019979   -0.776386
      2          1           0      -10.131806   -0.566603    0.085873
      3          1           0      -10.378767    0.959476   -0.759757
      4          1           0      -10.111993   -0.525659   -1.671301
      5          6           0       -8.340007    0.271435   -0.755425
      6          1           0       -8.043563    0.869061   -1.616337
      7          1           0       -8.067124    0.830566    0.137596
      8          8           0       -7.687360   -0.967995   -0.788854
      9          6           0       -6.291611   -0.930588   -0.818461
     10          1           0       -5.931888   -0.085772   -1.401426
     11          1           0       -5.954620   -1.836833   -1.305325
     12          6           0       -5.698961   -0.877501    0.580697
     13          1           0       -6.020866    0.019024    1.108089
     14          1           0       -6.044474   -1.738050    1.150435
     15          8           0       -4.308163   -0.893322    0.448251
     16          6           0       -3.604476   -0.885995    1.655794
     17          1           0       -3.857785   -1.767387    2.245811
     18          1           0       -3.860053   -0.004350    2.240719
     19          6           0       -2.114764   -0.891075    1.382164
     20          1           0       -1.878178   -1.696331    0.691333
     21          1           0       -1.595125   -1.081676    2.314207
     22          8           0       -1.629344    0.328274    0.902677
     23          6           0       -1.778041    0.576293   -0.467176
     24          1           0       -2.809277    0.824387   -0.698668
     25          1           0       -1.508107   -0.304932   -1.042781
     26          6           0       -0.890086    1.744082   -0.858335
     27          1           0       -1.114759    2.605648   -0.240190
     28          1           0       -1.106118    2.016188   -1.885682
     29         16           0        0.898515    1.427087   -0.817887
     30          6           0        1.279456    1.597201    0.955461
     31          1           0        0.894078    2.556594    1.285071
     32          1           0        0.775622    0.819707    1.507478
     33          6           0        2.783342    1.567010    1.232924
     34          1           0        2.936116    1.948040    2.235800
     35          1           0        3.318587    2.232168    0.565066
     36         16           0        3.581374   -0.070461    1.255668
     37          6           0        4.151445   -0.305099   -0.454786
     38          1           0        3.336973   -0.089470   -1.132996
     39          1           0        4.354283   -1.365966   -0.533872
     40          6           0        5.383108    0.508995   -0.856351
     41          1           0        5.498270    0.470144   -1.935158
     42          1           0        5.251616    1.551400   -0.594568
     43         16           0        6.953167    0.003910   -0.096514
     44          6           0        7.380846   -1.439205   -1.117989
     45          1           0        6.609563   -2.194933   -1.025257
     46          1           0        7.428762   -1.135153   -2.157787
     47          6           0        8.723780   -2.011288   -0.673263
     48          1           0        8.688538   -2.332739    0.361990
     49          1           0        8.980820   -2.870206   -1.285203
     50          1           0        9.514877   -1.276038   -0.773244
 ---------------------------------------------------------------------
 Standard basis: 6-31G(d) (6D, 7F)
   372 basis functions,   752 primitive gaussians,   372 cartesian basis functions
    93 alpha electrons       93 beta electrons
 Requested convergence on RMS density matrix=1.00D-08 within  64 cycles.
 Requested convergence on MAX density matrix=1.00D-06.
 Requested convergence on             energy=1.00D-06.
 SCF Done:  E(RHF) =  -1964.69096072     A.U. after   12 cycles
            NFock= 12  Conv=0.62D-08     -V/T= 2.0006
 Step number   4 out of a maximum of   55
     Eigenvalues ---    0.00197   0.00230   0.00230   0.00233   0.00306
     Eigenvalues ---    0.00401   0.00405   0.00458   0.00473   0.00529
     Eigenvalues ---    0.00569   0.00579   0.00663   0.01466   0.01507
     Eigenvalues ---    0.01535   0.01564   0.01588   0.01588   0.04248
     Eigenvalues ---    0.04272   0.04308   0.04580   0.04967   0.04984
     Eigenvalues ---    0.05029   0.05157   0.05378   0.05391   0.05419
     Eigenvalues ---    0.05434   0.05561   0.05637   0.05687   0.05702
     Eigenvalues ---    0.05755   0.05770   0.05787   0.05817   0.05829
     Eigenvalues ---    0.05895   0.05968   0.05988   0.05999   0.06038
     Eigenvalues ---    0.06079   0.06104   0.11009   0.11110   0.11186
     Eigenvalues ---    0.11225   0.11289   0.11405   0.11568   0.11753
     Eigenvalues ---    0.11776   0.11819   0.11826   0.11915   0.13623
     Eigenvalues ---    0.13644   0.13676   0.13712   0.13784   0.13792
     Eigenvalues ---    0.13946   0.14058   0.14068   0.14109   0.14116
     Eigenvalues ---    0.14230   0.15967   0.16000   0.16000   0.16000
     Eigenvalues ---    0.16000   0.16007   0.21260   0.21955   0.21959
     Eigenvalues ---    0.22008   0.22016   0.22044   0.22052   0.22052
     Eigenvalues ---    0.22060   0.22083   0.22890   0.23588   0.23925
     Eigenvalues ---    0.24171   0.24315   0.24375   0.24519   0.24600
     Eigenvalues ---    0.24790   0.24932   0.25000   0.25000   0.26755
     Eigenvalues ---    0.29091   0.29676   0.30028   0.30140   0.30408
     Eigenvalues ---    0.30773   0.30910   0.33475   0.33490   0.33544
     Eigenvalues ---    0.33586   0.33623   0.33661   0.33691   0.33758
     Eigenvalues ---    0.33814   0.33922   0.34030   0.34101   0.34137
     Eigenvalues ---    0.34214   0.34219   0.34233   0.34250   0.34261
     Eigenvalues ---    0.34318   0.34356   0.34368   0.34377   0.34388
     Eigenvalues ---    0.34400   0.34413   0.34426   0.34429   0.34450
     Eigenvalues ---    0.34607   0.36874   0.37158   0.41624   0.43424
     Eigenvalues ---    0.43775   0.44239   0.44401   0.44874
 Maximum Force            0.002389     0.000015     NO 
 RMS     Force            0.000430     0.000010     NO 
 Maximum Displacement     0.522927     0.000060     NO 
 RMS     Displacement     0.118994     0.000040     NO 
                          Input orientation:                          
 ---------------------------------------------------------------------
 Center     Atomic      Atomic             Coordinates (Angstroms)
 Number     Number       Type             X           Y           Z
 ---------------------------------------------------------------------
      1          6           0        9.822259    0.082279   -0.723969
      2          1           0       10.111026    0.560194    0.205823
      3          1           0       10.363177   -0.855120   -0.813881
      4          1           0       10.111524    0.729964   -1.544204
      5          6           0        8.326297   -0.163642   -0.750105
      6          1           0        8.038800   -0.653063   -1.680005
      7          1           0        8.041721   -0.825371    0.066450
      8          8           0        7.677103    1.072469   -0.642068
      9          6           0        6.281948    1.042835   -0.684898
     10          1           0        5.923448    0.262273   -1.352643
     11          1           0        5.949083    1.994882   -1.079030
     12          6           0        5.681848    0.848524    0.699137
     13          1           0        6.001195   -0.098103    1.133050
     14          1           0        6.026205    1.645849    1.355524
     15          8           0        4.292046    0.879472    0.563359
     16          6           0        3.582445    0.752245    1.759699
     17          1           0        3.835343    1.570728    2.435018
     18          1           0        3.833981   -0.183364    2.256666
     19          6           0        2.092720    0.787893    1.481060
     20          1           0        1.860250    1.657124    0.870230
     21          1           0        1.572041    0.891496    2.426444
     22          8           0        1.601090   -0.379314    0.891027
     23          6           0        1.730245   -0.497443   -0.497566
     24          1           0        2.756364   -0.728616   -0.766920
     25          1           0        1.458428    0.435605   -0.984201
     26          6           0        0.828776   -1.618663   -0.984506
     27          1           0        1.055731   -2.535568   -0.452373
     28          1           0        1.029715   -1.794135   -2.035950
     29         16           0       -0.956954   -1.298579   -0.893914
     30          6           0       -1.361260   -1.827654    0.801305
     31          1           0       -0.963363   -2.827374    0.942204
     32          1           0       -0.884436   -1.169151    1.510254
     33          6           0       -2.871093   -1.871531    1.040904
     34          1           0       -3.046840   -2.433080    1.951212
     35          1           0       -3.374150   -2.405794    0.243303
     36         16           0       -3.690640   -0.271864    1.330411
     37          6           0       -4.125717    0.295273   -0.341096
     38          1           0       -3.275940    0.154801   -0.997001
     39          1           0       -4.271355    1.363668   -0.238546
     40          6           0       -5.364266   -0.357125   -0.960174
     41          1           0       -5.395346   -0.123900   -2.020124
     42          1           0       -5.306007   -1.435437   -0.880435
     43         16           0       -6.959038    0.108151   -0.226898
     44          6           0       -7.238598    1.726970   -1.007974
     45          1           0       -6.438544    2.406908   -0.738466
     46          1           0       -7.227834    1.606600   -2.085789
     47          6           0       -8.579430    2.298885   -0.554850
     48          1           0       -8.601942    2.437297    0.520774
     49          1           0       -8.747486    3.263689   -1.023520
     50          1           0       -9.397570    1.641817   -0.829748
 ---------------------------------------------------------------------
 Stoichiometry    C14H30O3S3
 Framework group  C1[X(C14H30O3S3)]
                         Standard orientation:                         
 ---------------------------------------------------------------------
 Center     Atomic      Atomic             Coordinates (Angstroms)
 Number     Number       Type             X           Y           Z
 ---------------------------------------------------------------------
      1          6           0       -9.835550   -0.167337   -0.774618
      2          1           0      -10.129439   -0.525907    0.205872
      3          1           0      -10.376137    0.751066   -0.983653
      4          1           0      -10.120083   -0.912452   -1.509328
      5          6           0       -8.339514    0.074743   -0.822905
      6          1           0       -8.046897    0.444715   -1.804943
      7          1           0       -8.059652    0.833330   -0.093622
      8          8           0       -7.690697   -1.137688   -0.558059
      9          6           0       -6.295329   -1.112379   -0.596512
     10          1           0       -5.933238   -0.420801   -1.354334
     11          1           0       -5.960073   -2.105825   -0.867068
     12          6           0       -5.703042   -0.746562    0.755821
     13          1           0       -6.025003    0.246477    1.066597
     14          1           0       -6.050923   -1.456175    1.504541
     15          8           0       -4.312495   -0.792951    0.632665
     16          6           0       -3.609643   -0.516989    1.807737
     17          1           0       -3.866169   -1.245154    2.578384
     18          1           0       -3.864145    0.473036    2.182824
     19          6           0       -2.118371   -0.585757    1.543976
     20          1           0       -1.882309   -1.524129    1.047538
     21          1           0       -1.602985   -0.570269    2.497773
     22          8           0       -1.623664    0.499255    0.815811
     23          6           0       -1.745047    0.443294   -0.577373
     24          1           0       -2.769683    0.638182   -0.879123
     25          1           0       -1.470323   -0.542885   -0.942415
     26          6           0       -0.841077    1.495891   -1.195248
     27          1           0       -1.071192    2.471762   -0.782802
     28          1           0       -1.036147    1.538779   -2.261460
     29         16           0        0.944179    1.191184   -1.055572
     30          6           0        1.338863    1.927761    0.562707
     31          1           0        0.939988    2.936892    0.575706
     32          1           0        0.858196    1.362321    1.345543
     33          6           0        2.847319    2.002503    0.803336
     34          1           0        3.017846    2.673278    1.637523
     35          1           0        3.354740    2.433647   -0.051829
     36         16           0        3.665538    0.452118    1.294490
     37          6           0        4.110097   -0.318522   -0.290866
     38          1           0        3.263988   -0.261645   -0.963865
     39          1           0        4.255365   -1.365677   -0.055157
     40          6           0        5.351976    0.252741   -0.979549
     41          1           0        5.389048   -0.110736   -2.001980
     42          1           0        5.293061    1.332531   -1.035145
     43         16           0        6.942697   -0.116102   -0.185174
     44          6           0        7.226949   -1.819392   -0.756848
     45          1           0        6.425527   -2.461155   -0.409140
     46          1           0        7.222211   -1.834294   -1.841303
     47          6           0        8.565328   -2.329183   -0.228553
     48          1           0        8.581830   -2.332445    0.856043
     49          1           0        8.736198   -3.344723   -0.572388
     50          1           0        9.384871   -1.710768   -0.578657
 ---------------------------------------------------------------------
 Standard basis: 6-31G(d) (6D, 7F)
   372 basis functions,   752 primitive gaussians,   372 cartesian basis functions
    93 alpha electrons       93 beta electrons
 Requested convergence on RMS density matrix=1.00D-08 within  64 cycles.
 Requested convergence on MAX density matrix=1.00D-06.
 Requested convergence on             energy=1.00D-06.
 SCF Done:  E(RHF) =  -1964.69079122     A.U. after   12 cycles
            NFock= 12  Conv=0.53D-08     -V/T= 2.0006
 Step number   5 out of a maximum of   55
     Eigenvalues ---    0.00202   0.00230   0.00231   0.00250   0.00380
     Eigenvalues ---    0.00401   0.00458   0.00473   0.00521   0.00562
     Eigenvalues ---    0.00579   0.00714   0.00812   0.01230   0.01507
     Eigenvalues ---    0.01524   0.01564   0.01588   0.01589   0.04258
     Eigenvalues ---    0.04278   0.04591   0.04844   0.04982   0.04988
     Eigenvalues ---    0.05024   0.05286   0.05382   0.05403   0.05424
     Eigenvalues ---    0.05523   0.05569   0.05645   0.05699   0.05704
     Eigenvalues ---    0.05749   0.05759   0.05788   0.05813   0.05836
     Eigenvalues ---    0.05919   0.05971   0.05990   0.06002   0.06045
     Eigenvalues ---    0.06098   0.06113   0.10966   0.11080   0.11180
     Eigenvalues ---    0.11225   0.11279   0.11461   0.11523   0.11720
     Eigenvalues ---    0.11798   0.11823   0.11862   0.11905   0.13528
     Eigenvalues ---    0.13644   0.13651   0.13690   0.13737   0.13796
     Eigenvalues ---    0.13938   0.14078   0.14083   0.14109   0.14142
     Eigenvalues ---    0.14231   0.15963   0.16000   0.16000   0.16000
     Eigenvalues ---    0.16000   0.16025   0.21212   0.21957   0.21968
     Eigenvalues ---    0.22010   0.22032   0.22047   0.22053   0.22060
     Eigenvalues ---    0.22073   0.22747   0.23499   0.23810   0.23976
     Eigenvalues ---    0.24292   0.24331   0.24380   0.24499   0.24616
     Eigenvalues ---    0.24817   0.25000   0.25013   0.26769   0.28595
     Eigenvalues ---    0.29244   0.29704   0.30016   0.30151   0.30808
     Eigenvalues ---    0.30921   0.31942   0.33487   0.33526   0.33583
     Eigenvalues ---    0.33606   0.33633   0.33687   0.33693   0.33754
     Eigenvalues ---    0.33805   0.33873   0.34047   0.34098   0.34144
     Eigenvalues ---    0.34217   0.34230   0.34246   0.34258   0.34260
     Eigenvalues ---    0.34332   0.34355   0.34371   0.34377   0.34396
     Eigenvalues ---    0.34408   0.34415   0.34426   0.34438   0.34450
     Eigenvalues ---    0.35246   0.36710   0.37874   0.41433   0.43422
     Eigenvalues ---    0.43782   0.44260   0.44423   0.44668
 Maximum Force            0.004209     0.000015     NO 
 RMS     Force            0.000671     0.000010     NO 
 Maximum Displacement     0.461554     0.000060     NO 
 RMS     Displacement     0.105442     0.000040     NO 
                          Input orientation:                          
 ---------------------------------------------------------------------
 Center     Atomic      Atomic             Coordinates (Angstroms)
 Number     Number       Type             X           Y           Z
 ---------------------------------------------------------------------
      1          6           0        9.863355    0.104386   -0.611996
      2          1           0       10.124929    0.582577    0.325357
      3          1           0       10.413521   -0.828408   -0.689757
      4          1           0       10.168679    0.755701   -1.423125
      5          6           0        8.370562   -0.152758   -0.676636
      6          1           0        8.109652   -0.642049   -1.613898
      7          1           0        8.069457   -0.817411    0.130942
      8          8           0        7.709044    1.078134   -0.583481
      9          6           0        6.315539    1.037822   -0.660908
     10          1           0        5.980281    0.255992   -1.338482
     11          1           0        5.986237    1.987552   -1.062509
     12          6           0        5.682983    0.838135    0.707661
     13          1           0        5.997939   -0.105634    1.149583
     14          1           0        6.003049    1.637491    1.373100
     15          8           0        4.296968    0.857373    0.537507
     16          6           0        3.559868    0.723394    1.716379
     17          1           0        3.791991    1.543950    2.395789
     18          1           0        3.808819   -0.209293    2.219184
     19          6           0        2.076188    0.747850    1.405152
     20          1           0        1.849338    1.613475    0.787938
     21          1           0        1.534963    0.849354    2.338732
     22          8           0        1.602955   -0.424435    0.809598
     23          6           0        1.756386   -0.547944   -0.576302
     24          1           0        2.787579   -0.773774   -0.827141
     25          1           0        1.487529    0.381517   -1.070406
     26          6           0        0.868114   -1.675896   -1.070901
     27          1           0        1.094368   -2.588804   -0.532368
     28          1           0        1.081727   -1.854854   -2.118975
     29         16           0       -0.919931   -1.365182   -0.993244
     30          6           0       -1.309098   -1.774683    0.738483
     31          1           0       -0.934288   -2.773878    0.933626
     32          1           0       -0.800257   -1.087682    1.396015
     33          6           0       -2.814561   -1.763152    1.010127
     34          1           0       -2.982992   -2.265987    1.955256
     35          1           0       -3.349275   -2.330349    0.257683
     36         16           0       -3.589138   -0.129008    1.225758
     37          6           0       -4.163313    0.304691   -0.444424
     38          1           0       -3.373259    0.103216   -1.155590
     39          1           0       -4.296374    1.379027   -0.419538
     40          6           0       -5.452126   -0.383500   -0.900735
     41          1           0       -5.573327   -0.237214   -1.969399
     42          1           0       -5.389934   -1.452069   -0.738942
     43         16           0       -6.977794    0.155421   -0.075774
     44          6           0       -7.321120    1.708615   -0.958473
     45          1           0       -6.498413    2.399559   -0.817156
     46          1           0       -7.405404    1.500964   -2.019322
     47          6           0       -8.614870    2.329847   -0.438346
     48          1           0       -8.542285    2.555492    0.619904
     49          1           0       -8.821087    3.254909   -0.967443
     50          1           0       -9.456173    1.661519   -0.585504
 ---------------------------------------------------------------------
 Stoichiometry    C14H30O3S3
 Framework group  C1[X(C14H30O3S3)]
                         Standard orientation:                         
 ---------------------------------------------------------------------
 Center     Atomic      Atomic             Coordinates (Angstroms)
 Number     Number       Type             X           Y           Z
 ---------------------------------------------------------------------
      1          6           0       -9.865779   -0.087091   -0.671619
      2          1           0      -10.130007   -0.619832    0.235071
      3          1           0      -10.419668    0.846362   -0.698197
      4          1           0      -10.164074   -0.691599   -1.520710
      5          6           0       -8.373829    0.179525   -0.713285
      6          1           0       -8.110315    0.723340   -1.619246
      7          1           0       -8.079794    0.797538    0.133009
      8          8           0       -7.707348   -1.051954   -0.687998
      9          6           0       -6.313658   -1.001474   -0.755511
     10          1           0       -5.978417   -0.180344   -1.384892
     11          1           0       -5.978108   -1.924988   -1.209645
     12          6           0       -5.688979   -0.878761    0.625685
     13          1           0       -6.010363    0.036528    1.119804
     14          1           0       -6.008889   -1.716622    1.242018
     15          8           0       -4.302043   -0.882391    0.462115
     16          6           0       -3.571564   -0.813858    1.650690
     17          1           0       -3.803509   -1.673330    2.280213
     18          1           0       -3.827205    0.087113    2.205300
     19          6           0       -2.086223   -0.814127    1.346506
     20          1           0       -1.852395   -1.641615    0.681443
     21          1           0       -1.549320   -0.967284    2.275526
     22          8           0       -1.615158    0.392620    0.822344
     23          6           0       -1.762066    0.595539   -0.554884
     24          1           0       -2.792957    0.831256   -0.797740
     25          1           0       -1.486579   -0.302633   -1.100515
     26          6           0       -0.876291    1.753895   -0.978609
     27          1           0       -1.109330    2.633146   -0.389353
     28          1           0       -1.085349    1.992359   -2.015694
     29         16           0        0.912694    1.446590   -0.909508
     30          6           0        1.291208    1.756731    0.845074
     31          1           0        0.910986    2.741394    1.095720
     32          1           0        0.782071    1.030713    1.459009
     33          6           0        2.795304    1.735704    1.123641
     34          1           0        2.956684    2.183658    2.097178
     35          1           0        3.331328    2.347722    0.408158
     36         16           0        3.576004    0.095028    1.248459
     37          6           0        4.160603   -0.238858   -0.440932
     38          1           0        3.373300    0.000196   -1.143458
     39          1           0        4.298293   -1.312273   -0.477563
     40          6           0        5.448664    0.479917   -0.849746
     41          1           0        5.575959    0.396259   -1.924423
     42          1           0        5.380914    1.537058   -0.626708
     43         16           0        6.972479   -0.099568   -0.049218
     44          6           0        7.327179   -1.597611   -1.018493
     45          1           0        6.506831   -2.298970   -0.921807
     46          1           0        7.415950   -1.328534   -2.065077
     47          6           0        8.621000   -2.242574   -0.528287
     48          1           0        8.544022   -2.529415    0.514724
     49          1           0        8.834009   -3.134586   -1.108932
     50          1           0        9.460073   -1.563378   -0.632013
 ---------------------------------------------------------------------
 Standard basis: 6-31G(d) (6D, 7F)
   372 basis functions,   752 primitive gaussians,   372 cartesian basis functions
    93 alpha electrons       93 beta electrons
 Requested convergence on RMS density matrix=1.00D-08 within  64 cycles.
 Requested convergence on MAX density matrix=1.00D-06.
 Requested convergence on             energy=1.00D-06.
 SCF Done:  E(RHF) =  -1964.69109782     A.U. after   12 cycles
            NFock= 12  Conv=0.62D-08     -V/T= 2.0006
 Step number   6 out of a maximum of   55
     Eigenvalues ---    0.00214   0.00230   0.00232   0.00266   0.00353
     Eigenvalues ---    0.00401   0.00458   0.00473   0.00517   0.00576
     Eigenvalues ---    0.00579   0.00700   0.00804   0.01154   0.01512
     Eigenvalues ---    0.01523   0.01564   0.01588   0.01613   0.04255
     Eigenvalues ---    0.04300   0.04548   0.04892   0.04974   0.04976
     Eigenvalues ---    0.05083   0.05333   0.05378   0.05403   0.05428
     Eigenvalues ---    0.05552   0.05573   0.05639   0.05697   0.05744
     Eigenvalues ---    0.05756   0.05779   0.05786   0.05823   0.05835
     Eigenvalues ---    0.05911   0.05972   0.05983   0.05996   0.06059
     Eigenvalues ---    0.06087   0.06091   0.11001   0.11100   0.11199
     Eigenvalues ---    0.11244   0.11306   0.11460   0.11534   0.11716
     Eigenvalues ---    0.11779   0.11827   0.11847   0.11886   0.13596
     Eigenvalues ---    0.13650   0.13680   0.13722   0.13753   0.13834
     Eigenvalues ---    0.13940   0.14059   0.14090   0.14110   0.14113
     Eigenvalues ---    0.14319   0.15964   0.16000   0.16000   0.16000
     Eigenvalues ---    0.16000   0.16013   0.21275   0.21887   0.21957
     Eigenvalues ---    0.21971   0.22013   0.22038   0.22051   0.22055
     Eigenvalues ---    0.22069   0.22913   0.23478   0.23830   0.24008
     Eigenvalues ---    0.24315   0.24327   0.24377   0.24530   0.24615
     Eigenvalues ---    0.24844   0.24992   0.25037   0.28075   0.28997
     Eigenvalues ---    0.29299   0.29745   0.30051   0.30179   0.30892
     Eigenvalues ---    0.31700   0.32051   0.33488   0.33519   0.33582
     Eigenvalues ---    0.33613   0.33653   0.33689   0.33734   0.33810
     Eigenvalues ---    0.33829   0.33902   0.34098   0.34114   0.34188
     Eigenvalues ---    0.34219   0.34231   0.34247   0.34259   0.34292
     Eigenvalues ---    0.34355   0.34359   0.34376   0.34386   0.34397
     Eigenvalues ---    0.34411   0.34423   0.34426   0.34449   0.34864
     Eigenvalues ---    0.35279   0.35901   0.40514   0.41590   0.43435
     Eigenvalues ---    0.43777   0.44267   0.44407   0.45342
 Maximum Force            0.000756     0.000015     NO 
 RMS     Force            0.000154     0.000010     NO 
 Maximum Displacement     0.174442     0.000060     NO 
 RMS     Displacement     0.044701     0.000040     NO 
                          Input orientation:                          
 ---------------------------------------------------------------------
 Center     Atomic      Atomic             Coordinates (Angstroms)
 Number     Number       Type             X           Y           Z
 ---------------------------------------------------------------------
      1          6           0        9.841104    0.121159   -0.577141
      2          1           0       10.088570    0.604357    0.361164
      3          1           0       10.395681   -0.809595   -0.643495
      4          1           0       10.154913    0.769932   -1.386707
      5          6           0        8.350409   -0.141952   -0.660494
      6          1           0        8.103286   -0.636243   -1.598376
      7          1           0        8.040306   -0.803467    0.145731
      8          8           0        7.682569    1.086515   -0.582175
      9          6           0        6.289782    1.039117   -0.670231
     10          1           0        5.963392    0.244223   -1.336063
     11          1           0        5.960031    1.979633   -1.091753
     12          6           0        5.648759    0.861622    0.697160
     13          1           0        5.966670   -0.070795    1.159471
     14          1           0        5.957508    1.675417    1.349649
     15          8           0        4.264203    0.867421    0.517329
     16          6           0        3.520376    0.751891    1.693880
     17          1           0        3.741465    1.587747    2.357371
     18          1           0        3.774353   -0.167831    2.216789
     19          6           0        2.039008    0.757570    1.372810
     20          1           0        1.808818    1.609191    0.738574
     21          1           0        1.488983    0.869769    2.299687
     22          8           0        1.583732   -0.429057    0.792313
     23          6           0        1.749210   -0.571708   -0.590294
     24          1           0        2.785086   -0.788618   -0.827661
     25          1           0        1.475083    0.347542   -1.099423
     26          6           0        0.877244   -1.716843   -1.074788
     27          1           0        1.111448   -2.619839   -0.523663
     28          1           0        1.098541   -1.906996   -2.118929
     29         16           0       -0.914618   -1.425586   -1.006618
     30          6           0       -1.309798   -1.843045    0.721740
     31          1           0       -0.964747   -2.855115    0.903661
     32          1           0       -0.776717   -1.179993    1.384057
     33          6           0       -2.813068   -1.787389    0.999703
     34          1           0       -2.993638   -2.287219    1.943875
     35          1           0       -3.367403   -2.335774    0.247869
     36         16           0       -3.533587   -0.128060    1.214133
     37          6           0       -4.121225    0.305349   -0.451673
     38          1           0       -3.340016    0.092775   -1.168857
     39          1           0       -4.244629    1.380627   -0.433841
     40          6           0       -5.419624   -0.376163   -0.890237
     41          1           0       -5.552589   -0.235042   -1.957920
     42          1           0       -5.362287   -1.444006   -0.723065
     43         16           0       -6.931847    0.177500   -0.050182
     44          6           0       -7.277721    1.727817   -0.937069
     45          1           0       -6.448267    2.413366   -0.812676
     46          1           0       -7.378742    1.514209   -1.994957
     47          6           0       -8.559173    2.361899   -0.402279
     48          1           0       -8.469663    2.593670    0.653083
     49          1           0       -8.766873    3.284885   -0.933844
     50          1           0       -9.407300    1.699130   -0.532637
 ---------------------------------------------------------------------
 Stoichiometry    C14H30O3S3
 Framework group  C1[X(C14H30O3S3)]
                         Standard orientation:                         
 ---------------------------------------------------------------------
 Center     Atomic      Atomic             Coordinates (Angstroms)
 Number     Number       Type             X           Y           Z
 ---------------------------------------------------------------------
      1          6           0       -9.838720   -0.097760   -0.627405
      2          1           0      -10.087845   -0.650933    0.270967
      3          1           0      -10.397081    0.833096   -0.626222
      4          1           0      -10.146438   -0.685287   -1.484668
      5          6           0       -8.348864    0.176894   -0.684342
      6          1           0       -8.100132    0.741096   -1.581462
      7          1           0       -8.044894    0.777363    0.170529
      8          8           0       -7.675990   -1.051273   -0.695414
      9          6           0       -6.283080   -0.991768   -0.773631
     10          1           0       -5.957488   -0.147884   -1.376597
     11          1           0       -5.947538   -1.896697   -1.263019
     12          6           0       -5.648340   -0.914679    0.605983
     13          1           0       -5.972171   -0.020836    1.135490
     14          1           0       -5.956155   -1.776339    1.194304
     15          8           0       -4.263060   -0.901374    0.432227
     16          6           0       -3.524480   -0.871353    1.617342
     17          1           0       -3.744585   -1.755482    2.215360
     18          1           0       -3.784567    0.005547    2.206601
     19          6           0       -2.041822   -0.846949    1.303175
     20          1           0       -1.805371   -1.647692    0.607903
     21          1           0       -1.495043   -1.026084    2.221412
     22          8           0       -1.589398    0.381687    0.815220
     23          6           0       -1.749938    0.626908   -0.553513
     24          1           0       -2.785789    0.856804   -0.778445
     25          1           0       -1.469758   -0.250473   -1.128909
     26          6           0       -0.881036    1.808661   -0.947039
     27          1           0       -1.121392    2.666847   -0.330811
     28          1           0       -1.098962    2.075651   -1.974943
     29         16           0        0.911791    1.520372   -0.893121
     30          6           0        1.298195    1.808693    0.863360
     31          1           0        0.948002    2.802873    1.119119
[...]
     18          1           0        3.760568   -0.139819    2.220135
     19          6           0        2.014427    0.742266    1.353325
     20          1           0        1.771875    1.581627    0.707347
     21          1           0        1.457730    0.856040    2.276095
     22          8           0        1.584252   -0.460032    0.785317
     23          6           0        1.753740   -0.614475   -0.595781
     24          1           0        2.791202   -0.829942   -0.828557
     25          1           0        1.477641    0.298999   -1.114272
     26          6           0        0.887383   -1.766453   -1.074119
     27          1           0        1.122841   -2.665412   -0.516726
     28          1           0        1.112593   -1.962648   -2.116377
     29         16           0       -0.905806   -1.479403   -1.013225
     30          6           0       -1.301929   -1.889330    0.716659
     31          1           0       -0.962423   -2.902828    0.902711
     32          1           0       -0.764745   -1.225030    1.374491
     33          6           0       -2.804337   -1.825658    0.996237
     34          1           0       -2.984917   -2.321768    1.942311
     35          1           0       -3.363265   -2.374038    0.247458
     36         16           0       -3.515808   -0.160889    1.203506
     37          6           0       -4.117103    0.255726   -0.461830
     38          1           0       -3.353418    0.004431   -1.185521
     39          1           0       -4.208282    1.334422   -0.465656
     40          6           0       -5.442283   -0.395602   -0.864437
     41          1           0       -5.589347   -0.273587   -1.932771
     42          1           0       -5.414532   -1.460837   -0.674036
     43         16           0       -6.922580    0.222166   -0.012180
     44          6           0       -7.235632    1.761834   -0.929294
     45          1           0       -6.383960    2.424551   -0.833126
     46          1           0       -7.359851    1.527719   -1.980486
     47          6           0       -8.488702    2.445994   -0.389571
     48          1           0       -8.375360    2.698865    0.658743
     49          1           0       -8.677237    3.362564   -0.939268
     50          1           0       -9.358317    1.806291   -0.491502
 ---------------------------------------------------------------------
 Stoichiometry    C14H30O3S3
 Framework group  C1[X(C14H30O3S3)]
                         Standard orientation:                         
 ---------------------------------------------------------------------
 Center     Atomic      Atomic             Coordinates (Angstroms)
 Number     Number       Type             X           Y           Z
 ---------------------------------------------------------------------
      1          6           0       -9.817848   -0.136106   -0.572570
      2          1           0      -10.028046   -0.630793    0.368957
      3          1           0      -10.380036    0.791844   -0.608869
      4          1           0      -10.157279   -0.778291   -1.377197
      5          6           0       -8.332983    0.137027   -0.707719
      6          1           0       -8.123926    0.645666   -1.647282
      7          1           0       -7.995894    0.789145    0.095681
      8          8           0       -7.655482   -1.088445   -0.671300
      9          6           0       -6.263001   -1.024034   -0.764541
     10          1           0       -5.946016   -0.179531   -1.371059
     11          1           0       -5.926193   -1.928111   -1.255221
     12          6           0       -5.622090   -0.938875    0.611147
     13          1           0       -5.958757   -0.049747    1.141215
     14          1           0       -5.915517   -1.804852    1.200649
     15          8           0       -4.237597   -0.905460    0.432371
     16          6           0       -3.495221   -0.870507    1.615333
     17          1           0       -3.698168   -1.761763    2.209146
     18          1           0       -3.767202   -0.001263    2.210716
     19          6           0       -2.014977   -0.819200    1.294676
     20          1           0       -1.767148   -1.614414    0.596921
     21          1           0       -1.460564   -0.989874    2.210021
     22          8           0       -1.587946    0.418724    0.806421
     23          6           0       -1.753960    0.660894   -0.562448
     24          1           0       -2.791584    0.886908   -0.784243
     25          1           0       -1.472664   -0.216339   -1.137631
     26          6           0       -0.890816    1.844506   -0.963048
     27          1           0       -1.131529    2.704911   -0.349846
     28          1           0       -1.113723    2.106369   -1.991278
     29         16           0        0.903321    1.560976   -0.914947
     30          6           0        1.292670    1.860473    0.838952
     31          1           0        0.948553    2.858629    1.088600
     32          1           0        0.756208    1.153257    1.451044
     33          6           0        2.794487    1.784707    1.118692
     34          1           0        2.970272    2.219722    2.095242
     35          1           0        3.353427    2.382166    0.408468
     36         16           0        3.512011    0.112787    1.220930
     37          6           0        4.119904   -0.193727   -0.465778
     38          1           0        3.357364    0.100610   -1.174292
     39          1           0        4.215418   -1.269596   -0.538562
     40          6           0        5.443647    0.487158   -0.821473
     41          1           0        5.594364    0.434563   -1.894959
     42          1           0        5.411061    1.537853   -0.563161
     43         16           0        6.923878   -0.178418   -0.005886
     44          6           0        7.245818   -1.654808   -1.018954
     45          1           0        6.396531   -2.325574   -0.968272
     46          1           0        7.372212   -1.353198   -2.052540
     47          6           0        8.500018   -2.367434   -0.520247
     48          1           0        8.384586   -2.687535    0.509298
     49          1           0        8.693855   -3.246087   -1.127050
     50          1           0        9.367359   -1.719195   -0.578099
 ---------------------------------------------------------------------
 Standard basis: 6-31G(d) (6D, 7F)
   372 basis functions,   752 primitive gaussians,   372 cartesian basis functions
    93 alpha electrons       93 beta electrons
 Requested convergence on RMS density matrix=1.00D-08 within  64 cycles.
 Requested convergence on MAX density matrix=1.00D-06.
 Requested convergence on             energy=1.00D-06.
 SCF Done:  E(RHF) =  -1964.69114406     A.U. after    4 cycles
            NFock=  4  Conv=0.32D-08     -V/T= 2.0006
 Step number  37 out of a maximum of   55
     Eigenvalues ---    0.00229   0.00246   0.00279   0.00327   0.00376
     Eigenvalues ---    0.00426   0.00446   0.00466   0.00478   0.00567
     Eigenvalues ---    0.00587   0.00612   0.00713   0.00772   0.00920
     Eigenvalues ---    0.00995   0.01552   0.01674   0.01879   0.04497
     Eigenvalues ---    0.04730   0.04907   0.05001   0.05092   0.05173
     Eigenvalues ---    0.05340   0.05424   0.05435   0.05522   0.05577
     Eigenvalues ---    0.05633   0.05715   0.05723   0.05750   0.05780
     Eigenvalues ---    0.05802   0.05833   0.05858   0.05929   0.05965
     Eigenvalues ---    0.05992   0.05995   0.06083   0.06096   0.06127
     Eigenvalues ---    0.06262   0.06473   0.10714   0.11061   0.11174
     Eigenvalues ---    0.11204   0.11454   0.11489   0.11553   0.11729
     Eigenvalues ---    0.11858   0.12064   0.12204   0.12688   0.13402
     Eigenvalues ---    0.13661   0.13701   0.13762   0.13851   0.13973
     Eigenvalues ---    0.14077   0.14190   0.14272   0.14461   0.14642
     Eigenvalues ---    0.15107   0.15950   0.16000   0.16007   0.16019
     Eigenvalues ---    0.16218   0.16612   0.20420   0.21290   0.21548
     Eigenvalues ---    0.22032   0.22221   0.22419   0.22488   0.22731
     Eigenvalues ---    0.23049   0.23067   0.23818   0.24107   0.24412
     Eigenvalues ---    0.24529   0.24547   0.24655   0.25159   0.25333
     Eigenvalues ---    0.26022   0.26827   0.28863   0.29276   0.29853
     Eigenvalues ---    0.30250   0.30838   0.31061   0.31695   0.32059
     Eigenvalues ---    0.33113   0.33468   0.33509   0.33604   0.33635
     Eigenvalues ---    0.33667   0.33686   0.33755   0.33797   0.33831
     Eigenvalues ---    0.33937   0.34113   0.34174   0.34220   0.34230
     Eigenvalues ---    0.34266   0.34317   0.34344   0.34368   0.34371
     Eigenvalues ---    0.34386   0.34392   0.34449   0.34459   0.34495
     Eigenvalues ---    0.34600   0.34732   0.35117   0.35571   0.35784
     Eigenvalues ---    0.36357   0.39403   0.39972   0.42976   0.43664
     Eigenvalues ---    0.44060   0.44711   0.45125   0.47498
 Maximum Force            0.000000     0.000015     YES
 RMS     Force            0.000000     0.000010     YES
 Maximum Displacement     0.000049     0.000060     YES
 RMS     Displacement     0.000016     0.000040     YES
 Optimization completed.
    -- Stationary point found.
                          Input orientation:                          
 ---------------------------------------------------------------------
 Center     Atomic      Atomic             Coordinates (Angstroms)
 Number     Number       Type             X           Y           Z
 ---------------------------------------------------------------------
      1          6           0        9.820599    0.149183   -0.530808
      2          1           0       10.029653    0.581551    0.441162
      3          1           0       10.379359   -0.776769   -0.624958
      4          1           0       10.165059    0.840339   -1.291525
      5          6           0        8.335146   -0.108752   -0.687618
      6          1           0        8.127172   -0.555172   -1.658521
      7          1           0        7.992992   -0.809750    0.071244
      8          8           0        7.662207    1.114561   -0.574583
      9          6           0        6.269798    1.061855   -0.675893
     10          1           0        5.951547    0.259315   -1.336328
     11          1           0        5.938018    1.996914   -1.108498
     12          6           0        5.624149    0.891115    0.689582
     13          1           0        5.955718   -0.031556    1.162452
     14          1           0        5.918978    1.716271    1.334346
     15          8           0        4.240120    0.874799    0.504928
     16          6           0        3.493818    0.766943    1.680999
     17          1           0        3.698251    1.617412    2.331420
     18          1           0        3.760568   -0.139819    2.220135
     19          6           0        2.014427    0.742266    1.353325
     20          1           0        1.771875    1.581627    0.707347
     21          1           0        1.457730    0.856040    2.276095
     22          8           0        1.584252   -0.460032    0.785317
     23          6           0        1.753740   -0.614475   -0.595781
     24          1           0        2.791202   -0.829942   -0.828557
     25          1           0        1.477641    0.298999   -1.114272
     26          6           0        0.887383   -1.766453   -1.074119
     27          1           0        1.122841   -2.665412   -0.516726
     28          1           0        1.112593   -1.962648   -2.116377
     29         16           0       -0.905806   -1.479403   -1.013225
     30          6           0       -1.301929   -1.889330    0.716659
     31          1           0       -0.962423   -2.902828    0.902711
     32          1           0       -0.764745   -1.225030    1.374491
     33          6           0       -2.804337   -1.825658    0.996237
     34          1           0       -2.984917   -2.321768    1.942311
     35          1           0       -3.363265   -2.374038    0.247458
     36         16           0       -3.515808   -0.160889    1.203506
     37          6           0       -4.117103    0.255726   -0.461830
     38          1           0       -3.353418    0.004431   -1.185521
     39          1           0       -4.208282    1.334422   -0.465656
     40          6           0       -5.442283   -0.395602   -0.864437
     41          1           0       -5.589347   -0.273587   -1.932771
     42          1           0       -5.414532   -1.460837   -0.674036
     43         16           0       -6.922580    0.222166   -0.012180
     44          6           0       -7.235632    1.761834   -0.929294
     45          1           0       -6.383960    2.424551   -0.833126
     46          1           0       -7.359851    1.527719   -1.980486
     47          6           0       -8.488702    2.445994   -0.389571
     48          1           0       -8.375360    2.698865    0.658743
     49          1           0       -8.677237    3.362564   -0.939268
     50          1           0       -9.358317    1.806291   -0.491502
 ---------------------------------------------------------------------
 Stoichiometry    C14H30O3S3
 Framework group  C1[X(C14H30O3S3)]
                         Standard orientation:                         
 ---------------------------------------------------------------------
 Center     Atomic      Atomic             Coordinates (Angstroms)
 Number     Number       Type             X           Y           Z
 ---------------------------------------------------------------------
      1          6           0       -9.817848   -0.136106   -0.572570
      2          1           0      -10.028046   -0.630793    0.368957
      3          1           0      -10.380036    0.791844   -0.608869
      4          1           0      -10.157279   -0.778291   -1.377197
      5          6           0       -8.332983    0.137027   -0.707719
      6          1           0       -8.123926    0.645666   -1.647282
      7          1           0       -7.995894    0.789145    0.095681
      8          8           0       -7.655482   -1.088445   -0.671300
      9          6           0       -6.263001   -1.024034   -0.764541
     10          1           0       -5.946016   -0.179531   -1.371059
     11          1           0       -5.926193   -1.928111   -1.255221
     12          6           0       -5.622090   -0.938875    0.611147
     13          1           0       -5.958757   -0.049747    1.141215
     14          1           0       -5.915517   -1.804852    1.200649
     15          8           0       -4.237597   -0.905460    0.432371
     16          6           0       -3.495221   -0.870507    1.615333
     17          1           0       -3.698168   -1.761763    2.209146
     18          1           0       -3.767202   -0.001263    2.210716
     19          6           0       -2.014977   -0.819200    1.294676
     20          1           0       -1.767148   -1.614414    0.596921
     21          1           0       -1.460564   -0.989874    2.210021
     22          8           0       -1.587946    0.418724    0.806421
     23          6           0       -1.753960    0.660894   -0.562448
     24          1           0       -2.791584    0.886908   -0.784243
     25          1           0       -1.472664   -0.216339   -1.137631
     26          6           0       -0.890816    1.844506   -0.963048
     27          1           0       -1.131529    2.704911   -0.349846
     28          1           0       -1.113723    2.106369   -1.991278
     29         16           0        0.903321    1.560976   -0.914947
     30          6           0        1.292670    1.860473    0.838952
     31          1           0        0.948553    2.858629    1.088600
     32          1           0        0.756208    1.153257    1.451044
     33          6           0        2.794487    1.784707    1.118692
     34          1           0        2.970272    2.219722    2.095242
     35          1           0        3.353427    2.382166    0.408468
     36         16           0        3.512011    0.112787    1.220930
     37          6           0        4.119904   -0.193727   -0.465778
     38          1           0        3.357364    0.100610   -1.174292
     39          1           0        4.215418   -1.269596   -0.538562
     40          6           0        5.443647    0.487158   -0.821473
     41          1           0        5.594364    0.434563   -1.894959
     42          1           0        5.411061    1.537853   -0.563161
     43         16           0        6.923878   -0.178418   -0.005886
     44          6           0        7.245818   -1.654808   -1.018954
     45          1           0        6.396531   -2.325574   -0.968272
     46          1           0        7.372212   -1.353198   -2.052540
     47          6           0        8.500018   -2.367434   -0.520247
     48          1           0        8.384586   -2.687535    0.509298
     49          1           0        8.693855   -3.246087   -1.127050
     50          1           0        9.367359   -1.719195   -0.578099
 ---------------------------------------------------------------------
 Mulliken charges:
     1  C   -0.488656
     2  H    0.173105
     3  H    0.157404
     4  H    0.176463
     5  C    0.017011
     6  H    0.142822
     7  H    0.136207
     8  O   -0.631332
     9  C    0.002674
    10  H    0.150187
    11  H    0.181933
    12  C    0.011508
    13  H    0.142461
    14  H    0.154062
    15  O   -0.641433
    16  C    0.008561
    17  H    0.141743
    18  H    0.153242
    19  C   -0.001991
    20  H    0.162694
    21  H    0.174985
    22  O   -0.635351
    23  C    0.038800
    24  H    0.166276
    25  H    0.156601
    26  C   -0.502588
    27  H    0.199573
    28  H    0.196744
    29  S    0.097411
    30  C   -0.444509
    31  H    0.183870
    32  H    0.235627
    33  C   -0.502868
    34  H    0.210184
    35  H    0.201729
    36  S    0.134182
    37  C   -0.483686
    38  H    0.226881
    39  H    0.201403
    40  C   -0.475381
    41  H    0.192061
    42  H    0.202508
    43  S    0.133066
    44  C   -0.458957
    45  H    0.184015
    46  H    0.183234
    47  C   -0.495256
    48  H    0.181121
    49  H    0.170284
    50  H    0.179378
 Sum of Mulliken charges =  -0.00000
 Dipole moment (field-independent basis, Debye):
    X=             -3.1453    Y=              0.7285    Z=             -1.0097  Tot=              3.3828
 Quadrupole moment (field-independent basis, Debye-Ang):
   XX=           -154.3099   YY=           -143.2583   ZZ=           -145.4686
   XY=            -15.4397   XZ=            -14.7196   YZ=              1.5505
 Traceless Quadrupole moment (field-independent basis, Debye-Ang):
   XX=             -6.6310   YY=              4.4207   ZZ=              2.2103
   XY=            -15.4397   XZ=            -14.7196   YZ=              1.5505
 Octapole moment (field-independent basis, Debye-Ang**2):
  XXX=           -170.0185  YYY=             -5.4804  ZZZ=              2.6733  XYY=             14.1710
  XXY=             23.3782  XXZ=            -64.8672  XZZ=            -36.7247  YZZ=             -3.4523
  YYZ=             10.4547  XYZ=             34.3076
 Hexadecapole moment (field-independent basis, Debye-Ang**3):
 XXXX=         -26102.9039 YYYY=          -1449.0056 ZZZZ=           -940.9702 XXXY=          -1192.4200
 XXXZ=           -541.7474 YYYX=              3.5616 YYYZ=             28.8174 ZZZX=            -26.8010
 ZZZY=              4.5587 XXYY=          -4459.3139 XXZZ=          -4387.0497 YYZZ=           -397.1418
 XXYZ=             -0.2004 YYXZ=             -0.0276 ZZXY=             22.9665
 Job cpu time:       0 days  3 hours 23 minutes 12.1 seconds.
 Normal termination of Gaussian 16 at Sat Jul  8 21:15:58 2023.
