 Copyright (c) 1988-2019, Gaussian, Inc.  All Rights Reserved.
  
 This is part of the Gaussian(R) 16 program.  It is based on
 the Gaussian(R) 09 system (copyright 2009, Gaussian, Inc.),
 the Gaussian(R) 03 system (copyright 2003, Gaussian, Inc.),
 the Gaussian(R) 98 system (copyright 1998, Gaussian, Inc.),
 the Gaussian(R) 94 system (copyright 1995, Gaussian, Inc.),
 the Gaussian 92(TM) system (copyright 1992, Gaussian, Inc.),
 the Gaussian 90(TM) system (copyright 1990, Gaussian, Inc.),
 the Gaussian 88(TM) system (copyright 1988, Gaussian, Inc.),
 the Gaussian 86(TM) system (copyright 1986, Carnegie Mellon
 University), and the Gaussian 82(TM) system (copyright 1983,
 Carnegie Mellon University). Gaussian is a federally registered
 trademark of Gaussian, Inc.
 Cite this work as:
 Gaussian 16, Revision C.01,
 M. J. Frisch, G. W. Trucks, H. B. Schlegel, G. E. Scuseria, 
 M. A. Robb, J. R. Cheeseman, G. Scalmani, V. Barone, 
 G. A. Petersson, H. Nakatsuji, X. Li, M. Caricato, A. V. Marenich, 
 J. Bloino, B. G. Janesko, R. Gomperts, B. Mennucci, H. P. Hratchian, 
 J. V. Ortiz, A. F. Izmaylov, J. L. Sonnenberg, D. Williams-Young, 
 F. Ding, F. Lipparini, F. Egidi, J. Goings, B. Peng, A. Petrone, 
 T. Henderson, D. Ranasinghe, V. G. Zakrzewski, J. Gao, N. Rega, 
 G. Zheng, W. Liang, M. Hada, M. Ehara, K. Toyota, R. Fukuda, 
 J. Hasegawa, M. Ishida, T. Nakajima, Y. Honda, O. Kitao, H. Nakai, 
 T. Vreven, K. Throssell, J. A. Montgomery, Jr., J. E. Peralta, 
 F. Ogliaro, M. J. Bearpark, J. J. Heyd, E. N. Brothers, K. N. Kudin, 
 V. N. Staroverov, T. A. Keith, R. Kobayashi, J. Normand, 
 K. Raghavachari, A. P. Rendell, J. C. Burant, S. S. Iyengar, 
 J. Tomasi, M. Cossi, J. M. Millam, M. Klene, C. Adamo, R. Cammi, 
 J. W. Ochterski, R. L. Martin, K. Morokuma, O. Farkas, 
 J. B. Foresman, and D. J. Fox, Gaussian, Inc., Wallingford CT, 2019.
 
 ******************************************
 Gaussian 16:  EM64L-G16RevC.01  3-Jul-2019
                 8-Jul-2023 
 ******************************************
 ----------------------------------------------------------------------
 #P HF/6-31G(d) Opt=(Tight,MaxCycle=55) GFInput GFPrint SCF(Conver=8,XQ
 C,MaxConventionalCycles=64,MaxCycle=128) Test
 ----------------------------------------------------------------------
 1/6=55,7=10,18=20,19=15,38=1/1,3;
 2/9=110,12=2,17=6,18=5,40=1/2;
 3/5=1,6=6,7=1,11=9,24=110,25=1,30=1,71=1/1,2,3;
 4//1;
 5/5=2,6=8,7=128,8=3,13=1,38=5,85=64/2,8;
 6/7=2,8=2,9=2,10=2,28=1/1;
 7//1,2,3,16;
 1/6=55,7=10,18=20,19=15/3(2);
 2/9=110/2;
 99//99;
 2/9=110/2;
 3/5=1,6=6,7=1,11=9,25=1,30=1,71=1/1,2,3;
 4/5=5,16=3,69=1/1;
 5/5=2,6=8,7=128,8=3,13=1,38=5,85=64/2,8;
 7//1,2,3,16;
 1/6=55,7=10,18=20,19=15/3(-5);
 2/9=110/2;
 6/7=2,8=2,9=2,10=2,19=2,28=1/1;
 99/9=1/99;
 ----------------------------------------------------------
 Optimization step - Input generated by PyRED DVE-DMDS-OPLS
 ----------------------------------------------------------
 Symbolic Z-matrix:
 Charge =  0 Multiplicity = 1
 C                    -9.089    -0.946    -0.503 
 H                    -8.921    -0.263     0.334 
 H                    -9.263    -0.349    -1.403 
 H                    -9.996    -1.52     -0.288 
 C                    -7.911    -1.887    -0.716 
 H                    -7.722    -2.476     0.195 
 H                    -8.136    -2.59     -1.523 
 O                    -6.727    -1.227    -1.114 
 C                    -6.083    -0.5      -0.096 
 H                    -5.949    -1.131     0.797 
 H                    -6.656     0.388     0.207 
 C                    -4.74     -0.054    -0.658 
 H                    -4.143    -0.933    -0.934 
 H                    -4.917     0.531    -1.564 
 O                    -4.033     0.781     0.234 
 C                    -3.354     0.102     1.27 
 H                    -2.743    -0.714     0.859 
 H                    -4.064    -0.336     1.989 
 C                    -2.457     1.077     2.007 
 H                    -2.123     0.605     2.937 
 H                    -3.038     1.975     2.268 
 O                    -1.285     1.428     1.309 
 C                    -1.447     2.412     0.304 
 H                    -1.938     3.3       0.736 
 H                    -2.079     2.042    -0.509 
 C                    -0.077     2.806    -0.214 
 H                     0.564     3.111     0.619 
 H                    -0.185     3.667    -0.88 
 S                     0.783     1.542    -1.205 
 C                     1.416     0.429     0.101 
 H                     2.037     1.016     0.784 
 H                     0.58      0.022     0.668 
 C                     2.228    -0.683    -0.549 
 H                     3.04     -0.28     -1.162 
 H                     1.593    -1.273    -1.216 
 S                     2.896    -1.897     0.631 
 C                     4.1      -0.9       1.571 
 H                     4.564    -1.618     2.253 
 H                     3.574    -0.162     2.183 
 C                     5.175    -0.193     0.753 
 H                     4.725     0.576     0.118 
 H                     5.855     0.313     1.447 
 S                     6.146    -1.361    -0.257 
 C                     7.606    -0.325    -0.599 
 H                     8.04      0.003     0.352 
 H                     8.327    -1.009    -1.056 
 C                     7.348     0.862    -1.518 
 H                     6.645     1.571    -1.073 
 H                     8.281     1.401    -1.715 
 H                     6.933     0.531    -2.474 
 
 ITRead=  0  0  0  0  0  0  0  0  0  0  0  0  0  0  0  0  0  0  0  0
 ITRead=  0  0  0  0  0  0  0  0  0  0  0  0  0  0  0  0  0  0  0  0
 ITRead=  0  0  0  0  0  0  0  0  0  0
 MicOpt= -1 -1 -1 -1 -1 -1 -1 -1 -1 -1 -1 -1 -1 -1 -1 -1 -1 -1 -1 -1
 MicOpt= -1 -1 -1 -1 -1 -1 -1 -1 -1 -1 -1 -1 -1 -1 -1 -1 -1 -1 -1 -1
 MicOpt= -1 -1 -1 -1 -1 -1 -1 -1 -1 -1
 NAtoms=     50 NQM=       50 NQMF=       0 NMMI=      0 NMMIF=      0
                NMic=       0 NMicF=      0.
                          Input orientation:                          
 ---------------------------------------------------------------------
 Center     Atomic      Atomic             Coordinates (Angstroms)
 Number     Number       Type             X           Y           Z
 ---------------------------------------------------------------------
      1          6           0       -9.089000   -0.946000   -0.503000
      2          1           0       -8.921000   -0.263000    0.334000
      3          1           0       -9.263000   -0.349000   -1.403000
      4          1           0       -9.996000   -1.520000   -0.288000
      5          6           0       -7.911000   -1.887000   -0.716000
      6          1           0       -7.722000   -2.476000    0.195000
      7          1           0       -8.136000   -2.590000   -1.523000
      8          8           0       -6.727000   -1.227000   -1.114000
      9          6           0       -6.083000   -0.500000   -0.096000
     10          1           0       -5.949000   -1.131000    0.797000
     11          1           0       -6.656000    0.388000    0.207000
     12          6           0       -4.740000   -0.054000   -0.658000
     13          1           0       -4.143000   -0.933000   -0.934000
     14          1           0       -4.917000    0.531000   -1.564000
     15          8           0       -4.033000    0.781000    0.234000
     16          6           0       -3.354000    0.102000    1.270000
     17          1           0       -2.743000   -0.714000    0.859000
     18          1           0       -4.064000   -0.336000    1.989000
     19          6           0       -2.457000    1.077000    2.007000
     20          1           0       -2.123000    0.605000    2.937000
     21          1           0       -3.038000    1.975000    2.268000
     22          8           0       -1.285000    1.428000    1.309000
     23          6           0       -1.447000    2.412000    0.304000
     24          1           0       -1.938000    3.300000    0.736000
     25          1           0       -2.079000    2.042000   -0.509000
     26          6           0       -0.077000    2.806000   -0.214000
     27          1           0        0.564000    3.111000    0.619000
     28          1           0       -0.185000    3.667000   -0.880000
     29         16           0        0.783000    1.542000   -1.205000
     30          6           0        1.416000    0.429000    0.101000
     31          1           0        2.037000    1.016000    0.784000
     32          1           0        0.580000    0.022000    0.668000
     33          6           0        2.228000   -0.683000   -0.549000
     34          1           0        3.040000   -0.280000   -1.162000
     35          1           0        1.593000   -1.273000   -1.216000
     36         16           0        2.896000   -1.897000    0.631000
     37          6           0        4.100000   -0.900000    1.571000
     38          1           0        4.564000   -1.618000    2.253000
     39          1           0        3.574000   -0.162000    2.183000
     40          6           0        5.175000   -0.193000    0.753000
     41          1           0        4.725000    0.576000    0.118000
     42          1           0        5.855000    0.313000    1.447000
     43         16           0        6.146000   -1.361000   -0.257000
     44          6           0        7.606000   -0.325000   -0.599000
     45          1           0        8.040000    0.003000    0.352000
     46          1           0        8.327000   -1.009000   -1.056000
     47          6           0        7.348000    0.862000   -1.518000
     48          1           0        6.645000    1.571000   -1.073000
     49          1           0        8.281000    1.401000   -1.715000
     50          1           0        6.933000    0.531000   -2.474000
 ---------------------------------------------------------------------
 Stoichiometry    C14H30O3S3
 Framework group  C1[X(C14H30O3S3)]
                         Standard orientation:                         
 ---------------------------------------------------------------------
 Center     Atomic      Atomic             Coordinates (Angstroms)
 Number     Number       Type             X           Y           Z
 ---------------------------------------------------------------------
      1          6           0       -9.089091   -0.945890   -0.503016
      2          1           0       -8.921084   -0.262892    0.333984
      3          1           0       -9.263084   -0.348888   -1.403016
      4          1           0       -9.996097   -1.519880   -0.288016
      5          6           0       -7.911101   -1.886903   -0.716016
      6          1           0       -7.722108   -2.475905    0.194984
      7          1           0       -8.136109   -2.589901   -1.523016
      8          8           0       -6.727094   -1.226916   -1.114016
      9          6           0       -6.083086   -0.499923   -0.096016
     10          1           0       -5.949093   -1.130924    0.796984
     11          1           0       -6.656076    0.388083    0.206984
     12          6           0       -4.740081   -0.053938   -0.658016
     13          1           0       -4.143091   -0.932944   -0.934016
     14          1           0       -4.917075    0.531064   -1.564016
     15          8           0       -4.033072    0.781055    0.233984
     16          6           0       -3.354080    0.102047    1.269984
     17          1           0       -2.743088   -0.713959    0.858984
     18          1           0       -4.064084   -0.335945    1.988984
     19          6           0       -2.457069    1.077038    2.006984
     20          1           0       -2.123074    0.605034    2.936984
     21          1           0       -3.038059    1.975044    2.267984
     22          8           0       -1.285065    1.428025    1.308984
     23          6           0       -1.447054    2.412027    0.303984
     24          1           0       -1.938045    3.300032    0.735984
     25          1           0       -2.079058    2.042033   -0.509016
     26          6           0       -0.077050    2.806012   -0.214016
     27          1           0        0.563953    3.111005    0.618984
     28          1           0       -0.185041    3.667013   -0.880016
     29         16           0        0.782936    1.542002   -1.205016
     30          6           0        1.415924    0.428995    0.100984
     31          1           0        2.036930    1.015989    0.783984
     32          1           0        0.579920    0.022004    0.667984
     33          6           0        2.227912   -0.683014   -0.549016
     34          1           0        3.039916   -0.280022   -1.162016
     35          1           0        1.592905   -1.273007   -1.216016
     36         16           0        2.895899   -1.897021    0.630984
     37          6           0        4.099910   -0.900034    1.570984
     38          1           0        4.563902   -1.618039    2.252984
     39          1           0        3.573918   -0.162028    2.182984
     40          6           0        5.174917   -0.193046    0.752984
     41          1           0        4.724926    0.575959    0.117984
     42          1           0        5.854923    0.312947    1.446984
     43         16           0        6.145905   -1.361056   -0.257016
     44          6           0        7.605916   -0.325072   -0.599016
     45          1           0        8.039919    0.002923    0.351984
     46          1           0        8.326908   -1.009080   -1.056016
     47          6           0        7.347929    0.861931   -1.518016
     48          1           0        6.644936    1.570938   -1.073016
     49          1           0        8.280935    1.400921   -1.715016
     50          1           0        6.932925    0.530935   -2.474016
 ---------------------------------------------------------------------
 Standard basis: 6-31G(d) (6D, 7F)
   372 basis functions,   752 primitive gaussians,   372 cartesian basis functions
    93 alpha electrons       93 beta electrons
 Requested convergence on RMS density matrix=1.00D-08 within  64 cycles.
 Requested convergence on MAX density matrix=1.00D-06.
 Requested convergence on             energy=1.00D-06.
 SCF Done:  E(RHF) =  -1964.68691793     A.U. after   13 cycles
            NFock= 13  Conv=0.56D-08     -V/T= 2.0009
 Mulliken charges:
     1  C   -0.504117
     2  H    0.163076
     3  H    0.176041
     4  H    0.161453
     5  C    0.015439
     6  H    0.139770
     7  H    0.174438
     8  O   -0.634778
     9  C    0.003508
    10  H    0.136261
    11  H    0.154518
    12  C    0.000524
    13  H    0.161051
    14  H    0.188045
    15  O   -0.642861
    16  C   -0.001645
    17  H    0.162535
    18  H    0.139941
    19  C   -0.000578
    20  H    0.173345
    21  H    0.156608
    22  O   -0.638646
    23  C    0.028446
    24  H    0.142715
    25  H    0.193596
    26  C   -0.496831
    27  H    0.194979
    28  H    0.196787
    29  S    0.107621
    30  C   -0.452753
    31  H    0.177091
    32  H    0.238951
    33  C   -0.505393
    34  H    0.213960
    35  H    0.213869
    36  S    0.137506
    37  C   -0.484299
    38  H    0.212956
    39  H    0.198020
    40  C   -0.466006
    41  H    0.194744
    42  H    0.190016
    43  S    0.145261
    44  C   -0.478708
    45  H    0.182779
    46  H    0.196639
    47  C   -0.475475
    48  H    0.163633
    49  H    0.165625
    50  H    0.180341
 Sum of Mulliken charges =  -0.00000
 Dipole moment (field-independent basis, Debye):
    X=             -1.9849    Y=              2.4352    Z=              3.0112  Tot=              4.3517
 Quadrupole moment (field-independent basis, Debye-Ang):
   XX=           -119.1431   YY=           -151.8801   ZZ=           -148.7579
   XY=             17.1567   XZ=             -4.2913   YZ=              1.0344
 Traceless Quadrupole moment (field-independent basis, Debye-Ang):
   XX=             20.7839   YY=            -11.9530   ZZ=             -8.8309
   XY=             17.1567   XZ=             -4.2913   YZ=              1.0344
 Octapole moment (field-independent basis, Debye-Ang**2):
  XXX=            -92.6386  YYY=             39.2844  ZZZ=             19.4726  XYY=            -66.7182
  XXY=             16.8923  XXZ=             44.0336  XZZ=             -8.6735  YZZ=             -0.8812
  YYZ=             -0.4915  XYZ=             11.3289
 Hexadecapole moment (field-independent basis, Debye-Ang**3):
 XXXX=         -19287.4592 YYYY=          -1868.4949 ZZZZ=          -1039.3552 XXXY=            794.6665
 XXXZ=           -220.2632 YYYX=             91.6512 YYYZ=             18.7219 ZZZX=             12.9395
 ZZZY=             14.3645 XXYY=          -4052.0098 XXZZ=          -3797.3364 YYZZ=           -492.3218
 XXYZ=              4.7296 YYXZ=             21.4036 ZZXY=            -30.4015
 Step number   1 out of a maximum of   55
     Eigenvalues ---    0.00230   0.00230   0.00230   0.00230   0.00230
     Eigenvalues ---    0.00230   0.00440   0.00459   0.00466   0.00467
     Eigenvalues ---    0.00467   0.00545   0.00554   0.01483   0.01523
     Eigenvalues ---    0.01525   0.01538   0.01579   0.01599   0.04258
     Eigenvalues ---    0.04367   0.04390   0.04436   0.04705   0.04757
     Eigenvalues ---    0.04782   0.04897   0.05082   0.05309   0.05319
     Eigenvalues ---    0.05503   0.05537   0.05540   0.05622   0.05646
     Eigenvalues ---    0.05650   0.05715   0.05716   0.05723   0.05799
     Eigenvalues ---    0.05814   0.05890   0.05978   0.06001   0.06015
     Eigenvalues ---    0.06031   0.06132   0.11019   0.11031   0.11207
     Eigenvalues ---    0.11233   0.11234   0.11651   0.11676   0.11744
     Eigenvalues ---    0.11771   0.11830   0.11854   0.11885   0.13568
     Eigenvalues ---    0.13573   0.13705   0.13746   0.13817   0.13983
     Eigenvalues ---    0.13991   0.14046   0.14068   0.14081   0.14112
     Eigenvalues ---    0.14123   0.16000   0.16000   0.16000   0.16000
     Eigenvalues ---    0.16000   0.16000   0.21938   0.21981   0.21987
     Eigenvalues ---    0.22009   0.22015   0.22027   0.22031   0.22051
     Eigenvalues ---    0.22067   0.22083   0.22091   0.22109   0.23962
     Eigenvalues ---    0.24309   0.24310   0.24414   0.24464   0.24602
     Eigenvalues ---    0.25000   0.25000   0.25000   0.25000   0.25000
     Eigenvalues ---    0.25000   0.29922   0.30062   0.30111   0.30114
     Eigenvalues ---    0.30115   0.30684   0.30750   0.33370   0.33504
     Eigenvalues ---    0.33537   0.33554   0.33578   0.33748   0.33778
     Eigenvalues ---    0.33923   0.34173   0.34187   0.34200   0.34230
     Eigenvalues ---    0.34276   0.34305   0.34319   0.34331   0.34341
     Eigenvalues ---    0.34362   0.34362   0.34370   0.34370   0.34387
     Eigenvalues ---    0.34394   0.34401   0.34405   0.34412   0.34435
     Eigenvalues ---    0.34454   0.34482   0.34922   0.43097   0.43571
     Eigenvalues ---    0.43598   0.43744   0.44234   0.44483
 Maximum Force            0.010435     0.000015     NO 
 RMS     Force            0.003477     0.000010     NO 
 Maximum Displacement     0.658010     0.000060     NO 
 RMS     Displacement     0.171095     0.000040     NO 
                          Input orientation:                          
 ---------------------------------------------------------------------
 Center     Atomic      Atomic             Coordinates (Angstroms)
 Number     Number       Type             X           Y           Z
 ---------------------------------------------------------------------
      1          6           0       -9.287681   -0.915201   -0.541451
      2          1           0       -9.150799   -0.227278    0.284867
      3          1           0       -9.423611   -0.335077   -1.447146
      4          1           0      -10.197912   -1.475898   -0.354812
      5          6           0       -8.113743   -1.870451   -0.695509
      6          1           0       -7.960896   -2.441233    0.218030
      7          1           0       -8.318004   -2.575788   -1.489716
      8          8           0       -6.917950   -1.234352   -1.062175
      9          6           0       -6.268229   -0.506996   -0.063266
     10          1           0       -6.156957   -1.117460    0.830010
     11          1           0       -6.823540    0.383996    0.211125
     12          6           0       -4.917214   -0.100776   -0.629271
     13          1           0       -4.337064   -0.982305   -0.882265
     14          1           0       -5.077758    0.463259   -1.536861
     15          8           0       -4.202067    0.734059    0.240854
     16          6           0       -3.512645    0.101752    1.283708
     17          1           0       -2.910906   -0.716821    0.899295
     18          1           0       -4.214743   -0.307452    2.005822
     19          6           0       -2.620803    1.098788    1.998001
     20          1           0       -2.300569    0.654900    2.932522
     21          1           0       -3.187221    1.996646    2.229174
     22          8           0       -1.441051    1.418954    1.316939
     23          6           0       -1.524507    2.387775    0.303319
     24          1           0       -1.996498    3.282002    0.707411
     25          1           0       -2.126460    2.036922   -0.519973
     26          6           0       -0.124483    2.745417   -0.163948
     27          1           0        0.490320    3.037416    0.678377
     28          1           0       -0.197971    3.602567   -0.823051
     29         16           0        0.751642    1.485436   -1.143425
     30          6           0        1.476832    0.395810    0.128639
     31          1           0        2.075899    1.005581    0.792478
     32          1           0        0.690637   -0.056528    0.707187
     33          6           0        2.329300   -0.668932   -0.553678
     34          1           0        3.092386   -0.226919   -1.179294
     35          1           0        1.709276   -1.274326   -1.203004
     36         16           0        3.088964   -1.867108    0.585171
     37          6           0        4.309190   -0.887042    1.518564
     38          1           0        4.762653   -1.602253    2.192802
     39          1           0        3.792839   -0.158734    2.130651
     40          6           0        5.400250   -0.175767    0.718752
     41          1           0        4.972391    0.593959    0.091682
     42          1           0        6.058963    0.317346    1.425034
     43         16           0        6.404867   -1.318724   -0.281853
     44          6           0        7.879303   -0.299337   -0.597133
     45          1           0        8.285073    0.034201    0.351083
     46          1           0        8.601163   -0.986627   -1.021646
     47          6           0        7.665506    0.878123   -1.542427
     48          1           0        6.967427    1.600744   -1.135890
     49          1           0        8.605195    1.394163   -1.715191
     50          1           0        7.281204    0.543568   -2.498512
 ---------------------------------------------------------------------
 Stoichiometry    C14H30O3S3
 Framework group  C1[X(C14H30O3S3)]
                         Standard orientation:                         
 ---------------------------------------------------------------------
 Center     Atomic      Atomic             Coordinates (Angstroms)
 Number     Number       Type             X           Y           Z
 ---------------------------------------------------------------------
      1          6           0       -9.299393   -0.936394   -0.542641
      2          1           0       -9.165447   -0.222029    0.261421
      3          1           0       -9.432785   -0.385942   -1.467041
      4          1           0      -10.209917   -1.491318   -0.340801
      5          6           0       -8.124491   -1.895408   -0.662078
      6          1           0       -7.974212   -2.436260    0.269911
      7          1           0       -8.325907   -2.626181   -1.433693
      8          8           0       -6.927882   -1.270767   -1.045401
      9          6           0       -6.281660   -0.511096   -0.068518
     10          1           0       -6.172871   -1.092288    0.844372
     11          1           0       -6.838281    0.387964    0.175189
     12          6           0       -4.929089   -0.122563   -0.643159
     13          1           0       -4.347700   -1.011458   -0.865709
     14          1           0       -5.087080    0.411732   -1.569008
     15          8           0       -4.217093    0.740407    0.201736
     16          6           0       -3.530614    0.142572    1.266630
     17          1           0       -2.927258   -0.687635    0.910761
     18          1           0       -4.234758   -0.243497    1.999411
     19          6           0       -2.641519    1.162728    1.951079
     20          1           0       -2.323984    0.749486    2.900457
     21          1           0       -3.209116    2.067245    2.151334
     22          8           0       -1.459806    1.461426    1.263692
     23          6           0       -1.540585    2.396914    0.219020
     24          1           0       -2.014294    3.303450    0.592514
     25          1           0       -2.139781    2.019256   -0.594364
     26          6           0       -0.139289    2.740116   -0.255211
     27          1           0        0.472727    3.059573    0.579139
     28          1           0       -0.211152    3.575460   -0.941913
     29         16           0        0.740538    1.449657   -1.190704
     30          6           0        1.462301    0.402177    0.118179
     31          1           0        2.058978    1.033459    0.763813
     32          1           0        0.674531   -0.031698    0.708604
     33          6           0        2.317442   -0.683550   -0.526697
     34          1           0        3.082256   -0.261531   -1.163903
     35          1           0        1.699762   -1.310002   -1.158033
     36         16           0        3.074151   -1.843810    0.652658
     37          6           0        4.290952   -0.833331    1.557661
     38          1           0        4.742668   -1.526089    2.256082
     39          1           0        3.772317   -0.085927    2.144269
     40          6           0        5.384146   -0.147623    0.738665
     41          1           0        4.957857    0.601164    0.085705
     42          1           0        6.040394    0.368472    1.430678
     43         16           0        6.392470   -1.321722   -0.221329
     44          6           0        7.867365   -0.312162   -0.564820
     45          1           0        8.269997    0.052110    0.373372
     46          1           0        8.590900   -1.012377   -0.964640
     47          6           0        7.655926    0.833986   -1.548355
     48          1           0        6.956210    1.568947   -1.167570
     49          1           0        8.595887    1.344744   -1.734792
     50          1           0        7.274787    0.468457   -2.494312
 ---------------------------------------------------------------------
 Standard basis: 6-31G(d) (6D, 7F)
   372 basis functions,   752 primitive gaussians,   372 cartesian basis functions
    93 alpha electrons       93 beta electrons
 Requested convergence on RMS density matrix=1.00D-08 within  64 cycles.
 Requested convergence on MAX density matrix=1.00D-06.
 Requested convergence on             energy=1.00D-06.
 SCF Done:  E(RHF) =  -1964.69058323     A.U. after   12 cycles
            NFock= 12  Conv=0.33D-08     -V/T= 2.0006
 Step number   2 out of a maximum of   55
     Eigenvalues ---    0.00229   0.00230   0.00230   0.00230   0.00230
     Eigenvalues ---    0.00252   0.00440   0.00459   0.00466   0.00467
     Eigenvalues ---    0.00467   0.00546   0.00557   0.01484   0.01523
     Eigenvalues ---    0.01525   0.01536   0.01588   0.01599   0.04131
     Eigenvalues ---    0.04312   0.04329   0.04381   0.04597   0.04742
     Eigenvalues ---    0.04765   0.04887   0.05065   0.05240   0.05300
     Eigenvalues ---    0.05504   0.05506   0.05507   0.05647   0.05664
     Eigenvalues ---    0.05666   0.05712   0.05732   0.05734   0.05796
     Eigenvalues ---    0.05836   0.05890   0.05951   0.05964   0.06021
     Eigenvalues ---    0.06034   0.06112   0.11049   0.11072   0.11280
     Eigenvalues ---    0.11320   0.11359   0.11686   0.11720   0.11796
     Eigenvalues ---    0.11850   0.11895   0.11931   0.11957   0.13564
     Eigenvalues ---    0.13584   0.13747   0.13799   0.13883   0.13987
     Eigenvalues ---    0.14032   0.14071   0.14081   0.14145   0.14173
     Eigenvalues ---    0.14230   0.15994   0.16000   0.16000   0.16000
     Eigenvalues ---    0.16000   0.16011   0.21654   0.21940   0.21985
     Eigenvalues ---    0.22016   0.22022   0.22037   0.22043   0.22051
     Eigenvalues ---    0.22060   0.22064   0.22105   0.22380   0.23740
     Eigenvalues ---    0.24060   0.24311   0.24372   0.24432   0.24580
     Eigenvalues ---    0.24747   0.25000   0.25000   0.25000   0.25000
     Eigenvalues ---    0.26841   0.29933   0.30046   0.30106   0.30115
     Eigenvalues ---    0.30130   0.30593   0.30737   0.33386   0.33513
     Eigenvalues ---    0.33532   0.33565   0.33642   0.33763   0.33828
     Eigenvalues ---    0.33955   0.34090   0.34185   0.34194   0.34217
     Eigenvalues ---    0.34247   0.34281   0.34313   0.34328   0.34343
     Eigenvalues ---    0.34361   0.34365   0.34369   0.34380   0.34390
     Eigenvalues ---    0.34397   0.34403   0.34410   0.34431   0.34451
     Eigenvalues ---    0.34476   0.34705   0.37649   0.42299   0.43310
     Eigenvalues ---    0.43597   0.43703   0.44140   0.44567
 Maximum Force            0.006834     0.000015     NO 
 RMS     Force            0.001015     0.000010     NO 
 Maximum Displacement     1.015545     0.000060     NO 
 RMS     Displacement     0.303030     0.000040     NO 
                          Input orientation:                          
 ---------------------------------------------------------------------
 Center     Atomic      Atomic             Coordinates (Angstroms)
 Number     Number       Type             X           Y           Z
 ---------------------------------------------------------------------
      1          6           0       -9.024501   -1.137524   -0.428796
      2          1           0       -8.906523   -0.481550    0.424731
      3          1           0       -9.214784   -0.527127   -1.302609
      4          1           0       -9.895372   -1.757795   -0.248876
      5          6           0       -7.801108   -2.014485   -0.653470
      6          1           0       -7.594159   -2.612149    0.229855
      7          1           0       -7.986462   -2.695542   -1.471211
      8          8           0       -6.657880   -1.293050   -1.017120
      9          6           0       -6.017372   -0.579033   -0.005804
     10          1           0       -5.836248   -1.221929    0.850885
     11          1           0       -6.611343    0.262520    0.331022
     12          6           0       -4.713304   -0.064210   -0.593305
     13          1           0       -4.095415   -0.896287   -0.910595
     14          1           0       -4.938992    0.532943   -1.463274
     15          8           0       -4.019273    0.762558    0.296437
     16          6           0       -3.244055    0.125904    1.269751
     17          1           0       -2.601632   -0.620189    0.814456
     18          1           0       -3.874234   -0.371776    2.000957
     19          6           0       -2.391502    1.148805    1.992439
     20          1           0       -1.982191    0.686658    2.880634
     21          1           0       -3.013651    1.982146    2.300582
     22          8           0       -1.297263    1.599262    1.253226
     23          6           0       -1.537376    2.596725    0.300282
     24          1           0       -2.047311    3.436308    0.766591
     25          1           0       -2.160642    2.226141   -0.497871
     26          6           0       -0.205742    3.078503   -0.242184
     27          1           0        0.430754    3.392527    0.573463
     28          1           0       -0.374345    3.939274   -0.876542
     29         16           0        0.695809    1.890565   -1.278605
     30          6           0        1.247302    0.652215   -0.060020
     31          1           0        1.822819    1.158004    0.702569
     32          1           0        0.390947    0.198477    0.408259
     33          6           0        2.090109   -0.401012   -0.772032
     34          1           0        2.928105    0.046790   -1.285192
     35          1           0        1.495579   -0.904989   -1.521486
     36         16           0        2.674355   -1.742726    0.304687
     37          6           0        3.895767   -0.930547    1.378853
     38          1           0        4.225250   -1.716969    2.043146
     39          1           0        3.401621   -0.185313    1.986651
     40          6           0        5.103707   -0.284439    0.702243
     41          1           0        4.792480    0.536403    0.073097
     42          1           0        5.734372    0.126582    1.481028
     43         16           0        6.090469   -1.473984   -0.257731
     44          6           0        7.653723   -0.561949   -0.425912
     45          1           0        8.005994   -0.282267    0.558542
     46          1           0        8.351312   -1.291724   -0.814381
     47          6           0        7.602353    0.651833   -1.349277
     48          1           0        6.930820    1.414450   -0.974855
     49          1           0        8.588228    1.096380   -1.433181
     50          1           0        7.270808    0.370593   -2.340054
 ---------------------------------------------------------------------
 Stoichiometry    C14H30O3S3
 Framework group  C1[X(C14H30O3S3)]
                         Standard orientation:                         
 ---------------------------------------------------------------------
 Center     Atomic      Atomic             Coordinates (Angstroms)
 Number     Number       Type             X           Y           Z
 ---------------------------------------------------------------------
      1          6           0       -8.992705   -1.188275   -0.437834
      2          1           0       -8.881591   -0.508834    0.398075
      3          1           0       -9.176142   -0.602421   -1.329724
      4          1           0       -9.864887   -1.803632   -0.247680
      5          6           0       -7.767444   -2.070688   -0.628395
      6          1           0       -7.567420   -2.643543    0.272781
      7          1           0       -7.946213   -2.774234   -1.428371
      8          8           0       -6.621472   -1.359203   -1.002851
      9          6           0       -5.989104   -0.617176   -0.006690
     10          1           0       -5.814686   -1.235994    0.868911
     11          1           0       -6.585847    0.233181    0.301945
     12          6           0       -4.680493   -0.118376   -0.597899
     13          1           0       -4.059989   -0.958710   -0.887080
     14          1           0       -4.899361    0.454333   -1.485860
     15          8           0       -3.993655    0.733007    0.274034
     16          6           0       -3.226088    0.123878    1.270746
     17          1           0       -2.579969   -0.634325    0.841427
     18          1           0       -3.861973   -0.353556    2.010462
     19          6           0       -2.379437    1.166742    1.971509
     20          1           0       -1.977115    0.729558    2.875398
     21          1           0       -3.004128    2.008084    2.251477
     22          8           0       -1.279436    1.596916    1.228775
     23          6           0       -1.512128    2.567474    0.246655
     24          1           0       -2.025864    3.419484    0.685439
     25          1           0       -2.128994    2.174666   -0.545823
     26          6           0       -0.176304    3.034501   -0.298402
     27          1           0        0.453660    3.371261    0.513235
     28          1           0       -0.339995    3.877284   -0.957711
     29         16           0        0.733605    1.818597   -1.294296
     30          6           0        1.275596    0.614727   -0.037496
     31          1           0        1.844977    1.141684    0.715304
     32          1           0        0.415620    0.173843    0.436392
     33          6           0        2.124171   -0.457540   -0.713317
     34          1           0        2.966146   -0.023842   -1.232048
     35          1           0        1.535673   -0.982328   -1.453187
     36         16           0        2.700054   -1.768658    0.404803
     37          6           0        3.912796   -0.926553    1.465666
     38          1           0        4.237113   -1.694126    2.154109
     39          1           0        3.413740   -0.164925    2.048622
     40          6           0        5.125970   -0.299024    0.780982
     41          1           0        4.819623    0.503937    0.126862
     42          1           0        5.750382    0.133670    1.553036
     43         16           0        6.120481   -1.514383   -0.137777
     44          6           0        7.684890   -0.606799   -0.318805
     45          1           0        8.029304   -0.299788    0.660271
     46          1           0        8.385640   -1.346815   -0.681342
     47          6           0        7.640669    0.580884   -1.275865
     48          1           0        6.966080    1.353351   -0.928075
     49          1           0        8.627114    1.023290   -1.364258
     50          1           0        7.317030    0.272149   -2.261054
 ---------------------------------------------------------------------
 Standard basis: 6-31G(d) (6D, 7F)
   372 basis functions,   752 primitive gaussians,   372 cartesian basis functions
    93 alpha electrons       93 beta electrons
 Requested convergence on RMS density matrix=1.00D-08 within  64 cycles.
 Requested convergence on MAX density matrix=1.00D-06.
 Requested convergence on             energy=1.00D-06.
 SCF Done:  E(RHF) =  -1964.69026029     A.U. after   13 cycles
            NFock= 13  Conv=0.22D-08     -V/T= 2.0005
 Step number   3 out of a maximum of   55
     Eigenvalues ---    0.00226   0.00230   0.00230   0.00230   0.00233
     Eigenvalues ---    0.00430   0.00459   0.00464   0.00466   0.00467
     Eigenvalues ---    0.00467   0.00551   0.00683   0.01492   0.01513
     Eigenvalues ---    0.01526   0.01529   0.01594   0.01599   0.04151
     Eigenvalues ---    0.04334   0.04403   0.04609   0.04671   0.04761
     Eigenvalues ---    0.04895   0.04908   0.05100   0.05266   0.05507
     Eigenvalues ---    0.05510   0.05512   0.05615   0.05647   0.05656
     Eigenvalues ---    0.05682   0.05715   0.05737   0.05738   0.05811
     Eigenvalues ---    0.05894   0.05903   0.05964   0.05973   0.06031
     Eigenvalues ---    0.06090   0.06143   0.10818   0.11031   0.11151
     Eigenvalues ---    0.11216   0.11297   0.11620   0.11699   0.11752
     Eigenvalues ---    0.11779   0.11799   0.11860   0.11939   0.13561
     Eigenvalues ---    0.13569   0.13700   0.13765   0.13854   0.13939
     Eigenvalues ---    0.13985   0.14046   0.14066   0.14083   0.14092
     Eigenvalues ---    0.14165   0.15966   0.16000   0.16000   0.16000
     Eigenvalues ---    0.16000   0.16000   0.21212   0.21944   0.21997
     Eigenvalues ---    0.22022   0.22028   0.22039   0.22041   0.22049
     Eigenvalues ---    0.22061   0.22076   0.22088   0.23278   0.23784
     Eigenvalues ---    0.24004   0.24309   0.24391   0.24486   0.24554
     Eigenvalues ---    0.24693   0.24900   0.25000   0.25000   0.25000
     Eigenvalues ---    0.29848   0.29927   0.30048   0.30106   0.30112
     Eigenvalues ---    0.30176   0.30737   0.32269   0.33393   0.33514
     Eigenvalues ---    0.33538   0.33565   0.33671   0.33763   0.33865
     Eigenvalues ---    0.33985   0.34177   0.34194   0.34211   0.34242
     Eigenvalues ---    0.34254   0.34281   0.34313   0.34325   0.34344
     Eigenvalues ---    0.34360   0.34365   0.34368   0.34379   0.34389
     Eigenvalues ---    0.34397   0.34403   0.34410   0.34431   0.34452
     Eigenvalues ---    0.34474   0.34557   0.39779   0.41796   0.43310
     Eigenvalues ---    0.43584   0.43720   0.44393   0.44724
 Maximum Force            0.010936     0.000015     NO 
 RMS     Force            0.001361     0.000010     NO 
 Maximum Displacement     0.714599     0.000060     NO 
 RMS     Displacement     0.253652     0.000040     NO 
                          Input orientation:                          
 ---------------------------------------------------------------------
 Center     Atomic      Atomic             Coordinates (Angstroms)
 Number     Number       Type             X           Y           Z
 ---------------------------------------------------------------------
      1          6           0       -9.232164   -0.869187   -0.547731
      2          1           0       -9.095645   -0.176619    0.276355
      3          1           0       -9.340306   -0.294573   -1.461486
      4          1           0      -10.156390   -1.412664   -0.372889
      5          6           0       -8.069981   -1.845145   -0.674342
      6          1           0       -7.944207   -2.405452    0.251384
      7          1           0       -8.276324   -2.558486   -1.462481
      8          8           0       -6.862748   -1.229207   -1.027437
      9          6           0       -6.210824   -0.512977   -0.022853
     10          1           0       -6.106105   -1.125117    0.872391
     11          1           0       -6.754098    0.387374    0.252723
     12          6           0       -4.850138   -0.119150   -0.577113
     13          1           0       -4.285236   -1.011270   -0.834274
     14          1           0       -4.998513    0.454108   -1.482428
     15          8           0       -4.131780    0.693170    0.308150
     16          6           0       -3.435818    0.038008    1.329497
     17          1           0       -2.827347   -0.765947    0.921448
     18          1           0       -4.120849   -0.393368    2.058623
     19          6           0       -2.537787    1.028794    2.042783
     20          1           0       -2.180095    0.571458    2.958525
     21          1           0       -3.118796    1.909715    2.307113
     22          8           0       -1.402007    1.388237    1.314053
     23          6           0       -1.569594    2.366433    0.325257
     24          1           0       -2.048495    3.246150    0.756355
     25          1           0       -2.195307    2.004915   -0.480358
     26          6           0       -0.204702    2.771957   -0.201011
     27          1           0        0.435119    3.069683    0.621500
     28          1           0       -0.324916    3.632060   -0.850607
     29         16           0        0.656994    1.540224   -1.222752
     30          6           0        1.357891    0.407579    0.022684
     31          1           0        1.893055    0.994572    0.759556
     32          1           0        0.563265   -0.122040    0.523452
     33          6           0        2.295308   -0.570754   -0.678103
     34          1           0        3.075987   -0.049254   -1.217604
     35          1           0        1.746046   -1.158354   -1.404070
     36         16           0        3.032836   -1.809192    0.426894
     37          6           0        4.193651   -0.827658    1.421573
     38          1           0        4.586823   -1.534965    2.141603
     39          1           0        3.649081   -0.072130    1.975611
     40          6           0        5.341399   -0.149524    0.676916
     41          1           0        4.958292    0.578167   -0.027730
     42          1           0        5.937376    0.386636    1.408897
     43         16           0        6.417219   -1.344339   -0.174552
     44          6           0        7.888744   -0.316317   -0.457850
     45          1           0        8.220302    0.095883    0.489168
     46          1           0        8.648846   -1.017818   -0.781701
     47          6           0        7.717903    0.786841   -1.498438
     48          1           0        6.979414    1.519324   -1.189725
     49          1           0        8.659488    1.309613   -1.643942
     50          1           0        7.405132    0.374602   -2.451033
 ---------------------------------------------------------------------
 Stoichiometry    C14H30O3S3
 Framework group  C1[X(C14H30O3S3)]
                         Standard orientation:                         
 ---------------------------------------------------------------------
 Center     Atomic      Atomic             Coordinates (Angstroms)
 Number     Number       Type             X           Y           Z
 ---------------------------------------------------------------------
      1          6           0       -9.237220   -0.901926   -0.557375
      2          1           0       -9.105296   -0.185234    0.246585
      3          1           0       -9.342138   -0.354578   -1.488087
      4          1           0      -10.161447   -1.441438   -0.370666
      5          6           0       -8.073131   -1.879412   -0.650177
      6          1           0       -7.950652   -2.412081    0.292157
      7          1           0       -8.275007   -2.615919   -1.417901
      8          8           0       -6.865215   -1.272278   -1.015957
      9          6           0       -6.218719   -0.525845   -0.030027
     10          1           0       -6.117089   -1.111252    0.883271
     11          1           0       -6.764455    0.381387    0.216596
     12          6           0       -4.856156   -0.146404   -0.589686
     13          1           0       -4.288884   -1.044834   -0.818048
     14          1           0       -5.001343    0.399776   -1.512097
     15          8           0       -4.142835    0.692673    0.274442
     16          6           0       -3.450465    0.068868    1.317629
     17          1           0       -2.839082   -0.745803    0.936044
     18          1           0       -4.138097   -0.341937    2.056127
     19          6           0       -2.556965    1.081554    2.005394
     20          1           0       -2.202670    0.651870    2.935734
     21          1           0       -3.140359    1.968977    2.241181
     22          8           0       -1.418490    1.421156    1.271372
     23          6           0       -1.583085    2.369616    0.253531
     24          1           0       -2.065106    3.260891    0.656493
     25          1           0       -2.204741    1.983628   -0.543830
     26          6           0       -0.216457    2.761579   -0.278474
     27          1           0        0.419321    3.084321    0.537713
     28          1           0       -0.335008    3.602037   -0.953588
     29         16           0        0.651446    1.501666   -1.259803
     30          6           0        1.348432    0.407178    0.021430
     31          1           0        1.879528    1.016385    0.743057
     32          1           0        0.552348   -0.108706    0.534080
     33          6           0        2.290288   -0.589897   -0.646204
     34          1           0        3.072606   -0.083288   -1.197392
     35          1           0        1.745047   -1.199413   -1.356974
     36         16           0        3.024669   -1.794205    0.497921
     37          6           0        4.179725   -0.782097    1.468372
     38          1           0        4.570709   -1.467341    2.210588
     39          1           0        3.631668   -0.011445    1.997585
     40          6           0        5.329793   -0.124392    0.709116
     41          1           0        4.948778    0.581694   -0.018278
     42          1           0        5.921793    0.433953    1.427613
     43         16           0        6.411016   -1.342073   -0.102167
     44          6           0        7.882340   -0.320579   -0.409141
     45          1           0        8.209150    0.119776    0.526789
     46          1           0        8.644837   -1.030136   -0.708916
     47          6           0        7.714544    0.751261   -1.482439
     48          1           0        6.973682    1.491375   -1.198612
     49          1           0        8.656031    1.270965   -1.639139
     50          1           0        7.406545    0.310731   -2.423860
 ---------------------------------------------------------------------
 Standard basis: 6-31G(d) (6D, 7F)
   372 basis functions,   752 primitive gaussians,   372 cartesian basis functions
    93 alpha electrons       93 beta electrons
 Requested convergence on RMS density matrix=1.00D-08 within  64 cycles.
 Requested convergence on MAX density matrix=1.00D-06.
 Requested convergence on             energy=1.00D-06.
 SCF Done:  E(RHF) =  -1964.69097078     A.U. after   12 cycles
            NFock= 12  Conv=0.67D-08     -V/T= 2.0006
 Step number   4 out of a maximum of   55
     Eigenvalues ---    0.00216   0.00230   0.00230   0.00232   0.00238
     Eigenvalues ---    0.00411   0.00459   0.00465   0.00466   0.00467
     Eigenvalues ---    0.00484   0.00565   0.00793   0.01404   0.01501
     Eigenvalues ---    0.01526   0.01527   0.01597   0.01615   0.04193
     Eigenvalues ---    0.04350   0.04436   0.04673   0.04771   0.04830
     Eigenvalues ---    0.04911   0.05044   0.05129   0.05431   0.05507
     Eigenvalues ---    0.05524   0.05528   0.05610   0.05646   0.05686
     Eigenvalues ---    0.05689   0.05735   0.05746   0.05815   0.05860
     Eigenvalues ---    0.05890   0.05950   0.05983   0.06002   0.06060
     Eigenvalues ---    0.06125   0.06153   0.10947   0.11008   0.11154
     Eigenvalues ---    0.11251   0.11327   0.11572   0.11682   0.11763
     Eigenvalues ---    0.11808   0.11834   0.11881   0.11931   0.13534
     Eigenvalues ---    0.13565   0.13722   0.13733   0.13837   0.13958
     Eigenvalues ---    0.13984   0.14058   0.14068   0.14083   0.14123
     Eigenvalues ---    0.14351   0.15954   0.16000   0.16000   0.16000
     Eigenvalues ---    0.16000   0.16002   0.21590   0.21954   0.21999
     Eigenvalues ---    0.22028   0.22039   0.22042   0.22043   0.22053
     Eigenvalues ---    0.22063   0.22092   0.22790   0.23373   0.23692
     Eigenvalues ---    0.24037   0.24310   0.24390   0.24480   0.24607
     Eigenvalues ---    0.24718   0.24995   0.25000   0.25000   0.29004
     Eigenvalues ---    0.29909   0.30050   0.30094   0.30113   0.30184
     Eigenvalues ---    0.30358   0.31792   0.33381   0.33511   0.33522
     Eigenvalues ---    0.33565   0.33597   0.33756   0.33763   0.33908
     Eigenvalues ---    0.33997   0.34179   0.34193   0.34210   0.34236
     Eigenvalues ---    0.34278   0.34310   0.34320   0.34343   0.34357
     Eigenvalues ---    0.34359   0.34365   0.34378   0.34388   0.34397
     Eigenvalues ---    0.34401   0.34410   0.34417   0.34433   0.34451
     Eigenvalues ---    0.34479   0.37373   0.39035   0.41284   0.43349
     Eigenvalues ---    0.43598   0.43717   0.44342   0.45228
 Maximum Force            0.003581     0.000015     NO 
 RMS     Force            0.000560     0.000010     NO 
 Maximum Displacement     0.265876     0.000060     NO 
 RMS     Displacement     0.063689     0.000040     NO 
                          Input orientation:                          
 ---------------------------------------------------------------------
 Center     Atomic      Atomic             Coordinates (Angstroms)
 Number     Number       Type             X           Y           Z
 ---------------------------------------------------------------------
      1          6           0       -9.254200   -0.919087   -0.478338
      2          1           0       -9.111143   -0.221959    0.340578
      3          1           0       -9.385512   -0.349137   -1.391921
      4          1           0      -10.168562   -1.472592   -0.285016
      5          6           0       -8.082812   -1.881879   -0.621947
      6          1           0       -7.933846   -2.437894    0.302835
      7          1           0       -8.294402   -2.600143   -1.404021
      8          8           0       -6.889478   -1.253435   -0.998946
      9          6           0       -6.225485   -0.530289   -0.007888
     10          1           0       -6.095182   -1.142436    0.883755
     11          1           0       -6.774715    0.362237    0.280365
     12          6           0       -4.881177   -0.119385   -0.589611
     13          1           0       -4.311632   -1.003625   -0.862568
     14          1           0       -5.054346    0.455976   -1.489070
     15          8           0       -4.153752    0.697281    0.284102
     16          6           0       -3.422240    0.046273    1.282598
     17          1           0       -2.811620   -0.745510    0.854667
     18          1           0       -4.087323   -0.402594    2.019285
     19          6           0       -2.525103    1.043750    1.990879
     20          1           0       -2.153376    0.580944    2.897966
     21          1           0       -3.109525    1.917106    2.272222
     22          8           0       -1.393669    1.417268    1.261154
     23          6           0       -1.555913    2.418717    0.294649
     24          1           0       -2.033831    3.288702    0.745793
     25          1           0       -2.179929    2.079094   -0.520454
     26          6           0       -0.186981    2.831164   -0.216550
     27          1           0        0.449522    3.110133    0.614998
     28          1           0       -0.300421    3.704267   -0.849717
     29         16           0        0.676027    1.613468   -1.253650
     30          6           0        1.360867    0.454559   -0.023535
     31          1           0        1.909010    1.025338    0.715909
     32          1           0        0.559019   -0.063827    0.477271
     33          6           0        2.277201   -0.535742   -0.736586
     34          1           0        3.065902   -0.023971   -1.272777
     35          1           0        1.713825   -1.101127   -1.469280
     36         16           0        2.992310   -1.802405    0.353244
     37          6           0        4.158569   -0.859528    1.380515
     38          1           0        4.539884   -1.587359    2.086208
     39          1           0        3.618479   -0.113431    1.951193
     40          6           0        5.321645   -0.176337    0.662684
     41          1           0        4.954646    0.572733   -0.027273
     42          1           0        5.916090    0.335639    1.412736
     43         16           0        6.396086   -1.360405   -0.206043
     44          6           0        7.900992   -0.360919   -0.408551
     45          1           0        8.218292    0.001565    0.563240
     46          1           0        8.652521   -1.066369   -0.743629
     47          6           0        7.785681    0.790019   -1.404229
     48          1           0        7.058521    1.527964   -1.082623
     49          1           0        8.743526    1.293510   -1.503247
     50          1           0        7.487559    0.427676   -2.381377
 ---------------------------------------------------------------------
 Stoichiometry    C14H30O3S3
 Framework group  C1[X(C14H30O3S3)]
                         Standard orientation:                         
 ---------------------------------------------------------------------
 Center     Atomic      Atomic             Coordinates (Angstroms)
 Number     Number       Type             X           Y           Z
 ---------------------------------------------------------------------
      1          6           0       -9.254798   -0.935501   -0.500373
      2          1           0       -9.116689   -0.223835    0.306802
      3          1           0       -9.380357   -0.381990   -1.424808
      4          1           0      -10.170434   -1.485399   -0.302836
      5          6           0       -8.082711   -1.900784   -0.619472
      6          1           0       -7.939566   -2.440164    0.316019
      7          1           0       -8.289584   -2.632920   -1.389858
      8          8           0       -6.886959   -1.279264   -1.000268
      9          6           0       -6.228984   -0.538535   -0.018225
     10          1           0       -6.104305   -1.134629    0.885023
     11          1           0       -6.779831    0.359044    0.250601
     12          6           0       -4.881031   -0.138195   -0.598880
     13          1           0       -4.309963   -1.027216   -0.852435
     14          1           0       -5.048533    0.420982   -1.509549
     15          8           0       -4.158884    0.693935    0.264558
     16          6           0       -3.433676    0.060860    1.279056
     17          1           0       -2.820558   -0.738495    0.869155
     18          1           0       -4.103381   -0.374705    2.019530
     19          6           0       -2.540764    1.070801    1.974906
     20          1           0       -2.174736    0.624285    2.892415
     21          1           0       -3.126764    1.949091    2.236947
     22          8           0       -1.404772    1.431124    1.245627
     23          6           0       -1.560860    2.415121    0.260365
     24          1           0       -2.041409    3.293073    0.692896
     25          1           0       -2.179881    2.061000   -0.552375
     26          6           0       -0.188721    2.818264   -0.249655
     27          1           0        0.442674    3.112034    0.580689
     28          1           0       -0.298090    3.679900   -0.899040
     29         16           0        0.680475    1.582143   -1.259430
     30          6           0        1.357491    0.445398   -0.004552
     31          1           0        1.901148    1.029288    0.727934
     32          1           0        0.552470   -0.063889    0.500482
     33          6           0        2.278047   -0.557567   -0.694077
     34          1           0        3.070138   -0.055527   -1.234452
     35          1           0        1.719116   -1.135943   -1.420004
     36         16           0        2.986180   -1.804562    0.422658
     37          6           0        4.146225   -0.843519    1.440083
     38          1           0        4.523041   -1.558624    2.161039
     39          1           0        3.602745   -0.087292    1.993960
     40          6           0        5.313838   -0.173362    0.717349
     41          1           0        4.951245    0.563260    0.011835
     42          1           0        5.903721    0.351922    1.461780
     43         16           0        6.393427   -1.372860   -0.123377
     44          6           0        7.899731   -0.377254   -0.334428
     45          1           0        8.211076    0.002549    0.632664
     46          1           0        8.653196   -1.088637   -0.652166
     47          6           0        7.790781    0.755682   -1.351244
     48          1           0        7.061774    1.499312   -1.047406
     49          1           0        8.749308    1.257260   -1.453329
     50          1           0        7.498647    0.375923   -2.323576
 ---------------------------------------------------------------------
 Standard basis: 6-31G(d) (6D, 7F)
   372 basis functions,   752 primitive gaussians,   372 cartesian basis functions
    93 alpha electrons       93 beta electrons
 Requested convergence on RMS density matrix=1.00D-08 within  64 cycles.
 Requested convergence on MAX density matrix=1.00D-06.
 Requested convergence on             energy=1.00D-06.
 SCF Done:  E(RHF) =  -1964.69111186     A.U. after   11 cycles
            NFock= 11  Conv=0.70D-08     -V/T= 2.0006
 Step number   5 out of a maximum of   55
     Eigenvalues ---    0.00220   0.00229   0.00230   0.00233   0.00238
     Eigenvalues ---    0.00396   0.00459   0.00460   0.00466   0.00467
     Eigenvalues ---    0.00482   0.00584   0.00780   0.01252   0.01500
     Eigenvalues ---    0.01525   0.01527   0.01594   0.01667   0.04178
     Eigenvalues ---    0.04347   0.04432   0.04657   0.04769   0.04792
     Eigenvalues ---    0.04915   0.05099   0.05138   0.05498   0.05523
     Eigenvalues ---    0.05526   0.05533   0.05588   0.05652   0.05686
     Eigenvalues ---    0.05693   0.05734   0.05742   0.05819   0.05869
     Eigenvalues ---    0.05893   0.05939   0.05975   0.05992   0.06087
     Eigenvalues ---    0.06120   0.06229   0.10986   0.11029   0.11237
     Eigenvalues ---    0.11279   0.11352   0.11572   0.11656   0.11762
     Eigenvalues ---    0.11795   0.11841   0.11891   0.11925   0.13532
     Eigenvalues ---    0.13571   0.13718   0.13806   0.13848   0.13955
     Eigenvalues ---    0.13991   0.14062   0.14067   0.14111   0.14120
     Eigenvalues ---    0.14209   0.15967   0.15999   0.16000   0.16000
     Eigenvalues ---    0.16001   0.16001   0.21564   0.21964   0.21980
     Eigenvalues ---    0.22025   0.22031   0.22041   0.22043   0.22052
     Eigenvalues ---    0.22063   0.22137   0.23049   0.23430   0.23903
     Eigenvalues ---    0.24125   0.24309   0.24397   0.24495   0.24592
     Eigenvalues ---    0.24826   0.24981   0.25000   0.25301   0.29269
     Eigenvalues ---    0.29864   0.30026   0.30048   0.30100   0.30122
     Eigenvalues ---    0.30174   0.33331   0.33391   0.33512   0.33528
     Eigenvalues ---    0.33582   0.33660   0.33729   0.33765   0.33879
     Eigenvalues ---    0.33985   0.34179   0.34194   0.34214   0.34241
     Eigenvalues ---    0.34282   0.34305   0.34334   0.34344   0.34353
     Eigenvalues ---    0.34365   0.34374   0.34379   0.34389   0.34397
     Eigenvalues ---    0.34403   0.34410   0.34431   0.34451   0.34473
     Eigenvalues ---    0.36601   0.37344   0.37639   0.41323   0.43413
     Eigenvalues ---    0.43600   0.43720   0.44401   0.46383
 Maximum Force            0.000948     0.000015     NO 
 RMS     Force            0.000162     0.000010     NO 
 Maximum Displacement     0.129651     0.000060     NO 
 RMS     Displacement     0.033606     0.000040     NO 
                          Input orientation:                          
 ---------------------------------------------------------------------
 Center     Atomic      Atomic             Coordinates (Angstroms)
 Number     Number       Type             X           Y           Z
 ---------------------------------------------------------------------
      1          6           0       -9.248027   -0.900802   -0.531693
      2          1           0       -9.112961   -0.185653    0.272630
      3          1           0       -9.358406   -0.351713   -1.460529
      4          1           0      -10.170345   -1.441547   -0.341361
      5          6           0       -8.083039   -1.876839   -0.631641
      6          1           0       -7.955304   -2.412791    0.307798
      7          1           0       -8.286912   -2.611084   -1.400553
      8          8           0       -6.877579   -1.267692   -1.001520
      9          6           0       -6.221142   -0.533570   -0.013931
     10          1           0       -6.107141   -1.132490    0.888518
     11          1           0       -6.768315    0.366390    0.253197
     12          6           0       -4.866399   -0.141187   -0.584096
     13          1           0       -4.301037   -1.032874   -0.839866
     14          1           0       -5.022662    0.425290   -1.492045
     15          8           0       -4.143533    0.679111    0.289907
     16          6           0       -3.418739    0.033086    1.296419
     17          1           0       -2.804321   -0.759177    0.875473
     18          1           0       -4.088228   -0.414055    2.029655
     19          6           0       -2.528698    1.034800    2.006979
     20          1           0       -2.156049    0.576255    2.915703
     21          1           0       -3.117514    1.905977    2.284541
     22          8           0       -1.399907    1.412932    1.276230
     23          6           0       -1.569145    2.412482    0.309357
     24          1           0       -2.055250    3.277661    0.760382
     25          1           0       -2.190875    2.066415   -0.504573
     26          6           0       -0.203024    2.834637   -0.202306
     27          1           0        0.429652    3.123870    0.628442
     28          1           0       -0.323166    3.703030   -0.840376
     29         16           0        0.671827    1.616484   -1.229016
     30          6           0        1.366689    0.474490    0.011076
     31          1           0        1.923813    1.056434    0.734454
     32          1           0        0.569002   -0.031931    0.529845
     33          6           0        2.272773   -0.530809   -0.694849
     34          1           0        3.059061   -0.030941   -1.244974
     35          1           0        1.699990   -1.101520   -1.415815
     36         16           0        2.989483   -1.788195    0.405791
     37          6           0        4.179891   -0.846451    1.406975
     38          1           0        4.573853   -1.572597    2.107176
     39          1           0        3.653853   -0.098099    1.987352
     40          6           0        5.331795   -0.170327    0.663768
     41          1           0        4.955129    0.577381   -0.021819
     42          1           0        5.942757    0.342750    1.399329
     43         16           0        6.386486   -1.361498   -0.220079
     44          6           0        7.894371   -0.372658   -0.452870
     45          1           0        8.234974   -0.015011    0.512632
     46          1           0        8.634033   -1.081937   -0.805458
     47          6           0        7.766392    0.781538   -1.443303
     48          1           0        7.051666    1.523734   -1.104736
     49          1           0        8.725191    1.278646   -1.561530
     50          1           0        7.445040    0.424054   -2.414691
 ---------------------------------------------------------------------
 Stoichiometry    C14H30O3S3
 Framework group  C1[X(C14H30O3S3)]
                         Standard orientation:                         
 ---------------------------------------------------------------------
 Center     Atomic      Atomic             Coordinates (Angstroms)
 Number     Number       Type             X           Y           Z
 ---------------------------------------------------------------------
      1          6           0       -9.247914   -0.919835   -0.551862
      2          1           0       -9.117275   -0.186971    0.237100
      3          1           0       -9.352849   -0.391549   -1.493308
      4          1           0      -10.171435   -1.456103   -0.354816
      5          6           0       -8.082610   -1.897988   -0.623391
      6          1           0       -7.960375   -2.412906    0.328462
      7          1           0       -8.282262   -2.649147   -1.376919
      8          8           0       -6.874908   -1.297365   -0.999839
      9          6           0       -6.223949   -0.541512   -0.025100
     10          1           0       -6.115253   -1.120205    0.891096
     11          1           0       -6.772422    0.364234    0.218792
     12          6           0       -4.865874   -0.162076   -0.596102
     13          1           0       -4.299276   -1.059301   -0.828719
     14          1           0       -5.016808    0.384064   -1.517316
     15          8           0       -4.147817    0.677394    0.263543
     16          6           0       -3.428944    0.053856    1.288316
     17          1           0       -2.812322   -0.747653    0.888634
     18          1           0       -4.102721   -0.376773    2.027484
     19          6           0       -2.542737    1.071040    1.981477
     20          1           0       -2.175399    0.632798    2.902302
     21          1           0       -3.132919    1.948248    2.236204
     22          8           0       -1.409696    1.432679    1.248960
     23          6           0       -1.573163    2.410475    0.259120
     24          1           0       -2.061629    3.285537    0.687985
     25          1           0       -2.190315    2.046443   -0.550446
     26          6           0       -0.204038    2.820977   -0.253992
     27          1           0        0.423949    3.128562    0.573716
     28          1           0       -0.320322    3.674962   -0.911914
     29         16           0        0.676372    1.580167   -1.248307
     30          6           0        1.363859    0.465986    0.020856
     31          1           0        1.916980    1.063828    0.734273
     32          1           0        0.563097   -0.028668    0.546200
     33          6           0        2.273719   -0.554884   -0.657320
     34          1           0        3.063260   -0.067478   -1.213930
     35          1           0        1.704929   -1.141440   -1.368665
     36         16           0        2.983824   -1.787536    0.475122
     37          6           0        4.168717   -0.823871    1.461884
     38          1           0        4.558495   -1.534293    2.180319
     39          1           0        3.639552   -0.062723    2.022439
     40          6           0        5.325013   -0.164593    0.710409
     41          1           0        4.952453    0.567709    0.006203
     42          1           0        5.931885    0.364663    1.437848
     43         16           0        6.384451   -1.375267   -0.140653
     44          6           0        7.893881   -0.392029   -0.386772
     45          1           0        8.229046   -0.013013    0.572460
     46          1           0        8.635374   -1.109067   -0.719247
     47          6           0        7.771844    0.739845   -1.403372
     48          1           0        7.055374    1.489477   -1.085506
     49          1           0        8.731423    1.234088   -1.527151
     50          1           0        7.455962    0.360859   -2.368382
 ---------------------------------------------------------------------
 Standard basis: 6-31G(d) (6D, 7F)
   372 basis functions,   752 primitive gaussians,   372 cartesian basis functions
    93 alpha electrons       93 beta electrons
 Requested convergence on RMS density matrix=1.00D-08 within  64 cycles.
 Requested convergence on MAX density matrix=1.00D-06.
 Requested convergence on             energy=1.00D-06.
 SCF Done:  E(RHF) =  -1964.69113153     A.U. after   11 cycles
            NFock= 11  Conv=0.45D-08     -V/T= 2.0006
 Step number   6 out of a maximum of   55
     Eigenvalues ---    0.00209   0.00226   0.00231   0.00235   0.00270
     Eigenvalues ---    0.00390   0.00439   0.00459   0.00466   0.00474
     Eigenvalues ---    0.00481   0.00571   0.00751   0.00971   0.01495
     Eigenvalues ---    0.01525   0.01527   0.01592   0.01668   0.04161
     Eigenvalues ---    0.04355   0.04441   0.04657   0.04770   0.04858
     Eigenvalues ---    0.04921   0.05096   0.05177   0.05497   0.05521
     Eigenvalues ---    0.05526   0.05530   0.05655   0.05683   0.05694
     Eigenvalues ---    0.05733   0.05733   0.05802   0.05818   0.05886
     Eigenvalues ---    0.05889   0.05952   0.05971   0.06015   0.06110
     Eigenvalues ---    0.06163   0.06229   0.11026   0.11063   0.11216
     Eigenvalues ---    0.11280   0.11386   0.11586   0.11733   0.11776
     Eigenvalues ---    0.11790   0.11856   0.11890   0.11982   0.13546
     Eigenvalues ---    0.13606   0.13720   0.13816   0.13861   0.13945
     Eigenvalues ---    0.13998   0.14054   0.14075   0.14098   0.14109
     Eigenvalues ---    0.14556   0.15960   0.15999   0.16000   0.16000
     Eigenvalues ---    0.16001   0.16006   0.21260   0.21823   0.21966
     Eigenvalues ---    0.22008   0.22028   0.22040   0.22044   0.22050
     Eigenvalues ---    0.22094   0.22211   0.23338   0.23431   0.23863
     Eigenvalues ---    0.24073   0.24306   0.24399   0.24483   0.24670
     Eigenvalues ---    0.24819   0.25000   0.25009   0.27827   0.29378
     Eigenvalues ---    0.29893   0.29963   0.30057   0.30103   0.30143
     Eigenvalues ---    0.31100   0.33346   0.33411   0.33493   0.33515
     Eigenvalues ---    0.33567   0.33696   0.33720   0.33783   0.33877
     Eigenvalues ---    0.33972   0.34178   0.34194   0.34211   0.34234
     Eigenvalues ---    0.34280   0.34316   0.34323   0.34341   0.34364
     Eigenvalues ---    0.34368   0.34375   0.34387   0.34397   0.34401
     Eigenvalues ---    0.34409   0.34413   0.34434   0.34451   0.34481
     Eigenvalues ---    0.35756   0.37049   0.38205   0.42804   0.43411
     Eigenvalues ---    0.43590   0.43732   0.44687   0.46415
 Maximum Force            0.000456     0.000015     NO 
 RMS     Force            0.000088     0.000010     NO 
 Maximum Displacement     0.078273     0.000060     NO 
 RMS     Displacement     0.020932     0.000040     NO 
                          Input orientation:                          
 ---------------------------------------------------------------------
 Center     Atomic      Atomic             Coordinates (Angstroms)
 Number     Number       Type             X           Y           Z
 ---------------------------------------------------------------------
      1          6           0       -9.252903   -0.879423   -0.530737
      2          1           0       -9.114193   -0.152927    0.262710
      3          1           0       -9.355392   -0.344036   -1.468420
      4          1           0      -10.180498   -1.409106   -0.335127
      5          6           0       -8.096089   -1.866884   -0.611442
      6          1           0       -7.976491   -2.389677    0.336428
      7          1           0       -8.303438   -2.610956   -1.369928
      8          8           0       -6.884149   -1.273402   -0.985628
      9          6           0       -6.222685   -0.534722   -0.004845
     10          1           0       -6.111920   -1.126133    0.902958
     11          1           0       -6.764085    0.370938    0.254596
     12          6           0       -4.865597   -0.155895   -0.578308
     13          1           0       -4.307381   -1.053305   -0.829484
     14          1           0       -5.017698    0.406828   -1.489323
     15          8           0       -4.136586    0.663192    0.291775
     16          6           0       -3.407432    0.015809    1.294244
     17          1           0       -2.794111   -0.775158    0.869389
     18          1           0       -4.073695   -0.433275    2.029272
     19          6           0       -2.515333    1.017038    2.002659
     20          1           0       -2.136545    0.556600    2.907868
     21          1           0       -3.104020    1.886362    2.286148
     22          8           0       -1.391722    1.399064    1.265932
     23          6           0       -1.567395    2.404236    0.305967
     24          1           0       -2.052576    3.265895    0.764646
     25          1           0       -2.192860    2.062093   -0.506763
     26          6           0       -0.204581    2.831361   -0.210431
     27          1           0        0.431475    3.119021    0.618296
     28          1           0       -0.329556    3.701668   -0.844894
     29         16           0        0.667292    1.617745   -1.245006
     30          6           0        1.368967    0.473997   -0.010496
     31          1           0        1.931520    1.054808    0.709741
     32          1           0        0.573997   -0.031848    0.512944
     33          6           0        2.269758   -0.531474   -0.722856
     34          1           0        3.053857   -0.031781   -1.276247
     35          1           0        1.692631   -1.100399   -1.441765
     36         16           0        2.990405   -1.791143    0.372271
     37          6           0        4.164574   -0.846354    1.389590
     38          1           0        4.552424   -1.572173    2.093539
     39          1           0        3.628650   -0.100745    1.964485
     40          6           0        5.323396   -0.165602    0.661573
     41          1           0        4.953116    0.581299   -0.028278
     42          1           0        5.923459    0.349066    1.404959
     43         16           0        6.392671   -1.353203   -0.209601
     44          6           0        7.899101   -0.358563   -0.425930
     45          1           0        8.224318    0.005750    0.542400
     46          1           0        8.646735   -1.066518   -0.764038
     47          6           0        7.780255    0.789628   -1.424472
     48          1           0        7.057629    1.530538   -1.100169
     49          1           0        8.738453    1.290309   -1.531868
     50          1           0        7.474249    0.425457   -2.398332
 ---------------------------------------------------------------------
 Stoichiometry    C14H30O3S3
 Framework group  C1[X(C14H30O3S3)]
                         Standard orientation:                         
 ---------------------------------------------------------------------
 Center     Atomic      Atomic             Coordinates (Angstroms)
 Number     Number       Type             X           Y           Z
 ---------------------------------------------------------------------
      1          6           0       -9.253752   -0.887436   -0.557743
      2          1           0       -9.119169   -0.149104    0.225423
      3          1           0       -9.350107   -0.366247   -1.504036
      4          1           0      -10.182987   -1.413340   -0.359731
      5          6           0       -8.097365   -1.876946   -0.616484
      6          1           0       -7.983953   -2.385402    0.339907
      7          1           0       -8.300812   -2.632266   -1.364841
      8          8           0       -6.882657   -1.290189   -0.992299
      9          6           0       -6.226448   -0.537259   -0.018850
     10          1           0       -6.121689   -1.114926    0.898466
     11          1           0       -6.768584    0.372670    0.223559
     12          6           0       -4.865588   -0.168272   -0.589785
     13          1           0       -4.306679   -1.069841   -0.823953
     14          1           0       -5.011689    0.380694   -1.510127
     15          8           0       -4.141093    0.663322    0.272167
     16          6           0       -3.418577    0.030624    1.288719
     17          1           0       -2.803422   -0.767192    0.879614
     18          1           0       -4.089662   -0.406721    2.026434
     19          6           0       -2.529859    1.041757    1.987248
     20          1           0       -2.156948    0.594791    2.901604
     21          1           0       -3.119459    1.915756    2.253968
     22          8           0       -1.401485    1.411655    1.251613
     23          6           0       -1.570463    2.402297    0.275478
     24          1           0       -2.057621    3.271205    0.718104
     25          1           0       -2.191329    2.048376   -0.535733
     26          6           0       -0.204178    2.820436   -0.239097
     27          1           0        0.427132    3.120114    0.589000
     28          1           0       -0.324543    3.681123   -0.887424
     29         16           0        0.672817    1.590564   -1.249873
     30          6           0        1.366008    0.465099    0.006047
     31          1           0        1.924735    1.056308    0.720781
[...]
     18          1           0       -4.042714   -0.560299    2.005522
     19          6           0       -2.504796    0.912577    1.985311
     20          1           0       -2.124991    0.459842    2.893952
     21          1           0       -3.108046    1.773726    2.263059
     22          8           0       -1.381743    1.309399    1.255210
     23          6           0       -1.566766    2.308337    0.289916
     24          1           0       -2.068075    3.164094    0.742247
     25          1           0       -2.181191    1.953252   -0.525620
     26          6           0       -0.208043    2.755974   -0.219165
     27          1           0        0.418671    3.056247    0.612182
     28          1           0       -0.344120    3.622703   -0.856285
     29         16           0        0.689976    1.555775   -1.247322
     30          6           0        1.403573    0.425311   -0.007130
     31          1           0        1.950280    1.016186    0.717286
     32          1           0        0.613693   -0.095136    0.509562
     33          6           0        2.327761   -0.562930   -0.712803
     34          1           0        3.105576   -0.049155   -1.262388
     35          1           0        1.766179   -1.144895   -1.433592
     36         16           0        3.066963   -1.806744    0.387483
     37          6           0        4.223066   -0.838451    1.403338
     38          1           0        4.629894   -1.558296    2.102716
     39          1           0        3.672227   -0.107312    1.982644
     40          6           0        5.362132   -0.127691    0.673539
     41          1           0        4.971174    0.616082   -0.008430
     42          1           0        5.955502    0.394291    1.417221
     43         16           0        6.451116   -1.285256   -0.213392
     44          6           0        7.930580   -0.252593   -0.437290
     45          1           0        8.255469    0.114071    0.530262
     46          1           0        8.691981   -0.940442   -0.785989
     47          6           0        7.774590    0.897742   -1.427983
     48          1           0        7.036831    1.618894   -1.093282
     49          1           0        8.719200    1.422484   -1.540932
     50          1           0        7.469047    0.531522   -2.401229
 ---------------------------------------------------------------------
 Stoichiometry    C14H30O3S3
 Framework group  C1[X(C14H30O3S3)]
                         Standard orientation:                         
 ---------------------------------------------------------------------
 Center     Atomic      Atomic             Coordinates (Angstroms)
 Number     Number       Type             X           Y           Z
 ---------------------------------------------------------------------
      1          6           0       -9.312885   -0.605163   -0.700132
      2          1           0       -9.139243    0.196418    0.009688
      3          1           0       -9.322019   -0.180016   -1.697839
      4          1           0      -10.295108   -1.020797   -0.495502
      5          6           0       -8.254354   -1.695585   -0.602270
      6          1           0       -8.231042   -2.113878    0.402848
      7          1           0       -8.495552   -2.500843   -1.284517
      8          8           0       -6.974656   -1.258648   -0.968209
      9          6           0       -6.281497   -0.503102   -0.022608
     10          1           0       -6.226275   -1.039219    0.923861
     11          1           0       -6.764179    0.451649    0.166877
     12          6           0       -4.891294   -0.253981   -0.585943
     13          1           0       -4.399329   -1.201132   -0.786644
     14          1           0       -4.982352    0.277954   -1.523399
     15          8           0       -4.121967    0.543712    0.270496
     16          6           0       -3.400228   -0.128539    1.262303
     17          1           0       -2.773560   -0.899333    0.820589
     18          1           0       -4.072486   -0.607719    1.972625
     19          6           0       -2.527608    0.857393    2.014578
     20          1           0       -2.155412    0.370345    2.908504
     21          1           0       -3.128491    1.710909    2.319673
     22          8           0       -1.398328    1.274782    1.305863
     23          6           0       -1.572854    2.308761    0.376168
     24          1           0       -2.072877    3.150096    0.856133
     25          1           0       -2.184000    1.986314   -0.455234
     26          6           0       -0.209007    2.767812   -0.108461
     27          1           0        0.414076    3.034854    0.736836
     28          1           0       -0.337185    3.657601   -0.714683
     29         16           0        0.689579    1.601082   -1.173968
     30          6           0        1.390390    0.423170    0.028792
     31          1           0        1.935472    0.984868    0.777246
     32          1           0        0.594984   -0.111697    0.521734
     33          6           0        2.314189   -0.543496   -0.706646
     34          1           0        3.097698   -0.014051   -1.232770
     35          1           0        1.754252   -1.096347   -1.451240
     36         16           0        3.040919   -1.829764    0.352363
     37          6           0        4.195385   -0.904383    1.409248
     38          1           0        4.594618   -1.650952    2.084573
     39          1           0        3.644485   -0.191919    2.011317
     40          6           0        5.342143   -0.173354    0.712254
     41          1           0        4.958786    0.596423    0.055283
     42          1           0        5.933449    0.318573    1.477748
     43         16           0        6.431036   -1.303503   -0.209464
     44          6           0        7.916634   -0.270684   -0.387287
     45          1           0        8.237390    0.059270    0.594751
     46          1           0        8.676901   -0.949229   -0.756107
     47          6           0        7.772001    0.915366   -1.336731
     48          1           0        7.035615    1.627581   -0.980559
     49          1           0        8.719717    1.439215   -1.425137
     50          1           0        7.470627    0.585967   -2.324330
 ---------------------------------------------------------------------
 Standard basis: 6-31G(d) (6D, 7F)
   372 basis functions,   752 primitive gaussians,   372 cartesian basis functions
    93 alpha electrons       93 beta electrons
 Requested convergence on RMS density matrix=1.00D-08 within  64 cycles.
 Requested convergence on MAX density matrix=1.00D-06.
 Requested convergence on             energy=1.00D-06.
 SCF Done:  E(RHF) =  -1964.69116702     A.U. after    4 cycles
            NFock=  4  Conv=0.24D-08     -V/T= 2.0006
 Step number  31 out of a maximum of   55
     Eigenvalues ---    0.00134   0.00183   0.00246   0.00263   0.00341
     Eigenvalues ---    0.00367   0.00401   0.00423   0.00445   0.00450
     Eigenvalues ---    0.00484   0.00532   0.00593   0.00654   0.00696
     Eigenvalues ---    0.00839   0.00963   0.01100   0.01555   0.04488
     Eigenvalues ---    0.04653   0.04774   0.04817   0.04875   0.05068
     Eigenvalues ---    0.05103   0.05236   0.05340   0.05517   0.05542
     Eigenvalues ---    0.05565   0.05599   0.05682   0.05707   0.05733
     Eigenvalues ---    0.05758   0.05793   0.05834   0.05896   0.05928
     Eigenvalues ---    0.05972   0.05979   0.06014   0.06077   0.06151
     Eigenvalues ---    0.06259   0.06402   0.10942   0.11063   0.11221
     Eigenvalues ---    0.11436   0.11548   0.11647   0.11790   0.11805
     Eigenvalues ---    0.11865   0.11972   0.12163   0.12389   0.13388
     Eigenvalues ---    0.13597   0.13830   0.13880   0.13954   0.13991
     Eigenvalues ---    0.14021   0.14080   0.14146   0.14218   0.14424
     Eigenvalues ---    0.14858   0.15963   0.15964   0.16004   0.16028
     Eigenvalues ---    0.16046   0.16182   0.20728   0.21383   0.21682
     Eigenvalues ---    0.21969   0.22114   0.22223   0.22410   0.22596
     Eigenvalues ---    0.22986   0.23329   0.23782   0.24071   0.24319
     Eigenvalues ---    0.24369   0.24494   0.24668   0.24758   0.25070
     Eigenvalues ---    0.25326   0.26150   0.28841   0.29551   0.29856
     Eigenvalues ---    0.30078   0.30115   0.30164   0.30592   0.31714
     Eigenvalues ---    0.32541   0.33355   0.33434   0.33527   0.33559
     Eigenvalues ---    0.33578   0.33716   0.33787   0.33862   0.33967
     Eigenvalues ---    0.34144   0.34196   0.34224   0.34242   0.34280
     Eigenvalues ---    0.34307   0.34341   0.34360   0.34375   0.34394
     Eigenvalues ---    0.34402   0.34408   0.34433   0.34464   0.34487
     Eigenvalues ---    0.34506   0.34584   0.34669   0.35161   0.36098
     Eigenvalues ---    0.37113   0.37494   0.39759   0.41425   0.43638
     Eigenvalues ---    0.43921   0.44104   0.44901   0.48562
 Maximum Force            0.000000     0.000015     YES
 RMS     Force            0.000000     0.000010     YES
 Maximum Displacement     0.000058     0.000060     YES
 RMS     Displacement     0.000019     0.000040     YES
 Optimization completed.
    -- Stationary point found.
                          Input orientation:                          
 ---------------------------------------------------------------------
 Center     Atomic      Atomic             Coordinates (Angstroms)
 Number     Number       Type             X           Y           Z
 ---------------------------------------------------------------------
      1          6           0       -9.298635   -0.678663   -0.633928
      2          1           0       -9.124757    0.148807    0.045474
      3          1           0       -9.315694   -0.289836   -1.646239
      4          1           0      -10.277598   -1.091230   -0.408526
      5          6           0       -8.234231   -1.759886   -0.503207
      6          1           0       -8.202985   -2.141531    0.516177
      7          1           0       -8.475484   -2.590352   -1.154516
      8          8           0       -6.958851   -1.330460   -0.892374
      9          6           0       -6.263864   -0.538059    0.021177
     10          1           0       -6.200477   -1.039416    0.986007
     11          1           0       -6.750088    0.420640    0.179030
     12          6           0       -4.878220   -0.302929   -0.559149
     13          1           0       -4.382816   -1.254395   -0.728540
     14          1           0       -4.977370    0.194407   -1.514604
     15          8           0       -4.107796    0.528730    0.263321
     16          6           0       -3.376980   -0.103921    1.274346
     17          1           0       -2.749151   -0.887212    0.856933
     18          1           0       -4.042714   -0.560299    2.005522
     19          6           0       -2.504796    0.912577    1.985311
     20          1           0       -2.124991    0.459842    2.893952
     21          1           0       -3.108046    1.773726    2.263059
     22          8           0       -1.381743    1.309399    1.255210
     23          6           0       -1.566766    2.308337    0.289916
     24          1           0       -2.068075    3.164094    0.742247
     25          1           0       -2.181191    1.953252   -0.525620
     26          6           0       -0.208043    2.755974   -0.219165
     27          1           0        0.418671    3.056247    0.612182
     28          1           0       -0.344120    3.622703   -0.856285
     29         16           0        0.689976    1.555775   -1.247322
     30          6           0        1.403573    0.425311   -0.007130
     31          1           0        1.950280    1.016186    0.717286
     32          1           0        0.613693   -0.095136    0.509562
     33          6           0        2.327761   -0.562930   -0.712803
     34          1           0        3.105576   -0.049155   -1.262388
     35          1           0        1.766179   -1.144895   -1.433592
     36         16           0        3.066963   -1.806744    0.387483
     37          6           0        4.223066   -0.838451    1.403338
     38          1           0        4.629894   -1.558296    2.102716
     39          1           0        3.672227   -0.107312    1.982644
     40          6           0        5.362132   -0.127691    0.673539
     41          1           0        4.971174    0.616082   -0.008430
     42          1           0        5.955502    0.394291    1.417221
     43         16           0        6.451116   -1.285256   -0.213392
     44          6           0        7.930580   -0.252593   -0.437290
     45          1           0        8.255469    0.114071    0.530262
     46          1           0        8.691981   -0.940442   -0.785989
     47          6           0        7.774590    0.897742   -1.427983
     48          1           0        7.036831    1.618894   -1.093282
     49          1           0        8.719200    1.422484   -1.540932
     50          1           0        7.469047    0.531522   -2.401229
 ---------------------------------------------------------------------
 Stoichiometry    C14H30O3S3
 Framework group  C1[X(C14H30O3S3)]
                         Standard orientation:                         
 ---------------------------------------------------------------------
 Center     Atomic      Atomic             Coordinates (Angstroms)
 Number     Number       Type             X           Y           Z
 ---------------------------------------------------------------------
      1          6           0       -9.312885   -0.605163   -0.700132
      2          1           0       -9.139243    0.196418    0.009688
      3          1           0       -9.322019   -0.180016   -1.697839
      4          1           0      -10.295108   -1.020797   -0.495502
      5          6           0       -8.254354   -1.695585   -0.602270
      6          1           0       -8.231042   -2.113878    0.402848
      7          1           0       -8.495552   -2.500843   -1.284517
      8          8           0       -6.974656   -1.258648   -0.968209
      9          6           0       -6.281497   -0.503102   -0.022608
     10          1           0       -6.226275   -1.039219    0.923861
     11          1           0       -6.764179    0.451649    0.166877
     12          6           0       -4.891294   -0.253981   -0.585943
     13          1           0       -4.399329   -1.201132   -0.786644
     14          1           0       -4.982352    0.277954   -1.523399
     15          8           0       -4.121967    0.543712    0.270496
     16          6           0       -3.400228   -0.128539    1.262303
     17          1           0       -2.773560   -0.899333    0.820589
     18          1           0       -4.072486   -0.607719    1.972625
     19          6           0       -2.527608    0.857393    2.014578
     20          1           0       -2.155412    0.370345    2.908504
     21          1           0       -3.128491    1.710909    2.319673
     22          8           0       -1.398328    1.274782    1.305863
     23          6           0       -1.572854    2.308761    0.376168
     24          1           0       -2.072877    3.150096    0.856133
     25          1           0       -2.184000    1.986314   -0.455234
     26          6           0       -0.209007    2.767812   -0.108461
     27          1           0        0.414076    3.034854    0.736836
     28          1           0       -0.337185    3.657601   -0.714683
     29         16           0        0.689579    1.601082   -1.173968
     30          6           0        1.390390    0.423170    0.028792
     31          1           0        1.935472    0.984868    0.777246
     32          1           0        0.594984   -0.111697    0.521734
     33          6           0        2.314189   -0.543496   -0.706646
     34          1           0        3.097698   -0.014051   -1.232770
     35          1           0        1.754252   -1.096347   -1.451240
     36         16           0        3.040919   -1.829764    0.352363
     37          6           0        4.195385   -0.904383    1.409248
     38          1           0        4.594618   -1.650952    2.084573
     39          1           0        3.644485   -0.191919    2.011317
     40          6           0        5.342143   -0.173354    0.712254
     41          1           0        4.958786    0.596423    0.055283
     42          1           0        5.933449    0.318573    1.477748
     43         16           0        6.431036   -1.303503   -0.209464
     44          6           0        7.916634   -0.270684   -0.387287
     45          1           0        8.237390    0.059270    0.594751
     46          1           0        8.676901   -0.949229   -0.756107
     47          6           0        7.772001    0.915366   -1.336731
     48          1           0        7.035615    1.627581   -0.980559
     49          1           0        8.719717    1.439215   -1.425137
     50          1           0        7.470627    0.585967   -2.324330
 ---------------------------------------------------------------------
 Mulliken charges:
     1  C   -0.504573
     2  H    0.163210
     3  H    0.176228
     4  H    0.160220
     5  C    0.016256
     6  H    0.138925
     7  H    0.173591
     8  O   -0.633487
     9  C    0.008023
    10  H    0.136255
    11  H    0.152377
    12  C    0.001388
    13  H    0.159850
    14  H    0.185999
    15  O   -0.642290
    16  C    0.001459
    17  H    0.162127
    18  H    0.136852
    19  C    0.001068
    20  H    0.172733
    21  H    0.155310
    22  O   -0.635409
    23  C    0.032140
    24  H    0.141586
    25  H    0.189304
    26  C   -0.498550
    27  H    0.195908
    28  H    0.197752
    29  S    0.106722
    30  C   -0.449953
    31  H    0.179690
    32  H    0.233274
    33  C   -0.505253
    34  H    0.211927
    35  H    0.216044
    36  S    0.137870
    37  C   -0.487983
    38  H    0.215832
    39  H    0.198972
    40  C   -0.463333
    41  H    0.195059
    42  H    0.189432
    43  S    0.140307
    44  C   -0.480523
    45  H    0.184559
    46  H    0.198619
    47  C   -0.476451
    48  H    0.163581
    49  H    0.165944
    50  H    0.181412
 Sum of Mulliken charges =  -0.00000
 Dipole moment (field-independent basis, Debye):
    X=             -2.0210    Y=              2.6352    Z=              3.2646  Tot=              4.6569
 Quadrupole moment (field-independent basis, Debye-Ang):
   XX=           -117.9406   YY=           -152.0674   ZZ=           -148.0978
   XY=             16.1538   XZ=             -2.8830   YZ=              0.6605
 Traceless Quadrupole moment (field-independent basis, Debye-Ang):
   XX=             21.4280   YY=            -12.6988   ZZ=             -8.7292
   XY=             16.1538   XZ=             -2.8830   YZ=              0.6605
 Octapole moment (field-independent basis, Debye-Ang**2):
  XXX=           -102.9735  YYY=             37.2330  ZZZ=             19.2951  XYY=            -64.2022
  XXY=             36.1097  XXZ=             51.9511  XZZ=            -13.4814  YZZ=             -2.6713
  YYZ=              4.2572  XYZ=             10.6137
 Hexadecapole moment (field-independent basis, Debye-Ang**3):
 XXXX=         -20475.4616 YYYY=          -1733.8520 ZZZZ=           -953.1626 XXXY=            793.1767
 XXXZ=           -190.0625 YYYX=             72.8498 YYYZ=             16.6678 ZZZX=             12.6812
 ZZZY=             13.6552 XXYY=          -4344.4308 XXZZ=          -4064.9288 YYZZ=           -457.6486
 XXYZ=            -18.8268 YYXZ=             18.6143 ZZXY=            -18.5500
 Job cpu time:       0 days  2 hours 59 minutes 43.3 seconds.
 Normal termination of Gaussian 16 at Sat Jul  8 20:50:12 2023.
