 Copyright (c) 1988-2019, Gaussian, Inc.  All Rights Reserved.
  
 This is part of the Gaussian(R) 16 program.  It is based on
 the Gaussian(R) 09 system (copyright 2009, Gaussian, Inc.),
 the Gaussian(R) 03 system (copyright 2003, Gaussian, Inc.),
 the Gaussian(R) 98 system (copyright 1998, Gaussian, Inc.),
 the Gaussian(R) 94 system (copyright 1995, Gaussian, Inc.),
 the Gaussian 92(TM) system (copyright 1992, Gaussian, Inc.),
 the Gaussian 90(TM) system (copyright 1990, Gaussian, Inc.),
 the Gaussian 88(TM) system (copyright 1988, Gaussian, Inc.),
 the Gaussian 86(TM) system (copyright 1986, Carnegie Mellon
 University), and the Gaussian 82(TM) system (copyright 1983,
 Carnegie Mellon University). Gaussian is a federally registered
 trademark of Gaussian, Inc.
 Cite this work as:
 Gaussian 16, Revision C.01,
 M. J. Frisch, G. W. Trucks, H. B. Schlegel, G. E. Scuseria, 
 M. A. Robb, J. R. Cheeseman, G. Scalmani, V. Barone, 
 G. A. Petersson, H. Nakatsuji, X. Li, M. Caricato, A. V. Marenich, 
 J. Bloino, B. G. Janesko, R. Gomperts, B. Mennucci, H. P. Hratchian, 
 J. V. Ortiz, A. F. Izmaylov, J. L. Sonnenberg, D. Williams-Young, 
 F. Ding, F. Lipparini, F. Egidi, J. Goings, B. Peng, A. Petrone, 
 T. Henderson, D. Ranasinghe, V. G. Zakrzewski, J. Gao, N. Rega, 
 G. Zheng, W. Liang, M. Hada, M. Ehara, K. Toyota, R. Fukuda, 
 J. Hasegawa, M. Ishida, T. Nakajima, Y. Honda, O. Kitao, H. Nakai, 
 T. Vreven, K. Throssell, J. A. Montgomery, Jr., J. E. Peralta, 
 F. Ogliaro, M. J. Bearpark, J. J. Heyd, E. N. Brothers, K. N. Kudin, 
 V. N. Staroverov, T. A. Keith, R. Kobayashi, J. Normand, 
 K. Raghavachari, A. P. Rendell, J. C. Burant, S. S. Iyengar, 
 J. Tomasi, M. Cossi, J. M. Millam, M. Klene, C. Adamo, R. Cammi, 
 J. W. Ochterski, R. L. Martin, K. Morokuma, O. Farkas, 
 J. B. Foresman, and D. J. Fox, Gaussian, Inc., Wallingford CT, 2019.
 
 ******************************************
 Gaussian 16:  EM64L-G16RevC.01  3-Jul-2019
                 8-Jul-2023 
 ******************************************
 ----------------------------------------------------------------------
 #P HF/6-31G(d) Opt=(Tight,MaxCycle=55) GFInput GFPrint SCF(Conver=8,XQ
 C,MaxConventionalCycles=64,MaxCycle=128) Test
 ----------------------------------------------------------------------
 1/6=55,7=10,18=20,19=15,38=1/1,3;
 2/9=110,12=2,17=6,18=5,40=1/2;
 3/5=1,6=6,7=1,11=9,24=110,25=1,30=1,71=1/1,2,3;
 4//1;
 5/5=2,6=8,7=128,8=3,13=1,38=5,85=64/2,8;
 6/7=2,8=2,9=2,10=2,28=1/1;
 7//1,2,3,16;
 1/6=55,7=10,18=20,19=15/3(2);
 2/9=110/2;
 99//99;
 2/9=110/2;
 3/5=1,6=6,7=1,11=9,25=1,30=1,71=1/1,2,3;
 4/5=5,16=3,69=1/1;
 5/5=2,6=8,7=128,8=3,13=1,38=5,85=64/2,8;
 7//1,2,3,16;
 1/6=55,7=10,18=20,19=15/3(-5);
 2/9=110/2;
 6/7=2,8=2,9=2,10=2,19=2,28=1/1;
 99/9=1/99;
 ----------------------------------------------------------
 Optimization step - Input generated by PyRED DVE-DMDS-OPLS
 ----------------------------------------------------------
 Symbolic Z-matrix:
 Charge =  0 Multiplicity = 1
 C                    -7.445     3.821     0.502 
 H                    -6.409     3.939     0.173 
 H                    -8.097     4.248    -0.265 
 H                    -7.582     4.382     1.431 
 C                    -7.766     2.356     0.71 
 H                    -7.12      1.935     1.494 
 H                    -8.808     2.23      1.047 
 O                    -7.575     1.689    -0.519 
 C                    -7.936     0.33     -0.513 
 H                    -8.052     0.04     -1.562 
 H                    -8.904     0.185    -0.007 
 C                    -6.906    -0.584     0.126 
 H                    -6.679    -0.263     1.155 
 H                    -7.323    -1.603     0.188 
 O                    -5.74     -0.572    -0.659 
 C                    -4.703    -1.36     -0.132 
 H                    -5.01     -2.413    -0.034 
 H                    -4.419    -1.005     0.872 
 C                    -3.529    -1.262    -1.094 
 H                    -3.242    -0.208    -1.219 
 H                    -3.836    -1.644    -2.071 
 O                    -2.432    -2.044    -0.672 
 C                    -1.586    -1.413     0.264 
 H                    -2.109    -1.187     1.203 
 H                    -1.215    -0.459    -0.142 
 C                    -0.433    -2.363     0.538 
 H                     0.054    -2.639    -0.401 
 H                    -0.815    -3.285     0.982 
 S                     0.782    -1.691     1.714 
 C                     1.782    -0.622     0.624 
 H                     1.13     -0.019    -0.012 
 H                     2.298     0.068     1.297 
 C                     2.787    -1.399    -0.221 
 H                     2.27     -2.103    -0.878 
 H                     3.452    -1.986     0.419 
 S                     3.777    -0.351    -1.335 
 C                     4.876     0.474    -0.131 
 H                     5.34     -0.291     0.499 
 H                     4.306     1.147     0.514 
 C                     5.938     1.268    -0.882 
 H                     6.503     0.62     -1.558 
 H                     5.467     2.038    -1.499 
 S                     7.08      2.166     0.216 
 C                     8.159     0.821     0.812 
 H                     8.709     1.267     1.646 
 H                     7.543     0.022     1.238 
 C                     9.126     0.273    -0.229 
 H                     8.598    -0.18     -1.073 
 H                     9.768     1.066    -0.62 
 H                     9.762    -0.501     0.214 
 
 ITRead=  0  0  0  0  0  0  0  0  0  0  0  0  0  0  0  0  0  0  0  0
 ITRead=  0  0  0  0  0  0  0  0  0  0  0  0  0  0  0  0  0  0  0  0
 ITRead=  0  0  0  0  0  0  0  0  0  0
 MicOpt= -1 -1 -1 -1 -1 -1 -1 -1 -1 -1 -1 -1 -1 -1 -1 -1 -1 -1 -1 -1
 MicOpt= -1 -1 -1 -1 -1 -1 -1 -1 -1 -1 -1 -1 -1 -1 -1 -1 -1 -1 -1 -1
 MicOpt= -1 -1 -1 -1 -1 -1 -1 -1 -1 -1
 NAtoms=     50 NQM=       50 NQMF=       0 NMMI=      0 NMMIF=      0
                NMic=       0 NMicF=      0.
                          Input orientation:                          
 ---------------------------------------------------------------------
 Center     Atomic      Atomic             Coordinates (Angstroms)
 Number     Number       Type             X           Y           Z
 ---------------------------------------------------------------------
      1          6           0       -7.445000    3.821000    0.502000
      2          1           0       -6.409000    3.939000    0.173000
      3          1           0       -8.097000    4.248000   -0.265000
      4          1           0       -7.582000    4.382000    1.431000
      5          6           0       -7.766000    2.356000    0.710000
      6          1           0       -7.120000    1.935000    1.494000
      7          1           0       -8.808000    2.230000    1.047000
      8          8           0       -7.575000    1.689000   -0.519000
      9          6           0       -7.936000    0.330000   -0.513000
     10          1           0       -8.052000    0.040000   -1.562000
     11          1           0       -8.904000    0.185000   -0.007000
     12          6           0       -6.906000   -0.584000    0.126000
     13          1           0       -6.679000   -0.263000    1.155000
     14          1           0       -7.323000   -1.603000    0.188000
     15          8           0       -5.740000   -0.572000   -0.659000
     16          6           0       -4.703000   -1.360000   -0.132000
     17          1           0       -5.010000   -2.413000   -0.034000
     18          1           0       -4.419000   -1.005000    0.872000
     19          6           0       -3.529000   -1.262000   -1.094000
     20          1           0       -3.242000   -0.208000   -1.219000
     21          1           0       -3.836000   -1.644000   -2.071000
     22          8           0       -2.432000   -2.044000   -0.672000
     23          6           0       -1.586000   -1.413000    0.264000
     24          1           0       -2.109000   -1.187000    1.203000
     25          1           0       -1.215000   -0.459000   -0.142000
     26          6           0       -0.433000   -2.363000    0.538000
     27          1           0        0.054000   -2.639000   -0.401000
     28          1           0       -0.815000   -3.285000    0.982000
     29         16           0        0.782000   -1.691000    1.714000
     30          6           0        1.782000   -0.622000    0.624000
     31          1           0        1.130000   -0.019000   -0.012000
     32          1           0        2.298000    0.068000    1.297000
     33          6           0        2.787000   -1.399000   -0.221000
     34          1           0        2.270000   -2.103000   -0.878000
     35          1           0        3.452000   -1.986000    0.419000
     36         16           0        3.777000   -0.351000   -1.335000
     37          6           0        4.876000    0.474000   -0.131000
     38          1           0        5.340000   -0.291000    0.499000
     39          1           0        4.306000    1.147000    0.514000
     40          6           0        5.938000    1.268000   -0.882000
     41          1           0        6.503000    0.620000   -1.558000
     42          1           0        5.467000    2.038000   -1.499000
     43         16           0        7.080000    2.166000    0.216000
     44          6           0        8.159000    0.821000    0.812000
     45          1           0        8.709000    1.267000    1.646000
     46          1           0        7.543000    0.022000    1.238000
     47          6           0        9.126000    0.273000   -0.229000
     48          1           0        8.598000   -0.180000   -1.073000
     49          1           0        9.768000    1.066000   -0.620000
     50          1           0        9.762000   -0.501000    0.214000
 ---------------------------------------------------------------------
 Stoichiometry    C14H30O3S3
 Framework group  C1[X(C14H30O3S3)]
                         Standard orientation:                         
 ---------------------------------------------------------------------
 Center     Atomic      Atomic             Coordinates (Angstroms)
 Number     Number       Type             X           Y           Z
 ---------------------------------------------------------------------
      1          6           0       -7.444989    3.821099    0.502027
      2          1           0       -6.408987    3.939078    0.173027
      3          1           0       -8.096980    4.248112   -0.264973
      4          1           0       -7.581978    4.382102    1.431027
      5          6           0       -7.766018    2.356105    0.710027
      6          1           0       -7.120026    1.935093    1.494027
      7          1           0       -8.808020    2.230126    1.047027
      8          8           0       -7.575031    1.689102   -0.518973
      9          6           0       -7.936058    0.330109   -0.512973
     10          1           0       -8.052064    0.040111   -1.561973
     11          1           0       -8.904061    0.185128   -0.006973
     12          6           0       -6.906076   -0.583912    0.126027
     13          1           0       -6.679070   -0.262916    1.155027
     14          1           0       -7.323096   -1.602903    0.188027
     15          8           0       -5.740076   -0.571935   -0.658973
     16          6           0       -4.703091   -1.359955   -0.131973
     17          1           0       -5.010112   -2.412949   -0.033973
     18          1           0       -4.419084   -1.004961    0.872027
     19          6           0       -3.529089   -1.261979   -1.093973
     20          1           0       -3.242069   -0.207984   -1.218973
     21          1           0       -3.836097   -1.643972   -2.070973
     22          8           0       -2.432105   -2.044000   -0.671973
     23          6           0       -1.586092   -1.413017    0.264027
     24          1           0       -2.109088   -1.187007    1.203027
     25          1           0       -1.215074   -0.459024   -0.141973
     26          6           0       -0.433111   -2.363040    0.538027
     27          1           0        0.053883   -2.639049   -0.400973
     28          1           0       -0.815130   -3.285032    0.982027
     29         16           0        0.781902   -1.691064    1.714027
     30          6           0        1.781923   -0.622084    0.624027
     31          1           0        1.129935   -0.019071   -0.011973
     32          1           0        2.297937    0.067906    1.297027
     33          6           0        2.786908   -1.399104   -0.220973
     34          1           0        2.269894   -2.103093   -0.877973
     35          1           0        3.451896   -1.986117    0.419027
     36         16           0        3.776929   -0.351123   -1.334973
     37          6           0        4.875945    0.473855   -0.130973
     38          1           0        5.339930   -0.291154    0.499027
     39          1           0        4.305958    1.146866    0.514027
     40          6           0        5.937961    1.267834   -0.881973
     41          1           0        6.502948    0.619823   -1.557973
     42          1           0        5.466976    2.037843   -1.498973
     43         16           0        7.079978    2.165811    0.216027
     44          6           0        8.158952    0.820790    0.812027
     45          1           0        8.708961    1.266779    1.646027
     46          1           0        7.542936    0.021802    1.238027
     47          6           0        9.125941    0.272771   -0.228973
     48          1           0        8.597932   -0.180219   -1.072973
     49          1           0        9.767957    1.065758   -0.619973
     50          1           0        9.761926   -0.501242    0.214027
 ---------------------------------------------------------------------
 Standard basis: 6-31G(d) (6D, 7F)
   372 basis functions,   752 primitive gaussians,   372 cartesian basis functions
    93 alpha electrons       93 beta electrons
 Requested convergence on RMS density matrix=1.00D-08 within  64 cycles.
 Requested convergence on MAX density matrix=1.00D-06.
 Requested convergence on             energy=1.00D-06.
 SCF Done:  E(RHF) =  -1964.69054212     A.U. after   13 cycles
            NFock= 13  Conv=0.60D-08     -V/T= 2.0009
 Mulliken charges:
     1  C   -0.485426
     2  H    0.176333
     3  H    0.174055
     4  H    0.154218
     5  C    0.017826
     6  H    0.137110
     7  H    0.135297
     8  O   -0.615016
     9  C    0.002785
    10  H    0.187446
    11  H    0.138913
    12  C    0.004077
    13  H    0.143322
    14  H    0.141093
    15  O   -0.627170
    16  C    0.010986
    17  H    0.150559
    18  H    0.140024
    19  C   -0.002690
    20  H    0.160881
    21  H    0.187111
    22  O   -0.641189
    23  C    0.028579
    24  H    0.156790
    25  H    0.148647
    26  C   -0.492588
    27  H    0.203727
    28  H    0.211854
    29  S    0.114704
    30  C   -0.477443
    31  H    0.209301
    32  H    0.204414
    33  C   -0.473928
    34  H    0.204181
    35  H    0.205481
    36  S    0.123324
    37  C   -0.453471
    38  H    0.187854
    39  H    0.204447
    40  C   -0.498884
    41  H    0.209798
    42  H    0.214815
    43  S    0.124218
    44  C   -0.473924
    45  H    0.199763
    46  H    0.187082
    47  C   -0.474117
    48  H    0.166010
    49  H    0.180958
    50  H    0.167861
 Sum of Mulliken charges =  -0.00000
 Dipole moment (field-independent basis, Debye):
    X=             -0.8381    Y=             -1.4763    Z=              2.2993  Tot=              2.8581
 Quadrupole moment (field-independent basis, Debye-Ang):
   XX=           -123.8901   YY=           -156.2682   ZZ=           -155.9736
   XY=             -4.1201   XZ=             -9.2774   YZ=              2.5398
 Traceless Quadrupole moment (field-independent basis, Debye-Ang):
   XX=             21.4872   YY=            -10.8909   ZZ=            -10.5963
   XY=             -4.1201   XZ=             -9.2774   YZ=              2.5398
 Octapole moment (field-independent basis, Debye-Ang**2):
  XXX=           -117.8825  YYY=            -10.7688  ZZZ=            -13.7715  XYY=            -67.6998
  XXY=           -113.1956  XXZ=            133.1387  XZZ=            -28.2783  YZZ=              6.2812
  YYZ=              0.7518  XYZ=            -22.8352
 Hexadecapole moment (field-independent basis, Debye-Ang**3):
 XXXX=         -25520.6984 YYYY=          -2665.4074 ZZZZ=           -885.4823 XXXY=           -268.8495
 XXXZ=           -253.6621 YYYX=           -170.6671 YYYZ=              2.9670 ZZZX=             62.5528
 ZZZY=             23.7365 XXYY=          -5420.4404 XXZZ=          -4862.0775 YYZZ=           -591.1040
 XXYZ=            150.5761 YYXZ=            -63.5337 ZZXY=             25.8101
 Step number   1 out of a maximum of   55
     Eigenvalues ---    0.00230   0.00230   0.00230   0.00230   0.00230
     Eigenvalues ---    0.00230   0.00426   0.00450   0.00464   0.00489
     Eigenvalues ---    0.00516   0.00527   0.00579   0.01536   0.01542
     Eigenvalues ---    0.01551   0.01611   0.01617   0.01626   0.04363
     Eigenvalues ---    0.04479   0.04518   0.04533   0.04612   0.04796
     Eigenvalues ---    0.04956   0.05059   0.05296   0.05397   0.05453
     Eigenvalues ---    0.05466   0.05534   0.05622   0.05649   0.05655
     Eigenvalues ---    0.05657   0.05681   0.05736   0.05800   0.05826
     Eigenvalues ---    0.05833   0.05981   0.05982   0.05983   0.06001
     Eigenvalues ---    0.06014   0.06035   0.10949   0.11073   0.11113
     Eigenvalues ---    0.11214   0.11278   0.11445   0.11544   0.11565
     Eigenvalues ---    0.11607   0.11614   0.11761   0.11829   0.13587
     Eigenvalues ---    0.13604   0.13619   0.13677   0.13741   0.13909
     Eigenvalues ---    0.13919   0.13938   0.13954   0.13961   0.14042
     Eigenvalues ---    0.14101   0.16000   0.16000   0.16000   0.16000
     Eigenvalues ---    0.16000   0.16000   0.21934   0.21939   0.21940
     Eigenvalues ---    0.21963   0.21999   0.22008   0.22010   0.22013
     Eigenvalues ---    0.22023   0.22024   0.22055   0.22111   0.24098
     Eigenvalues ---    0.24238   0.24284   0.24463   0.24527   0.24635
     Eigenvalues ---    0.25000   0.25000   0.25000   0.25000   0.25000
     Eigenvalues ---    0.25000   0.29824   0.29994   0.30094   0.30274
     Eigenvalues ---    0.30475   0.30551   0.30941   0.33378   0.33422
     Eigenvalues ---    0.33447   0.33478   0.33511   0.33549   0.33552
     Eigenvalues ---    0.33722   0.33737   0.33868   0.34200   0.34225
     Eigenvalues ---    0.34296   0.34324   0.34347   0.34370   0.34377
     Eigenvalues ---    0.34381   0.34392   0.34412   0.34426   0.34428
     Eigenvalues ---    0.34435   0.34446   0.34465   0.34473   0.34508
     Eigenvalues ---    0.34510   0.34543   0.34547   0.43729   0.43796
     Eigenvalues ---    0.43898   0.44617   0.44693   0.44801
 Maximum Force            0.009691     0.000015     NO 
 RMS     Force            0.003423     0.000010     NO 
 Maximum Displacement     0.501183     0.000060     NO 
 RMS     Displacement     0.131521     0.000040     NO 
                          Input orientation:                          
 ---------------------------------------------------------------------
 Center     Atomic      Atomic             Coordinates (Angstroms)
 Number     Number       Type             X           Y           Z
 ---------------------------------------------------------------------
      1          6           0       -7.653466    3.789586    0.476288
      2          1           0       -6.621048    3.920469    0.174999
      3          1           0       -8.287330    4.184431   -0.308588
      4          1           0       -7.824431    4.363578    1.381204
      5          6           0       -7.952414    2.322807    0.709839
      6          1           0       -7.325185    1.935478    1.507916
      7          1           0       -8.988203    2.186324    1.016244
      8          8           0       -7.718654    1.633508   -0.486554
      9          6           0       -8.038719    0.274566   -0.494847
     10          1           0       -8.131298   -0.007466   -1.534476
     11          1           0       -9.000357    0.108682   -0.012097
     12          6           0       -6.994821   -0.615738    0.151403
     13          1           0       -6.790165   -0.310208    1.174128
     14          1           0       -7.377438   -1.634718    0.188916
     15          8           0       -5.824176   -0.570846   -0.605915
     16          6           0       -4.770605   -1.328116   -0.095134
     17          1           0       -5.048263   -2.376690   -0.017370
     18          1           0       -4.508394   -0.983009    0.902128
     19          6           0       -3.604111   -1.176843   -1.056549
     20          1           0       -3.345639   -0.128440   -1.165447
     21          1           0       -3.899288   -1.547945   -2.027669
     22          8           0       -2.492215   -1.930719   -0.655511
     23          6           0       -1.628027   -1.318488    0.259342
     24          1           0       -2.129290   -1.108255    1.197817
     25          1           0       -1.276836   -0.372370   -0.142527
     26          6           0       -0.471426   -2.275487    0.494847
     27          1           0       -0.012365   -2.540315   -0.447290
     28          1           0       -0.848893   -3.191095    0.930227
     29         16           0        0.775165   -1.635032    1.653434
     30          6           0        1.819765   -0.586385    0.589429
     31          1           0        1.199909    0.019185   -0.056499
     32          1           0        2.320799    0.088910    1.269584
     33          6           0        2.840222   -1.375358   -0.227668
     34          1           0        2.340256   -2.066907   -0.892380
     35          1           0        3.474836   -1.963449    0.421992
     36         16           0        3.877130   -0.348554   -1.314235
     37          6           0        5.004897    0.440365   -0.118464
     38          1           0        5.439141   -0.332316    0.502179
     39          1           0        4.459587    1.118818    0.521317
     40          6           0        6.089100    1.208454   -0.870019
     41          1           0        6.627463    0.557007   -1.543801
     42          1           0        5.635977    1.982185   -1.476641
     43         16           0        7.258930    2.080921    0.216792
     44          6           0        8.363542    0.754976    0.803454
     45          1           0        8.894383    1.199174    1.636546
     46          1           0        7.772444   -0.053943    1.212993
     47          6           0        9.358490    0.238740   -0.230023
     48          1           0        8.863215   -0.221030   -1.076928
     49          1           0        9.981479    1.042270   -0.603258
     50          1           0       10.002328   -0.512712    0.216869
 ---------------------------------------------------------------------
 Stoichiometry    C14H30O3S3
 Framework group  C1[X(C14H30O3S3)]
                         Standard orientation:                         
 ---------------------------------------------------------------------
 Center     Atomic      Atomic             Coordinates (Angstroms)
 Number     Number       Type             X           Y           Z
 ---------------------------------------------------------------------
      1          6           0       -7.674244    3.772866    0.448057
      2          1           0       -6.641696    3.904938    0.147736
      3          1           0       -8.307883    4.162920   -0.339392
      4          1           0       -7.847902    4.350227    1.350312
      5          6           0       -7.970063    2.306370    0.687305
      6          1           0       -7.343095    1.923871    1.487913
      7          1           0       -9.005976    2.168711    0.992761
      8          8           0       -7.732907    1.612633   -0.505851
      9          6           0       -8.049741    0.252912   -0.508926
     10          1           0       -8.140119   -0.033682   -1.547502
     11          1           0       -9.011694    0.086765   -0.026896
     12          6           0       -7.004692   -0.632202    0.142571
     13          1           0       -6.802268   -0.321914    1.164307
     14          1           0       -7.384950   -1.651922    0.183786
     15          8           0       -5.833040   -0.587697   -0.613213
     16          6           0       -4.778434   -1.340323   -0.097726
     17          1           0       -5.053723   -2.389218   -0.015982
     18          1           0       -4.518512   -0.990428    0.898466
     19          6           0       -3.610885   -1.190301   -1.058056
     20          1           0       -3.354736   -0.141751   -1.170961
     21          1           0       -3.903751   -1.566159   -2.028046
     22          8           0       -2.497799   -1.939853   -0.652239
     23          6           0       -1.636413   -1.321752    0.261309
     24          1           0       -2.139557   -1.108789    1.198161
     25          1           0       -1.286872   -0.376492   -0.144000
     26          6           0       -0.477899   -2.275010    0.502510
     27          1           0       -0.016823   -2.542684   -0.437839
     28          1           0       -0.853838   -3.189684    0.941163
     29         16           0        0.765462   -1.626760    1.660231
     30          6           0        1.809144   -0.580094    0.593380
     31          1           0        1.188810    0.021298   -0.055984
     32          1           0        2.307575    0.099226    1.271436
     33          6           0        2.832671   -1.370050   -0.218914
     34          1           0        2.335325   -2.065557   -0.881459
     35          1           0        3.467717   -1.953913    0.434130
     36         16           0        3.868745   -0.345339   -1.308248
     37          6           0        4.992877    0.451247   -0.114137
     38          1           0        5.428034   -0.317800    0.510368
     39          1           0        4.445019    1.131071    0.522001
     40          6           0        6.076365    1.218759   -0.867310
     41          1           0        6.617262    0.565781   -1.537571
     42          1           0        5.622306    1.988870   -1.477827
     43         16           0        7.242522    2.098536    0.217553
     44          6           0        8.349404    0.777681    0.811375
     45          1           0        8.877963    1.226617    1.643378
     46          1           0        7.759621   -0.030919    1.223428
     47          6           0        9.347095    0.259493   -0.218475
     48          1           0        8.854159   -0.204988   -1.064173
     49          1           0        9.968729    1.062932   -0.594156
     50          1           0        9.992051   -0.488554    0.232500
 ---------------------------------------------------------------------
 Standard basis: 6-31G(d) (6D, 7F)
   372 basis functions,   752 primitive gaussians,   372 cartesian basis functions
    93 alpha electrons       93 beta electrons
 Requested convergence on RMS density matrix=1.00D-08 within  64 cycles.
 Requested convergence on MAX density matrix=1.00D-06.
 Requested convergence on             energy=1.00D-06.
 SCF Done:  E(RHF) =  -1964.69433551     A.U. after   12 cycles
            NFock= 12  Conv=0.29D-08     -V/T= 2.0006
 Step number   2 out of a maximum of   55
     Eigenvalues ---    0.00230   0.00230   0.00230   0.00230   0.00230
     Eigenvalues ---    0.00237   0.00426   0.00450   0.00464   0.00489
     Eigenvalues ---    0.00516   0.00527   0.00579   0.01535   0.01542
     Eigenvalues ---    0.01551   0.01612   0.01617   0.01626   0.04322
     Eigenvalues ---    0.04442   0.04467   0.04501   0.04569   0.04777
     Eigenvalues ---    0.04949   0.05024   0.05256   0.05389   0.05459
     Eigenvalues ---    0.05460   0.05494   0.05626   0.05652   0.05661
     Eigenvalues ---    0.05679   0.05702   0.05737   0.05785   0.05802
     Eigenvalues ---    0.05840   0.05930   0.05949   0.05965   0.05973
     Eigenvalues ---    0.05993   0.06011   0.11014   0.11142   0.11192
     Eigenvalues ---    0.11244   0.11378   0.11483   0.11581   0.11606
     Eigenvalues ---    0.11636   0.11673   0.11784   0.11879   0.13610
     Eigenvalues ---    0.13611   0.13614   0.13686   0.13769   0.13940
     Eigenvalues ---    0.13942   0.13959   0.13979   0.13990   0.14075
     Eigenvalues ---    0.14126   0.15992   0.16000   0.16000   0.16000
     Eigenvalues ---    0.16000   0.16011   0.21932   0.21940   0.21952
     Eigenvalues ---    0.21974   0.21995   0.22014   0.22020   0.22023
     Eigenvalues ---    0.22027   0.22044   0.22085   0.22114   0.23992
     Eigenvalues ---    0.24129   0.24256   0.24416   0.24485   0.24609
     Eigenvalues ---    0.24763   0.25000   0.25000   0.25000   0.25000
     Eigenvalues ---    0.26006   0.29824   0.29997   0.30082   0.30277
     Eigenvalues ---    0.30475   0.30552   0.30930   0.33387   0.33427
     Eigenvalues ---    0.33461   0.33488   0.33527   0.33548   0.33647
     Eigenvalues ---    0.33726   0.33811   0.33968   0.34205   0.34241
     Eigenvalues ---    0.34304   0.34328   0.34345   0.34370   0.34374
     Eigenvalues ---    0.34385   0.34400   0.34417   0.34426   0.34429
     Eigenvalues ---    0.34439   0.34459   0.34471   0.34498   0.34507
     Eigenvalues ---    0.34535   0.34541   0.37250   0.42840   0.43755
     Eigenvalues ---    0.43882   0.44399   0.44699   0.44864
 Maximum Force            0.003574     0.000015     NO 
 RMS     Force            0.000549     0.000010     NO 
 Maximum Displacement     0.459026     0.000060     NO 
 RMS     Displacement     0.093991     0.000040     NO 
                          Input orientation:                          
 ---------------------------------------------------------------------
 Center     Atomic      Atomic             Coordinates (Angstroms)
 Number     Number       Type             X           Y           Z
 ---------------------------------------------------------------------
      1          6           0       -7.589357    3.780089    0.440285
      2          1           0       -6.548307    3.898210    0.163912
      3          1           0       -8.200624    4.185760   -0.357158
      4          1           0       -7.774540    4.351225    1.344453
      5          6           0       -7.912490    2.315613    0.660014
      6          1           0       -7.308349    1.919159    1.472414
      7          1           0       -8.957311    2.194833    0.942986
      8          8           0       -7.659099    1.630197   -0.532374
      9          6           0       -7.992798    0.276773   -0.552812
     10          1           0       -8.070488   -0.003904   -1.594401
     11          1           0       -8.962618    0.114614   -0.084215
     12          6           0       -6.967469   -0.622763    0.110618
     13          1           0       -6.789036   -0.321056    1.140337
     14          1           0       -7.358729   -1.639762    0.133539
     15          8           0       -5.781296   -0.574868   -0.620167
     16          6           0       -4.736596   -1.334734   -0.096252
     17          1           0       -5.010191   -2.385773   -0.031789
     18          1           0       -4.486561   -0.997413    0.907657
     19          6           0       -3.552942   -1.176899   -1.035958
     20          1           0       -3.293920   -0.126512   -1.127288
     21          1           0       -3.833375   -1.536652   -2.016120
     22          8           0       -2.451565   -1.934747   -0.619212
     23          6           0       -1.594914   -1.326319    0.303451
     24          1           0       -2.103815   -1.107846    1.236952
     25          1           0       -1.221797   -0.386085   -0.094789
     26          6           0       -0.452808   -2.295766    0.558123
     27          1           0        0.020898   -2.560396   -0.377515
     28          1           0       -0.843971   -3.208601    0.987345
     29         16           0        0.777385   -1.666239    1.737340
     30          6           0        1.796100   -0.574170    0.695330
     31          1           0        1.160387    0.057072    0.089735
     32          1           0        2.315729    0.070469    1.391622
     33          6           0        2.790063   -1.332216   -0.181386
     34          1           0        2.269409   -1.991444   -0.863439
     35          1           0        3.438258   -1.949538    0.426778
     36         16           0        3.801656   -0.261645   -1.247634
     37          6           0        4.980067    0.440544   -0.047240
     38          1           0        5.455975   -0.372610    0.485939
     39          1           0        4.462144    1.059600    0.671444
     40          6           0        6.015748    1.280220   -0.790336
     41          1           0        6.526283    0.688354   -1.537932
     42          1           0        5.528341    2.096324   -1.308456
     43         16           0        7.228553    2.073816    0.305502
     44          6           0        8.337742    0.698568    0.742798
     45          1           0        8.929610    1.085368    1.563312
     46          1           0        7.755018   -0.123343    1.139530
     47          6           0        9.249197    0.226331   -0.385303
     48          1           0        8.684943   -0.172938   -1.220394
     49          1           0        9.862185    1.040174   -0.753209
     50          1           0        9.905276   -0.561077   -0.026036
 ---------------------------------------------------------------------
 Stoichiometry    C14H30O3S3
 Framework group  C1[X(C14H30O3S3)]
                         Standard orientation:                         
 ---------------------------------------------------------------------
 Center     Atomic      Atomic             Coordinates (Angstroms)
 Number     Number       Type             X           Y           Z
 ---------------------------------------------------------------------
      1          6           0       -7.601773    3.755904    0.516245
      2          1           0       -6.561478    3.881294    0.240231
      3          1           0       -8.215293    4.177590   -0.271097
      4          1           0       -7.785762    4.307448    1.432736
      5          6           0       -7.922496    2.286651    0.705493
      6          1           0       -7.316082    1.873852    1.507998
      7          1           0       -8.966545    2.158458    0.988054
      8          8           0       -7.670769    1.627070   -0.501727
      9          6           0       -8.002722    0.273931   -0.550209
     10          1           0       -8.082285    0.015340   -1.597360
     11          1           0       -8.971315    0.100527   -0.083103
     12          6           0       -6.974778   -0.638095    0.091775
     13          1           0       -6.794525   -0.358090    1.127291
     14          1           0       -7.364643   -1.655886    0.093913
     15          8           0       -5.790247   -0.573063   -0.640348
     16          6           0       -4.743417   -1.342460   -0.134920
     17          1           0       -5.015483   -2.395004   -0.092223
     18          1           0       -4.491665   -1.026202    0.875396
     19          6           0       -3.562000   -1.163077   -1.073574
     20          1           0       -3.304564   -0.110634   -1.143115
     21          1           0       -3.844069   -1.502307   -2.060561
     22          8           0       -2.458727   -1.928101   -0.675368
     23          6           0       -1.600895   -1.338243    0.258191
     24          1           0       -2.108071   -1.140348    1.197204
     25          1           0       -1.229880   -0.389251   -0.120772
     26          6           0       -0.456962   -2.311320    0.489778
     27          1           0        0.015076   -2.555364   -0.452277
     28          1           0       -0.845992   -3.233602    0.900337
     29         16           0        0.774935   -1.705307    1.679487
     30          6           0        1.789959   -0.589953    0.658753
     31          1           0        1.152108    0.053142    0.068061
     32          1           0        2.310235    0.040457    1.367479
     33          6           0        2.783031   -1.327843   -0.235984
     34          1           0        2.261781   -1.973143   -0.930782
     35          1           0        3.433351   -1.957060    0.357546
     36         16           0        3.790909   -0.233478   -1.281392
     37          6           0        4.970974    0.444660   -0.068856
     38          1           0        5.449104   -0.378987    0.445911
     39          1           0        4.453784    1.047599    0.663920
     40          6           0        6.003941    1.301350   -0.796142
     41          1           0        6.513645    0.726199   -1.557230
     42          1           0        5.514341    2.127610   -1.295767
     43         16           0        7.218055    2.073142    0.313729
     44          6           0        8.330000    0.690431    0.719346
     45          1           0        8.923122    1.060520    1.546632
     46          1           0        7.749219   -0.140520    1.099761
     47          6           0        9.239645    0.243515   -0.420471
     48          1           0        8.674121   -0.138693   -1.262656
     49          1           0        9.850763    1.065828   -0.772304
     50          1           0        9.897537   -0.550450   -0.079413
 ---------------------------------------------------------------------
 Standard basis: 6-31G(d) (6D, 7F)
   372 basis functions,   752 primitive gaussians,   372 cartesian basis functions
    93 alpha electrons       93 beta electrons
 Requested convergence on RMS density matrix=1.00D-08 within  64 cycles.
 Requested convergence on MAX density matrix=1.00D-06.
 Requested convergence on             energy=1.00D-06.
 SCF Done:  E(RHF) =  -1964.69446830     A.U. after   12 cycles
            NFock= 12  Conv=0.31D-08     -V/T= 2.0006
 Step number   3 out of a maximum of   55
     Eigenvalues ---    0.00222   0.00230   0.00230   0.00230   0.00232
     Eigenvalues ---    0.00312   0.00425   0.00450   0.00463   0.00489
     Eigenvalues ---    0.00516   0.00522   0.00579   0.01423   0.01542
     Eigenvalues ---    0.01550   0.01604   0.01617   0.01626   0.04375
     Eigenvalues ---    0.04460   0.04506   0.04561   0.04670   0.04818
     Eigenvalues ---    0.04971   0.05061   0.05279   0.05399   0.05468
     Eigenvalues ---    0.05491   0.05516   0.05625   0.05646   0.05670
     Eigenvalues ---    0.05695   0.05749   0.05769   0.05793   0.05812
     Eigenvalues ---    0.05889   0.05951   0.05980   0.05987   0.06000
     Eigenvalues ---    0.06012   0.06036   0.10873   0.10990   0.11137
     Eigenvalues ---    0.11185   0.11278   0.11471   0.11533   0.11565
     Eigenvalues ---    0.11611   0.11646   0.11763   0.11836   0.13571
     Eigenvalues ---    0.13602   0.13615   0.13683   0.13736   0.13922
     Eigenvalues ---    0.13927   0.13942   0.13969   0.13997   0.14068
     Eigenvalues ---    0.14109   0.15939   0.16000   0.16000   0.16000
     Eigenvalues ---    0.16001   0.16006   0.21531   0.21948   0.21950
     Eigenvalues ---    0.21959   0.21977   0.22014   0.22019   0.22025
     Eigenvalues ---    0.22031   0.22043   0.22087   0.22437   0.24087
     Eigenvalues ---    0.24248   0.24300   0.24469   0.24491   0.24610
     Eigenvalues ---    0.24707   0.25000   0.25000   0.25000   0.25065
     Eigenvalues ---    0.29039   0.29860   0.30027   0.30166   0.30334
     Eigenvalues ---    0.30517   0.30888   0.32781   0.33384   0.33431
     Eigenvalues ---    0.33458   0.33505   0.33520   0.33612   0.33655
     Eigenvalues ---    0.33726   0.33828   0.33892   0.34205   0.34239
     Eigenvalues ---    0.34308   0.34338   0.34354   0.34373   0.34385
     Eigenvalues ---    0.34392   0.34416   0.34424   0.34427   0.34436
     Eigenvalues ---    0.34450   0.34462   0.34493   0.34507   0.34525
     Eigenvalues ---    0.34537   0.35034   0.35648   0.41723   0.43756
     Eigenvalues ---    0.43899   0.44360   0.44728   0.45026
 Maximum Force            0.001487     0.000015     NO 
 RMS     Force            0.000243     0.000010     NO 
 Maximum Displacement     0.307629     0.000060     NO 
 RMS     Displacement     0.083111     0.000040     NO 
                          Input orientation:                          
 ---------------------------------------------------------------------
 Center     Atomic      Atomic             Coordinates (Angstroms)
 Number     Number       Type             X           Y           Z
 ---------------------------------------------------------------------
      1          6           0       -7.654495    3.770972    0.474719
      2          1           0       -6.615097    3.893265    0.192122
      3          1           0       -8.272752    4.174184   -0.319264
      4          1           0       -7.836939    4.340862    1.380776
      5          6           0       -7.970427    2.304503    0.695796
      6          1           0       -7.359630    1.911163    1.505907
      7          1           0       -9.013744    2.180588    0.985875
      8          8           0       -7.721812    1.620235   -0.497617
      9          6           0       -8.047821    0.265317   -0.514544
     10          1           0       -8.137874   -0.016349   -1.555643
     11          1           0       -9.010589    0.095335   -0.032374
     12          6           0       -7.007953   -0.628592    0.135786
     13          1           0       -6.823550   -0.327499    1.165621
     14          1           0       -7.391120   -1.649570    0.159628
     15          8           0       -5.829744   -0.567662   -0.606020
     16          6           0       -4.772225   -1.318257   -0.095282
     17          1           0       -5.033580   -2.373193   -0.030327
     18          1           0       -4.513230   -0.980628    0.907250
     19          6           0       -3.598792   -1.146529   -1.046472
     20          1           0       -3.351480   -0.092338   -1.136489
     21          1           0       -3.885883   -1.505591   -2.025736
     22          8           0       -2.487564   -1.895111   -0.640506
     23          6           0       -1.620603   -1.274646    0.263685
     24          1           0       -2.117186   -1.046101    1.202465
     25          1           0       -1.254679   -0.337782   -0.150779
     26          6           0       -0.471607   -2.238190    0.514189
     27          1           0       -0.009400   -2.512901   -0.424910
     28          1           0       -0.856104   -3.146893    0.959027
     29         16           0        0.771565   -1.596466    1.673323
     30          6           0        1.826562   -0.575763    0.595015
     31          1           0        1.213979    0.017670   -0.070481
     32          1           0        2.326692    0.110894    1.265797
     33          6           0        2.847427   -1.388853   -0.198092
     34          1           0        2.348152   -2.087733   -0.856855
     35          1           0        3.471404   -1.968885    0.470156
     36         16           0        3.900588   -0.386000   -1.290036
     37          6           0        5.029207    0.393509   -0.089516
     38          1           0        5.494352   -0.383981    0.503890
     39          1           0        4.480358    1.045994    0.575627
     40          6           0        6.082921    1.202197   -0.842371
     41          1           0        6.623158    0.575222   -1.539577
     42          1           0        5.605605    1.984087   -1.420068
     43         16           0        7.251441    2.066585    0.248370
     44          6           0        8.369154    0.732908    0.782702
     45          1           0        8.908047    1.158511    1.620922
     46          1           0        7.787144   -0.093287    1.173064
     47          6           0        9.351649    0.252698   -0.281419
     48          1           0        8.842392   -0.188124   -1.131279
     49          1           0        9.961037    1.072782   -0.642812
     50          1           0       10.009044   -0.504558    0.136754
 ---------------------------------------------------------------------
 Stoichiometry    C14H30O3S3
 Framework group  C1[X(C14H30O3S3)]
                         Standard orientation:                         
 ---------------------------------------------------------------------
 Center     Atomic      Atomic             Coordinates (Angstroms)
 Number     Number       Type             X           Y           Z
 ---------------------------------------------------------------------
      1          6           0       -7.679123    3.747778    0.443272
      2          1           0       -6.639965    3.872025    0.160645
      3          1           0       -8.298230    4.144833   -0.353149
      4          1           0       -7.863980    4.321753    1.346256
      5          6           0       -7.990364    2.281442    0.671766
      6          1           0       -7.378760    1.894318    1.484258
      7          1           0       -9.033440    2.155600    0.961879
      8          8           0       -7.738789    1.591821   -0.517940
      9          6           0       -8.060332    0.235767   -0.528031
     10          1           0       -8.148838   -0.051584   -1.567708
     11          1           0       -9.022822    0.065119   -0.045543
     12          6           0       -7.017918   -0.651332    0.127526
     13          1           0       -6.835119   -0.344301    1.155893
     14          1           0       -7.397740   -1.673428    0.156440
     15          8           0       -5.839473   -0.590370   -0.613903
     16          6           0       -4.779797   -1.334823   -0.098669
     17          1           0       -5.037720   -2.390263   -0.028397
     18          1           0       -4.522510   -0.991153    0.902249
     19          6           0       -3.606368   -1.164166   -1.050057
     20          1           0       -3.362470   -0.109648   -1.145395
     21          1           0       -3.891694   -1.529241   -2.027613
     22          8           0       -2.492927   -1.906973   -0.639574
     23          6           0       -1.628550   -1.278981    0.261891
     24          1           0       -2.126440   -1.047209    1.199186
     25          1           0       -1.265461   -0.343078   -0.157213
     26          6           0       -0.476541   -2.237427    0.518051
     27          1           0       -0.012873   -2.515478   -0.419343
     28          1           0       -0.858312   -3.145073    0.967372
     29         16           0        0.763824   -1.585617    1.674562
     30          6           0        1.816101   -0.567049    0.591588
     31          1           0        1.201967    0.020907   -0.077331
     32          1           0        2.313571    0.124717    1.259090
     33          6           0        2.840106   -1.380875   -0.196702
     34          1           0        2.343524   -2.084799   -0.852122
     35          1           0        3.465589   -1.955379    0.474904
     36         16           0        3.890614   -0.380233   -1.293221
     37          6           0        5.015949    0.409197   -0.096107
     38          1           0        5.483295   -0.363672    0.501592
     39          1           0        4.464562    1.063311    0.565327
     40          6           0        6.067447    1.217436   -0.852533
     41          1           0        6.610158    0.588637   -1.546167
     42          1           0        5.587907    1.994747   -1.434552
     43         16           0        7.232468    2.091306    0.234388
     44          6           0        8.354242    0.764102    0.776274
     45          1           0        8.891233    1.195814    1.612587
     46          1           0        7.774719   -0.061970    1.170577
     47          6           0        9.338944    0.281619   -0.284776
     48          1           0        8.831646   -0.165275   -1.132632
     49          1           0        9.945847    1.101821   -0.650062
     50          1           0        9.998576   -0.471291    0.137698
 ---------------------------------------------------------------------
 Standard basis: 6-31G(d) (6D, 7F)
   372 basis functions,   752 primitive gaussians,   372 cartesian basis functions
    93 alpha electrons       93 beta electrons
 Requested convergence on RMS density matrix=1.00D-08 within  64 cycles.
 Requested convergence on MAX density matrix=1.00D-06.
 Requested convergence on             energy=1.00D-06.
 SCF Done:  E(RHF) =  -1964.69449609     A.U. after   11 cycles
            NFock= 11  Conv=0.89D-08     -V/T= 2.0006
 Step number   4 out of a maximum of   55
     Eigenvalues ---    0.00214   0.00230   0.00230   0.00231   0.00245
     Eigenvalues ---    0.00419   0.00445   0.00455   0.00486   0.00502
     Eigenvalues ---    0.00507   0.00521   0.00579   0.01104   0.01542
     Eigenvalues ---    0.01550   0.01602   0.01617   0.01626   0.04370
     Eigenvalues ---    0.04473   0.04512   0.04549   0.04810   0.04972
     Eigenvalues ---    0.05067   0.05227   0.05314   0.05397   0.05465
     Eigenvalues ---    0.05505   0.05548   0.05650   0.05674   0.05689
     Eigenvalues ---    0.05700   0.05754   0.05771   0.05797   0.05838
     Eigenvalues ---    0.05896   0.05974   0.05989   0.06001   0.06010
     Eigenvalues ---    0.06027   0.06044   0.10948   0.11045   0.11150
     Eigenvalues ---    0.11181   0.11270   0.11497   0.11506   0.11567
     Eigenvalues ---    0.11618   0.11677   0.11746   0.12004   0.13546
     Eigenvalues ---    0.13606   0.13622   0.13685   0.13728   0.13928
     Eigenvalues ---    0.13931   0.13939   0.13967   0.14028   0.14065
     Eigenvalues ---    0.14533   0.15953   0.16000   0.16000   0.16000
     Eigenvalues ---    0.16006   0.16014   0.21231   0.21949   0.21953
     Eigenvalues ---    0.21969   0.21988   0.22015   0.22024   0.22031
     Eigenvalues ---    0.22032   0.22083   0.22347   0.23067   0.24093
     Eigenvalues ---    0.24258   0.24310   0.24454   0.24572   0.24645
     Eigenvalues ---    0.24719   0.24998   0.25000   0.25000   0.26158
     Eigenvalues ---    0.29019   0.29847   0.30047   0.30167   0.30339
     Eigenvalues ---    0.30512   0.30870   0.32231   0.33392   0.33430
     Eigenvalues ---    0.33463   0.33486   0.33526   0.33588   0.33664
     Eigenvalues ---    0.33749   0.33784   0.33890   0.34203   0.34247
     Eigenvalues ---    0.34291   0.34335   0.34350   0.34372   0.34383
     Eigenvalues ---    0.34391   0.34413   0.34424   0.34425   0.34428
     Eigenvalues ---    0.34449   0.34459   0.34481   0.34505   0.34524
     Eigenvalues ---    0.34541   0.34801   0.36146   0.41209   0.43755
     Eigenvalues ---    0.43910   0.44348   0.44731   0.45424
 Maximum Force            0.000652     0.000015     NO 
 RMS     Force            0.000143     0.000010     NO 
 Maximum Displacement     0.239997     0.000060     NO 
 RMS     Displacement     0.046456     0.000040     NO 
                          Input orientation:                          
 ---------------------------------------------------------------------
 Center     Atomic      Atomic             Coordinates (Angstroms)
 Number     Number       Type             X           Y           Z
 ---------------------------------------------------------------------
      1          6           0       -7.664632    3.759712    0.467270
      2          1           0       -6.621153    3.884197    0.201050
      3          1           0       -8.271072    4.167396   -0.333553
      4          1           0       -7.861018    4.324115    1.373861
      5          6           0       -7.983203    2.291652    0.674926
      6          1           0       -7.384594    1.893725    1.491931
      7          1           0       -9.030693    2.165478    0.948750
      8          8           0       -7.716859    1.614009   -0.518252
      9          6           0       -8.039901    0.258630   -0.547263
     10          1           0       -8.119234   -0.016231   -1.591112
     11          1           0       -9.007303    0.083740   -0.076067
     12          6           0       -7.004823   -0.638027    0.107820
     13          1           0       -6.832449   -0.344662    1.141999
     14          1           0       -7.385350   -1.660202    0.119702
     15          8           0       -5.818655   -0.569382   -0.619892
     16          6           0       -4.765647   -1.321064   -0.102391
     17          1           0       -5.025976   -2.376849   -0.047239
     18          1           0       -4.519288   -0.989551    0.905401
     19          6           0       -3.581029   -1.140397   -1.038334
     20          1           0       -3.335050   -0.085092   -1.119060
     21          1           0       -3.854869   -1.494024   -2.023418
     22          8           0       -2.473610   -1.889029   -0.622468
     23          6           0       -1.613866   -1.267803    0.287716
     24          1           0       -2.119583   -1.033617    1.220263
     25          1           0       -1.241571   -0.333516   -0.127009
     26          6           0       -0.469635   -2.233116    0.553813
     27          1           0        0.001427   -2.512097   -0.379644
     28          1           0       -0.860784   -3.139513    0.997703
     29         16           0        0.764168   -1.587584    1.721102
     30          6           0        1.811067   -0.546817    0.653791
     31          1           0        1.192464    0.061566    0.007615
     32          1           0        2.321039    0.124974    1.332128
     33          6           0        2.819923   -1.346436   -0.168086
     34          1           0        2.309516   -2.029916   -0.834532
     35          1           0        3.449606   -1.942715    0.480229
     36         16           0        3.863929   -0.324456   -1.251696
     37          6           0        5.024136    0.410267   -0.052991
     38          1           0        5.486615   -0.387649    0.514681
     39          1           0        4.496293    1.055220    0.635991
     40          6           0        6.078071    1.220523   -0.804389
     41          1           0        6.595518    0.602611   -1.526543
     42          1           0        5.602647    2.023235   -1.354428
     43         16           0        7.280518    2.039068    0.285656
     44          6           0        8.404996    0.682618    0.744257
     45          1           0        8.973063    1.077444    1.578323
     46          1           0        7.829414   -0.151741    1.126583
     47          6           0        9.350891    0.229338   -0.364146
     48          1           0        8.812428   -0.181564   -1.210956
     49          1           0        9.954852    1.056330   -0.718846
     50          1           0       10.015267   -0.544795    0.009753
 ---------------------------------------------------------------------
 Stoichiometry    C14H30O3S3
 Framework group  C1[X(C14H30O3S3)]
                         Standard orientation:                         
 ---------------------------------------------------------------------
 Center     Atomic      Atomic             Coordinates (Angstroms)
 Number     Number       Type             X           Y           Z
 ---------------------------------------------------------------------
      1          6           0       -7.687336    3.729421    0.485353
      2          1           0       -6.644495    3.858997    0.219063
      3          1           0       -8.295776    4.141245   -0.311828
      4          1           0       -7.884509    4.286470    1.396310
      5          6           0       -8.001331    2.258912    0.682376
      6          1           0       -7.400736    1.856701    1.495817
      7          1           0       -9.048171    2.127577    0.956261
      8          8           0       -7.734147    1.590968   -0.516072
      9          6           0       -8.053182    0.234886   -0.554866
     10          1           0       -8.132724   -0.032433   -1.600656
     11          1           0       -9.019594    0.053607   -0.084055
     12          6           0       -7.014794   -0.663532    0.092524
     13          1           0       -6.842276   -0.377361    1.128693
     14          1           0       -7.392265   -1.686897    0.097159
     15          8           0       -5.829553   -0.585932   -0.635798
     16          6           0       -4.773803   -1.338301   -0.124924
     17          1           0       -5.030935   -2.395239   -0.077386
     18          1           0       -4.527440   -1.013566    0.885072
     19          6           0       -3.590651   -1.147136   -1.060635
     20          1           0       -3.347893   -0.090530   -1.133736
     21          1           0       -3.864407   -1.494236   -2.048061
     22          8           0       -2.480600   -1.895536   -0.651422
     23          6           0       -1.621812   -1.278540    0.262535
     24          1           0       -2.127305   -1.052814    1.197287
     25          1           0       -1.252708   -0.340085   -0.145578
     26          6           0       -0.474452   -2.242390    0.520334
     27          1           0       -0.003481   -2.513007   -0.415629
     28          1           0       -0.862464   -3.153230    0.957837
     29         16           0        0.758574   -1.601888    1.691210
     30          6           0        1.801319   -0.550084    0.630673
     31          1           0        1.180271    0.061244   -0.010358
     32          1           0        2.309956    0.118157    1.313503
     33          6           0        2.811740   -1.340548   -0.198108
     34          1           0        2.302713   -2.020568   -0.869134
     35          1           0        3.443833   -1.939756    0.445142
     36         16           0        3.851632   -0.307419   -1.275080
     37          6           0        5.010826    0.421819   -0.072054
     38          1           0        5.476238   -0.378918    0.489214
     39          1           0        4.481746    1.060047    0.622220
     40          6           0        6.061605    1.240787   -0.818410
     41          1           0        6.580177    0.629816   -1.545644
     42          1           0        5.583252    2.046150   -1.361998
     43         16           0        7.262683    2.054779    0.276543
     44          6           0        8.391645    0.698313    0.723945
     45          1           0        8.959355    1.088612    1.560382
     46          1           0        7.818926   -0.140583    1.100600
     47          6           0        9.337792    0.256122   -0.388712
     48          1           0        8.799721   -0.150069   -1.238041
     49          1           0        9.938940    1.087531   -0.737824
     50          1           0       10.004837   -0.518788   -0.021230
 ---------------------------------------------------------------------
 Standard basis: 6-31G(d) (6D, 7F)
   372 basis functions,   752 primitive gaussians,   372 cartesian basis functions
    93 alpha electrons       93 beta electrons
 Requested convergence on RMS density matrix=1.00D-08 within  64 cycles.
 Requested convergence on MAX density matrix=1.00D-06.
 Requested convergence on             energy=1.00D-06.
 SCF Done:  E(RHF) =  -1964.69451888     A.U. after   11 cycles
            NFock= 11  Conv=0.57D-08     -V/T= 2.0006
 Step number   5 out of a maximum of   55
     Eigenvalues ---    0.00220   0.00230   0.00231   0.00234   0.00308
     Eigenvalues ---    0.00411   0.00433   0.00465   0.00487   0.00505
     Eigenvalues ---    0.00518   0.00576   0.00580   0.00761   0.01543
     Eigenvalues ---    0.01554   0.01608   0.01617   0.01626   0.04371
     Eigenvalues ---    0.04469   0.04542   0.04561   0.04807   0.04976
     Eigenvalues ---    0.05063   0.05282   0.05367   0.05393   0.05465
     Eigenvalues ---    0.05500   0.05540   0.05648   0.05680   0.05698
     Eigenvalues ---    0.05721   0.05754   0.05781   0.05797   0.05834
     Eigenvalues ---    0.05879   0.05982   0.05993   0.06007   0.06009
     Eigenvalues ---    0.06022   0.06045   0.10965   0.11098   0.11185
     Eigenvalues ---    0.11246   0.11428   0.11483   0.11548   0.11572
     Eigenvalues ---    0.11634   0.11687   0.11789   0.11913   0.13542
     Eigenvalues ---    0.13599   0.13633   0.13688   0.13763   0.13923
     Eigenvalues ---    0.13930   0.13938   0.13970   0.14057   0.14067
     Eigenvalues ---    0.14246   0.15989   0.16000   0.16000   0.16004
     Eigenvalues ---    0.16006   0.16036   0.20947   0.21947   0.21953
     Eigenvalues ---    0.21969   0.21988   0.22020   0.22025   0.22032
     Eigenvalues ---    0.22077   0.22125   0.22404   0.23016   0.24092
     Eigenvalues ---    0.24258   0.24308   0.24463   0.24543   0.24635
     Eigenvalues ---    0.24806   0.24981   0.25000   0.25122   0.26696
     Eigenvalues ---    0.29140   0.29891   0.30051   0.30163   0.30360
     Eigenvalues ---    0.30559   0.30907   0.33195   0.33390   0.33434
     Eigenvalues ---    0.33465   0.33523   0.33531   0.33639   0.33650
     Eigenvalues ---    0.33745   0.33864   0.34056   0.34212   0.34258
     Eigenvalues ---    0.34310   0.34351   0.34369   0.34374   0.34387
     Eigenvalues ---    0.34398   0.34416   0.34425   0.34428   0.34447
     Eigenvalues ---    0.34455   0.34481   0.34501   0.34520   0.34536
     Eigenvalues ---    0.34608   0.35351   0.38971   0.42113   0.43774
     Eigenvalues ---    0.43895   0.44335   0.44727   0.45003
 Maximum Force            0.000244     0.000015     NO 
 RMS     Force            0.000074     0.000010     NO 
 Maximum Displacement     0.085525     0.000060     NO 
 RMS     Displacement     0.019022     0.000040     NO 
                          Input orientation:                          
 ---------------------------------------------------------------------
 Center     Atomic      Atomic             Coordinates (Angstroms)
 Number     Number       Type             X           Y           Z
 ---------------------------------------------------------------------
      1          6           0       -7.667187    3.753259    0.487634
      2          1           0       -6.621061    3.877432    0.231994
      3          1           0       -8.265203    4.167436   -0.316151
      4          1           0       -7.870971    4.312091    1.395972
      5          6           0       -7.990725    2.284519    0.682888
      6          1           0       -7.400653    1.879871    1.502780
      7          1           0       -9.040853    2.158553    0.946430
      8          8           0       -7.715209    1.613550   -0.511792
      9          6           0       -8.036715    0.258123   -0.550626
     10          1           0       -8.114466   -0.009801   -1.596381
     11          1           0       -9.004672    0.079184   -0.082176
     12          6           0       -7.001600   -0.641625    0.100547
     13          1           0       -6.831998   -0.355550    1.137203
     14          1           0       -7.380430   -1.664398    0.104448
     15          8           0       -5.813905   -0.566884   -0.623430
     16          6           0       -4.761650   -1.320162   -0.107655
     17          1           0       -5.021405   -2.376346   -0.059039
     18          1           0       -4.518587   -0.994314    0.902769
     19          6           0       -3.573915   -1.132877   -1.038386
     20          1           0       -3.329618   -0.076887   -1.113805
     21          1           0       -3.842384   -1.482752   -2.026296
     22          8           0       -2.467509   -1.881132   -0.619185
     23          6           0       -1.604065   -1.254275    0.283300
     24          1           0       -2.109709   -1.003061    1.211415
     25          1           0       -1.224776   -0.328498   -0.143822
     26          6           0       -0.467187   -2.224083    0.564577
     27          1           0        0.002779   -2.519616   -0.364242
     28          1           0       -0.865611   -3.121401    1.020277
     29         16           0        0.770365   -1.570107    1.723345
     30          6           0        1.817555   -0.540937    0.644855
     31          1           0        1.198767    0.062295   -0.005853
     32          1           0        2.329767    0.136723    1.315522
     33          6           0        2.824049   -1.349693   -0.171261
     34          1           0        2.311424   -2.038166   -0.830746
     35          1           0        3.453427   -1.941563    0.481273
     36         16           0        3.869212   -0.338598   -1.264326
     37          6           0        5.024256    0.414061   -0.071764
     38          1           0        5.487419   -0.375366    0.507004
     39          1           0        4.492688    1.065501    0.608062
     40          6           0        6.078130    1.218599   -0.829652
     41          1           0        6.597360    0.594135   -1.544755
     42          1           0        5.602408    2.014803   -1.388726
     43         16           0        7.279141    2.046860    0.255005
     44          6           0        8.386193    0.688605    0.749721
     45          1           0        8.946878    1.090531    1.585370
     46          1           0        7.798261   -0.134906    1.136763
     47          6           0        9.342615    0.210424   -0.339139
     48          1           0        8.811832   -0.208450   -1.186813
     49          1           0        9.958486    1.026630   -0.698145
     50          1           0        9.995051   -0.563737    0.055011
 ---------------------------------------------------------------------
 Stoichiometry    C14H30O3S3
 Framework group  C1[X(C14H30O3S3)]
                         Standard orientation:                         
 ---------------------------------------------------------------------
 Center     Atomic      Atomic             Coordinates (Angstroms)
 Number     Number       Type             X           Y           Z
 ---------------------------------------------------------------------
      1          6           0       -7.692555    3.720289    0.496584
      2          1           0       -6.646860    3.849353    0.241603
      3          1           0       -8.291983    4.137320   -0.304670
      4          1           0       -7.898046    4.273039    1.408253
      5          6           0       -8.011341    2.249377    0.683108
      6          1           0       -7.419885    1.841753    1.500526
      7          1           0       -9.061031    2.118460    0.945980
      8          8           0       -7.733785    1.586430   -0.515572
      9          6           0       -8.050927    0.230229   -0.562457
     10          1           0       -8.127920   -0.031707   -1.609783
     11          1           0       -9.018255    0.045385   -0.095002
     12          6           0       -7.012853   -0.670043    0.083258
     13          1           0       -6.844069   -0.389605    1.121587
     14          1           0       -7.388387   -1.694036    0.081095
     15          8           0       -5.825478   -0.587163   -0.640358
     16          6           0       -4.770750   -1.340107   -0.129166
     17          1           0       -5.027097   -2.397393   -0.086824
     18          1           0       -4.528636   -1.019505    0.883162
     19          6           0       -3.583719   -1.143453   -1.058862
     20          1           0       -3.342832   -0.086251   -1.128006
     21          1           0       -3.851159   -1.488298   -2.048817
     22          8           0       -2.474866   -1.890624   -0.644217
     23          6           0       -1.613355   -1.266378    0.261917
     24          1           0       -2.119712   -1.022330    1.191553
     25          1           0       -1.237092   -0.336855   -0.159711
     26          6           0       -0.473330   -2.234177    0.537317
     27          1           0       -0.002508   -2.522654   -0.393285
     28          1           0       -0.868815   -3.135473    0.987694
     29         16           0        0.762226   -1.583134    1.699860
     30          6           0        1.805986   -0.544187    0.627437
     31          1           0        1.185193    0.060915   -0.019614
     32          1           0        2.316080    0.131111    1.302090
     33          6           0        2.814998   -1.344818   -0.193566
     34          1           0        2.304527   -2.030997   -0.857101
     35          1           0        3.446345   -1.938536    0.455378
     36         16           0        3.856788   -0.323865   -1.280671
     37          6           0        5.009522    0.425391   -0.083739
     38          1           0        5.475284   -0.365974    0.490276
     39          1           0        4.475927    1.071052    0.600001
     40          6           0        6.060723    1.237823   -0.836905
     41          1           0        6.581890    0.619307   -1.555759
     42          1           0        5.582382    2.035807   -1.391185
     43         16           0        7.259168    2.063470    0.252571
     44          6           0        8.370640    0.705865    0.739093
     45          1           0        8.930111    1.104608    1.577077
     46          1           0        7.785403   -0.121828    1.121269
     47          6           0        9.328487    0.237265   -0.352675
     48          1           0        8.798971   -0.178258   -1.202787
     49          1           0        9.941690    1.057576   -0.706861
     50          1           0        9.983454   -0.537125    0.036801
 ---------------------------------------------------------------------
 Standard basis: 6-31G(d) (6D, 7F)
   372 basis functions,   752 primitive gaussians,   372 cartesian basis functions
    93 alpha electrons       93 beta electrons
 Requested convergence on RMS density matrix=1.00D-08 within  64 cycles.
 Requested convergence on MAX density matrix=1.00D-06.
 Requested convergence on             energy=1.00D-06.
 SCF Done:  E(RHF) =  -1964.69452592     A.U. after   10 cycles
            NFock= 10  Conv=0.64D-08     -V/T= 2.0006
 Step number   6 out of a maximum of   55
     Eigenvalues ---    0.00208   0.00230   0.00231   0.00242   0.00254
     Eigenvalues ---    0.00426   0.00456   0.00468   0.00479   0.00512
     Eigenvalues ---    0.00528   0.00555   0.00580   0.00654   0.01543
     Eigenvalues ---    0.01564   0.01616   0.01618   0.01626   0.04371
     Eigenvalues ---    0.04481   0.04554   0.04803   0.04980   0.05006
     Eigenvalues ---    0.05059   0.05276   0.05389   0.05443   0.05478
     Eigenvalues ---    0.05508   0.05554   0.05664   0.05683   0.05697
     Eigenvalues ---    0.05732   0.05755   0.05795   0.05827   0.05861
     Eigenvalues ---    0.05899   0.05982   0.05990   0.06005   0.06019
     Eigenvalues ---    0.06029   0.06144   0.10978   0.11100   0.11186
     Eigenvalues ---    0.11227   0.11369   0.11497   0.11559   0.11571
     Eigenvalues ---    0.11637   0.11705   0.11822   0.12066   0.13557
     Eigenvalues ---    0.13621   0.13644   0.13690   0.13769   0.13917
     Eigenvalues ---    0.13935   0.13940   0.13967   0.14055   0.14101
     Eigenvalues ---    0.14658   0.15995   0.15998   0.16000   0.16001
     Eigenvalues ---    0.16006   0.16024   0.20728   0.21945   0.21954
     Eigenvalues ---    0.21970   0.21989   0.22019   0.22025   0.22043
     Eigenvalues ---    0.22073   0.22302   0.22965   0.23285   0.24095
     Eigenvalues ---    0.24266   0.24293   0.24485   0.24512   0.24629
     Eigenvalues ---    0.24888   0.24963   0.25007   0.25312   0.26705
     Eigenvalues ---    0.29278   0.29879   0.30058   0.30175   0.30364
     Eigenvalues ---    0.30596   0.30916   0.33375   0.33412   0.33439
     Eigenvalues ---    0.33475   0.33525   0.33566   0.33647   0.33684
     Eigenvalues ---    0.33753   0.33889   0.34200   0.34215   0.34268
     Eigenvalues ---    0.34319   0.34362   0.34375   0.34380   0.34390
     Eigenvalues ---    0.34406   0.34417   0.34425   0.34430   0.34450
     Eigenvalues ---    0.34459   0.34485   0.34505   0.34524   0.34538
     Eigenvalues ---    0.34608   0.36153   0.39377   0.43706   0.43854
     Eigenvalues ---    0.44269   0.44560   0.44761   0.50910
 Maximum Force            0.000320     0.000015     NO 
 RMS     Force            0.000082     0.000010     NO 
 Maximum Displacement     0.103425     0.000060     NO 
 RMS     Displacement     0.032542     0.000040     NO 
                          Input orientation:                          
 ---------------------------------------------------------------------
 Center     Atomic      Atomic             Coordinates (Angstroms)
 Number     Number       Type             X           Y           Z
 ---------------------------------------------------------------------
      1          6           0       -7.709398    3.732762    0.512627
      2          1           0       -6.660977    3.863258    0.269899
      3          1           0       -8.299919    4.152380   -0.293866
      4          1           0       -7.925465    4.282139    1.423857
      5          6           0       -8.029607    2.261113    0.690464
      6          1           0       -7.447122    1.850717    1.512960
      7          1           0       -9.082033    2.128765    0.941428
      8          8           0       -7.738768    1.602277   -0.507252
      9          6           0       -8.050450    0.245053   -0.560165
     10          1           0       -8.122768   -0.013769   -1.608605
     11          1           0       -9.018677    0.054743   -0.096829
     12          6           0       -7.011030   -0.652808    0.086728
     13          1           0       -6.847596   -0.374858    1.126607
     14          1           0       -7.382247   -1.678338    0.080071
     15          8           0       -5.821236   -0.563005   -0.631748
     16          6           0       -4.765531   -1.312462   -0.117907
     17          1           0       -5.017775   -2.370825   -0.078529
     18          1           0       -4.528561   -0.993079    0.896069
     19          6           0       -3.574977   -1.109264   -1.041498
     20          1           0       -3.339288   -0.050876   -1.109135
     21          1           0       -3.834695   -1.455168   -2.033185
     22          8           0       -2.465261   -1.850772   -0.618780
     23          6           0       -1.603625   -1.214267    0.278548
     24          1           0       -2.112225   -0.950534    1.201600
     25          1           0       -1.221775   -0.294376   -0.158789
     26          6           0       -0.469159   -2.182133    0.575788
     27          1           0        0.003087   -2.490662   -0.347618
     28          1           0       -0.870603   -3.072816    1.041743
     29         16           0        0.765943   -1.515377    1.729892
     30          6           0        1.825232   -0.511182    0.639649
     31          1           0        1.213699    0.083358   -0.025694
     32          1           0        2.336604    0.175992    1.301151
     33          6           0        2.832821   -1.339527   -0.155370
     34          1           0        2.320803   -2.036828   -0.805954
     35          1           0        3.454791   -1.923183    0.511482
     36         16           0        3.890585   -0.353256   -1.259100
     37          6           0        5.044404    0.410980   -0.072772
     38          1           0        5.498480   -0.371845    0.521866
     39          1           0        4.513765    1.077385    0.593092
     40          6           0        6.108270    1.195518   -0.837788
     41          1           0        6.625872    0.556344   -1.541001
     42          1           0        5.641357    1.986752   -1.411106
     43         16           0        7.311030    2.030259    0.240083
     44          6           0        8.414136    0.672989    0.746202
     45          1           0        8.981104    1.081851    1.574197
     46          1           0        7.824092   -0.142825    1.146082
     47          6           0        9.362374    0.176900   -0.341854
     48          1           0        8.824933   -0.249057   -1.181767
     49          1           0        9.980540    0.985539   -0.713739
     50          1           0       10.012844   -0.595985    0.057963
 ---------------------------------------------------------------------
 Stoichiometry    C14H30O3S3
 Framework group  C1[X(C14H30O3S3)]
                         Standard orientation:                         
 ---------------------------------------------------------------------
 Center     Atomic      Atomic             Coordinates (Angstroms)
 Number     Number       Type             X           Y           Z
 ---------------------------------------------------------------------
      1          6           0       -7.740831    3.693341    0.496258
      2          1           0       -6.692855    3.828050    0.253905
      3          1           0       -8.332744    4.110576   -0.310452
      4          1           0       -7.959432    4.241853    1.407405
      5          6           0       -8.055185    2.220418    0.673993
      6          1           0       -7.471350    1.812374    1.496701
      7          1           0       -9.107160    2.083842    0.924579
      8          8           0       -7.761269    1.562748   -0.523613
      9          6           0       -8.067473    0.204282   -0.576626
     10          1           0       -8.138373   -0.054837   -1.625089
     11          1           0       -9.035093    0.010084   -0.113636
     12          6           0       -7.024684   -0.689389    0.070649
     13          1           0       -6.862743   -0.410776    1.110584
     14          1           0       -7.391773   -1.716403    0.063867
     15          8           0       -5.835003   -0.594809   -0.647400
     16          6           0       -4.776478   -1.340012   -0.133172
     17          1           0       -5.024479   -2.399380   -0.093876
     18          1           0       -4.541159   -1.019671    0.880885
     19          6           0       -3.586419   -1.132036   -1.056338
     20          1           0       -3.354962   -0.072710   -1.123900
     21          1           0       -3.844387   -1.478989   -2.048115
     22          8           0       -2.473882   -1.869073   -0.633214
     23          6           0       -1.615135   -1.229102    0.264418
     24          1           0       -2.125123   -0.967409    1.187285
     25          1           0       -1.236829   -0.307687   -0.172790
     26          6           0       -0.476894   -2.192397    0.562075
     27          1           0       -0.003080   -2.499032   -0.361159
     28          1           0       -0.874921   -3.084683    1.027893
     29         16           0        0.755103   -1.520673    1.716616
     30          6           0        1.810738   -0.512236    0.626746
     31          1           0        1.197059    0.079837   -0.038823
[...]
     18          1           0       -4.529397   -0.982505    0.874591
     19          6           0       -3.571011   -1.066370   -1.060445
     20          1           0       -3.352962   -0.004162   -1.121937
     21          1           0       -3.818951   -1.412204   -2.055118
     22          8           0       -2.451551   -1.791396   -0.632113
     23          6           0       -1.593575   -1.130850    0.252158
     24          1           0       -2.110920   -0.828126    1.158112
     25          1           0       -1.196720   -0.231909   -0.213977
     26          6           0       -0.473823   -2.098738    0.598732
     27          1           0        0.003389   -2.449447   -0.306827
     28          1           0       -0.889452   -2.965393    1.096309
     29         16           0        0.758159   -1.400388    1.737325
     30          6           0        1.840888   -0.456160    0.617181
     31          1           0        1.243726    0.116902   -0.079264
     32          1           0        2.353409    0.252012    1.255179
     33          6           0        2.846182   -1.329451   -0.130649
     34          1           0        2.332845   -2.048688   -0.755743
     35          1           0        3.454834   -1.890201    0.567335
     36         16           0        3.925601   -0.405371   -1.266263
     37          6           0        5.075709    0.399152   -0.103156
     38          1           0        5.513019   -0.360906    0.532183
     39          1           0        4.546228    1.102094    0.524924
     40          6           0        6.157579    1.134200   -0.891042
     41          1           0        6.676918    0.456692   -1.555879
     42          1           0        5.707233    1.902119   -1.507654
     43         16           0        7.355053    2.008799    0.160480
     44          6           0        8.436042    0.666791    0.748417
     45          1           0        8.993968    1.110821    1.564265
     46          1           0        7.831625   -0.122640    1.178425
     47          6           0        9.395668    0.109754   -0.298895
     48          1           0        8.867380   -0.350485   -1.126394
     49          1           0       10.028540    0.893260   -0.698697
     50          1           0       10.031299   -0.649671    0.147751
 ---------------------------------------------------------------------
 Stoichiometry    C14H30O3S3
 Framework group  C1[X(C14H30O3S3)]
                         Standard orientation:                         
 ---------------------------------------------------------------------
 Center     Atomic      Atomic             Coordinates (Angstroms)
 Number     Number       Type             X           Y           Z
 ---------------------------------------------------------------------
      1          6           0       -7.827193    3.637919    0.500982
      2          1           0       -6.770719    3.777064    0.302246
      3          1           0       -8.387031    4.060643   -0.325420
      4          1           0       -8.083782    4.178507    1.406892
      5          6           0       -8.144731    2.163246    0.653315
      6          1           0       -7.592145    1.748363    1.493845
      7          1           0       -9.205098    2.022033    0.861422
      8          8           0       -7.803250    1.517209   -0.538693
      9          6           0       -8.085090    0.153356   -0.605445
     10          1           0       -8.136435   -0.100293   -1.656268
     11          1           0       -9.055197   -0.060773   -0.157467
     12          6           0       -7.034165   -0.723764    0.049747
     13          1           0       -6.881536   -0.439303    1.089283
     14          1           0       -7.385465   -1.756161    0.043786
     15          8           0       -5.841745   -0.613152   -0.662802
     16          6           0       -4.774004   -1.338931   -0.138646
     17          1           0       -5.006425   -2.401402   -0.092864
     18          1           0       -4.547054   -1.008210    0.873857
     19          6           0       -3.583058   -1.120048   -1.056974
     20          1           0       -3.371059   -0.057803   -1.136377
     21          1           0       -3.826329   -1.484572   -2.046110
     22          8           0       -2.460521   -1.830913   -0.613236
     23          6           0       -1.608772   -1.150056    0.261599
     24          1           0       -2.130282   -0.834684    1.160825
     25          1           0       -1.215942   -0.257030   -0.219089
     26          6           0       -0.484307   -2.105161    0.627817
     27          1           0       -0.002649   -2.468739   -0.270283
     28          1           0       -0.896184   -2.965470    1.139332
     29         16           0        0.740544   -1.379882    1.757232
     30          6           0        1.820707   -0.448905    0.623601
     31          1           0        1.222058    0.108438   -0.084231
     32          1           0        2.327383    0.273256    1.250489
     33          6           0        2.833071   -1.329125   -0.106354
     34          1           0        2.325609   -2.062129   -0.720151
     35          1           0        3.443134   -1.874063    0.602831
     36         16           0        3.910083   -0.418580   -1.255111
     37          6           0        5.052375    0.412798   -0.103242
     38          1           0        5.492432   -0.333514    0.546338
     39          1           0        4.517128    1.123419    0.511160
     40          6           0        6.132019    1.140400   -0.901029
     41          1           0        6.657074    0.454510   -1.552651
     42          1           0        5.678832    1.894820   -1.532055
     43         16           0        7.321564    2.040182    0.138174
     44          6           0        8.408813    0.714985    0.752126
     45          1           0        8.961964    1.176407    1.561549
     46          1           0        7.807880   -0.070399    1.194257
     47          6           0        9.374457    0.145492   -0.282882
     48          1           0        8.851068   -0.332163   -1.103596
     49          1           0       10.003798    0.925645   -0.694636
     50          1           0       10.013327   -0.602299    0.178529
 ---------------------------------------------------------------------
 Standard basis: 6-31G(d) (6D, 7F)
   372 basis functions,   752 primitive gaussians,   372 cartesian basis functions
    93 alpha electrons       93 beta electrons
 Requested convergence on RMS density matrix=1.00D-08 within  64 cycles.
 Requested convergence on MAX density matrix=1.00D-06.
 Requested convergence on             energy=1.00D-06.
 SCF Done:  E(RHF) =  -1964.69454565     A.U. after    4 cycles
            NFock=  4  Conv=0.28D-08     -V/T= 2.0006
 Step number  26 out of a maximum of   55
     Eigenvalues ---    0.00136   0.00224   0.00249   0.00368   0.00392
     Eigenvalues ---    0.00431   0.00439   0.00470   0.00525   0.00554
     Eigenvalues ---    0.00595   0.00595   0.00635   0.00658   0.00780
     Eigenvalues ---    0.01052   0.01441   0.01563   0.01686   0.04729
     Eigenvalues ---    0.04939   0.04978   0.04991   0.05091   0.05219
     Eigenvalues ---    0.05355   0.05393   0.05485   0.05531   0.05562
     Eigenvalues ---    0.05683   0.05690   0.05703   0.05718   0.05736
     Eigenvalues ---    0.05752   0.05760   0.05790   0.05832   0.05896
     Eigenvalues ---    0.05949   0.05980   0.06000   0.06005   0.06060
     Eigenvalues ---    0.06132   0.06366   0.11056   0.11145   0.11201
     Eigenvalues ---    0.11385   0.11482   0.11571   0.11635   0.11654
     Eigenvalues ---    0.11720   0.11827   0.11887   0.12263   0.13509
     Eigenvalues ---    0.13609   0.13666   0.13692   0.13790   0.13798
     Eigenvalues ---    0.13902   0.13966   0.14040   0.14065   0.14280
     Eigenvalues ---    0.14401   0.15897   0.16000   0.16002   0.16015
     Eigenvalues ---    0.16064   0.16168   0.20426   0.21688   0.21709
     Eigenvalues ---    0.21962   0.22043   0.22206   0.22538   0.23001
     Eigenvalues ---    0.23208   0.23298   0.23473   0.23532   0.24113
     Eigenvalues ---    0.24314   0.24441   0.24541   0.24584   0.24692
     Eigenvalues ---    0.25236   0.25314   0.26123   0.26507   0.28348
     Eigenvalues ---    0.30052   0.30236   0.30373   0.30748   0.30870
     Eigenvalues ---    0.31052   0.31963   0.33413   0.33440   0.33472
     Eigenvalues ---    0.33516   0.33607   0.33635   0.33692   0.33726
     Eigenvalues ---    0.33857   0.33956   0.34212   0.34270   0.34336
     Eigenvalues ---    0.34371   0.34388   0.34397   0.34412   0.34421
     Eigenvalues ---    0.34447   0.34460   0.34470   0.34481   0.34516
     Eigenvalues ---    0.34541   0.34554   0.34614   0.34691   0.34736
     Eigenvalues ---    0.35068   0.37009   0.38902   0.41722   0.43721
     Eigenvalues ---    0.43943   0.44774   0.45235   0.45740
 Maximum Force            0.000000     0.000015     YES
 RMS     Force            0.000000     0.000010     YES
 Maximum Displacement     0.000034     0.000060     YES
 RMS     Displacement     0.000007     0.000040     YES
 Optimization completed.
    -- Stationary point found.
                          Input orientation:                          
 ---------------------------------------------------------------------
 Center     Atomic      Atomic             Coordinates (Angstroms)
 Number     Number       Type             X           Y           Z
 ---------------------------------------------------------------------
      1          6           0       -7.783053    3.688501    0.591240
      2          1           0       -6.726289    3.824905    0.392147
      3          1           0       -8.342500    4.128801   -0.226200
      4          1           0       -8.034140    4.214738    1.507087
      5          6           0       -8.108883    2.213282    0.718762
      6          1           0       -7.556605    1.780616    1.550483
      7          1           0       -9.169527    2.074670    0.927199
      8          8           0       -7.774258    1.586094   -0.485197
      9          6           0       -8.064297    0.225279   -0.574895
     10          1           0       -8.119818   -0.009747   -1.629828
     11          1           0       -9.034500    0.009063   -0.128131
     12          6           0       -7.016886   -0.669234    0.062159
     13          1           0       -6.859930   -0.403797    1.106073
     14          1           0       -7.374276   -1.699299    0.039188
     15          8           0       -5.825659   -0.553214   -0.651524
     16          6           0       -4.760877   -1.294231   -0.142901
     17          1           0       -4.999434   -2.355960   -0.114974
     18          1           0       -4.529397   -0.982505    0.874591
     19          6           0       -3.571011   -1.066370   -1.060445
     20          1           0       -3.352962   -0.004162   -1.121937
     21          1           0       -3.818951   -1.412204   -2.055118
     22          8           0       -2.451551   -1.791396   -0.632113
     23          6           0       -1.593575   -1.130850    0.252158
     24          1           0       -2.110920   -0.828126    1.158112
     25          1           0       -1.196720   -0.231909   -0.213977
     26          6           0       -0.473823   -2.098738    0.598732
     27          1           0        0.003389   -2.449447   -0.306827
     28          1           0       -0.889452   -2.965393    1.096309
     29         16           0        0.758159   -1.400388    1.737325
     30          6           0        1.840888   -0.456160    0.617181
     31          1           0        1.243726    0.116902   -0.079264
     32          1           0        2.353409    0.252012    1.255179
     33          6           0        2.846182   -1.329451   -0.130649
     34          1           0        2.332845   -2.048688   -0.755743
     35          1           0        3.454834   -1.890201    0.567335
     36         16           0        3.925601   -0.405371   -1.266263
     37          6           0        5.075709    0.399152   -0.103156
     38          1           0        5.513019   -0.360906    0.532183
     39          1           0        4.546228    1.102094    0.524924
     40          6           0        6.157579    1.134200   -0.891042
     41          1           0        6.676918    0.456692   -1.555879
     42          1           0        5.707233    1.902119   -1.507654
     43         16           0        7.355053    2.008799    0.160480
     44          6           0        8.436042    0.666791    0.748417
     45          1           0        8.993968    1.110821    1.564265
     46          1           0        7.831625   -0.122640    1.178425
     47          6           0        9.395668    0.109754   -0.298895
     48          1           0        8.867380   -0.350485   -1.126394
     49          1           0       10.028540    0.893260   -0.698697
     50          1           0       10.031299   -0.649671    0.147751
 ---------------------------------------------------------------------
 Stoichiometry    C14H30O3S3
 Framework group  C1[X(C14H30O3S3)]
                         Standard orientation:                         
 ---------------------------------------------------------------------
 Center     Atomic      Atomic             Coordinates (Angstroms)
 Number     Number       Type             X           Y           Z
 ---------------------------------------------------------------------
      1          6           0       -7.827193    3.637919    0.500982
      2          1           0       -6.770719    3.777064    0.302246
      3          1           0       -8.387031    4.060643   -0.325420
      4          1           0       -8.083782    4.178507    1.406892
      5          6           0       -8.144731    2.163246    0.653315
      6          1           0       -7.592145    1.748363    1.493845
      7          1           0       -9.205098    2.022033    0.861422
      8          8           0       -7.803250    1.517209   -0.538693
      9          6           0       -8.085090    0.153356   -0.605445
     10          1           0       -8.136435   -0.100293   -1.656268
     11          1           0       -9.055197   -0.060773   -0.157467
     12          6           0       -7.034165   -0.723764    0.049747
     13          1           0       -6.881536   -0.439303    1.089283
     14          1           0       -7.385465   -1.756161    0.043786
     15          8           0       -5.841745   -0.613152   -0.662802
     16          6           0       -4.774004   -1.338931   -0.138646
     17          1           0       -5.006425   -2.401402   -0.092864
     18          1           0       -4.547054   -1.008210    0.873857
     19          6           0       -3.583058   -1.120048   -1.056974
     20          1           0       -3.371059   -0.057803   -1.136377
     21          1           0       -3.826329   -1.484572   -2.046110
     22          8           0       -2.460521   -1.830913   -0.613236
     23          6           0       -1.608772   -1.150056    0.261599
     24          1           0       -2.130282   -0.834684    1.160825
     25          1           0       -1.215942   -0.257030   -0.219089
     26          6           0       -0.484307   -2.105161    0.627817
     27          1           0       -0.002649   -2.468739   -0.270283
     28          1           0       -0.896184   -2.965470    1.139332
     29         16           0        0.740544   -1.379882    1.757232
     30          6           0        1.820707   -0.448905    0.623601
     31          1           0        1.222058    0.108438   -0.084231
     32          1           0        2.327383    0.273256    1.250489
     33          6           0        2.833071   -1.329125   -0.106354
     34          1           0        2.325609   -2.062129   -0.720151
     35          1           0        3.443134   -1.874063    0.602831
     36         16           0        3.910083   -0.418580   -1.255111
     37          6           0        5.052375    0.412798   -0.103242
     38          1           0        5.492432   -0.333514    0.546338
     39          1           0        4.517128    1.123419    0.511160
     40          6           0        6.132019    1.140400   -0.901029
     41          1           0        6.657074    0.454510   -1.552651
     42          1           0        5.678832    1.894820   -1.532055
     43         16           0        7.321564    2.040182    0.138174
     44          6           0        8.408813    0.714985    0.752126
     45          1           0        8.961964    1.176407    1.561549
     46          1           0        7.807880   -0.070399    1.194257
     47          6           0        9.374457    0.145492   -0.282882
     48          1           0        8.851068   -0.332163   -1.103596
     49          1           0       10.003798    0.925645   -0.694636
     50          1           0       10.013327   -0.602299    0.178529
 ---------------------------------------------------------------------
 Mulliken charges:
     1  C   -0.487300
     2  H    0.176349
     3  H    0.174652
     4  H    0.154526
     5  C    0.018647
     6  H    0.135414
     7  H    0.135774
     8  O   -0.613338
     9  C    0.004178
    10  H    0.186323
    11  H    0.138185
    12  C    0.006062
    13  H    0.142084
    14  H    0.138979
    15  O   -0.625896
    16  C    0.014191
    17  H    0.149541
    18  H    0.139285
    19  C   -0.001918
    20  H    0.161082
    21  H    0.185015
    22  O   -0.641058
    23  C    0.030848
    24  H    0.155680
    25  H    0.149253
    26  C   -0.494135
    27  H    0.204840
    28  H    0.212354
    29  S    0.110506
    30  C   -0.476997
    31  H    0.210490
    32  H    0.205758
    33  C   -0.475875
    34  H    0.205938
    35  H    0.207006
    36  S    0.118131
    37  C   -0.454414
    38  H    0.190007
    39  H    0.205336
    40  C   -0.500157
    41  H    0.210996
    42  H    0.216857
    43  S    0.121414
    44  C   -0.476094
    45  H    0.201284
    46  H    0.189157
    47  C   -0.475366
    48  H    0.166868
    49  H    0.181485
    50  H    0.168051
 Sum of Mulliken charges =  -0.00000
 Dipole moment (field-independent basis, Debye):
    X=             -0.9288    Y=             -1.6054    Z=              2.0857  Tot=              2.7910
 Quadrupole moment (field-independent basis, Debye-Ang):
   XX=           -121.7272   YY=           -155.0547   ZZ=           -155.6490
   XY=             -4.0896   XZ=             -7.7951   YZ=              1.9823
 Traceless Quadrupole moment (field-independent basis, Debye-Ang):
   XX=             22.4164   YY=            -10.9111   ZZ=            -11.5054
   XY=             -4.0896   XZ=             -7.7951   YZ=              1.9823
 Octapole moment (field-independent basis, Debye-Ang**2):
  XXX=           -133.3029  YYY=            -11.8099  ZZZ=            -15.2348  XYY=            -69.5395
  XXY=           -122.1264  XXZ=            133.6218  XZZ=            -29.3658  YZZ=              4.8370
  YYZ=              1.0954  XYZ=            -21.8184
 Hexadecapole moment (field-independent basis, Debye-Ang**3):
 XXXX=         -26828.3461 YYYY=          -2284.2848 ZZZZ=           -872.8858 XXXY=           -327.4919
 XXXZ=           -211.3576 YYYX=           -153.8325 YYYZ=              1.4816 ZZZX=             59.8984
 ZZZY=             19.7667 XXYY=          -5627.6855 XXZZ=          -5142.1021 YYZZ=           -524.2093
 XXYZ=            149.8746 YYXZ=            -42.8486 ZZXY=             24.9976
 Job cpu time:       0 days  2 hours 16 minutes 15.2 seconds.
 Normal termination of Gaussian 16 at Sat Jul  8 18:55:59 2023.
