 Copyright (c) 1988-2019, Gaussian, Inc.  All Rights Reserved.
  
 This is part of the Gaussian(R) 16 program.  It is based on
 the Gaussian(R) 09 system (copyright 2009, Gaussian, Inc.),
 the Gaussian(R) 03 system (copyright 2003, Gaussian, Inc.),
 the Gaussian(R) 98 system (copyright 1998, Gaussian, Inc.),
 the Gaussian(R) 94 system (copyright 1995, Gaussian, Inc.),
 the Gaussian 92(TM) system (copyright 1992, Gaussian, Inc.),
 the Gaussian 90(TM) system (copyright 1990, Gaussian, Inc.),
 the Gaussian 88(TM) system (copyright 1988, Gaussian, Inc.),
 the Gaussian 86(TM) system (copyright 1986, Carnegie Mellon
 University), and the Gaussian 82(TM) system (copyright 1983,
 Carnegie Mellon University). Gaussian is a federally registered
 trademark of Gaussian, Inc.
 Cite this work as:
 Gaussian 16, Revision C.01,
 M. J. Frisch, G. W. Trucks, H. B. Schlegel, G. E. Scuseria, 
 M. A. Robb, J. R. Cheeseman, G. Scalmani, V. Barone, 
 G. A. Petersson, H. Nakatsuji, X. Li, M. Caricato, A. V. Marenich, 
 J. Bloino, B. G. Janesko, R. Gomperts, B. Mennucci, H. P. Hratchian, 
 J. V. Ortiz, A. F. Izmaylov, J. L. Sonnenberg, D. Williams-Young, 
 F. Ding, F. Lipparini, F. Egidi, J. Goings, B. Peng, A. Petrone, 
 T. Henderson, D. Ranasinghe, V. G. Zakrzewski, J. Gao, N. Rega, 
 G. Zheng, W. Liang, M. Hada, M. Ehara, K. Toyota, R. Fukuda, 
 J. Hasegawa, M. Ishida, T. Nakajima, Y. Honda, O. Kitao, H. Nakai, 
 T. Vreven, K. Throssell, J. A. Montgomery, Jr., J. E. Peralta, 
 F. Ogliaro, M. J. Bearpark, J. J. Heyd, E. N. Brothers, K. N. Kudin, 
 V. N. Staroverov, T. A. Keith, R. Kobayashi, J. Normand, 
 K. Raghavachari, A. P. Rendell, J. C. Burant, S. S. Iyengar, 
 J. Tomasi, M. Cossi, J. M. Millam, M. Klene, C. Adamo, R. Cammi, 
 J. W. Ochterski, R. L. Martin, K. Morokuma, O. Farkas, 
 J. B. Foresman, and D. J. Fox, Gaussian, Inc., Wallingford CT, 2019.
 
 ******************************************
 Gaussian 16:  EM64L-G16RevC.01  3-Jul-2019
                 8-Jul-2023 
 ******************************************
 ----------------------------------------------------------------------
 #P HF/6-31G(d) Opt=(Tight,MaxCycle=55) GFInput GFPrint SCF(Conver=8,XQ
 C,MaxConventionalCycles=64,MaxCycle=128) Test
 ----------------------------------------------------------------------
 1/6=55,7=10,18=20,19=15,38=1/1,3;
 2/9=110,12=2,17=6,18=5,40=1/2;
 3/5=1,6=6,7=1,11=9,24=110,25=1,30=1,71=1/1,2,3;
 4//1;
 5/5=2,6=8,7=128,8=3,13=1,38=5,85=64/2,8;
 6/7=2,8=2,9=2,10=2,28=1/1;
 7//1,2,3,16;
 1/6=55,7=10,18=20,19=15/3(2);
 2/9=110/2;
 99//99;
 2/9=110/2;
 3/5=1,6=6,7=1,11=9,25=1,30=1,71=1/1,2,3;
 4/5=5,16=3,69=1/1;
 5/5=2,6=8,7=128,8=3,13=1,38=5,85=64/2,8;
 7//1,2,3,16;
 1/6=55,7=10,18=20,19=15/3(-5);
 2/9=110/2;
 6/7=2,8=2,9=2,10=2,19=2,28=1/1;
 99/9=1/99;
 ----------------------------------------------------------
 Optimization step - Input generated by PyRED DVE-DMDS-OPLS
 ----------------------------------------------------------
 Symbolic Z-matrix:
 Charge =  0 Multiplicity = 1
 C                    -8.466    -2.866    -0.872 
 H                    -9.196    -2.595    -0.103 
 H                    -8.772    -2.405    -1.815 
 H                    -8.5      -3.954    -0.992 
 C                    -7.058    -2.424    -0.501 
 H                    -6.754    -2.871     0.458 
 H                    -6.348    -2.761    -1.262 
 O                    -6.906    -1.018    -0.445 
 C                    -7.487    -0.409     0.686 
 H                    -7.16     -0.914     1.608 
 H                    -8.586    -0.459     0.645 
 C                    -7.069     1.048     0.741 
 H                    -7.263     1.516    -0.235 
 H                    -7.684     1.556     1.492 
 O                    -5.732     1.248     1.134 
 C                    -4.766     1.086     0.115 
 H                    -5.044     1.663    -0.779 
 H                    -4.665     0.038    -0.184 
 C                    -3.456     1.605     0.671 
 H                    -3.192     1.046     1.582 
 H                    -3.561     2.664     0.95 
 O                    -2.473     1.439    -0.324 
 C                    -1.199     1.881     0.077 
 H                    -0.863     1.328     0.969 
 H                    -1.219     2.948     0.345 
 C                    -0.249     1.654    -1.086 
 H                    -0.566     2.255    -1.941 
 H                    -0.285     0.607    -1.399 
 S                     1.464     2.147    -0.716 
 C                     2.069     0.684     0.194 
 H                     2.933     1.029     0.765 
 H                     1.319     0.364     0.922 
 C                     2.454    -0.473    -0.724 
 H                     3.227    -0.163    -1.432 
 H                     1.59     -0.786    -1.317 
 S                     3.026    -1.964     0.167 
 C                     4.84     -1.795     0.078 
 H                     5.126    -1.629    -0.965 
 H                     5.229    -2.776     0.364 
 C                     5.431    -0.726     0.99 
 H                     5.068     0.271     0.72 
 H                     5.13     -0.911     2.023 
 S                     7.253    -0.698     0.997 
 C                     7.591     0.103    -0.608 
 H                     7.217    -0.523    -1.423 
 H                     7.058     1.058    -0.642 
 C                     9.09      0.324    -0.765 
 H                     9.479     0.965     0.031 
 H                     9.635    -0.624    -0.735 
 H                     9.302     0.806    -1.724 
 
 ITRead=  0  0  0  0  0  0  0  0  0  0  0  0  0  0  0  0  0  0  0  0
 ITRead=  0  0  0  0  0  0  0  0  0  0  0  0  0  0  0  0  0  0  0  0
 ITRead=  0  0  0  0  0  0  0  0  0  0
 MicOpt= -1 -1 -1 -1 -1 -1 -1 -1 -1 -1 -1 -1 -1 -1 -1 -1 -1 -1 -1 -1
 MicOpt= -1 -1 -1 -1 -1 -1 -1 -1 -1 -1 -1 -1 -1 -1 -1 -1 -1 -1 -1 -1
 MicOpt= -1 -1 -1 -1 -1 -1 -1 -1 -1 -1
 NAtoms=     50 NQM=       50 NQMF=       0 NMMI=      0 NMMIF=      0
                NMic=       0 NMicF=      0.
                          Input orientation:                          
 ---------------------------------------------------------------------
 Center     Atomic      Atomic             Coordinates (Angstroms)
 Number     Number       Type             X           Y           Z
 ---------------------------------------------------------------------
      1          6           0       -8.466000   -2.866000   -0.872000
      2          1           0       -9.196000   -2.595000   -0.103000
      3          1           0       -8.772000   -2.405000   -1.815000
      4          1           0       -8.500000   -3.954000   -0.992000
      5          6           0       -7.058000   -2.424000   -0.501000
      6          1           0       -6.754000   -2.871000    0.458000
      7          1           0       -6.348000   -2.761000   -1.262000
      8          8           0       -6.906000   -1.018000   -0.445000
      9          6           0       -7.487000   -0.409000    0.686000
     10          1           0       -7.160000   -0.914000    1.608000
     11          1           0       -8.586000   -0.459000    0.645000
     12          6           0       -7.069000    1.048000    0.741000
     13          1           0       -7.263000    1.516000   -0.235000
     14          1           0       -7.684000    1.556000    1.492000
     15          8           0       -5.732000    1.248000    1.134000
     16          6           0       -4.766000    1.086000    0.115000
     17          1           0       -5.044000    1.663000   -0.779000
     18          1           0       -4.665000    0.038000   -0.184000
     19          6           0       -3.456000    1.605000    0.671000
     20          1           0       -3.192000    1.046000    1.582000
     21          1           0       -3.561000    2.664000    0.950000
     22          8           0       -2.473000    1.439000   -0.324000
     23          6           0       -1.199000    1.881000    0.077000
     24          1           0       -0.863000    1.328000    0.969000
     25          1           0       -1.219000    2.948000    0.345000
     26          6           0       -0.249000    1.654000   -1.086000
     27          1           0       -0.566000    2.255000   -1.941000
     28          1           0       -0.285000    0.607000   -1.399000
     29         16           0        1.464000    2.147000   -0.716000
     30          6           0        2.069000    0.684000    0.194000
     31          1           0        2.933000    1.029000    0.765000
     32          1           0        1.319000    0.364000    0.922000
     33          6           0        2.454000   -0.473000   -0.724000
     34          1           0        3.227000   -0.163000   -1.432000
     35          1           0        1.590000   -0.786000   -1.317000
     36         16           0        3.026000   -1.964000    0.167000
     37          6           0        4.840000   -1.795000    0.078000
     38          1           0        5.126000   -1.629000   -0.965000
     39          1           0        5.229000   -2.776000    0.364000
     40          6           0        5.431000   -0.726000    0.990000
     41          1           0        5.068000    0.271000    0.720000
     42          1           0        5.130000   -0.911000    2.023000
     43         16           0        7.253000   -0.698000    0.997000
     44          6           0        7.591000    0.103000   -0.608000
     45          1           0        7.217000   -0.523000   -1.423000
     46          1           0        7.058000    1.058000   -0.642000
     47          6           0        9.090000    0.324000   -0.765000
     48          1           0        9.479000    0.965000    0.031000
     49          1           0        9.635000   -0.624000   -0.735000
     50          1           0        9.302000    0.806000   -1.724000
 ---------------------------------------------------------------------
 Stoichiometry    C14H30O3S3
 Framework group  C1[X(C14H30O3S3)]
                         Standard orientation:                         
 ---------------------------------------------------------------------
 Center     Atomic      Atomic             Coordinates (Angstroms)
 Number     Number       Type             X           Y           Z
 ---------------------------------------------------------------------
      1          6           0        8.466013    2.866080   -0.871946
      2          1           0        9.196014    2.595084   -0.102946
      3          1           0        8.772015    2.405081   -1.814946
      4          1           0        8.500007    3.954080   -0.991946
      5          6           0        7.058015    2.424073   -0.500946
      6          1           0        6.754013    2.871071    0.458054
      7          1           0        6.348013    2.761069   -1.261946
      8          8           0        6.906022    1.018072   -0.444946
      9          6           0        7.487025    0.409075    0.686054
     10          1           0        7.160022    0.914073    1.608054
     11          1           0        8.586025    0.459080    0.645054
     12          6           0        7.069032   -1.047927    0.741054
     13          1           0        7.263034   -1.515926   -0.234946
     14          1           0        7.684035   -1.555924    1.492054
     15          8           0        5.732033   -1.247934    1.134054
     16          6           0        4.766032   -1.085939    0.115054
     17          1           0        5.044035   -1.662937   -0.778946
     18          1           0        4.665027   -0.037939   -0.183946
     19          6           0        3.456035   -1.604945    0.671054
     20          1           0        3.192032   -1.045946    1.582054
     21          1           0        3.561040   -2.663945    0.950054
     22          8           0        2.473034   -1.438950   -0.323946
     23          6           0        1.199036   -1.880956    0.077054
     24          1           0        0.863034   -1.327958    0.969054
     25          1           0        1.219042   -2.947956    0.345054
     26          6           0        0.249035   -1.653961   -1.085946
     27          1           0        0.566038   -2.254960   -1.940946
     28          1           0        0.285030   -0.606961   -1.398946
     29         16           0       -1.463962   -2.146970   -0.715946
     30          6           0       -2.068970   -0.683973    0.194054
     31          1           0       -2.932968   -1.028977    0.765054
     32          1           0       -1.318971   -0.363969    0.922054
     33          6           0       -2.453975    0.473025   -0.723946
     34          1           0       -3.226974    0.163022   -1.431946
     35          1           0       -1.589977    0.786030   -1.316946
     36         16           0       -3.025983    1.964023    0.167054
     37          6           0       -4.839982    1.795013    0.078054
     38          1           0       -5.125981    1.629012   -0.964946
     39          1           0       -5.228987    2.776012    0.364054
     40          6           0       -5.430977    0.726011    0.990054
     41          1           0       -5.067972   -0.270988    0.720054
     42          1           0       -5.129978    0.911012    2.023054
     43         16           0       -7.252977    0.698001    0.997054
     44          6           0       -7.590973   -0.103000   -0.607946
     45          1           0       -7.216976    0.523002   -1.422946
     46          1           0       -7.057968   -1.057998   -0.641946
     47          6           0       -9.089972   -0.324008   -0.764946
     48          1           0       -9.478968   -0.965010    0.031054
     49          1           0       -9.634976    0.623990   -0.734946
     50          1           0       -9.301969   -0.806009   -1.723946
 ---------------------------------------------------------------------
 Standard basis: 6-31G(d) (6D, 7F)
   372 basis functions,   752 primitive gaussians,   372 cartesian basis functions
    93 alpha electrons       93 beta electrons
 Requested convergence on RMS density matrix=1.00D-08 within  64 cycles.
 Requested convergence on MAX density matrix=1.00D-06.
 Requested convergence on             energy=1.00D-06.
 SCF Done:  E(RHF) =  -1964.69214230     A.U. after   13 cycles
            NFock= 13  Conv=0.53D-08     -V/T= 2.0009
 Mulliken charges:
     1  C   -0.504040
     2  H    0.161943
     3  H    0.175376
     4  H    0.162184
     5  C    0.013733
     6  H    0.143309
     7  H    0.173856
     8  O   -0.630375
     9  C    0.002336
    10  H    0.152478
    11  H    0.140419
    12  C    0.002320
    13  H    0.157416
    14  H    0.169477
    15  O   -0.648819
    16  C    0.011946
    17  H    0.150018
    18  H    0.182673
    19  C    0.012340
    20  H    0.151480
    21  H    0.151353
    22  O   -0.643814
    23  C    0.039211
    24  H    0.144083
    25  H    0.158432
    26  C   -0.493333
    27  H    0.212876
    28  H    0.202200
    29  S    0.109999
    30  C   -0.471330
    31  H    0.204037
    32  H    0.207706
    33  C   -0.475882
    34  H    0.202425
    35  H    0.206075
    36  S    0.121768
    37  C   -0.470218
    38  H    0.193947
    39  H    0.216766
    40  C   -0.477335
    41  H    0.188094
    42  H    0.215257
    43  S    0.123869
    44  C   -0.456125
    45  H    0.185312
    46  H    0.185824
    47  C   -0.494690
    48  H    0.181147
    49  H    0.179260
    50  H    0.173017
 Sum of Mulliken charges =  -0.00000
 Dipole moment (field-independent basis, Debye):
    X=              1.9305    Y=              0.4874    Z=             -0.9234  Tot=              2.1948
 Quadrupole moment (field-independent basis, Debye-Ang):
   XX=           -128.3928   YY=           -152.8816   ZZ=           -151.6503
   XY=             10.8630   XZ=             13.6243   YZ=             -0.9142
 Traceless Quadrupole moment (field-independent basis, Debye-Ang):
   XX=             15.9154   YY=             -8.5733   ZZ=             -7.3421
   XY=             10.8630   XZ=             13.6243   YZ=             -0.9142
 Octapole moment (field-independent basis, Debye-Ang**2):
  XXX=            297.1258  YYY=              4.8748  ZZZ=             -3.6453  XYY=             73.8606
  XXY=             14.0146  XXZ=            -70.1068  XZZ=             21.8205  YZZ=              2.9726
  YYZ=             -1.9896  XYZ=             10.1029
 Hexadecapole moment (field-independent basis, Debye-Ang**3):
 XXXX=         -25468.9889 YYYY=          -2362.2847 ZZZZ=           -695.9017 XXXY=            610.6968
 XXXZ=           1044.6235 YYYX=             55.6407 YYYZ=             -1.6686 ZZZX=              8.3994
 ZZZY=              1.9539 XXYY=          -4809.5584 XXZZ=          -4773.3446 YYZZ=           -509.8964
 XXYZ=             -9.2050 YYXZ=            -38.4451 ZZXY=              1.8229
 Step number   1 out of a maximum of   55
     Eigenvalues ---    0.00230   0.00230   0.00230   0.00230   0.00230
     Eigenvalues ---    0.00230   0.00418   0.00443   0.00458   0.00479
     Eigenvalues ---    0.00518   0.00544   0.00570   0.01489   0.01514
     Eigenvalues ---    0.01562   0.01579   0.01588   0.01601   0.04356
     Eigenvalues ---    0.04470   0.04514   0.04542   0.04617   0.04764
     Eigenvalues ---    0.04800   0.05008   0.05318   0.05422   0.05466
     Eigenvalues ---    0.05544   0.05553   0.05559   0.05638   0.05647
     Eigenvalues ---    0.05647   0.05654   0.05672   0.05728   0.05798
     Eigenvalues ---    0.05799   0.05824   0.05956   0.06033   0.06059
     Eigenvalues ---    0.06071   0.06138   0.10996   0.11034   0.11109
     Eigenvalues ---    0.11173   0.11199   0.11447   0.11533   0.11606
     Eigenvalues ---    0.11607   0.11757   0.11829   0.11873   0.13558
     Eigenvalues ---    0.13625   0.13642   0.13646   0.13744   0.13908
     Eigenvalues ---    0.13910   0.13948   0.13965   0.14048   0.14060
     Eigenvalues ---    0.14098   0.16000   0.16000   0.16000   0.16000
     Eigenvalues ---    0.16000   0.16000   0.21934   0.21943   0.21961
     Eigenvalues ---    0.21995   0.22001   0.22014   0.22017   0.22027
     Eigenvalues ---    0.22029   0.22042   0.22048   0.22108   0.23980
     Eigenvalues ---    0.24167   0.24218   0.24312   0.24441   0.24564
     Eigenvalues ---    0.25000   0.25000   0.25000   0.25000   0.25000
     Eigenvalues ---    0.25000   0.29768   0.29947   0.30049   0.30207
     Eigenvalues ---    0.30487   0.30680   0.30874   0.33464   0.33577
     Eigenvalues ---    0.33580   0.33583   0.33587   0.33646   0.33665
     Eigenvalues ---    0.33710   0.33721   0.34176   0.34227   0.34259
     Eigenvalues ---    0.34299   0.34310   0.34332   0.34336   0.34349
     Eigenvalues ---    0.34357   0.34365   0.34392   0.34399   0.34407
     Eigenvalues ---    0.34425   0.34425   0.34429   0.34456   0.34456
     Eigenvalues ---    0.34569   0.34611   0.34630   0.43176   0.43467
     Eigenvalues ---    0.44030   0.44241   0.44345   0.44503
 Maximum Force            0.010032     0.000015     NO 
 RMS     Force            0.003425     0.000010     NO 
 Maximum Displacement     0.430706     0.000060     NO 
 RMS     Displacement     0.128350     0.000040     NO 
                          Input orientation:                          
 ---------------------------------------------------------------------
 Center     Atomic      Atomic             Coordinates (Angstroms)
 Number     Number       Type             X           Y           Z
 ---------------------------------------------------------------------
      1          6           0       -8.649856   -2.883101   -0.856300
      2          1           0       -9.374255   -2.595804   -0.102965
      3          1           0       -8.944065   -2.435571   -1.798838
      4          1           0       -8.697636   -3.962217   -0.960887
      5          6           0       -7.235664   -2.460683   -0.487483
      6          1           0       -6.942991   -2.889792    0.467926
      7          1           0       -6.540444   -2.821668   -1.233391
      8          8           0       -7.057489   -1.067933   -0.455512
      9          6           0       -7.595035   -0.399820    0.649422
     10          1           0       -7.280318   -0.878704    1.573362
     11          1           0       -8.681136   -0.420936    0.613031
     12          6           0       -7.144797    1.047950    0.650742
     13          1           0       -7.323042    1.487651   -0.326361
     14          1           0       -7.743934    1.585974    1.375386
     15          8           0       -5.817511    1.240556    1.046706
     16          6           0       -4.820050    1.074592    0.073737
     17          1           0       -5.067353    1.633966   -0.823733
     18          1           0       -4.704520    0.037466   -0.202127
     19          6           0       -3.535911    1.606105    0.672846
     20          1           0       -3.300122    1.064632    1.585293
     21          1           0       -3.650360    2.655415    0.930313
     22          8           0       -2.520180    1.439259   -0.274399
     23          6           0       -1.263518    1.882566    0.140891
     24          1           0       -0.956985    1.346320    1.035378
     25          1           0       -1.296169    2.939331    0.390312
     26          6           0       -0.292041    1.641831   -1.002264
     27          1           0       -0.596979    2.227911   -1.858803
     28          1           0       -0.321963    0.603735   -1.302644
     29         16           0        1.414604    2.142139   -0.620839
     30          6           0        2.072803    0.693500    0.269636
     31          1           0        2.901358    1.066967    0.853649
     32          1           0        1.336797    0.331120    0.973364
     33          6           0        2.529237   -0.431129   -0.658157
     34          1           0        3.286548   -0.080546   -1.346604
     35          1           0        1.697695   -0.773861   -1.257800
     36         16           0        3.157191   -1.907546    0.214254
     37          6           0        4.967832   -1.764281    0.064328
     38          1           0        5.214482   -1.598399   -0.975647
     39          1           0        5.342847   -2.745014    0.324596
     40          6           0        5.617986   -0.718738    0.966033
     41          1           0        5.280538    0.279822    0.723584
     42          1           0        5.347386   -0.907150    1.996363
     43         16           0        7.436743   -0.736125    0.921169
     44          6           0        7.786339    0.108804   -0.654078
     45          1           0        7.389491   -0.471227   -1.476755
     46          1           0        7.285920    1.069662   -0.650051
     47          6           0        9.290441    0.295986   -0.826407
     48          1           0        9.705660    0.893901   -0.023639
     49          1           0        9.805462   -0.657697   -0.837611
     50          1           0        9.498964    0.799779   -1.764026
 ---------------------------------------------------------------------
 Stoichiometry    C14H30O3S3
 Framework group  C1[X(C14H30O3S3)]
                         Standard orientation:                         
 ---------------------------------------------------------------------
 Center     Atomic      Atomic             Coordinates (Angstroms)
 Number     Number       Type             X           Y           Z
 ---------------------------------------------------------------------
      1          6           0        8.660827    2.890505   -0.829790
      2          1           0        9.385008    2.596052   -0.079012
      3          1           0        8.955340    2.452007   -1.776469
      4          1           0        8.708598    3.970572   -0.924051
      5          6           0        7.246540    2.464534   -0.465453
      6          1           0        6.953559    2.884489    0.493920
      7          1           0        6.551533    2.832601   -1.208092
      8          8           0        7.068408    1.071536   -0.446840
      9          6           0        7.605643    0.392920    0.651827
     10          1           0        7.290628    0.862947    1.580203
     11          1           0        8.691755    0.414421    0.615970
     12          6           0        7.155460   -1.054812    0.639184
     13          1           0        7.334019   -1.485155   -0.342019
     14          1           0        7.754398   -1.599711    1.358839
     15          8           0        5.828062   -1.251238    1.032887
     16          6           0        4.830891   -1.076025    0.061244
     17          1           0        5.078487   -1.626793   -0.841452
     18          1           0        4.715405   -0.036316   -0.204738
     19          6           0        3.546590   -1.613281    0.654859
     20          1           0        3.310502   -1.080554    1.572363
     21          1           0        3.661000   -2.664998    0.902327
     22          8           0        2.531140   -1.437432   -0.291059
     23          6           0        1.274368   -1.884729    0.119596
     24          1           0        0.967544   -1.357060    1.019070
     25          1           0        1.306985   -2.943826    0.358923
     26          6           0        0.303230   -1.633122   -1.021503
     27          1           0        0.608451   -2.210984   -1.883508
     28          1           0        0.333203   -0.592204   -1.311946
     29         16           0       -1.403511   -2.137110   -0.645393
     30          6           0       -2.062037   -0.697064    0.258675
     31          1           0       -2.890754   -1.076121    0.838843
     32          1           0       -1.326258   -0.341395    0.966056
     33          6           0       -2.518232    0.436358   -0.658473
     34          1           0       -3.275320    0.092339   -1.350468
     35          1           0       -1.686521    0.784830   -1.254564
     36         16           0       -3.146507    1.904354    0.227806
     37          6           0       -4.957097    1.762463    0.075968
     38          1           0       -5.203425    1.606512   -0.965619
     39          1           0       -5.332228    2.740653    0.345476
     40          6           0       -5.607485    0.708334    0.967449
     41          1           0       -5.269925   -0.287853    0.715577
     42          1           0       -5.337205    0.886907    1.999613
     43         16           0       -7.426229    0.726084    0.922199
     44          6           0       -7.775314   -0.103775   -0.661151
     45          1           0       -7.378238    0.484100   -1.478130
     46          1           0       -7.274859   -1.064610   -0.666148
     47          6           0       -9.279356   -0.289355   -0.835717
     48          1           0       -9.694796   -0.894924   -0.038823
     49          1           0       -9.794410    0.664373   -0.837970
     50          1           0       -9.487575   -0.784179   -1.778168
 ---------------------------------------------------------------------
 Standard basis: 6-31G(d) (6D, 7F)
   372 basis functions,   752 primitive gaussians,   372 cartesian basis functions
    93 alpha electrons       93 beta electrons
 Requested convergence on RMS density matrix=1.00D-08 within  64 cycles.
 Requested convergence on MAX density matrix=1.00D-06.
 Requested convergence on             energy=1.00D-06.
 SCF Done:  E(RHF) =  -1964.69584675     A.U. after   12 cycles
            NFock= 12  Conv=0.50D-08     -V/T= 2.0006
 Step number   2 out of a maximum of   55
     Eigenvalues ---    0.00230   0.00230   0.00230   0.00230   0.00230
     Eigenvalues ---    0.00246   0.00418   0.00444   0.00458   0.00479
     Eigenvalues ---    0.00518   0.00547   0.00570   0.01489   0.01515
     Eigenvalues ---    0.01562   0.01579   0.01597   0.01601   0.04302
     Eigenvalues ---    0.04446   0.04480   0.04506   0.04573   0.04750
     Eigenvalues ---    0.04776   0.04960   0.05267   0.05422   0.05453
     Eigenvalues ---    0.05507   0.05547   0.05563   0.05634   0.05638
     Eigenvalues ---    0.05640   0.05649   0.05675   0.05739   0.05802
     Eigenvalues ---    0.05804   0.05837   0.05910   0.06022   0.06031
     Eigenvalues ---    0.06050   0.06115   0.11008   0.11079   0.11177
     Eigenvalues ---    0.11249   0.11336   0.11485   0.11574   0.11643
     Eigenvalues ---    0.11651   0.11817   0.11879   0.11908   0.13556
     Eigenvalues ---    0.13650   0.13654   0.13660   0.13799   0.13935
     Eigenvalues ---    0.13941   0.13975   0.13989   0.14070   0.14092
     Eigenvalues ---    0.14139   0.15990   0.16000   0.16000   0.16000
     Eigenvalues ---    0.16000   0.16011   0.21769   0.21942   0.21957
     Eigenvalues ---    0.21971   0.21999   0.22013   0.22031   0.22033
     Eigenvalues ---    0.22037   0.22049   0.22083   0.22148   0.23904
     Eigenvalues ---    0.24067   0.24201   0.24272   0.24420   0.24538
     Eigenvalues ---    0.24759   0.25000   0.25000   0.25000   0.25000
     Eigenvalues ---    0.26249   0.29765   0.29947   0.30044   0.30192
     Eigenvalues ---    0.30487   0.30638   0.30875   0.33479   0.33559
     Eigenvalues ---    0.33579   0.33585   0.33622   0.33656   0.33690
     Eigenvalues ---    0.33716   0.33836   0.34143   0.34199   0.34241
     Eigenvalues ---    0.34270   0.34313   0.34333   0.34341   0.34352
     Eigenvalues ---    0.34362   0.34378   0.34395   0.34403   0.34415
     Eigenvalues ---    0.34422   0.34428   0.34447   0.34453   0.34559
     Eigenvalues ---    0.34590   0.34604   0.37063   0.42389   0.43338
     Eigenvalues ---    0.43836   0.44156   0.44330   0.44574
 Maximum Force            0.004353     0.000015     NO 
 RMS     Force            0.000741     0.000010     NO 
 Maximum Displacement     0.402970     0.000060     NO 
 RMS     Displacement     0.122249     0.000040     NO 
                          Input orientation:                          
 ---------------------------------------------------------------------
 Center     Atomic      Atomic             Coordinates (Angstroms)
 Number     Number       Type             X           Y           Z
 ---------------------------------------------------------------------
      1          6           0       -8.532889   -2.827622   -0.885611
      2          1           0       -9.270401   -2.566855   -0.135677
      3          1           0       -8.816873   -2.357630   -1.819838
      4          1           0       -8.567497   -3.903673   -1.019854
      5          6           0       -7.127940   -2.399621   -0.485112
      6          1           0       -6.849133   -2.850287    0.464125
      7          1           0       -6.418880   -2.738202   -1.227753
      8          8           0       -6.967948   -1.009332   -0.417610
      9          6           0       -7.520800   -0.373972    0.696255
     10          1           0       -7.205438   -0.867823    1.611505
     11          1           0       -8.606985   -0.396055    0.657729
     12          6           0       -7.072512    1.072452    0.730319
     13          1           0       -7.257779    1.528665   -0.237315
     14          1           0       -7.664358    1.596649    1.470405
     15          8           0       -5.739262    1.239835    1.106246
     16          6           0       -4.767616    1.078367    0.110800
     17          1           0       -5.022387    1.657790   -0.771207
     18          1           0       -4.672322    0.043738   -0.185405
     19          6           0       -3.461598    1.577855    0.690591
     20          1           0       -3.217910    1.014468    1.586920
     21          1           0       -3.557238    2.622950    0.970185
     22          8           0       -2.472066    1.412870   -0.282354
     23          6           0       -1.197491    1.825430    0.104185
     24          1           0       -0.868094    1.266935    0.976487
     25          1           0       -1.199051    2.878036    0.371339
     26          6           0       -0.266587    1.588992   -1.073320
     27          1           0       -0.587495    2.191320   -1.911872
     28          1           0       -0.319827    0.555079   -1.383844
     29         16           0        1.455972    2.059688   -0.736828
     30          6           0        2.091851    0.612912    0.168101
     31          1           0        2.958412    0.967981    0.707584
     32          1           0        1.369530    0.297638    0.907559
     33          6           0        2.465436   -0.551495   -0.746347
     34          1           0        3.207901   -0.241975   -1.468928
     35          1           0        1.601670   -0.884327   -1.303882
     36         16           0        3.087502   -2.011876    0.153571
     37          6           0        4.893820   -1.805242    0.076716
     38          1           0        5.182901   -1.671694   -0.956655
     39          1           0        5.293296   -2.756452    0.399682
     40          6           0        5.447158   -0.688505    0.957655
     41          1           0        5.067995    0.278187    0.653622
     42          1           0        5.141263   -0.845905    1.982691
     43         16           0        7.263255   -0.614685    0.992342
     44          6           0        7.636200    0.159846   -0.611884
     45          1           0        7.299262   -0.480889   -1.415585
     46          1           0        7.096987    1.096378   -0.680148
     47          6           0        9.137245    0.404539   -0.735713
     48          1           0        9.492417    1.063253    0.047332
     49          1           0        9.691867   -0.524155   -0.674515
     50          1           0        9.358435    0.865419   -1.691689
 ---------------------------------------------------------------------
 Stoichiometry    C14H30O3S3
 Framework group  C1[X(C14H30O3S3)]
                         Standard orientation:                         
 ---------------------------------------------------------------------
 Center     Atomic      Atomic             Coordinates (Angstroms)
 Number     Number       Type             X           Y           Z
 ---------------------------------------------------------------------
      1          6           0        8.539460    2.816645   -0.862308
      2          1           0        9.276876    2.548035   -0.115051
      3          1           0        8.822334    2.354601   -1.800826
      4          1           0        8.575679    3.893801   -0.986925
      5          6           0        7.134016    2.387245   -0.465061
      6          1           0        6.856296    2.829823    0.488291
      7          1           0        6.425176    2.733557   -1.204339
      8          8           0        6.971900    0.996657   -0.409943
      9          6           0        7.524225    0.350494    0.697954
     10          1           0        7.210003    0.836616    1.617723
     11          1           0        8.610426    0.371244    0.659166
     12          6           0        7.073712   -1.095483    0.719254
     13          1           0        7.257875   -1.543298   -0.252504
     14          1           0        7.665050   -1.627200    1.454366
     15          8           0        5.740359   -1.264167    1.094233
     16          6           0        4.768555   -1.092291    0.100686
     17          1           0        5.022067   -1.664185   -0.786583
     18          1           0        4.674742   -0.054905   -0.186203
     19          6           0        3.462004   -1.594934    0.676536
     20          1           0        3.219556   -1.039220    1.577976
     21          1           0        3.556141   -2.642637    0.946720
     22          8           0        2.472329   -1.419714   -0.294474
     23          6           0        1.197276   -1.833751    0.088897
     24          1           0        0.869102   -1.282581    0.966305
     25          1           0        1.197316   -2.888708    0.346615
     26          6           0        0.266256   -1.585341   -1.086048
     27          1           0        0.585887   -2.180630   -1.930096
     28          1           0        0.320968   -0.548772   -1.387325
     29         16           0       -1.456892   -2.056370   -0.753053
     30          6           0       -2.090159   -0.616776    0.165064
     31          1           0       -2.957047   -0.975323    0.701714
     32          1           0       -1.367047   -0.309252    0.907009
     33          6           0       -2.462316    0.556349   -0.738762
     34          1           0       -3.205557    0.254459   -1.463771
     35          1           0       -1.598265    0.892826   -1.293661
     36         16           0       -3.081751    2.009572    0.174460
     37          6           0       -4.888418    1.806423    0.096525
     38          1           0       -5.178130    1.682582   -0.937878
     39          1           0       -5.286289    2.755319    0.428165
     40          6           0       -5.443123    0.682698    0.967664
     41          1           0       -5.065581   -0.281817    0.654826
     42          1           0       -5.136563    0.830441    1.993939
     43         16           0       -7.259317    0.611375    1.002460
     44          6           0       -7.634119   -0.148182   -0.608479
     45          1           0       -7.296521    0.499203   -1.406554
     46          1           0       -7.096385   -1.084897   -0.685355
     47          6           0       -9.135592   -0.389438   -0.733857
     48          1           0       -9.491462   -1.054589    0.043409
     49          1           0       -9.688751    0.539525   -0.664110
     50          1           0       -9.357887   -0.841397   -1.693828
 ---------------------------------------------------------------------
 Standard basis: 6-31G(d) (6D, 7F)
   372 basis functions,   752 primitive gaussians,   372 cartesian basis functions
    93 alpha electrons       93 beta electrons
 Requested convergence on RMS density matrix=1.00D-08 within  64 cycles.
 Requested convergence on MAX density matrix=1.00D-06.
 Requested convergence on             energy=1.00D-06.
 SCF Done:  E(RHF) =  -1964.69585049     A.U. after   12 cycles
            NFock= 12  Conv=0.52D-08     -V/T= 2.0006
 Step number   3 out of a maximum of   55
     Eigenvalues ---    0.00227   0.00230   0.00230   0.00230   0.00231
     Eigenvalues ---    0.00406   0.00420   0.00457   0.00475   0.00486
     Eigenvalues ---    0.00520   0.00570   0.00587   0.01474   0.01515
     Eigenvalues ---    0.01561   0.01579   0.01600   0.01609   0.04385
     Eigenvalues ---    0.04496   0.04533   0.04589   0.04642   0.04768
     Eigenvalues ---    0.04981   0.05116   0.05358   0.05452   0.05468
     Eigenvalues ---    0.05510   0.05549   0.05572   0.05607   0.05640
     Eigenvalues ---    0.05647   0.05702   0.05738   0.05748   0.05810
     Eigenvalues ---    0.05815   0.05836   0.05949   0.06039   0.06060
     Eigenvalues ---    0.06066   0.06145   0.10660   0.11031   0.11086
     Eigenvalues ---    0.11149   0.11234   0.11473   0.11553   0.11589
     Eigenvalues ---    0.11623   0.11708   0.11758   0.11837   0.13558
     Eigenvalues ---    0.13633   0.13642   0.13646   0.13759   0.13856
     Eigenvalues ---    0.13926   0.13949   0.14007   0.14057   0.14075
     Eigenvalues ---    0.14082   0.15897   0.16000   0.16000   0.16000
     Eigenvalues ---    0.16000   0.16008   0.21249   0.21948   0.21964
     Eigenvalues ---    0.21974   0.22006   0.22013   0.22030   0.22034
     Eigenvalues ---    0.22044   0.22052   0.22078   0.23222   0.23832
     Eigenvalues ---    0.24017   0.24198   0.24344   0.24405   0.24509
     Eigenvalues ---    0.24709   0.25000   0.25000   0.25000   0.25247
     Eigenvalues ---    0.29031   0.29895   0.30003   0.30135   0.30272
     Eigenvalues ---    0.30495   0.30837   0.32566   0.33484   0.33539
     Eigenvalues ---    0.33579   0.33585   0.33621   0.33656   0.33689
     Eigenvalues ---    0.33717   0.33954   0.34156   0.34190   0.34237
     Eigenvalues ---    0.34312   0.34333   0.34340   0.34352   0.34360
     Eigenvalues ---    0.34375   0.34390   0.34402   0.34412   0.34419
     Eigenvalues ---    0.34424   0.34433   0.34447   0.34481   0.34557
     Eigenvalues ---    0.34602   0.35852   0.37930   0.40368   0.43397
     Eigenvalues ---    0.43816   0.44199   0.44354   0.44629
 Maximum Force            0.004013     0.000015     NO 
 RMS     Force            0.000644     0.000010     NO 
 Maximum Displacement     0.605644     0.000060     NO 
 RMS     Displacement     0.168096     0.000040     NO 
                          Input orientation:                          
 ---------------------------------------------------------------------
 Center     Atomic      Atomic             Coordinates (Angstroms)
 Number     Number       Type             X           Y           Z
 ---------------------------------------------------------------------
      1          6           0       -8.463380   -2.909290   -0.972037
      2          1           0       -9.238692   -2.647563   -0.260483
      3          1           0       -8.712850   -2.461827   -1.927604
      4          1           0       -8.472246   -3.988780   -1.086686
      5          6           0       -7.085761   -2.445793   -0.517055
      6          1           0       -6.844008   -2.873788    0.453707
      7          1           0       -6.337009   -2.786502   -1.219836
      8          8           0       -6.956485   -1.052321   -0.471015
      9          6           0       -7.568081   -0.408229    0.606024
     10          1           0       -7.281141   -0.877178    1.544544
     11          1           0       -8.652508   -0.451437    0.524640
     12          6           0       -7.146137    1.046735    0.629297
     13          1           0       -7.301556    1.479751   -0.355210
     14          1           0       -7.776963    1.574766    1.334753
     15          8           0       -5.831669    1.242778    1.053145
     16          6           0       -4.821163    1.085733    0.097062
     17          1           0       -5.052815    1.647305   -0.803811
     18          1           0       -4.693269    0.047876   -0.179691
     19          6           0       -3.546562    1.619934    0.716017
     20          1           0       -3.326304    1.073757    1.629994
     21          1           0       -3.674475    2.667529    0.976399
     22          8           0       -2.519795    1.460259   -0.218389
     23          6           0       -1.267578    1.903138    0.205559
     24          1           0       -0.955200    1.363099    1.096834
     25          1           0       -1.295910    2.960417    0.456211
     26          6           0       -0.292450    1.667450   -0.936312
     27          1           0       -0.596126    2.250661   -1.795267
     28          1           0       -0.314517    0.626948   -1.231106
     29         16           0        1.407346    2.179510   -0.550344
     30          6           0        2.045209    0.748663    0.377600
     31          1           0        2.884428    1.125327    0.945632
     32          1           0        1.305003    0.416000    1.092484
     33          6           0        2.476416   -0.407491   -0.522725
     34          1           0        3.233178   -0.081335   -1.223975
     35          1           0        1.636790   -0.761532   -1.104883
     36         16           0        3.100826   -1.854050    0.397737
     37          6           0        4.902363   -1.748611    0.160909
     38          1           0        5.108221   -1.630411   -0.894891
     39          1           0        5.273023   -2.722064    0.452398
     40          6           0        5.595603   -0.667659    0.986184
     41          1           0        5.254042    0.320814    0.706675
     42          1           0        5.367103   -0.804022    2.034741
     43         16           0        7.409062   -0.710050    0.869660
     44          6           0        7.692147    0.043001   -0.762614
     45          1           0        7.249258   -0.574055   -1.533777
     46          1           0        7.209783    1.012793   -0.788462
     47          6           0        9.190290    0.192348   -1.012518
     48          1           0        9.650462    0.826228   -0.263652
     49          1           0        9.688157   -0.770379   -0.995008
     50          1           0        9.357938    0.640546   -1.985853
 ---------------------------------------------------------------------
 Stoichiometry    C14H30O3S3
 Framework group  C1[X(C14H30O3S3)]
                         Standard orientation:                         
 ---------------------------------------------------------------------
 Center     Atomic      Atomic             Coordinates (Angstroms)
 Number     Number       Type             X           Y           Z
 ---------------------------------------------------------------------
      1          6           0        8.464851    2.957808   -0.921562
      2          1           0        9.240277    2.680799   -0.215942
      3          1           0        8.715617    2.533418   -1.887262
      4          1           0        8.471814    4.039712   -1.010759
      5          6           0        7.087846    2.481242   -0.478374
      6          1           0        6.844825    2.885825    0.502062
      7          1           0        6.338832    2.837052   -1.173350
      8          8           0        6.961079    1.086841   -0.465225
      9          6           0        7.573300    0.418673    0.596686
     10          1           0        7.285033    0.864876    1.545828
     11          1           0        8.657687    0.465742    0.516937
     12          6           0        7.153987   -1.037194    0.585465
     13          1           0        7.310691   -1.446629   -0.408879
     14          1           0        7.785415   -1.580550    1.278640
     15          8           0        5.839663   -1.245534    1.003859
     16          6           0        4.829357   -1.067845    0.051184
     17          1           0        5.062485   -1.607632   -0.862533
     18          1           0        4.699718   -0.023992   -0.201127
     19          6           0        3.555416   -1.618770    0.656691
     20          1           0        3.333704   -1.094662    1.583153
     21          1           0        3.685101   -2.671973    0.892407
     22          8           0        2.528833   -1.438991   -0.274259
     23          6           0        1.277210   -1.893988    0.138456
     24          1           0        0.963400   -1.375649    1.042028
     25          1           0        1.307335   -2.956823    0.364162
     26          6           0        0.302232   -1.633240   -0.998083
     27          1           0        0.607402   -2.195517   -1.870365
     28          1           0        0.322558   -0.586048   -1.268286
     29         16           0       -1.396825   -2.157312   -0.625211
     30          6           0       -2.037756   -0.749863    0.335814
     31          1           0       -2.876577   -1.141311    0.894360
     32          1           0       -1.298518   -0.432790    1.058737
     33          6           0       -2.470607    0.426388   -0.537278
     34          1           0       -3.226420    0.115468   -1.246427
     35          1           0       -1.631332    0.795553   -1.110478
     36         16           0       -3.098111    1.849746    0.416643
     37          6           0       -4.899333    1.746661    0.176411
     38          1           0       -5.104442    1.652981   -0.881992
     39          1           0       -5.271908    2.712311    0.490534
     40          6           0       -5.591025    0.645329    0.975626
     41          1           0       -5.247528   -0.335671    0.673110
     42          1           0       -5.363303    0.757377    2.027229
     43         16           0       -7.404499    0.687179    0.859138
     44          6           0       -7.685389   -0.027741   -0.790568
     45          1           0       -7.243232    0.608099   -1.546747
     46          1           0       -7.201251   -0.995783   -0.838977
     47          6           0       -9.183132   -0.173865   -1.044740
     48          1           0       -9.642531   -0.826031   -0.311259
     49          1           0       -9.682756    0.787282   -1.004843
     50          1           0       -9.349473   -0.599324   -2.028450
 ---------------------------------------------------------------------
 Standard basis: 6-31G(d) (6D, 7F)
   372 basis functions,   752 primitive gaussians,   372 cartesian basis functions
    93 alpha electrons       93 beta electrons
 Requested convergence on RMS density matrix=1.00D-08 within  64 cycles.
 Requested convergence on MAX density matrix=1.00D-06.
 Requested convergence on             energy=1.00D-06.
 SCF Done:  E(RHF) =  -1964.69602579     A.U. after   13 cycles
            NFock= 13  Conv=0.19D-08     -V/T= 2.0006
 Step number   4 out of a maximum of   55
     Eigenvalues ---    0.00227   0.00230   0.00230   0.00230   0.00241
     Eigenvalues ---    0.00416   0.00425   0.00458   0.00479   0.00517
     Eigenvalues ---    0.00556   0.00570   0.00719   0.01424   0.01514
     Eigenvalues ---    0.01556   0.01579   0.01583   0.01603   0.04396
     Eigenvalues ---    0.04508   0.04540   0.04593   0.04773   0.04991
     Eigenvalues ---    0.05085   0.05147   0.05435   0.05466   0.05474
     Eigenvalues ---    0.05517   0.05555   0.05572   0.05640   0.05651
     Eigenvalues ---    0.05713   0.05736   0.05744   0.05772   0.05816
     Eigenvalues ---    0.05823   0.05908   0.05974   0.06050   0.06069
     Eigenvalues ---    0.06096   0.06153   0.10631   0.11024   0.11103
     Eigenvalues ---    0.11136   0.11343   0.11480   0.11553   0.11580
     Eigenvalues ---    0.11608   0.11738   0.11807   0.11966   0.13560
     Eigenvalues ---    0.13628   0.13635   0.13643   0.13714   0.13920
     Eigenvalues ---    0.13936   0.14004   0.14043   0.14065   0.14078
     Eigenvalues ---    0.14199   0.15872   0.16000   0.16000   0.16000
     Eigenvalues ---    0.16000   0.16028   0.21569   0.21950   0.21966
     Eigenvalues ---    0.21976   0.22013   0.22015   0.22034   0.22036
     Eigenvalues ---    0.22047   0.22064   0.22795   0.23526   0.23898
     Eigenvalues ---    0.24053   0.24202   0.24336   0.24401   0.24495
     Eigenvalues ---    0.24677   0.25000   0.25000   0.25062   0.28664
     Eigenvalues ---    0.28983   0.29879   0.29996   0.30113   0.30447
     Eigenvalues ---    0.30726   0.30884   0.33084   0.33493   0.33577
     Eigenvalues ---    0.33584   0.33609   0.33621   0.33662   0.33693
     Eigenvalues ---    0.33724   0.33916   0.34188   0.34236   0.34309
     Eigenvalues ---    0.34331   0.34338   0.34351   0.34357   0.34373
     Eigenvalues ---    0.34387   0.34395   0.34402   0.34414   0.34422
     Eigenvalues ---    0.34426   0.34447   0.34469   0.34554   0.34601
     Eigenvalues ---    0.35076   0.36122   0.37259   0.41062   0.43440
     Eigenvalues ---    0.43825   0.44199   0.44396   0.45645
 Maximum Force            0.001918     0.000015     NO 
 RMS     Force            0.000397     0.000010     NO 
 Maximum Displacement     0.263880     0.000060     NO 
 RMS     Displacement     0.073588     0.000040     NO 
                          Input orientation:                          
 ---------------------------------------------------------------------
 Center     Atomic      Atomic             Coordinates (Angstroms)
 Number     Number       Type             X           Y           Z
 ---------------------------------------------------------------------
      1          6           0       -8.572527   -2.873149   -0.925369
      2          1           0       -9.333529   -2.582402   -0.208951
      3          1           0       -8.819398   -2.429243   -1.883798
      4          1           0       -8.611885   -3.953602   -1.027857
      5          6           0       -7.178480   -2.441802   -0.488283
      6          1           0       -6.938544   -2.865949    0.485368
      7          1           0       -6.445414   -2.810336   -1.194504
      8          8           0       -7.011219   -1.051407   -0.458861
      9          6           0       -7.592343   -0.380122    0.618924
     10          1           0       -7.308119   -0.847964    1.559629
     11          1           0       -8.678827   -0.398991    0.548322
     12          6           0       -7.135474    1.065876    0.623741
     13          1           0       -7.288939    1.495056   -0.363582
     14          1           0       -7.750537    1.613786    1.328739
     15          8           0       -5.815706    1.242465    1.042886
     16          6           0       -4.807539    1.075304    0.085023
     17          1           0       -5.035554    1.639515   -0.815930
     18          1           0       -4.689240    0.036474   -0.192915
     19          6           0       -3.526787    1.598337    0.701996
     20          1           0       -3.308880    1.049764    1.615923
     21          1           0       -3.644207    2.647585    0.963465
     22          8           0       -2.502902    1.430126   -0.234414
     23          6           0       -1.246561    1.862285    0.188989
     24          1           0       -0.939695    1.318285    1.080476
     25          1           0       -1.266644    2.919883    0.441748
     26          6           0       -0.272829    1.619474   -0.953160
     27          1           0       -0.572713    2.206800   -1.811267
     28          1           0       -0.304052    0.579405   -1.250388
     29         16           0        1.431990    2.117003   -0.567488
     30          6           0        2.071348    0.668078    0.332493
     31          1           0        2.905882    1.035307    0.914391
     32          1           0        1.328674    0.315839    1.036066
     33          6           0        2.516615   -0.465821   -0.589396
     34          1           0        3.276746   -0.119152   -1.277700
     35          1           0        1.683402   -0.812080   -1.186079
     36         16           0        3.147035   -1.926295    0.306575
     37          6           0        4.952062   -1.776405    0.121625
     38          1           0        5.184423   -1.650036   -0.928153
     39          1           0        5.340876   -2.740751    0.421689
     40          6           0        5.592957   -0.679179    0.967665
     41          1           0        5.228773    0.300334    0.682812
     42          1           0        5.341239   -0.826587    2.009876
     43         16           0        7.409772   -0.666548    0.896542
     44          6           0        7.712894    0.110186   -0.721369
     45          1           0        7.309359   -0.512851   -1.509825
     46          1           0        7.201425    1.065399   -0.751533
     47          6           0        9.211880    0.307849   -0.930852
     48          1           0        9.632657    0.948463   -0.164112
     49          1           0        9.738729   -0.639730   -0.908437
     50          1           0        9.391805    0.770521   -1.895739
 ---------------------------------------------------------------------
 Stoichiometry    C14H30O3S3
 Framework group  C1[X(C14H30O3S3)]
                         Standard orientation:                         
 ---------------------------------------------------------------------
 Center     Atomic      Atomic             Coordinates (Angstroms)
 Number     Number       Type             X           Y           Z
 ---------------------------------------------------------------------
      1          6           0        8.585437    2.890585   -0.877709
      2          1           0        9.346036    2.584902   -0.167103
      3          1           0        8.832594    2.466438   -1.844972
      4          1           0        8.625171    3.972907   -0.957902
      5          6           0        7.191066    2.450764   -0.450205
      6          1           0        6.950833    2.854840    0.531873
      7          1           0        6.458424    2.833998   -1.149002
      8          8           0        7.023368    1.060111   -0.449502
      9          6           0        7.603813    0.366584    0.614478
     10          1           0        7.319319    0.815039    1.564497
     11          1           0        8.690334    0.386562    0.544749
     12          6           0        7.146500   -1.079062    0.589309
     13          1           0        7.300267   -1.487862   -0.406578
     14          1           0        7.761086   -1.641572    1.283138
     15          8           0        5.826494   -1.263832    1.004157
     16          6           0        4.818799   -1.076659    0.049505
     17          1           0        5.047037   -1.622262   -0.862781
     18          1           0        4.700940   -0.032286   -0.207026
     19          6           0        3.537616   -1.611887    0.655018
     20          1           0        3.319476   -1.082187    1.579957
     21          1           0        3.654601   -2.666335    0.894869
     22          8           0        2.514194   -1.424100   -0.278172
     23          6           0        1.257536   -1.864493    0.135697
     24          1           0        0.950444   -1.338876    1.038068
     25          1           0        1.277184   -2.927079    0.366624
     26          6           0        0.284379   -1.597900   -1.001630
     27          1           0        0.584460   -2.167520   -1.871523
     28          1           0        0.316051   -0.551939   -1.277357
     29         16           0       -1.420761   -2.102731   -0.627026
     30          6           0       -2.060071   -0.672452    0.302334
     31          1           0       -2.894973   -1.051326    0.876183
     32          1           0       -1.317599   -0.335014    1.013335
     33          6           0       -2.504586    0.480336   -0.596195
     34          1           0       -3.264521    0.148159   -1.291823
     35          1           0       -1.671006    0.838551   -1.185257
     36         16           0       -3.134953    1.922243    0.329398
     37          6           0       -4.939945    1.776763    0.140618
     38          1           0       -5.171884    1.672118   -0.911641
     39          1           0       -5.328596    2.734845    0.460315
     40          6           0       -5.581547    0.662543    0.963600
     41          1           0       -5.217537   -0.311009    0.658788
     42          1           0       -5.330241    0.788373    2.008735
     43         16           0       -7.398334    0.651952    0.891445
     44          6           0       -7.700983   -0.091195   -0.742253
     45          1           0       -7.296912    0.547825   -1.517533
     46          1           0       -7.189793   -1.045744   -0.791866
     47          6           0       -9.199937   -0.284028   -0.956412
     48          1           0       -9.621247   -0.940168   -0.203213
     49          1           0       -9.726507    0.663054   -0.914710
     50          1           0       -9.379580   -0.726669   -1.930702
 ---------------------------------------------------------------------
 Standard basis: 6-31G(d) (6D, 7F)
   372 basis functions,   752 primitive gaussians,   372 cartesian basis functions
    93 alpha electrons       93 beta electrons
 Requested convergence on RMS density matrix=1.00D-08 within  64 cycles.
 Requested convergence on MAX density matrix=1.00D-06.
 Requested convergence on             energy=1.00D-06.
 SCF Done:  E(RHF) =  -1964.69611778     A.U. after   11 cycles
            NFock= 11  Conv=0.58D-08     -V/T= 2.0006
 Step number   5 out of a maximum of   55
     Eigenvalues ---    0.00228   0.00230   0.00230   0.00230   0.00274
     Eigenvalues ---    0.00413   0.00422   0.00458   0.00480   0.00517
     Eigenvalues ---    0.00562   0.00571   0.00690   0.01330   0.01515
     Eigenvalues ---    0.01547   0.01568   0.01579   0.01602   0.04405
     Eigenvalues ---    0.04497   0.04540   0.04602   0.04775   0.04987
     Eigenvalues ---    0.05095   0.05172   0.05436   0.05471   0.05508
     Eigenvalues ---    0.05524   0.05558   0.05630   0.05646   0.05657
     Eigenvalues ---    0.05707   0.05738   0.05744   0.05796   0.05821
     Eigenvalues ---    0.05824   0.05886   0.05968   0.06069   0.06073
     Eigenvalues ---    0.06119   0.06183   0.10934   0.11028   0.11131
     Eigenvalues ---    0.11170   0.11390   0.11457   0.11533   0.11556
     Eigenvalues ---    0.11612   0.11729   0.11805   0.11908   0.13564
     Eigenvalues ---    0.13633   0.13641   0.13646   0.13809   0.13886
     Eigenvalues ---    0.13934   0.13967   0.14032   0.14062   0.14092
     Eigenvalues ---    0.14123   0.15931   0.15995   0.16000   0.16000
     Eigenvalues ---    0.16000   0.16003   0.21664   0.21936   0.21969
     Eigenvalues ---    0.21974   0.22014   0.22016   0.22020   0.22035
     Eigenvalues ---    0.22044   0.22122   0.22854   0.23554   0.23899
     Eigenvalues ---    0.24011   0.24199   0.24344   0.24397   0.24511
     Eigenvalues ---    0.24709   0.24986   0.25000   0.25214   0.28130
     Eigenvalues ---    0.29001   0.29883   0.30003   0.30131   0.30451
     Eigenvalues ---    0.30718   0.30874   0.33302   0.33496   0.33576
     Eigenvalues ---    0.33584   0.33602   0.33620   0.33661   0.33692
     Eigenvalues ---    0.33725   0.33983   0.34177   0.34237   0.34310
     Eigenvalues ---    0.34330   0.34338   0.34351   0.34358   0.34374
     Eigenvalues ---    0.34386   0.34395   0.34403   0.34415   0.34421
     Eigenvalues ---    0.34427   0.34446   0.34465   0.34557   0.34602
     Eigenvalues ---    0.35017   0.36256   0.38438   0.41276   0.43574
     Eigenvalues ---    0.43815   0.44279   0.44483   0.46791
 Maximum Force            0.000462     0.000015     NO 
 RMS     Force            0.000095     0.000010     NO 
 Maximum Displacement     0.092768     0.000060     NO 
 RMS     Displacement     0.025284     0.000040     NO 
                          Input orientation:                          
 ---------------------------------------------------------------------
 Center     Atomic      Atomic             Coordinates (Angstroms)
 Number     Number       Type             X           Y           Z
 ---------------------------------------------------------------------
      1          6           0       -8.547951   -2.879467   -0.942342
      2          1           0       -9.313083   -2.593014   -0.228632
      3          1           0       -8.790842   -2.431910   -1.900125
      4          1           0       -8.585172   -3.959487   -1.049510
      5          6           0       -7.156885   -2.447892   -0.496062
      6          1           0       -6.920342   -2.876124    0.476641
      7          1           0       -6.419377   -2.811319   -1.200368
      8          8           0       -6.992016   -1.057086   -0.458949
      9          6           0       -7.576212   -0.392144    0.621468
     10          1           0       -7.293116   -0.865350    1.559845
     11          1           0       -8.662363   -0.412917    0.548492
     12          6           0       -7.122315    1.054685    0.634953
     13          1           0       -7.278229    1.490453   -0.349024
     14          1           0       -7.735901    1.597609    1.345210
     15          8           0       -5.801285    1.229158    1.051311
     16          6           0       -4.796963    1.075325    0.087153
     17          1           0       -5.031334    1.648159   -0.806718
     18          1           0       -4.678023    0.039806   -0.202371
     19          6           0       -3.514643    1.595191    0.703673
     20          1           0       -3.289890    1.037899    1.610683
     21          1           0       -3.632785    2.641339    0.976897
     22          8           0       -2.494709    1.439900   -0.239203
     23          6           0       -1.238102    1.871243    0.184168
     24          1           0       -0.927302    1.318388    1.068828
     25          1           0       -1.261771    2.925636    0.449542
     26          6           0       -0.267245    1.644614   -0.963758
     27          1           0       -0.572468    2.239837   -1.814592
     28          1           0       -0.295786    0.607776   -1.272308
     29         16           0        1.437499    2.142018   -0.576172
     30          6           0        2.072334    0.698666    0.336572
     31          1           0        2.917419    1.063123    0.904777
     32          1           0        1.333602    0.364930    1.053172
     33          6           0        2.494265   -0.453071   -0.574475
     34          1           0        3.250409   -0.125542   -1.276379
     35          1           0        1.650197   -0.796811   -1.157187
     36         16           0        3.118575   -1.908163    0.335535
     37          6           0        4.924385   -1.771804    0.143229
     38          1           0        5.153617   -1.653362   -0.908103
     39          1           0        5.308403   -2.736910    0.447158
     40          6           0        5.576532   -0.674617    0.980850
     41          1           0        5.215268    0.305647    0.695059
     42          1           0        5.330537   -0.816969    2.025180
     43         16           0        7.393110   -0.669481    0.897018
     44          6           0        7.689879    0.094356   -0.728393
     45          1           0        7.276754   -0.531404   -1.509695
     46          1           0        7.183513    1.052226   -0.761297
     47          6           0        9.188423    0.281985   -0.950490
     48          1           0        9.618709    0.925103   -0.191113
     49          1           0        9.710027   -0.668447   -0.925517
     50          1           0        9.364653    0.737221   -1.919631
 ---------------------------------------------------------------------
 Stoichiometry    C14H30O3S3
 Framework group  C1[X(C14H30O3S3)]
                         Standard orientation:                         
 ---------------------------------------------------------------------
 Center     Atomic      Atomic             Coordinates (Angstroms)
 Number     Number       Type             X           Y           Z
 ---------------------------------------------------------------------
      1          6           0        8.561252    2.891960   -0.904500
      2          1           0        9.325616    2.592682   -0.195244
      3          1           0        8.804417    2.460567   -1.869602
      4          1           0        8.599530    3.973615   -0.993220
      5          6           0        7.169478    2.454122   -0.466607
      6          1           0        6.932632    2.865933    0.513088
      7          1           0        6.432801    2.830177   -1.165130
      8          8           0        7.003320    1.063038   -0.453316
      9          6           0        7.586144    0.379243    0.616018
     10          1           0        7.302810    0.836650    1.562126
     11          1           0        8.672365    0.400259    0.544162
     12          6           0        7.130925   -1.067187    0.604529
     13          1           0        7.287142   -1.486267   -0.386623
     14          1           0        7.743513   -1.622700    1.305856
     15          8           0        5.809440   -1.247515    1.016934
     16          6           0        4.805945   -1.076351    0.054840
     17          1           0        5.040431   -1.634083   -0.848500
     18          1           0        4.688150   -0.035939   -0.217078
     19          6           0        3.522715   -1.605467    0.661519
     20          1           0        3.297824   -1.063506    1.577738
     21          1           0        3.639713   -2.656228    0.916957
     22          8           0        2.503593   -1.433193   -0.279283
     23          6           0        1.246294   -1.870532    0.135802
     24          1           0        0.935367   -1.332548    1.029539
     25          1           0        1.268817   -2.929316    0.383185
     26          6           0        0.276459   -1.623481   -1.008770
     27          1           0        0.581747   -2.204399   -1.869411
     28          1           0        0.306161   -0.581563   -1.299586
     29         16           0       -1.429010   -2.125850   -0.630903
     30          6           0       -2.063183   -0.697679    0.305865
     31          1           0       -2.909003   -1.070988    0.867189
     32          1           0       -1.324659   -0.376882    1.028562
     33          6           0       -2.483420    0.469804   -0.585715
     34          1           0       -3.239362    0.154979   -1.293625
     35          1           0       -1.638627    0.822648   -1.161897
     36         16           0       -3.107056    1.909750    0.348526
     37          6           0       -4.912852    1.778349    0.152668
     38          1           0       -5.141444    1.678052   -0.900688
     39          1           0       -5.296210    2.738489    0.472734
     40          6           0       -5.566590    0.667648    0.971016
     41          1           0       -5.206014   -0.307936    0.668813
     42          1           0       -5.321209    0.791956    2.017791
     43         16           0       -7.383112    0.665613    0.885846
     44          6           0       -7.679419   -0.070141   -0.752553
     45          1           0       -7.265171    0.568462   -1.522789
     46          1           0       -7.173899   -1.027777   -0.801423
     47          6           0       -9.177975   -0.252580   -0.978856
     48          1           0       -9.609384   -0.908150   -0.230849
     49          1           0       -9.698733    0.697768   -0.938052
     50          1           0       -9.353929   -0.691072   -1.955738
 ---------------------------------------------------------------------
 Standard basis: 6-31G(d) (6D, 7F)
   372 basis functions,   752 primitive gaussians,   372 cartesian basis functions
    93 alpha electrons       93 beta electrons
 Requested convergence on RMS density matrix=1.00D-08 within  64 cycles.
 Requested convergence on MAX density matrix=1.00D-06.
 Requested convergence on             energy=1.00D-06.
 SCF Done:  E(RHF) =  -1964.69612444     A.U. after   10 cycles
            NFock= 10  Conv=0.55D-08     -V/T= 2.0006
 Step number   6 out of a maximum of   55
     Eigenvalues ---    0.00230   0.00230   0.00230   0.00231   0.00375
     Eigenvalues ---    0.00415   0.00442   0.00457   0.00476   0.00510
     Eigenvalues ---    0.00517   0.00570   0.00636   0.01123   0.01517
     Eigenvalues ---    0.01535   0.01564   0.01579   0.01602   0.04401
     Eigenvalues ---    0.04497   0.04555   0.04769   0.04875   0.04984
     Eigenvalues ---    0.05137   0.05289   0.05431   0.05467   0.05507
     Eigenvalues ---    0.05525   0.05561   0.05625   0.05647   0.05701
     Eigenvalues ---    0.05736   0.05742   0.05775   0.05796   0.05819
     Eigenvalues ---    0.05824   0.05899   0.05959   0.06066   0.06073
     Eigenvalues ---    0.06119   0.06172   0.10901   0.11037   0.11117
     Eigenvalues ---    0.11153   0.11364   0.11489   0.11554   0.11616
     Eigenvalues ---    0.11656   0.11730   0.11821   0.12059   0.13552
     Eigenvalues ---    0.13633   0.13647   0.13654   0.13810   0.13925
     Eigenvalues ---    0.13942   0.14021   0.14050   0.14081   0.14089
     Eigenvalues ---    0.14515   0.15941   0.15984   0.16000   0.16000
     Eigenvalues ---    0.16001   0.16037   0.21045   0.21899   0.21965
     Eigenvalues ---    0.21973   0.21986   0.22016   0.22030   0.22040
     Eigenvalues ---    0.22046   0.22562   0.23205   0.23658   0.23717
     Eigenvalues ---    0.24094   0.24200   0.24299   0.24393   0.24520
     Eigenvalues ---    0.24739   0.24999   0.25070   0.26155   0.28310
     Eigenvalues ---    0.28998   0.29931   0.30095   0.30151   0.30462
     Eigenvalues ---    0.30870   0.30917   0.33253   0.33497   0.33576
     Eigenvalues ---    0.33584   0.33616   0.33653   0.33678   0.33704
     Eigenvalues ---    0.33742   0.33948   0.34184   0.34235   0.34312
     Eigenvalues ---    0.34324   0.34339   0.34352   0.34358   0.34380
     Eigenvalues ---    0.34390   0.34397   0.34405   0.34416   0.34422
     Eigenvalues ---    0.34428   0.34445   0.34480   0.34559   0.34602
     Eigenvalues ---    0.35177   0.35998   0.39547   0.41813   0.43554
     Eigenvalues ---    0.43798   0.44292   0.44485   0.47599
 Maximum Force            0.000252     0.000015     NO 
 RMS     Force            0.000063     0.000010     NO 
 Maximum Displacement     0.117803     0.000060     NO 
 RMS     Displacement     0.029950     0.000040     NO 
                          Input orientation:                          
 ---------------------------------------------------------------------
 Center     Atomic      Atomic             Coordinates (Angstroms)
 Number     Number       Type             X           Y           Z
 ---------------------------------------------------------------------
      1          6           0       -8.564543   -2.868621   -0.924689
      2          1           0       -9.333457   -2.570527   -0.219823
      3          1           0       -8.797061   -2.428704   -1.888582
      4          1           0       -8.607715   -3.949369   -1.021840
      5          6           0       -7.174434   -2.441347   -0.471413
      6          1           0       -6.947965   -2.862176    0.506922
      7          1           0       -6.433495   -2.815361   -1.166577
      8          8           0       -7.001913   -1.051192   -0.445397
      9          6           0       -7.588145   -0.373815    0.626226
     10          1           0       -7.312531   -0.840652    1.570018
     11          1           0       -8.674040   -0.389006    0.547861
     12          6           0       -7.125768    1.070218    0.629549
     13          1           0       -7.276925    1.499303   -0.358088
     14          1           0       -7.737310    1.622523    1.334389
     15          8           0       -5.804153    1.238573    1.046659
     16          6           0       -4.800211    1.076415    0.083504
     17          1           0       -5.031347    1.647220   -0.812543
     18          1           0       -4.686493    0.039227   -0.202299
     19          6           0       -3.515502    1.592010    0.698527
     20          1           0       -3.293645    1.036836    1.607593
     21          1           0       -3.628473    2.639696    0.968139
     22          8           0       -2.496129    1.428383   -0.243562
     23          6           0       -1.237571    1.854899    0.178962
     24          1           0       -0.930127    1.303318    1.065600
     25          1           0       -1.256261    2.910211    0.441163
     26          6           0       -0.267297    1.620055   -0.967813
     27          1           0       -0.569562    2.214407   -1.820336
     28          1           0       -0.300830    0.582596   -1.273743
     29         16           0        1.439696    2.111262   -0.582011
     30          6           0        2.075759    0.659409    0.316408
     31          1           0        2.915325    1.021267    0.894408
     32          1           0        1.334584    0.312975    1.024391
     33          6           0        2.510232   -0.478855   -0.605792
     34          1           0        3.268865   -0.138639   -1.298945
     35          1           0        1.672071   -0.820897   -1.197913
     36         16           0        3.137920   -1.940625    0.291274
     37          6           0        4.944195   -1.785833    0.117616
     38          1           0        5.182291   -1.655543   -0.930336
     39          1           0        5.334537   -2.750073    0.416318
     40          6           0        5.577658   -0.690366    0.971713
     41          1           0        5.208458    0.288992    0.692906
     42          1           0        5.324330   -0.845989    2.012409
     43         16           0        7.394715   -0.665282    0.903742
     44          6           0        7.697081    0.122330   -0.709227
     45          1           0        7.298291   -0.498250   -1.502055
     46          1           0        7.179844    1.074635   -0.734816
     47          6           0        9.195248    0.330019   -0.915230
     48          1           0        9.611224    0.968370   -0.143907
     49          1           0        9.727666   -0.614587   -0.897462
     50          1           0        9.374912    0.799559   -1.876901
 ---------------------------------------------------------------------
 Stoichiometry    C14H30O3S3
 Framework group  C1[X(C14H30O3S3)]
                         Standard orientation:                         
 ---------------------------------------------------------------------
 Center     Atomic      Atomic             Coordinates (Angstroms)
 Number     Number       Type             X           Y           Z
 ---------------------------------------------------------------------
      1          6           0        8.577645    2.878945   -0.888325
      2          1           0        9.346222    2.568708   -0.188350
      3          1           0        8.810182    2.455081   -1.859380
      4          1           0        8.621403    3.961144   -0.967386
      5          6           0        7.187198    2.444882   -0.442601
      6          1           0        6.960695    2.849416    0.542575
      7          1           0        6.446632    2.830852   -1.131601
      8          8           0        7.013948    1.054577   -0.439870
      9          6           0        7.599551    0.359075    0.620425
     10          1           0        7.323936    0.810213    1.571821
     11          1           0        8.685475    0.375005    0.542595
     12          6           0        7.136423   -1.084571    0.599494
     13          1           0        7.287612   -1.497165   -0.395141
     14          1           0        7.747496   -1.648901    1.295154
     15          8           0        5.814614   -1.259182    1.013402
     16          6           0        4.811005   -1.080421    0.052843
     17          1           0        5.042074   -1.636288   -0.852564
     18          1           0        4.697899   -0.038540   -0.215610
     19          6           0        3.525870   -1.605551    0.658841
     20          1           0        3.304066   -1.065535    1.577005
     21          1           0        3.638227   -2.657657    0.910929
     22          8           0        2.506824   -1.425665   -0.280635
     23          6           0        1.247936   -1.858525    0.134387
     24          1           0        0.940550   -1.321682    1.030045
     25          1           0        1.266010   -2.918083    0.378914
     26          6           0        0.278080   -1.604037   -1.008544
     27          1           0        0.580255   -2.184212   -1.870807
     28          1           0        0.312230   -0.561626   -1.297079
     29         16           0       -1.429268   -2.100730   -0.631432
     30          6           0       -2.064807   -0.663765    0.290973
     31          1           0       -2.904710   -1.034794    0.862635
[...]
     18          1           0       -4.712313    0.157280   -0.337498
     19          6           0       -3.534827    1.631160    0.680202
     20          1           0       -3.334374    1.010188    1.550665
     21          1           0       -3.640918    2.658328    1.021561
     22          8           0       -2.501974    1.522328   -0.255269
     23          6           0       -1.245422    1.900923    0.216447
     24          1           0       -0.958804    1.283078    1.065447
     25          1           0       -1.255631    2.934788    0.553518
     26          6           0       -0.259746    1.736509   -0.929242
     27          1           0       -0.540452    2.394840   -1.741070
     28          1           0       -0.300953    0.724397   -1.309818
     29         16           0        1.446502    2.175715   -0.482767
     30          6           0        2.048527    0.655104    0.319925
     31          1           0        2.883924    0.963282    0.933848
     32          1           0        1.291888    0.270677    0.990884
     33          6           0        2.480635   -0.421659   -0.674161
     34          1           0        3.254046   -0.044963   -1.331084
     35          1           0        1.646606   -0.708752   -1.300279
     36         16           0        3.073664   -1.952824    0.124867
     37          6           0        4.884251   -1.815117   -0.013070
     38          1           0        5.139431   -1.615572   -1.045941
     39          1           0        5.255189   -2.804187    0.222203
     40          6           0        5.521963   -0.792873    0.924380
     41          1           0        5.173136    0.209735    0.709719
     42          1           0        5.250489   -1.016317    1.947942
     43         16           0        7.339927   -0.794908    0.884045
     44          6           0        7.679199    0.097411   -0.665802
     45          1           0        7.282070   -0.459568   -1.505233
     46          1           0        7.178250    1.058053   -0.632074
     47          6           0        9.183403    0.292460   -0.836086
     48          1           0        9.598384    0.868214   -0.016548
     49          1           0        9.699747   -0.660253   -0.876980
     50          1           0        9.385051    0.824443   -1.760068
 ---------------------------------------------------------------------
 Stoichiometry    C14H30O3S3
 Framework group  C1[X(C14H30O3S3)]
                         Standard orientation:                         
 ---------------------------------------------------------------------
 Center     Atomic      Atomic             Coordinates (Angstroms)
 Number     Number       Type             X           Y           Z
 ---------------------------------------------------------------------
      1          6           0        8.423134    3.028579   -0.786593
      2          1           0        9.233441    2.688975   -0.150275
      3          1           0        8.616262    2.684068   -1.796796
      4          1           0        8.436822    4.114428   -0.786323
      5          6           0        7.068270    2.524120   -0.307338
      6          1           0        6.881292    2.850117    0.714388
      7          1           0        6.284570    2.936840   -0.929787
      8          8           0        6.931099    1.132632   -0.397713
      9          6           0        7.583293    0.381021    0.582256
     10          1           0        7.342407    0.757265    1.574515
     11          1           0        8.663674    0.431119    0.456306
     12          6           0        7.152328   -1.068624    0.481334
     13          1           0        7.282003   -1.414902   -0.540847
     14          1           0        7.796902   -1.660992    1.121497
     15          8           0        5.845749   -1.292391    0.920885
     16          6           0        4.822185   -1.159457   -0.026027
     17          1           0        5.026091   -1.774445   -0.899418
     18          1           0        4.715167   -0.134536   -0.354672
     19          6           0        3.545794   -1.631266    0.638745
     20          1           0        3.344832   -1.026938    1.520730
     21          1           0        3.656707   -2.664006    0.961239
     22          8           0        2.510431   -1.509664   -0.292368
     23          6           0        1.256442   -1.901741    0.175139
     24          1           0        0.969282   -1.300496    1.035793
     25          1           0        1.271493   -2.941482    0.493431
     26          6           0        0.267567   -1.720578   -0.965255
     27          1           0        0.549059   -2.362998   -1.789463
     28          1           0        0.303921   -0.701594   -1.327549
     29         16           0       -1.435929   -2.174595   -0.523108
     30          6           0       -2.042167   -0.671161    0.308257
     31          1           0       -2.874965   -0.993722    0.918310
     32          1           0       -1.285556   -0.295909    0.984422
     33          6           0       -2.480749    0.421664   -0.665252
     34          1           0       -3.254130    0.053821   -1.327208
     35          1           0       -1.649263    0.723358   -1.287877
     36         16           0       -3.078040    1.935753    0.162621
     37          6           0       -4.888373    1.793332    0.026132
     38          1           0       -5.145069    1.611476   -1.009625
     39          1           0       -5.262692    2.776497    0.280058
     40          6           0       -5.519942    0.751768    0.946315
     41          1           0       -5.167634   -0.245394    0.712799
     42          1           0       -5.247067    0.957753    1.973161
     43         16           0       -7.337985    0.747271    0.909954
     44          6           0       -7.677188   -0.118229   -0.655042
     45          1           0       -7.284141    0.455417   -1.485118
     46          1           0       -7.172370   -1.077316   -0.639780
     47          6           0       -9.180986   -0.316174   -0.825574
     48          1           0       -9.591855   -0.908303   -0.015689
     49          1           0       -9.701183    0.635053   -0.848112
     50          1           0       -9.382593   -0.832165   -1.758588
 ---------------------------------------------------------------------
 Standard basis: 6-31G(d) (6D, 7F)
   372 basis functions,   752 primitive gaussians,   372 cartesian basis functions
    93 alpha electrons       93 beta electrons
 Requested convergence on RMS density matrix=1.00D-08 within  64 cycles.
 Requested convergence on MAX density matrix=1.00D-06.
 Requested convergence on             energy=1.00D-06.
 SCF Done:  E(RHF) =  -1964.69613928     A.U. after    4 cycles
            NFock=  4  Conv=0.31D-08     -V/T= 2.0006
 Step number  29 out of a maximum of   55
     Eigenvalues ---    0.00073   0.00221   0.00229   0.00261   0.00305
     Eigenvalues ---    0.00378   0.00425   0.00446   0.00461   0.00514
     Eigenvalues ---    0.00546   0.00585   0.00615   0.00684   0.00758
     Eigenvalues ---    0.00919   0.00932   0.01583   0.01661   0.04476
     Eigenvalues ---    0.04769   0.04829   0.04918   0.05004   0.05168
     Eigenvalues ---    0.05254   0.05472   0.05494   0.05514   0.05541
     Eigenvalues ---    0.05564   0.05689   0.05702   0.05721   0.05735
     Eigenvalues ---    0.05768   0.05810   0.05826   0.05863   0.05942
     Eigenvalues ---    0.05971   0.06024   0.06040   0.06093   0.06246
     Eigenvalues ---    0.06333   0.06551   0.10983   0.11056   0.11166
     Eigenvalues ---    0.11389   0.11512   0.11570   0.11632   0.11649
     Eigenvalues ---    0.11687   0.11891   0.11966   0.12187   0.13554
     Eigenvalues ---    0.13654   0.13705   0.13778   0.13841   0.13919
     Eigenvalues ---    0.13980   0.14019   0.14096   0.14171   0.14265
     Eigenvalues ---    0.14626   0.15852   0.15961   0.16003   0.16008
     Eigenvalues ---    0.16070   0.16119   0.21277   0.21901   0.21972
     Eigenvalues ---    0.22005   0.22069   0.22343   0.22779   0.22933
     Eigenvalues ---    0.23052   0.23351   0.23458   0.23726   0.23931
     Eigenvalues ---    0.24184   0.24266   0.24413   0.24564   0.24704
     Eigenvalues ---    0.25066   0.26286   0.27906   0.28756   0.29274
     Eigenvalues ---    0.29914   0.30030   0.30163   0.30403   0.30840
     Eigenvalues ---    0.31323   0.33169   0.33416   0.33572   0.33580
     Eigenvalues ---    0.33598   0.33632   0.33685   0.33730   0.33775
     Eigenvalues ---    0.34001   0.34131   0.34272   0.34297   0.34335
     Eigenvalues ---    0.34351   0.34358   0.34367   0.34381   0.34396
     Eigenvalues ---    0.34412   0.34417   0.34428   0.34464   0.34485
     Eigenvalues ---    0.34549   0.34566   0.34602   0.34631   0.35022
     Eigenvalues ---    0.36163   0.36362   0.39155   0.42747   0.43767
     Eigenvalues ---    0.44285   0.44587   0.46780   0.49079
 Maximum Force            0.000000     0.000015     YES
 RMS     Force            0.000000     0.000010     YES
 Maximum Displacement     0.000031     0.000060     YES
 RMS     Displacement     0.000008     0.000040     YES
 Optimization completed.
    -- Stationary point found.
                          Input orientation:                          
 ---------------------------------------------------------------------
 Center     Atomic      Atomic             Coordinates (Angstroms)
 Number     Number       Type             X           Y           Z
 ---------------------------------------------------------------------
      1          6           0       -8.433809   -2.982820   -0.818250
      2          1           0       -9.241376   -2.651580   -0.174088
      3          1           0       -8.627744   -2.619331   -1.821626
      4          1           0       -8.451832   -4.068433   -0.837581
      5          6           0       -7.075908   -2.492473   -0.332981
      6          1           0       -6.888024   -2.837635    0.682263
      7          1           0       -6.295210   -2.896961   -0.964540
      8          8           0       -6.933376   -1.100131   -0.398491
      9          6           0       -7.580443   -0.363796    0.596362
     10          1           0       -7.338916   -0.758876    1.581115
     11          1           0       -8.661286   -0.407335    0.471941
     12          6           0       -7.143912    1.085722    0.520702
     13          1           0       -7.274413    1.450943   -0.494759
     14          1           0       -7.784729    1.668958    1.172909
     15          8           0       -5.835502    1.296334    0.961307
     16          6           0       -4.814527    1.176504    0.009862
     17          1           0       -5.017864    1.807990   -0.851810
     18          1           0       -4.712313    0.157280   -0.337498
     19          6           0       -3.534827    1.631160    0.680202
     20          1           0       -3.334374    1.010188    1.550665
     21          1           0       -3.640918    2.658328    1.021561
     22          8           0       -2.501974    1.522328   -0.255269
     23          6           0       -1.245422    1.900923    0.216447
     24          1           0       -0.958804    1.283078    1.065447
     25          1           0       -1.255631    2.934788    0.553518
     26          6           0       -0.259746    1.736509   -0.929242
     27          1           0       -0.540452    2.394840   -1.741070
     28          1           0       -0.300953    0.724397   -1.309818
     29         16           0        1.446502    2.175715   -0.482767
     30          6           0        2.048527    0.655104    0.319925
     31          1           0        2.883924    0.963282    0.933848
     32          1           0        1.291888    0.270677    0.990884
     33          6           0        2.480635   -0.421659   -0.674161
     34          1           0        3.254046   -0.044963   -1.331084
     35          1           0        1.646606   -0.708752   -1.300279
     36         16           0        3.073664   -1.952824    0.124867
     37          6           0        4.884251   -1.815117   -0.013070
     38          1           0        5.139431   -1.615572   -1.045941
     39          1           0        5.255189   -2.804187    0.222203
     40          6           0        5.521963   -0.792873    0.924380
     41          1           0        5.173136    0.209735    0.709719
     42          1           0        5.250489   -1.016317    1.947942
     43         16           0        7.339927   -0.794908    0.884045
     44          6           0        7.679199    0.097411   -0.665802
     45          1           0        7.282070   -0.459568   -1.505233
     46          1           0        7.178250    1.058053   -0.632074
     47          6           0        9.183403    0.292460   -0.836086
     48          1           0        9.598384    0.868214   -0.016548
     49          1           0        9.699747   -0.660253   -0.876980
     50          1           0        9.385051    0.824443   -1.760068
 ---------------------------------------------------------------------
 Stoichiometry    C14H30O3S3
 Framework group  C1[X(C14H30O3S3)]
                         Standard orientation:                         
 ---------------------------------------------------------------------
 Center     Atomic      Atomic             Coordinates (Angstroms)
 Number     Number       Type             X           Y           Z
 ---------------------------------------------------------------------
      1          6           0        8.423134    3.028579   -0.786593
      2          1           0        9.233441    2.688975   -0.150275
      3          1           0        8.616262    2.684068   -1.796796
      4          1           0        8.436822    4.114428   -0.786323
      5          6           0        7.068270    2.524120   -0.307338
      6          1           0        6.881292    2.850117    0.714388
      7          1           0        6.284570    2.936840   -0.929787
      8          8           0        6.931099    1.132632   -0.397713
      9          6           0        7.583293    0.381021    0.582256
     10          1           0        7.342407    0.757265    1.574515
     11          1           0        8.663674    0.431119    0.456306
     12          6           0        7.152328   -1.068624    0.481334
     13          1           0        7.282003   -1.414902   -0.540847
     14          1           0        7.796902   -1.660992    1.121497
     15          8           0        5.845749   -1.292391    0.920885
     16          6           0        4.822185   -1.159457   -0.026027
     17          1           0        5.026091   -1.774445   -0.899418
     18          1           0        4.715167   -0.134536   -0.354672
     19          6           0        3.545794   -1.631266    0.638745
     20          1           0        3.344832   -1.026938    1.520730
     21          1           0        3.656707   -2.664006    0.961239
     22          8           0        2.510431   -1.509664   -0.292368
     23          6           0        1.256442   -1.901741    0.175139
     24          1           0        0.969282   -1.300496    1.035793
     25          1           0        1.271493   -2.941482    0.493431
     26          6           0        0.267567   -1.720578   -0.965255
     27          1           0        0.549059   -2.362998   -1.789463
     28          1           0        0.303921   -0.701594   -1.327549
     29         16           0       -1.435929   -2.174595   -0.523108
     30          6           0       -2.042167   -0.671161    0.308257
     31          1           0       -2.874965   -0.993722    0.918310
     32          1           0       -1.285556   -0.295909    0.984422
     33          6           0       -2.480749    0.421664   -0.665252
     34          1           0       -3.254130    0.053821   -1.327208
     35          1           0       -1.649263    0.723358   -1.287877
     36         16           0       -3.078040    1.935753    0.162621
     37          6           0       -4.888373    1.793332    0.026132
     38          1           0       -5.145069    1.611476   -1.009625
     39          1           0       -5.262692    2.776497    0.280058
     40          6           0       -5.519942    0.751768    0.946315
     41          1           0       -5.167634   -0.245394    0.712799
     42          1           0       -5.247067    0.957753    1.973161
     43         16           0       -7.337985    0.747271    0.909954
     44          6           0       -7.677188   -0.118229   -0.655042
     45          1           0       -7.284141    0.455417   -1.485118
     46          1           0       -7.172370   -1.077316   -0.639780
     47          6           0       -9.180986   -0.316174   -0.825574
     48          1           0       -9.591855   -0.908303   -0.015689
     49          1           0       -9.701183    0.635053   -0.848112
     50          1           0       -9.382593   -0.832165   -1.758588
 ---------------------------------------------------------------------
 Mulliken charges:
     1  C   -0.505921
     2  H    0.162182
     3  H    0.175070
     4  H    0.161411
     5  C    0.015042
     6  H    0.142347
     7  H    0.173093
     8  O   -0.627751
     9  C    0.007644
    10  H    0.151120
    11  H    0.137082
    12  C    0.004392
    13  H    0.156364
    14  H    0.168235
    15  O   -0.647501
    16  C    0.012184
    17  H    0.148463
    18  H    0.182554
    19  C    0.012342
    20  H    0.151334
    21  H    0.151321
    22  O   -0.642396
    23  C    0.040292
    24  H    0.143773
    25  H    0.157705
    26  C   -0.494556
    27  H    0.213766
    28  H    0.203386
    29  S    0.106199
    30  C   -0.472120
    31  H    0.206292
    32  H    0.208487
    33  C   -0.476965
    34  H    0.203750
    35  H    0.207733
    36  S    0.116580
    37  C   -0.470681
    38  H    0.195757
    39  H    0.218464
    40  C   -0.479556
    41  H    0.190478
    42  H    0.216666
    43  S    0.120853
    44  C   -0.459284
    45  H    0.186625
    46  H    0.187241
    47  C   -0.495912
    48  H    0.182208
    49  H    0.180347
    50  H    0.173865
 Sum of Mulliken charges =  -0.00000
 Dipole moment (field-independent basis, Debye):
    X=              1.9251    Y=              0.3082    Z=             -0.9546  Tot=              2.1707
 Quadrupole moment (field-independent basis, Debye-Ang):
   XX=           -128.8241   YY=           -152.9283   ZZ=           -150.8118
   XY=             10.4962   XZ=             13.8082   YZ=             -0.2472
 Traceless Quadrupole moment (field-independent basis, Debye-Ang):
   XX=             15.3640   YY=             -8.7402   ZZ=             -6.6237
   XY=             10.4962   XZ=             13.8082   YZ=             -0.2472
 Octapole moment (field-independent basis, Debye-Ang**2):
  XXX=            297.2402  YYY=              6.4573  ZZZ=             -3.3571  XYY=             74.1268
  XXY=             -0.2378  XXZ=            -75.1062  XZZ=             20.3283  YZZ=              1.1969
  YYZ=             -1.7835  XYZ=             12.9082
 Hexadecapole moment (field-independent basis, Debye-Ang**3):
 XXXX=         -25924.0520 YYYY=          -2455.6371 ZZZZ=           -606.0073 XXXY=            607.7123
 XXXZ=           1027.3005 YYYX=             60.8607 YYYZ=              3.7557 ZZZX=             13.4109
 ZZZY=              2.3235 XXYY=          -4911.7106 XXZZ=          -4824.3100 YYZZ=           -513.3949
 XXYZ=             18.8077 YYXZ=            -27.9316 ZZXY=             -2.6345
 Job cpu time:       0 days  2 hours 43 minutes 28.2 seconds.
 Normal termination of Gaussian 16 at Sat Jul  8 14:40:36 2023.
