 Copyright (c) 1988-2019, Gaussian, Inc.  All Rights Reserved.
  
 This is part of the Gaussian(R) 16 program.  It is based on
 the Gaussian(R) 09 system (copyright 2009, Gaussian, Inc.),
 the Gaussian(R) 03 system (copyright 2003, Gaussian, Inc.),
 the Gaussian(R) 98 system (copyright 1998, Gaussian, Inc.),
 the Gaussian(R) 94 system (copyright 1995, Gaussian, Inc.),
 the Gaussian 92(TM) system (copyright 1992, Gaussian, Inc.),
 the Gaussian 90(TM) system (copyright 1990, Gaussian, Inc.),
 the Gaussian 88(TM) system (copyright 1988, Gaussian, Inc.),
 the Gaussian 86(TM) system (copyright 1986, Carnegie Mellon
 University), and the Gaussian 82(TM) system (copyright 1983,
 Carnegie Mellon University). Gaussian is a federally registered
 trademark of Gaussian, Inc.
 Cite this work as:
 Gaussian 16, Revision C.01,
 M. J. Frisch, G. W. Trucks, H. B. Schlegel, G. E. Scuseria, 
 M. A. Robb, J. R. Cheeseman, G. Scalmani, V. Barone, 
 G. A. Petersson, H. Nakatsuji, X. Li, M. Caricato, A. V. Marenich, 
 J. Bloino, B. G. Janesko, R. Gomperts, B. Mennucci, H. P. Hratchian, 
 J. V. Ortiz, A. F. Izmaylov, J. L. Sonnenberg, D. Williams-Young, 
 F. Ding, F. Lipparini, F. Egidi, J. Goings, B. Peng, A. Petrone, 
 T. Henderson, D. Ranasinghe, V. G. Zakrzewski, J. Gao, N. Rega, 
 G. Zheng, W. Liang, M. Hada, M. Ehara, K. Toyota, R. Fukuda, 
 J. Hasegawa, M. Ishida, T. Nakajima, Y. Honda, O. Kitao, H. Nakai, 
 T. Vreven, K. Throssell, J. A. Montgomery, Jr., J. E. Peralta, 
 F. Ogliaro, M. J. Bearpark, J. J. Heyd, E. N. Brothers, K. N. Kudin, 
 V. N. Staroverov, T. A. Keith, R. Kobayashi, J. Normand, 
 K. Raghavachari, A. P. Rendell, J. C. Burant, S. S. Iyengar, 
 J. Tomasi, M. Cossi, J. M. Millam, M. Klene, C. Adamo, R. Cammi, 
 J. W. Ochterski, R. L. Martin, K. Morokuma, O. Farkas, 
 J. B. Foresman, and D. J. Fox, Gaussian, Inc., Wallingford CT, 2019.
 
 ******************************************
 Gaussian 16:  EM64L-G16RevC.01  3-Jul-2019
                 8-Jul-2023 
 ******************************************
 ----------------------------------------------------------------------
 #P HF/6-31G(d) Opt=(Tight,MaxCycle=55) GFInput GFPrint SCF(Conver=8,XQ
 C,MaxConventionalCycles=64,MaxCycle=128) Test
 ----------------------------------------------------------------------
 1/6=55,7=10,18=20,19=15,38=1/1,3;
 2/9=110,12=2,17=6,18=5,40=1/2;
 3/5=1,6=6,7=1,11=9,24=110,25=1,30=1,71=1/1,2,3;
 4//1;
 5/5=2,6=8,7=128,8=3,13=1,38=5,85=64/2,8;
 6/7=2,8=2,9=2,10=2,28=1/1;
 7//1,2,3,16;
 1/6=55,7=10,18=20,19=15/3(2);
 2/9=110/2;
 99//99;
 2/9=110/2;
 3/5=1,6=6,7=1,11=9,25=1,30=1,71=1/1,2,3;
 4/5=5,16=3,69=1/1;
 5/5=2,6=8,7=128,8=3,13=1,38=5,85=64/2,8;
 7//1,2,3,16;
 1/6=55,7=10,18=20,19=15/3(-5);
 2/9=110/2;
 6/7=2,8=2,9=2,10=2,19=2,28=1/1;
 99/9=1/99;
 ----------------------------------------------------------
 Optimization step - Input generated by PyRED DVE-DMDS-OPLS
 ----------------------------------------------------------
 Symbolic Z-matrix:
 Charge =  0 Multiplicity = 1
 C                     8.469     0.95      2.41 
 H                     8.895     1.725     1.768 
 H                     7.46      1.259     2.696 
 H                     9.078     0.873     3.316 
 C                     8.43     -0.377     1.682 
 H                     9.447    -0.698     1.404 
 H                     8.007    -1.163     2.327 
 O                     7.641    -0.227     0.522 
 C                     7.544    -1.407    -0.24 
 H                     7.127    -2.228     0.364 
 H                     8.543    -1.72     -0.587 
 C                     6.652    -1.169    -1.443 
 H                     6.981    -0.256    -1.96 
 H                     6.766    -2.013    -2.131 
 O                     5.28     -1.102    -1.135 
 C                     4.832     0.137    -0.625 
 H                     5.149     0.964    -1.278 
 H                     5.231     0.333     0.375 
 C                     3.319     0.071    -0.586 
 H                     3.       -0.755     0.068 
 H                     2.939    -0.138    -1.595 
 O                     2.856     1.307    -0.089 
 C                     1.47      1.365     0.159 
 H                     1.311     2.197     0.849 
 H                     1.133     0.445     0.66 
 C                     0.665     1.609    -1.116 
 H                     0.817     0.809    -1.847 
 H                     1.001     2.54     -1.579 
 S                    -1.119     1.808    -0.818 
 C                    -1.617     0.067    -0.581 
 H                    -1.293    -0.52     -1.445 
 H                    -1.141    -0.345     0.313 
 C                    -3.132     0.001    -0.44 
 H                    -3.61      0.385    -1.347 
 H                    -3.454     0.615     0.405 
 S                    -3.634    -1.735    -0.188 
 C                    -5.449    -1.566    -0.238 
 H                    -5.835    -2.579    -0.378 
 H                    -5.724    -0.993    -1.129 
 C                    -6.047    -0.955     1.024 
 H                    -5.805    -1.577     1.888 
 H                    -5.631     0.037     1.222 
 S                    -7.867    -0.852     0.983 
 C                    -8.131     0.6      -0.092 
 H                    -7.576     0.467    -1.026 
 H                    -9.192     0.555    -0.352 
 C                    -7.8       1.937     0.557 
 H                    -6.743     2.006     0.83 
 H                    -8.016     2.759    -0.134 
 H                    -8.391     2.086     1.465 
 
 ITRead=  0  0  0  0  0  0  0  0  0  0  0  0  0  0  0  0  0  0  0  0
 ITRead=  0  0  0  0  0  0  0  0  0  0  0  0  0  0  0  0  0  0  0  0
 ITRead=  0  0  0  0  0  0  0  0  0  0
 MicOpt= -1 -1 -1 -1 -1 -1 -1 -1 -1 -1 -1 -1 -1 -1 -1 -1 -1 -1 -1 -1
 MicOpt= -1 -1 -1 -1 -1 -1 -1 -1 -1 -1 -1 -1 -1 -1 -1 -1 -1 -1 -1 -1
 MicOpt= -1 -1 -1 -1 -1 -1 -1 -1 -1 -1
 NAtoms=     50 NQM=       50 NQMF=       0 NMMI=      0 NMMIF=      0
                NMic=       0 NMicF=      0.
                          Input orientation:                          
 ---------------------------------------------------------------------
 Center     Atomic      Atomic             Coordinates (Angstroms)
 Number     Number       Type             X           Y           Z
 ---------------------------------------------------------------------
      1          6           0        8.469000    0.950000    2.410000
      2          1           0        8.895000    1.725000    1.768000
      3          1           0        7.460000    1.259000    2.696000
      4          1           0        9.078000    0.873000    3.316000
      5          6           0        8.430000   -0.377000    1.682000
      6          1           0        9.447000   -0.698000    1.404000
      7          1           0        8.007000   -1.163000    2.327000
      8          8           0        7.641000   -0.227000    0.522000
      9          6           0        7.544000   -1.407000   -0.240000
     10          1           0        7.127000   -2.228000    0.364000
     11          1           0        8.543000   -1.720000   -0.587000
     12          6           0        6.652000   -1.169000   -1.443000
     13          1           0        6.981000   -0.256000   -1.960000
     14          1           0        6.766000   -2.013000   -2.131000
     15          8           0        5.280000   -1.102000   -1.135000
     16          6           0        4.832000    0.137000   -0.625000
     17          1           0        5.149000    0.964000   -1.278000
     18          1           0        5.231000    0.333000    0.375000
     19          6           0        3.319000    0.071000   -0.586000
     20          1           0        3.000000   -0.755000    0.068000
     21          1           0        2.939000   -0.138000   -1.595000
     22          8           0        2.856000    1.307000   -0.089000
     23          6           0        1.470000    1.365000    0.159000
     24          1           0        1.311000    2.197000    0.849000
     25          1           0        1.133000    0.445000    0.660000
     26          6           0        0.665000    1.609000   -1.116000
     27          1           0        0.817000    0.809000   -1.847000
     28          1           0        1.001000    2.540000   -1.579000
     29         16           0       -1.119000    1.808000   -0.818000
     30          6           0       -1.617000    0.067000   -0.581000
     31          1           0       -1.293000   -0.520000   -1.445000
     32          1           0       -1.141000   -0.345000    0.313000
     33          6           0       -3.132000    0.001000   -0.440000
     34          1           0       -3.610000    0.385000   -1.347000
     35          1           0       -3.454000    0.615000    0.405000
     36         16           0       -3.634000   -1.735000   -0.188000
     37          6           0       -5.449000   -1.566000   -0.238000
     38          1           0       -5.835000   -2.579000   -0.378000
     39          1           0       -5.724000   -0.993000   -1.129000
     40          6           0       -6.047000   -0.955000    1.024000
     41          1           0       -5.805000   -1.577000    1.888000
     42          1           0       -5.631000    0.037000    1.222000
     43         16           0       -7.867000   -0.852000    0.983000
     44          6           0       -8.131000    0.600000   -0.092000
     45          1           0       -7.576000    0.467000   -1.026000
     46          1           0       -9.192000    0.555000   -0.352000
     47          6           0       -7.800000    1.937000    0.557000
     48          1           0       -6.743000    2.006000    0.830000
     49          1           0       -8.016000    2.759000   -0.134000
     50          1           0       -8.391000    2.086000    1.465000
 ---------------------------------------------------------------------
 Stoichiometry    C14H30O3S3
 Framework group  C1[X(C14H30O3S3)]
                         Standard orientation:                         
 ---------------------------------------------------------------------
 Center     Atomic      Atomic             Coordinates (Angstroms)
 Number     Number       Type             X           Y           Z
 ---------------------------------------------------------------------
      1          6           0        8.468979    0.949390    2.410274
      2          1           0        8.894984    1.724543    1.768463
      3          1           0        7.459977    1.258320    2.696340
      4          1           0        9.077972    0.872174    3.316261
      5          6           0        8.429987   -0.377437    1.681957
      6          1           0        9.446989   -0.698370    1.403889
      7          1           0        8.006982   -1.163591    2.326766
      8          8           0        7.640996   -0.227161    0.521987
      9          6           0        7.544003   -1.406979   -0.240295
     10          1           0        7.126999   -2.228123    0.363505
     11          1           0        8.543006   -1.719895   -0.587362
     12          6           0        6.652013   -1.168693   -1.443246
     13          1           0        6.981016   -0.255569   -1.960025
     14          1           0        6.766019   -2.012529   -2.131446
     15          8           0        5.280010   -1.101768   -1.135241
     16          6           0        4.832005    0.137110   -0.624949
     17          1           0        5.149010    0.964266   -1.277749
     18          1           0        5.230997    0.332872    0.375101
     19          6           0        3.319005    0.071100   -0.585977
     20          1           0        3.000000   -0.755057    0.067823
     21          1           0        2.939013   -0.137660   -1.595030
     22          8           0        2.856000    1.306981   -0.088686
     23          6           0        1.469997    1.364920    0.159316
     24          1           0        1.310991    2.196756    0.849513
     25          1           0        1.132994    0.444801    0.660094
     26          6           0        0.665008    1.609224   -1.115632
     27          1           0        0.817014    0.809398   -1.846822
     28          1           0        1.001011    2.540334   -1.578407
     29         16           0       -1.118995    1.808151   -0.817599
     30          6           0       -1.616995    0.067094   -0.581019
     31          1           0       -1.292988   -0.519699   -1.445156
     32          1           0       -1.141002   -0.345119    0.312887
     33          6           0       -3.131996    0.001059   -0.440047
     34          1           0       -3.609989    0.385275   -1.346959
     35          1           0       -3.454004    0.614857    0.405097
     36         16           0       -3.633997   -1.735001   -0.188465
     37          6           0       -5.448997   -1.565991   -0.238440
     38          1           0       -5.834995   -2.578958   -0.378684
     39          1           0       -5.723990   -0.992779   -1.129305
     40          6           0       -6.047008   -0.955293    1.023701
     41          1           0       -5.805014   -1.577499    1.887555
     42          1           0       -5.631010    0.036660    1.221941
     43         16           0       -7.867007   -0.852284    0.982711
     44          6           0       -8.131000    0.599972   -0.091945
     45          1           0       -7.575992    0.467195   -1.025972
     46          1           0       -9.191998    0.555033   -0.351964
     47          6           0       -7.800006    1.936817    0.557377
     48          1           0       -6.743009    2.005753    0.830402
     49          1           0       -8.016001    2.758982   -0.133429
     50          1           0       -8.391014    2.085600    1.465407
 ---------------------------------------------------------------------
 Standard basis: 6-31G(d) (6D, 7F)
   372 basis functions,   752 primitive gaussians,   372 cartesian basis functions
    93 alpha electrons       93 beta electrons
 Requested convergence on RMS density matrix=1.00D-08 within  64 cycles.
 Requested convergence on MAX density matrix=1.00D-06.
 Requested convergence on             energy=1.00D-06.
 SCF Done:  E(RHF) =  -1964.69278157     A.U. after   13 cycles
            NFock= 13  Conv=0.49D-08     -V/T= 2.0009
 Mulliken charges:
     1  C   -0.488823
     2  H    0.174471
     3  H    0.175492
     4  H    0.157635
     5  C    0.022987
     6  H    0.138270
     7  H    0.141789
     8  O   -0.627949
     9  C    0.006975
    10  H    0.153443
    11  H    0.137833
    12  C    0.000439
    13  H    0.157552
    14  H    0.170601
    15  O   -0.648563
    16  C    0.011076
    17  H    0.150608
    18  H    0.184549
    19  C    0.006594
    20  H    0.151292
    21  H    0.149471
    22  O   -0.641671
    23  C    0.026895
    24  H    0.188385
    25  H    0.145735
    26  C   -0.505577
    27  H    0.194684
    28  H    0.212846
    29  S    0.121399
    30  C   -0.476560
    31  H    0.205305
    32  H    0.205063
    33  C   -0.477806
    34  H    0.201757
    35  H    0.202228
    36  S    0.130579
    37  C   -0.474711
    38  H    0.217073
    39  H    0.193012
    40  C   -0.476132
    41  H    0.215558
    42  H    0.195639
    43  S    0.118827
    44  C   -0.473999
    45  H    0.186221
    46  H    0.200486
    47  C   -0.472475
    48  H    0.161703
    49  H    0.168560
    50  H    0.181234
 Sum of Mulliken charges =  -0.00000
 Dipole moment (field-independent basis, Debye):
    X=              2.0697    Y=              0.0664    Z=             -0.5221  Tot=              2.1355
 Quadrupole moment (field-independent basis, Debye-Ang):
   XX=           -129.1416   YY=           -155.6708   ZZ=           -148.0803
   XY=            -18.3332   XZ=             10.6397   YZ=             -0.3473
 Traceless Quadrupole moment (field-independent basis, Debye-Ang):
   XX=             15.1560   YY=            -11.3732   ZZ=             -3.7827
   XY=            -18.3332   XZ=             10.6397   YZ=             -0.3473
 Octapole moment (field-independent basis, Debye-Ang**2):
  XXX=            364.7214  YYY=             -3.5789  ZZZ=             -1.5094  XYY=             39.1829
  XXY=             22.5751  XXZ=            -48.1175  XZZ=             64.4655  YZZ=             -0.7113
  YYZ=              2.8176  XYZ=             -6.9006
 Hexadecapole moment (field-independent basis, Debye-Ang**3):
 XXXX=         -27342.4896 YYYY=          -1576.6293 ZZZZ=          -1081.8453 XXXY=          -1388.9713
 XXXZ=            938.6405 YYYX=            -15.5420 YYYZ=             -6.3746 ZZZX=             43.5037
 ZZZY=              5.2033 XXYY=          -5118.7492 XXZZ=          -4949.7017 YYZZ=           -446.7247
 XXYZ=             42.5573 YYXZ=            -32.1097 ZZXY=            -14.7711
 Step number   1 out of a maximum of   55
     Eigenvalues ---    0.00230   0.00230   0.00230   0.00230   0.00230
     Eigenvalues ---    0.00230   0.00402   0.00444   0.00462   0.00467
     Eigenvalues ---    0.00549   0.00568   0.00580   0.01523   0.01548
     Eigenvalues ---    0.01555   0.01570   0.01586   0.01589   0.04378
     Eigenvalues ---    0.04467   0.04497   0.04515   0.04815   0.04864
     Eigenvalues ---    0.05088   0.05107   0.05258   0.05344   0.05506
     Eigenvalues ---    0.05527   0.05546   0.05628   0.05642   0.05653
     Eigenvalues ---    0.05670   0.05678   0.05749   0.05773   0.05844
     Eigenvalues ---    0.05851   0.05859   0.05918   0.06036   0.06068
     Eigenvalues ---    0.06092   0.06125   0.10908   0.10921   0.10995
     Eigenvalues ---    0.11017   0.11305   0.11318   0.11555   0.11567
     Eigenvalues ---    0.11646   0.11711   0.11747   0.11821   0.13560
     Eigenvalues ---    0.13562   0.13574   0.13608   0.13717   0.13790
     Eigenvalues ---    0.13935   0.13935   0.13973   0.13979   0.14034
     Eigenvalues ---    0.14092   0.16000   0.16000   0.16000   0.16000
     Eigenvalues ---    0.16000   0.16000   0.21942   0.21946   0.21960
     Eigenvalues ---    0.22002   0.22007   0.22008   0.22010   0.22013
     Eigenvalues ---    0.22023   0.22033   0.22045   0.22110   0.24152
     Eigenvalues ---    0.24184   0.24270   0.24347   0.24359   0.24629
     Eigenvalues ---    0.25000   0.25000   0.25000   0.25000   0.25000
     Eigenvalues ---    0.25000   0.29658   0.29954   0.30082   0.30117
     Eigenvalues ---    0.30714   0.30859   0.30944   0.33364   0.33451
     Eigenvalues ---    0.33544   0.33545   0.33594   0.33633   0.33641
     Eigenvalues ---    0.33727   0.33876   0.34200   0.34259   0.34264
     Eigenvalues ---    0.34291   0.34303   0.34312   0.34314   0.34322
     Eigenvalues ---    0.34370   0.34381   0.34396   0.34401   0.34421
     Eigenvalues ---    0.34431   0.34432   0.34462   0.34465   0.34488
     Eigenvalues ---    0.34501   0.34523   0.34610   0.43568   0.43862
     Eigenvalues ---    0.43948   0.44128   0.44321   0.44361
 Maximum Force            0.010045     0.000015     NO 
 RMS     Force            0.003398     0.000010     NO 
 Maximum Displacement     0.507026     0.000060     NO 
 RMS     Displacement     0.126372     0.000040     NO 
                          Input orientation:                          
 ---------------------------------------------------------------------
 Center     Atomic      Atomic             Coordinates (Angstroms)
 Number     Number       Type             X           Y           Z
 ---------------------------------------------------------------------
      1          6           0        8.704568    0.984604    2.362825
      2          1           0        9.124075    1.725424    1.692653
      3          1           0        7.722765    1.323842    2.671314
      4          1           0        9.336876    0.917800    3.241992
      5          6           0        8.609220   -0.360562    1.673034
      6          1           0        9.595596   -0.708879    1.372214
      7          1           0        8.192373   -1.109053    2.343606
      8          8           0        7.791169   -0.228431    0.544061
      9          6           0        7.628233   -1.404014   -0.192401
     10          1           0        7.218899   -2.193579    0.433076
     11          1           0        8.597065   -1.738772   -0.561164
     12          6           0        6.710719   -1.165906   -1.375844
     13          1           0        7.030518   -0.278660   -1.914807
     14          1           0        6.797032   -2.014337   -2.043581
     15          8           0        5.352894   -1.085905   -1.050090
     16          6           0        4.870698    0.147140   -0.585659
     17          1           0        5.162180    0.947719   -1.259427
     18          1           0        5.256928    0.380404    0.394727
     19          6           0        3.361742    0.035998   -0.544636
     20          1           0        3.067692   -0.764218    0.129248
     21          1           0        2.988900   -0.208677   -1.533721
     22          8           0        2.861633    1.264001   -0.095067
     23          6           0        1.486445    1.322609    0.153250
     24          1           0        1.333259    2.160312    0.818539
     25          1           0        1.162533    0.424852    0.671304
     26          6           0        0.681681    1.542894   -1.124913
     27          1           0        0.825830    0.740156   -1.835882
     28          1           0        1.019497    2.455190   -1.599283
     29         16           0       -1.099267    1.757592   -0.836470
     30          6           0       -1.652079    0.035247   -0.615896
     31          1           0       -1.337317   -0.547649   -1.471532
     32          1           0       -1.199205   -0.389498    0.269179
     33          6           0       -3.172681    0.003376   -0.489112
     34          1           0       -3.628627    0.400872   -1.386748
     35          1           0       -3.484001    0.612686    0.348257
     36         16           0       -3.729261   -1.714446   -0.252364
     37          6           0       -5.539315   -1.530460   -0.318039
     38          1           0       -5.924804   -2.525851   -0.491938
     39          1           0       -5.793867   -0.937255   -1.186226
     40          6           0       -6.155262   -0.958785    0.956454
     41          1           0       -5.924863   -1.607315    1.790863
     42          1           0       -5.747897    0.012787    1.195554
     43         16           0       -7.972924   -0.857119    0.905345
     44          6           0       -8.284714    0.644574   -0.080663
     45          1           0       -7.716772    0.596865   -1.000934
     46          1           0       -9.328432    0.570891   -0.360163
     47          6           0       -8.036143    1.958974    0.650973
     48          1           0       -6.999240    2.071837    0.944656
     49          1           0       -8.284307    2.796894    0.006587
     50          1           0       -8.644041    2.025829    1.544850
 ---------------------------------------------------------------------
 Stoichiometry    C14H30O3S3
 Framework group  C1[X(C14H30O3S3)]
                         Standard orientation:                         
 ---------------------------------------------------------------------
 Center     Atomic      Atomic             Coordinates (Angstroms)
 Number     Number       Type             X           Y           Z
 ---------------------------------------------------------------------
      1          6           0        8.720573    1.106840    2.280556
      2          1           0        9.136829    1.813312    1.572347
      3          1           0        7.740046    1.460953    2.576119
      4          1           0        9.356831    1.084098    3.159116
      5          6           0        8.622589   -0.271108    1.659240
      6          1           0        9.607725   -0.633905    1.371769
      7          1           0        8.208997   -0.985221    2.368220
      8          8           0        7.799450   -0.195617    0.528759
      9          6           0        7.633613   -1.406532   -0.147335
     10          1           0        7.227347   -2.163919    0.518624
     11          1           0        8.600897   -1.759182   -0.503262
     12          6           0        6.710733   -1.227927   -1.337065
     13          1           0        7.027819   -0.368670   -1.921095
     14          1           0        6.794340   -2.108639   -1.961976
     15          8           0        5.354352   -1.131907   -1.009624
     16          6           0        4.873826    0.122740   -0.605194
     17          1           0        5.162022    0.888703   -1.319405
     18          1           0        5.264363    0.404719    0.360576
     19          6           0        3.365107    0.013619   -0.551903
     20          1           0        3.074344   -0.751975    0.162417
     21          1           0        2.987924   -0.280190   -1.525852
     22          8           0        2.866604    1.262487   -0.161984
     23          6           0        1.492521    1.333271    0.089262
     24          1           0        1.342033    2.203138    0.712565
     25          1           0        1.171231    0.462471    0.652954
     26          6           0        0.681971    1.489357   -1.194683
     27          1           0        0.823206    0.652128   -1.865315
     28          1           0        1.017355    2.376860   -1.715534
     29         16           0       -1.097740    1.717995   -0.909336
     30          6           0       -1.648983    0.008754   -0.600541
     31          1           0       -1.337858   -0.616112   -1.427402
     32          1           0       -1.192010   -0.371208    0.302601
     33          6           0       -3.168991   -0.016914   -0.465503
     34          1           0       -3.629083    0.335205   -1.379817
     35          1           0       -3.476764    0.633422    0.341779
     36         16           0       -3.723931   -1.720830   -0.140765
     37          6           0       -5.534322   -1.540554   -0.207425
     38          1           0       -5.920253   -2.543430   -0.329665
     39          1           0       -5.792956   -0.991477   -1.103004
     40          6           0       -6.144750   -0.906009    1.039677
     41          1           0       -5.910403   -1.512031    1.904392
     42          1           0       -5.736645    0.076337    1.228126
     43         16           0       -7.962657   -0.807224    0.991710
     44          6           0       -8.279360    0.643317   -0.066657
     45          1           0       -7.715526    0.549769   -0.985936
     46          1           0       -9.324293    0.555651   -0.337443
     47          6           0       -8.027957    1.992644    0.597300
     48          1           0       -6.989787    2.120149    0.880326
     49          1           0       -8.279282    2.797309   -0.087010
     50          1           0       -8.631871    2.103991    1.489441
 ---------------------------------------------------------------------
 Standard basis: 6-31G(d) (6D, 7F)
   372 basis functions,   752 primitive gaussians,   372 cartesian basis functions
    93 alpha electrons       93 beta electrons
 Requested convergence on RMS density matrix=1.00D-08 within  64 cycles.
 Requested convergence on MAX density matrix=1.00D-06.
 Requested convergence on             energy=1.00D-06.
 SCF Done:  E(RHF) =  -1964.69646040     A.U. after   12 cycles
            NFock= 12  Conv=0.49D-08     -V/T= 2.0006
 Step number   2 out of a maximum of   55
     Eigenvalues ---    0.00230   0.00230   0.00230   0.00230   0.00230
     Eigenvalues ---    0.00235   0.00403   0.00444   0.00462   0.00467
     Eigenvalues ---    0.00552   0.00568   0.00580   0.01524   0.01548
     Eigenvalues ---    0.01555   0.01569   0.01586   0.01600   0.04331
     Eigenvalues ---    0.04433   0.04461   0.04471   0.04780   0.04861
     Eigenvalues ---    0.05038   0.05055   0.05212   0.05329   0.05494
     Eigenvalues ---    0.05498   0.05563   0.05639   0.05666   0.05672
     Eigenvalues ---    0.05673   0.05679   0.05744   0.05762   0.05817
     Eigenvalues ---    0.05839   0.05847   0.05907   0.06025   0.06052
     Eigenvalues ---    0.06073   0.06089   0.10972   0.10986   0.11008
     Eigenvalues ---    0.11084   0.11353   0.11422   0.11591   0.11603
     Eigenvalues ---    0.11681   0.11746   0.11777   0.11921   0.13556
     Eigenvalues ---    0.13597   0.13611   0.13617   0.13731   0.13839
     Eigenvalues ---    0.13957   0.13967   0.13981   0.14011   0.14077
     Eigenvalues ---    0.14147   0.15992   0.16000   0.16000   0.16000
     Eigenvalues ---    0.16000   0.16009   0.21879   0.21956   0.21963
     Eigenvalues ---    0.21980   0.22010   0.22012   0.22017   0.22024
     Eigenvalues ---    0.22027   0.22033   0.22065   0.22164   0.23987
     Eigenvalues ---    0.24163   0.24254   0.24313   0.24353   0.24612
     Eigenvalues ---    0.24799   0.25000   0.25000   0.25000   0.25000
     Eigenvalues ---    0.26186   0.29659   0.29950   0.30090   0.30105
     Eigenvalues ---    0.30667   0.30860   0.30937   0.33380   0.33467
     Eigenvalues ---    0.33544   0.33566   0.33601   0.33633   0.33699
     Eigenvalues ---    0.33772   0.33923   0.34164   0.34211   0.34262
     Eigenvalues ---    0.34278   0.34296   0.34308   0.34318   0.34349
     Eigenvalues ---    0.34373   0.34375   0.34398   0.34412   0.34424
     Eigenvalues ---    0.34431   0.34452   0.34462   0.34484   0.34496
     Eigenvalues ---    0.34518   0.34602   0.37453   0.42648   0.43691
     Eigenvalues ---    0.43916   0.44052   0.44237   0.44473
 Maximum Force            0.003448     0.000015     NO 
 RMS     Force            0.000679     0.000010     NO 
 Maximum Displacement     0.410606     0.000060     NO 
 RMS     Displacement     0.082649     0.000040     NO 
                          Input orientation:                          
 ---------------------------------------------------------------------
 Center     Atomic      Atomic             Coordinates (Angstroms)
 Number     Number       Type             X           Y           Z
 ---------------------------------------------------------------------
      1          6           0        8.512490    1.023035    2.389842
      2          1           0        8.922066    1.781209    1.732995
      3          1           0        7.507933    1.319834    2.667112
      4          1           0        9.119593    0.979764    3.288035
      5          6           0        8.494406   -0.323988    1.696030
      6          1           0        9.504898   -0.628116    1.428382
      7          1           0        8.089780   -1.088355    2.356520
      8          8           0        7.707604   -0.222114    0.544148
      9          6           0        7.613486   -1.397493   -0.202044
     10          1           0        7.212137   -2.205427    0.405128
     11          1           0        8.599221   -1.700373   -0.554881
     12          6           0        6.713014   -1.178546   -1.400134
     13          1           0        7.025665   -0.279866   -1.924307
     14          1           0        6.826312   -2.020334   -2.072716
     15          8           0        5.356189   -1.114016   -1.079264
     16          6           0        4.872318    0.112082   -0.605041
     17          1           0        5.161069    0.921538   -1.269462
     18          1           0        5.256167    0.335519    0.380612
     19          6           0        3.363067   -0.000552   -0.564511
     20          1           0        3.073531   -0.810939    0.099247
     21          1           0        2.992867   -0.234472   -1.557633
     22          8           0        2.863368    1.220571   -0.099613
     23          6           0        1.489657    1.280401    0.146903
     24          1           0        1.333842    2.102195    0.831410
     25          1           0        1.154568    0.371196    0.638295
     26          6           0        0.693304    1.535118   -1.130482
     27          1           0        0.836840    0.746003   -1.857067
     28          1           0        1.037824    2.455944   -1.582668
     29         16           0       -1.086525    1.755923   -0.845370
     30          6           0       -1.640337    0.031041   -0.660042
     31          1           0       -1.340145   -0.533497   -1.533049
     32          1           0       -1.180509   -0.416055    0.210595
     33          6           0       -3.159143    0.007025   -0.516901
     34          1           0       -3.621640    0.427796   -1.400337
     35          1           0       -3.457044    0.597425    0.339014
     36         16           0       -3.715925   -1.713901   -0.313931
     37          6           0       -5.523494   -1.510746   -0.326206
     38          1           0       -5.922360   -2.500157   -0.502989
     39          1           0       -5.798771   -0.899683   -1.175888
     40          6           0       -6.093327   -0.950994    0.975081
     41          1           0       -5.842795   -1.609758    1.795458
     42          1           0       -5.672555    0.017314    1.208064
     43         16           0       -7.909129   -0.840342    0.980718
     44          6           0       -8.225819    0.647615   -0.019236
     45          1           0       -7.706973    0.563270   -0.965769
     46          1           0       -9.284919    0.602132   -0.240169
     47          6           0       -7.890464    1.965771    0.671120
     48          1           0       -6.834528    2.043567    0.903653
     49          1           0       -8.146102    2.799127    0.023585
     50          1           0       -8.444711    2.069307    1.595766
 ---------------------------------------------------------------------
 Stoichiometry    C14H30O3S3
 Framework group  C1[X(C14H30O3S3)]
                         Standard orientation:                         
 ---------------------------------------------------------------------
 Center     Atomic      Atomic             Coordinates (Angstroms)
 Number     Number       Type             X           Y           Z
 ---------------------------------------------------------------------
      1          6           0        8.517689    1.260425    2.272756
      2          1           0        8.925375    1.952009    1.545066
      3          1           0        7.513438    1.581956    2.522158
      4          1           0        9.126578    1.304295    3.169709
      5          6           0        8.499327   -0.147210    1.712041
      6          1           0        9.509536   -0.475105    1.472910
      7          1           0        8.096602   -0.844603    2.443943
      8          8           0        7.710196   -0.157310    0.557294
      9          6           0        7.615561   -1.399195   -0.071947
     10          1           0        7.216044   -2.145089    0.611079
     11          1           0        8.600847   -1.734073   -0.395939
     12          6           0        6.712577   -1.297290   -1.283740
     13          1           0        7.023485   -0.453127   -1.892720
     14          1           0        6.825234   -2.199917   -1.872285
     15          8           0        5.356330   -1.202959   -0.967842
     16          6           0        4.872406    0.062844   -0.613025
     17          1           0        5.159212    0.804668   -1.352951
     18          1           0        5.258000    0.380475    0.345726
     19          6           0        3.363328   -0.046275   -0.558779
     20          1           0        3.075736   -0.789090    0.180580
     21          1           0        2.991376   -0.375052   -1.523982
     22          8           0        2.863561    1.213668   -0.212731
     23          6           0        1.490286    1.296145    0.029645
     24          1           0        1.335152    2.179994    0.632072
     25          1           0        1.156884    0.438331    0.607057
     26          6           0        0.691238    1.426073   -1.264732
     27          1           0        0.833986    0.570689   -1.912165
     28          1           0        1.034138    2.299237   -1.804258
     29         16           0       -1.088206    1.672249   -0.998634
     30          6           0       -1.640277   -0.027076   -0.646802
     31          1           0       -1.341339   -0.672947   -1.461938
     32          1           0       -1.178394   -0.387896    0.261943
     33          6           0       -3.158781   -0.038106   -0.498944
     34          1           0       -3.623338    0.295276   -1.417887
     35          1           0       -3.455483    0.631860    0.296681
     36         16           0       -3.713790   -1.731795   -0.129929
     37          6           0       -5.521542   -1.531867   -0.158075
     38          1           0       -5.919961   -2.533952   -0.237867
     39          1           0       -5.798965   -1.005711   -1.062139
     40          6           0       -6.089280   -0.849644    1.084352
     41          1           0       -5.836621   -1.426117    1.963894
     42          1           0       -5.668828    0.136868    1.222072
     43         16           0       -7.905156   -0.740066    1.082965
     44          6           0       -8.224987    0.644391   -0.055104
     45          1           0       -7.707922    0.469524   -0.990147
     46          1           0       -9.284479    0.577183   -0.268485
     47          6           0       -7.889338    2.023153    0.504312
     48          1           0       -6.833012    2.123640    0.726131
     49          1           0       -8.146906    2.790062   -0.220010
     50          1           0       -8.441861    2.214990    1.415793
 ---------------------------------------------------------------------
 Standard basis: 6-31G(d) (6D, 7F)
   372 basis functions,   752 primitive gaussians,   372 cartesian basis functions
    93 alpha electrons       93 beta electrons
 Requested convergence on RMS density matrix=1.00D-08 within  64 cycles.
 Requested convergence on MAX density matrix=1.00D-06.
 Requested convergence on             energy=1.00D-06.
 SCF Done:  E(RHF) =  -1964.69661880     A.U. after   11 cycles
            NFock= 11  Conv=0.77D-08     -V/T= 2.0006
 Step number   3 out of a maximum of   55
     Eigenvalues ---    0.00229   0.00230   0.00230   0.00230   0.00231
     Eigenvalues ---    0.00247   0.00403   0.00442   0.00462   0.00467
     Eigenvalues ---    0.00565   0.00568   0.00580   0.01497   0.01532
     Eigenvalues ---    0.01548   0.01557   0.01586   0.01637   0.04376
     Eigenvalues ---    0.04460   0.04473   0.04503   0.04886   0.05076
     Eigenvalues ---    0.05091   0.05106   0.05342   0.05470   0.05508
     Eigenvalues ---    0.05519   0.05595   0.05643   0.05665   0.05672
     Eigenvalues ---    0.05690   0.05754   0.05773   0.05808   0.05835
     Eigenvalues ---    0.05851   0.05871   0.05932   0.06064   0.06087
     Eigenvalues ---    0.06109   0.06115   0.10790   0.10933   0.10957
     Eigenvalues ---    0.11047   0.11255   0.11430   0.11567   0.11583
     Eigenvalues ---    0.11625   0.11669   0.11750   0.11871   0.13558
     Eigenvalues ---    0.13571   0.13583   0.13609   0.13723   0.13806
     Eigenvalues ---    0.13946   0.13949   0.13957   0.14008   0.14061
     Eigenvalues ---    0.14074   0.15941   0.16000   0.16000   0.16000
     Eigenvalues ---    0.16001   0.16002   0.21725   0.21960   0.21963
     Eigenvalues ---    0.21973   0.22010   0.22018   0.22020   0.22028
     Eigenvalues ---    0.22029   0.22037   0.22059   0.23063   0.23940
     Eigenvalues ---    0.24160   0.24259   0.24310   0.24353   0.24612
     Eigenvalues ---    0.24691   0.25000   0.25000   0.25000   0.25079
     Eigenvalues ---    0.29028   0.29702   0.29957   0.30080   0.30187
     Eigenvalues ---    0.30815   0.30915   0.33257   0.33383   0.33466
     Eigenvalues ---    0.33546   0.33569   0.33612   0.33639   0.33697
     Eigenvalues ---    0.33835   0.33978   0.34206   0.34261   0.34275
     Eigenvalues ---    0.34295   0.34307   0.34316   0.34345   0.34367
     Eigenvalues ---    0.34374   0.34398   0.34411   0.34424   0.34431
     Eigenvalues ---    0.34450   0.34462   0.34481   0.34495   0.34515
     Eigenvalues ---    0.34601   0.36423   0.36852   0.42006   0.43721
     Eigenvalues ---    0.43916   0.44033   0.44249   0.45761
 Maximum Force            0.002221     0.000015     NO 
 RMS     Force            0.000375     0.000010     NO 
 Maximum Displacement     0.182719     0.000060     NO 
 RMS     Displacement     0.040606     0.000040     NO 
                          Input orientation:                          
 ---------------------------------------------------------------------
 Center     Atomic      Atomic             Coordinates (Angstroms)
 Number     Number       Type             X           Y           Z
 ---------------------------------------------------------------------
      1          6           0        8.596085    1.025967    2.371804
      2          1           0        9.007714    1.770432    1.699780
      3          1           0        7.599962    1.341657    2.660702
      4          1           0        9.216284    0.982925    3.261685
      5          6           0        8.546663   -0.328825    1.693598
      6          1           0        9.549303   -0.651599    1.415003
      7          1           0        8.140417   -1.079512    2.370045
      8          8           0        7.744188   -0.228070    0.552572
      9          6           0        7.620941   -1.409794   -0.178862
     10          1           0        7.217801   -2.207188    0.442611
     11          1           0        8.598813   -1.729517   -0.541451
     12          6           0        6.705709   -1.191496   -1.367912
     13          1           0        7.021214   -0.301106   -1.906535
     14          1           0        6.805343   -2.041518   -2.033254
     15          8           0        5.351163   -1.118090   -1.036901
     16          6           0        4.866357    0.117828   -0.588920
     17          1           0        5.153141    0.913534   -1.272013
     18          1           0        5.249383    0.365293    0.391879
     19          6           0        3.356499    0.004987   -0.545365
     20          1           0        3.068368   -0.792257    0.136150
     21          1           0        2.985617   -0.251158   -1.533852
     22          8           0        2.855970    1.235201   -0.106115
     23          6           0        1.481767    1.299088    0.135534
     24          1           0        1.323163    2.129075    0.810653
     25          1           0        1.143022    0.394906    0.635742
     26          6           0        0.689693    1.539227   -1.148023
     27          1           0        0.837528    0.740971   -1.864851
     28          1           0        1.036144    2.455435   -1.609492
     29         16           0       -1.091926    1.761170   -0.872757
     30          6           0       -1.645585    0.037009   -0.678270
     31          1           0       -1.343950   -0.533060   -1.548005
     32          1           0       -1.187312   -0.405217    0.196516
     33          6           0       -3.165013    0.013431   -0.537729
     34          1           0       -3.625780    0.430713   -1.424593
     35          1           0       -3.464314    0.607830    0.315702
     36         16           0       -3.721719   -1.707053   -0.328506
     37          6           0       -5.529696   -1.505818   -0.350615
     38          1           0       -5.926913   -2.493925   -0.541958
     39          1           0       -5.800143   -0.883825   -1.194743
     40          6           0       -6.109290   -0.962436    0.953658
     41          1           0       -5.860727   -1.630403    1.767922
     42          1           0       -5.692145    0.004864    1.199846
     43         16           0       -7.925832   -0.858344    0.951634
     44          6           0       -8.244731    0.649406   -0.018072
     45          1           0       -7.701575    0.599841   -0.954106
     46          1           0       -9.297720    0.590548   -0.266139
     47          6           0       -7.952796    1.956268    0.713368
     48          1           0       -6.903649    2.049267    0.971717
     49          1           0       -8.211257    2.801077    0.081095
     50          1           0       -8.530179    2.024262    1.627821
 ---------------------------------------------------------------------
 Stoichiometry    C14H30O3S3
 Framework group  C1[X(C14H30O3S3)]
                         Standard orientation:                         
 ---------------------------------------------------------------------
 Center     Atomic      Atomic             Coordinates (Angstroms)
 Number     Number       Type             X           Y           Z
 ---------------------------------------------------------------------
      1          6           0        8.607322    1.236195    2.255017
      2          1           0        9.015832    1.920256    1.519856
      3          1           0        7.612109    1.575210    2.519601
      4          1           0        9.230994    1.270054    3.142865
      5          6           0        8.556202   -0.171917    1.696024
      6          1           0        9.557976   -0.517102    1.442288
      7          1           0        8.153095   -0.861795    2.436106
      8          8           0        7.749241   -0.169938    0.553715
      9          6           0        7.623972   -1.410227   -0.072902
     10          1           0        7.223791   -2.151365    0.616415
     11          1           0        8.600650   -1.759603   -0.410485
     12          6           0        6.703989   -1.295310   -1.272721
     13          1           0        7.016792   -0.454427   -1.887149
     14          1           0        6.801626   -2.199364   -1.862889
     15          8           0        5.350685   -1.194186   -0.943941
     16          6           0        4.866771    0.075508   -0.602002
     17          1           0        5.150359    0.809624   -1.352108
     18          1           0        5.253426    0.406534    0.352374
     19          6           0        3.357171   -0.033699   -0.542986
     20          1           0        3.072230   -0.769484    0.205686
     21          1           0        2.982637   -0.374030   -1.504324
     22          8           0        2.857504    1.229555   -0.209193
     23          6           0        1.484204    1.313504    0.031453
     24          1           0        1.327649    2.198418    0.633315
     25          1           0        1.148022    0.455568    0.608885
     26          6           0        0.686997    1.442098   -1.264884
     27          1           0        0.832600    0.585207   -1.910988
     28          1           0        1.031027    2.315350   -1.804786
     29         16           0       -1.093694    1.686266   -1.002740
     30          6           0       -1.645412   -0.014977   -0.658541
     31          1           0       -1.346759   -0.657622   -1.477208
     32          1           0       -1.183447   -0.380178    0.249229
     33          6           0       -3.164267   -0.026915   -0.510537
     34          1           0       -3.628753    0.312394   -1.428186
     35          1           0       -3.460666    0.638567    0.289786
     36         16           0       -3.718977   -1.723229   -0.151960
     37          6           0       -5.527163   -1.525274   -0.184203
     38          1           0       -5.924441   -2.526315   -0.288310
     39          1           0       -5.801307   -0.978271   -1.077624
     40          6           0       -6.102070   -0.871948    1.070774
     41          1           0       -5.849895   -1.467332    1.938481
     42          1           0       -5.684639    0.113085    1.231232
     43         16           0       -7.918678   -0.769053    1.066927
     44          6           0       -8.242368    0.649611   -0.027583
     45          1           0       -7.702810    0.519927   -0.958010
     46          1           0       -9.296270    0.569270   -0.265540
     47          6           0       -7.948497    2.014634    0.587617
     48          1           0       -6.898421    2.129873    0.832897
     49          1           0       -8.209986    2.801851   -0.113942
     50          1           0       -8.522378    2.160811    1.495092
 ---------------------------------------------------------------------
 Standard basis: 6-31G(d) (6D, 7F)
   372 basis functions,   752 primitive gaussians,   372 cartesian basis functions
    93 alpha electrons       93 beta electrons
 Requested convergence on RMS density matrix=1.00D-08 within  64 cycles.
 Requested convergence on MAX density matrix=1.00D-06.
 Requested convergence on             energy=1.00D-06.
 SCF Done:  E(RHF) =  -1964.69668494     A.U. after   11 cycles
            NFock= 11  Conv=0.48D-08     -V/T= 2.0006
 Step number   4 out of a maximum of   55
     Eigenvalues ---    0.00226   0.00230   0.00230   0.00231   0.00233
     Eigenvalues ---    0.00268   0.00402   0.00443   0.00460   0.00467
     Eigenvalues ---    0.00565   0.00577   0.00580   0.01176   0.01530
     Eigenvalues ---    0.01548   0.01558   0.01586   0.01635   0.04378
     Eigenvalues ---    0.04451   0.04472   0.04501   0.04893   0.05081
     Eigenvalues ---    0.05095   0.05146   0.05341   0.05493   0.05509
     Eigenvalues ---    0.05529   0.05647   0.05666   0.05674   0.05692
     Eigenvalues ---    0.05704   0.05757   0.05774   0.05834   0.05850
     Eigenvalues ---    0.05855   0.05872   0.05944   0.06075   0.06101
     Eigenvalues ---    0.06117   0.06207   0.10925   0.10942   0.11013
     Eigenvalues ---    0.11097   0.11315   0.11451   0.11486   0.11583
     Eigenvalues ---    0.11635   0.11691   0.11770   0.11929   0.13558
     Eigenvalues ---    0.13571   0.13584   0.13612   0.13724   0.13856
     Eigenvalues ---    0.13946   0.13950   0.13957   0.14020   0.14091
     Eigenvalues ---    0.14153   0.15948   0.15999   0.16000   0.16000
     Eigenvalues ---    0.16001   0.16004   0.21685   0.21961   0.21968
     Eigenvalues ---    0.21972   0.22012   0.22021   0.22027   0.22030
     Eigenvalues ---    0.22031   0.22038   0.22316   0.23213   0.24075
     Eigenvalues ---    0.24160   0.24259   0.24327   0.24354   0.24621
     Eigenvalues ---    0.24771   0.24975   0.25000   0.25000   0.25817
     Eigenvalues ---    0.29027   0.29660   0.29943   0.30074   0.30121
     Eigenvalues ---    0.30756   0.30911   0.33074   0.33382   0.33465
     Eigenvalues ---    0.33545   0.33560   0.33605   0.33636   0.33699
     Eigenvalues ---    0.33838   0.33960   0.34207   0.34254   0.34271
     Eigenvalues ---    0.34295   0.34307   0.34315   0.34347   0.34369
     Eigenvalues ---    0.34374   0.34398   0.34411   0.34421   0.34430
     Eigenvalues ---    0.34451   0.34462   0.34482   0.34496   0.34515
     Eigenvalues ---    0.34602   0.36178   0.37228   0.42009   0.43754
     Eigenvalues ---    0.43915   0.44078   0.44247   0.46322
 Maximum Force            0.000430     0.000015     NO 
 RMS     Force            0.000088     0.000010     NO 
 Maximum Displacement     0.086113     0.000060     NO 
 RMS     Displacement     0.016769     0.000040     NO 
                          Input orientation:                          
 ---------------------------------------------------------------------
 Center     Atomic      Atomic             Coordinates (Angstroms)
 Number     Number       Type             X           Y           Z
 ---------------------------------------------------------------------
      1          6           0        8.598628    1.036210    2.366233
      2          1           0        9.003784    1.781499    1.691012
      3          1           0        7.602352    1.347924    2.659305
      4          1           0        9.223240    0.997272    3.253324
      5          6           0        8.552154   -0.320249    1.690442
      6          1           0        9.555063   -0.639098    1.407546
      7          1           0        8.152709   -1.071905    2.370169
      8          8           0        7.743991   -0.225840    0.553375
      9          6           0        7.623019   -1.408980   -0.175614
     10          1           0        7.228420   -2.207994    0.449649
     11          1           0        8.600877   -1.723499   -0.543150
     12          6           0        6.698976   -1.197115   -1.359529
     13          1           0        7.008740   -0.307714   -1.903430
     14          1           0        6.795385   -2.049135   -2.023113
     15          8           0        5.347257   -1.124974   -1.017919
     16          6           0        4.861117    0.114067   -0.581327
     17          1           0        5.143323    0.903309   -1.274044
     18          1           0        5.247875    0.373072    0.395214
     19          6           0        3.351359   -0.001760   -0.529698
     20          1           0        3.067798   -0.793592    0.160266
     21          1           0        2.976031   -0.267716   -1.514163
     22          8           0        2.849983    1.230890   -0.099326
     23          6           0        1.475836    1.295242    0.140866
     24          1           0        1.317006    2.122227    0.819851
     25          1           0        1.135247    0.389102    0.636555
     26          6           0        0.686000    1.541900   -1.143325
     27          1           0        0.837088    0.747505   -1.863966
     28          1           0        1.033161    2.460855   -1.599043
     29         16           0       -1.096930    1.759114   -0.871362
     30          6           0       -1.650434    0.033273   -0.690255
     31          1           0       -1.347034   -0.530233   -1.563765
     32          1           0       -1.193025   -0.415157    0.181922
     33          6           0       -3.170520    0.006746   -0.552031
     34          1           0       -3.630434    0.431922   -1.435718
     35          1           0       -3.471555    0.593102    0.306455
     36         16           0       -3.727315   -1.715897   -0.359848
     37          6           0       -5.535713   -1.515238   -0.368174
     38          1           0       -5.936170   -2.503957   -0.550064
     39          1           0       -5.812457   -0.898065   -1.213873
     40          6           0       -6.103968   -0.962416    0.937392
     41          1           0       -5.848139   -1.625113    1.753845
     42          1           0       -5.683332    0.006112    1.173124
     43         16           0       -7.920587   -0.855528    0.950646
     44          6           0       -8.247145    0.658987   -0.006237
     45          1           0       -7.723888    0.608822   -0.953592
     46          1           0       -9.305607    0.611766   -0.233209
     47          6           0       -7.927628    1.960275    0.724157
     48          1           0       -6.872258    2.042191    0.960259
     49          1           0       -8.191669    2.810212    0.100996
     50          1           0       -8.484610    2.029577    1.651174
 ---------------------------------------------------------------------
 Stoichiometry    C14H30O3S3
 Framework group  C1[X(C14H30O3S3)]
                         Standard orientation:                         
 ---------------------------------------------------------------------
 Center     Atomic      Atomic             Coordinates (Angstroms)
 Number     Number       Type             X           Y           Z
 ---------------------------------------------------------------------
      1          6           0        8.612877    1.287031    2.219326
      2          1           0        9.014436    1.957650    1.467961
      3          1           0        7.617819    1.627624    2.482915
      4          1           0        9.241681    1.341105    3.102654
      5          6           0        8.563973   -0.132661    1.689308
      6          1           0        9.565715   -0.479285    1.436553
      7          1           0        8.168150   -0.809142    2.445794
      8          8           0        7.750413   -0.157719    0.552448
      9          6           0        7.626666   -1.410609   -0.048246
     10          1           0        7.235458   -2.139883    0.659004
     11          1           0        8.602956   -1.761779   -0.385510
     12          6           0        6.696941   -1.323760   -1.243430
     13          1           0        7.003648   -0.496093   -1.878815
     14          1           0        6.790697   -2.240494   -1.814733
     15          8           0        5.346806   -1.216373   -0.904832
     16          6           0        4.862040    0.061500   -0.597897
     17          1           0        5.140544    0.773995   -1.370676
     18          1           0        5.253248    0.421224    0.344362
     19          6           0        3.352607   -0.048382   -0.527283
     20          1           0        3.072737   -0.763741    0.243034
     21          1           0        2.972795   -0.415846   -1.476750
     22          8           0        2.852580    1.222485   -0.225793
     23          6           0        1.479544    1.311519    0.012864
     24          1           0        1.323453    2.204962    0.602396
     25          1           0        1.141795    0.462160    0.602197
     26          6           0        0.683532    1.422492   -1.286320
     27          1           0        0.831666    0.557105   -1.920651
     28          1           0        1.028035    2.288776   -1.837273
     29         16           0       -1.098217    1.666849   -1.030112
     30          6           0       -1.649906   -0.030625   -0.666910
     31          1           0       -1.350309   -0.682365   -1.478135
     32          1           0       -1.188146   -0.385367    0.245199
     33          6           0       -3.169309   -0.042642   -0.519465
     34          1           0       -3.633614    0.287770   -1.440577
     35          1           0       -3.466623    0.630252    0.274418
     36         16           0       -3.724238   -1.735777   -0.145566
     37          6           0       -5.532766   -1.537196   -0.166256
     38          1           0       -5.933527   -2.539537   -0.241861
     39          1           0       -5.813830   -1.011856   -1.070533
     40          6           0       -6.095174   -0.850916    1.077025
     41          1           0       -5.835136   -1.424590    1.957076
     42          1           0       -5.673970    0.136976    1.208191
     43         16           0       -7.911769   -0.743336    1.087641
     44          6           0       -8.243669    0.662798   -0.020806
     45          1           0       -7.724850    0.513874   -0.960192
     46          1           0       -9.303161    0.592038   -0.236576
     47          6           0       -7.921437    2.033346    0.567988
     48          1           0       -6.865012    2.139564    0.789225
     49          1           0       -8.188880    2.813445   -0.139373
     50          1           0       -8.474087    2.199173    1.485306
 ---------------------------------------------------------------------
 Standard basis: 6-31G(d) (6D, 7F)
   372 basis functions,   752 primitive gaussians,   372 cartesian basis functions
    93 alpha electrons       93 beta electrons
 Requested convergence on RMS density matrix=1.00D-08 within  64 cycles.
 Requested convergence on MAX density matrix=1.00D-06.
 Requested convergence on             energy=1.00D-06.
 SCF Done:  E(RHF) =  -1964.69669230     A.U. after   10 cycles
            NFock= 10  Conv=0.61D-08     -V/T= 2.0006
 Step number   5 out of a maximum of   55
     Eigenvalues ---    0.00225   0.00230   0.00230   0.00231   0.00246
     Eigenvalues ---    0.00333   0.00421   0.00447   0.00465   0.00481
     Eigenvalues ---    0.00564   0.00573   0.00580   0.00760   0.01530
     Eigenvalues ---    0.01548   0.01568   0.01585   0.01644   0.04397
     Eigenvalues ---    0.04466   0.04492   0.04826   0.04895   0.05082
     Eigenvalues ---    0.05090   0.05153   0.05337   0.05491   0.05508
     Eigenvalues ---    0.05537   0.05650   0.05671   0.05675   0.05691
     Eigenvalues ---    0.05739   0.05758   0.05774   0.05825   0.05849
     Eigenvalues ---    0.05856   0.05876   0.05947   0.06073   0.06097
     Eigenvalues ---    0.06114   0.06222   0.10935   0.10948   0.11026
     Eigenvalues ---    0.11120   0.11372   0.11456   0.11558   0.11603
     Eigenvalues ---    0.11663   0.11748   0.11782   0.11973   0.13564
     Eigenvalues ---    0.13579   0.13588   0.13615   0.13726   0.13877
     Eigenvalues ---    0.13940   0.13956   0.13989   0.14042   0.14117
     Eigenvalues ---    0.14206   0.15993   0.16000   0.16000   0.16001
     Eigenvalues ---    0.16009   0.16089   0.21456   0.21960   0.21967
     Eigenvalues ---    0.21970   0.22013   0.22023   0.22027   0.22029
     Eigenvalues ---    0.22038   0.22242   0.22716   0.23284   0.24119
     Eigenvalues ---    0.24171   0.24277   0.24331   0.24371   0.24648
     Eigenvalues ---    0.24854   0.24956   0.25000   0.25048   0.26474
     Eigenvalues ---    0.29132   0.29712   0.29944   0.30093   0.30295
     Eigenvalues ---    0.30882   0.30949   0.33376   0.33457   0.33485
     Eigenvalues ---    0.33551   0.33569   0.33616   0.33633   0.33698
     Eigenvalues ---    0.33859   0.34076   0.34211   0.34251   0.34272
     Eigenvalues ---    0.34295   0.34315   0.34317   0.34361   0.34371
     Eigenvalues ---    0.34398   0.34399   0.34412   0.34430   0.34447
     Eigenvalues ---    0.34460   0.34482   0.34489   0.34500   0.34539
     Eigenvalues ---    0.34603   0.36646   0.40295   0.42363   0.43800
     Eigenvalues ---    0.43936   0.44180   0.44255   0.46768
 Maximum Force            0.000352     0.000015     NO 
 RMS     Force            0.000081     0.000010     NO 
 Maximum Displacement     0.049474     0.000060     NO 
 RMS     Displacement     0.013373     0.000040     NO 
                          Input orientation:                          
 ---------------------------------------------------------------------
 Center     Atomic      Atomic             Coordinates (Angstroms)
 Number     Number       Type             X           Y           Z
 ---------------------------------------------------------------------
      1          6           0        8.604247    1.043577    2.352053
      2          1           0        9.003933    1.787590    1.672167
      3          1           0        7.608208    1.353065    2.648298
      4          1           0        9.232897    1.010044    3.236505
      5          6           0        8.559355   -0.315763    1.681713
      6          1           0        9.562156   -0.632302    1.395662
      7          1           0        8.165702   -1.066132    2.366294
      8          8           0        7.745915   -0.228826    0.548163
      9          6           0        7.625862   -1.414840   -0.175912
     10          1           0        7.237974   -2.213217    0.454419
     11          1           0        8.602770   -1.726966   -0.548055
     12          6           0        6.693776   -1.210237   -1.354792
     13          1           0        6.999317   -0.323468   -1.905332
     14          1           0        6.785750   -2.065624   -2.014757
     15          8           0        5.345182   -1.135884   -1.002431
     16          6           0        4.861298    0.107432   -0.576562
     17          1           0        5.139454    0.889377   -1.279161
     18          1           0        5.253654    0.376902    0.395005
     19          6           0        3.351760   -0.007761   -0.514737
     20          1           0        3.072290   -0.793202    0.184157
     21          1           0        2.970345   -0.282912   -1.494414
     22          8           0        2.852991    1.228654   -0.092875
     23          6           0        1.479371    1.296941    0.148162
     24          1           0        1.322886    2.123049    0.828822
     25          1           0        1.135785    0.390984    0.642101
     26          6           0        0.690584    1.548283   -1.135943
     27          1           0        0.841522    0.755452   -1.858390
     28          1           0        1.039527    2.467845   -1.589043
     29         16           0       -1.092273    1.766935   -0.864796
     30          6           0       -1.648137    0.041380   -0.688570
     31          1           0       -1.346315   -0.519850   -1.564097
     32          1           0       -1.190635   -0.410440    0.181795
     33          6           0       -3.168265    0.016441   -0.549001
     34          1           0       -3.628368    0.446374   -1.430305
     35          1           0       -3.467446    0.599362    0.312422
     36         16           0       -3.727418   -1.706230   -0.364115
     37          6           0       -5.535671   -1.504102   -0.375944
     38          1           0       -5.936115   -2.489943   -0.572803
     39          1           0       -5.809340   -0.875133   -1.213974
     40          6           0       -6.108443   -0.969142    0.935233
     41          1           0       -5.855075   -1.642557    1.743649
     42          1           0       -5.688831   -0.003787    1.185096
     43         16           0       -7.925056   -0.861990    0.943059
     44          6           0       -8.248803    0.653364   -0.013379
     45          1           0       -7.715079    0.608409   -0.955187
     46          1           0       -9.304508    0.601644   -0.251964
     47          6           0       -7.943987    1.954570    0.723745
     48          1           0       -6.891567    2.041728    0.970757
     49          1           0       -8.206389    2.804616    0.100072
     50          1           0       -8.510791    2.018292    1.645188
 ---------------------------------------------------------------------
 Stoichiometry    C14H30O3S3
 Framework group  C1[X(C14H30O3S3)]
                         Standard orientation:                         
 ---------------------------------------------------------------------
 Center     Atomic      Atomic             Coordinates (Angstroms)
 Number     Number       Type             X           Y           Z
 ---------------------------------------------------------------------
      1          6           0        8.618749    1.296552    2.199982
      2          1           0        9.014544    1.964388    1.443085
      3          1           0        7.623984    1.635541    2.466753
      4          1           0        9.251810    1.357031    3.079843
      5          6           0        8.571454   -0.126177    1.677699
      6          1           0        9.573036   -0.471095    1.421777
      7          1           0        8.181720   -0.799834    2.439908
      8          8           0        7.752330   -0.159979    0.545412
      9          6           0        7.629490   -1.416064   -0.048293
     10          1           0        7.245284   -2.143206    0.665031
     11          1           0        8.604748   -1.765721   -0.390158
     12          6           0        6.691416   -1.337683   -1.237527
     13          1           0        6.993611   -0.514203   -1.880464
     14          1           0        6.780692   -2.258177   -1.803584
     15          8           0        5.344540   -1.226613   -0.888271
     16          6           0        4.861930    0.054759   -0.594133
     17          1           0        5.136056    0.757887   -1.377025
     18          1           0        5.258926    0.425730    0.341427
     19          6           0        3.352797   -0.053463   -0.512880
     20          1           0        3.077340   -0.760461    0.266705
     21          1           0        2.966705   -0.430941   -1.455958
     22          8           0        2.855287    1.220620   -0.221921
     23          6           0        1.482835    1.313857    0.017407
     24          1           0        1.329172    2.207420    0.607468
     25          1           0        1.142327    0.465293    0.606287
     26          6           0        0.687505    1.427584   -1.282131
     27          1           0        0.835391    0.562681   -1.917241
     28          1           0        1.033564    2.294005   -1.831869
     29         16           0       -1.094131    1.673468   -1.026743
     30          6           0       -1.647935   -0.023780   -0.665868
     31          1           0       -1.350085   -0.674585   -1.478493
     32          1           0       -1.185804   -0.380751    0.245171
     33          6           0       -3.167333   -0.034018   -0.516820
     34          1           0       -3.632104    0.300030   -1.436404
     35          1           0       -3.462626    0.636862    0.279469
     36         16           0       -3.724384   -1.727481   -0.147622
     37          6           0       -5.532812   -1.528020   -0.171736
     38          1           0       -5.933556   -2.529231   -0.261007
     39          1           0       -5.811071   -0.991442   -1.070316
     40          6           0       -6.099424   -0.857211    1.078224
     41          1           0       -5.841582   -1.441126    1.952169
     42          1           0       -5.679235    0.129251    1.222274
     43         16           0       -7.916049   -0.750108    1.083760
     44          6           0       -8.245580    0.655308   -0.026239
     45          1           0       -7.716513    0.510881   -0.960645
     46          1           0       -9.302421    0.578435   -0.252703
     47          6           0       -7.937992    2.027348    0.567308
     48          1           0       -6.884416    2.140351    0.798412
     49          1           0       -8.204070    2.806475   -0.141609
     50          1           0       -8.500252    2.188272    1.479641
 ---------------------------------------------------------------------
 Standard basis: 6-31G(d) (6D, 7F)
   372 basis functions,   752 primitive gaussians,   372 cartesian basis functions
    93 alpha electrons       93 beta electrons
 Requested convergence on RMS density matrix=1.00D-08 within  64 cycles.
 Requested convergence on MAX density matrix=1.00D-06.
 Requested convergence on             energy=1.00D-06.
 SCF Done:  E(RHF) =  -1964.69670225     A.U. after   10 cycles
            NFock= 10  Conv=0.49D-08     -V/T= 2.0006
 Step number   6 out of a maximum of   55
     Eigenvalues ---    0.00207   0.00230   0.00231   0.00234   0.00243
     Eigenvalues ---    0.00281   0.00421   0.00448   0.00465   0.00475
     Eigenvalues ---    0.00569   0.00580   0.00703   0.00734   0.01531
     Eigenvalues ---    0.01548   0.01585   0.01590   0.01642   0.04402
     Eigenvalues ---    0.04477   0.04621   0.04888   0.04903   0.05083
     Eigenvalues ---    0.05089   0.05170   0.05336   0.05500   0.05515
     Eigenvalues ---    0.05545   0.05655   0.05673   0.05680   0.05693
     Eigenvalues ---    0.05759   0.05774   0.05793   0.05848   0.05856
     Eigenvalues ---    0.05883   0.05894   0.05948   0.06085   0.06097
     Eigenvalues ---    0.06118   0.06224   0.10935   0.10964   0.11027
     Eigenvalues ---    0.11113   0.11365   0.11473   0.11569   0.11610
     Eigenvalues ---    0.11696   0.11748   0.11900   0.12015   0.13569
     Eigenvalues ---    0.13579   0.13588   0.13616   0.13727   0.13877
     Eigenvalues ---    0.13938   0.13972   0.13983   0.14058   0.14133
     Eigenvalues ---    0.14263   0.16000   0.16000   0.16001   0.16003
     Eigenvalues ---    0.16017   0.16094   0.21432   0.21960   0.21969
     Eigenvalues ---    0.21970   0.22013   0.22025   0.22030   0.22038
     Eigenvalues ---    0.22079   0.22387   0.23312   0.23355   0.24160
     Eigenvalues ---    0.24198   0.24279   0.24370   0.24393   0.24653
     Eigenvalues ---    0.24974   0.25000   0.25012   0.25127   0.27661
     Eigenvalues ---    0.29462   0.29775   0.29962   0.30128   0.30544
     Eigenvalues ---    0.30908   0.31602   0.33381   0.33463   0.33513
     Eigenvalues ---    0.33550   0.33590   0.33635   0.33668   0.33705
     Eigenvalues ---    0.33862   0.34185   0.34215   0.34269   0.34294
     Eigenvalues ---    0.34303   0.34316   0.34358   0.34361   0.34372
     Eigenvalues ---    0.34398   0.34412   0.34430   0.34447   0.34458
     Eigenvalues ---    0.34469   0.34484   0.34499   0.34533   0.34597
     Eigenvalues ---    0.34699   0.36532   0.39832   0.43735   0.43901
     Eigenvalues ---    0.44042   0.44250   0.46151   0.51383
 Maximum Force            0.000325     0.000015     NO 
 RMS     Force            0.000082     0.000010     NO 
 Maximum Displacement     0.076167     0.000060     NO 
 RMS     Displacement     0.017886     0.000040     NO 
                          Input orientation:                          
 ---------------------------------------------------------------------
 Center     Atomic      Atomic             Coordinates (Angstroms)
 Number     Number       Type             X           Y           Z
 ---------------------------------------------------------------------
      1          6           0        8.618108    1.057081    2.331264
      2          1           0        9.009440    1.798360    1.643652
      3          1           0        7.623466    1.364776    2.633838
      4          1           0        9.254095    1.031153    3.210645
      5          6           0        8.572659   -0.306431    1.669653
      6          1           0        9.574198   -0.621073    1.377256
      7          1           0        8.187673   -1.054036    2.362076
      8          8           0        7.749499   -0.229582    0.542549
      9          6           0        7.628169   -1.420337   -0.173345
     10          1           0        7.250476   -2.216733    0.465508
     11          1           0        8.602678   -1.730109   -0.553503
     12          6           0        6.683160   -1.226567   -1.343459
     13          1           0        6.981771   -0.344496   -1.905002
     14          1           0        6.768135   -2.087511   -1.997065
     15          8           0        5.339053   -1.149350   -0.974991
     16          6           0        4.856692    0.100187   -0.566366
     17          1           0        5.127053    0.870403   -1.284692
     18          1           0        5.257318    0.386980    0.396775
     19          6           0        3.348077   -0.016251   -0.488756
     20          1           0        3.076327   -0.791324    0.224463
     21          1           0        2.957781   -0.306953   -1.460428
     22          8           0        2.851127    1.225599   -0.081163
     23          6           0        1.477591    1.298011    0.159276
     24          1           0        1.322436    2.123533    0.840944
     25          1           0        1.130452    0.392611    0.651427
     26          6           0        0.692196    1.553414   -1.126048
     27          1           0        0.845265    0.762582   -1.850214
     28          1           0        1.042719    2.474000   -1.575637
     29         16           0       -1.091131    1.772286   -0.859201
     30          6           0       -1.647998    0.046412   -0.690344
     31          1           0       -1.344895   -0.511733   -1.567347
     32          1           0       -1.192228   -0.408835    0.179071
     33          6           0       -3.168303    0.021728   -0.553322
     34          1           0       -3.626842    0.456536   -1.433007
     35          1           0       -3.468364    0.600346    0.310601
     36         16           0       -3.728537   -1.701537   -0.378239
     37          6           0       -5.536582   -1.498448   -0.395276
     38          1           0       -5.936253   -2.482253   -0.603241
     39          1           0       -5.806792   -0.861558   -1.228376
     40          6           0       -6.114539   -0.976210    0.918814
     41          1           0       -5.864070   -1.657276    1.721628
     42          1           0       -5.696311   -0.013256    1.179741
     43         16           0       -7.931144   -0.869929    0.920979
     44          6           0       -8.251533    0.656702   -0.018339
     45          1           0       -7.716446    0.622071   -0.959760
     46          1           0       -9.306847    0.608854   -0.259233
     47          6           0       -7.946540    1.948948    0.734360
     48          1           0       -6.894414    2.032418    0.983688
     49          1           0       -8.207463    2.806410    0.120393
     50          1           0       -8.514380    2.002389    1.655756
 ---------------------------------------------------------------------
 Stoichiometry    C14H30O3S3
 Framework group  C1[X(C14H30O3S3)]
                         Standard orientation:                         
 ---------------------------------------------------------------------
 Center     Atomic      Atomic             Coordinates (Angstroms)
 Number     Number       Type             X           Y           Z
 ---------------------------------------------------------------------
      1          6           0        8.635527    1.328597    2.157386
      2          1           0        9.022299    1.985172    1.386176
      3          1           0        7.642512    1.669354    2.428210
      4          1           0        9.276752    1.404704    3.030025
      5          6           0        8.586990   -0.102394    1.658522
      6          1           0        9.586966   -0.448872    1.398568
      7          1           0        8.206596   -0.764695    2.435204
      8          8           0        7.757090   -0.156616    0.535051
      9          6           0        7.632242   -1.422301   -0.037295
     10          1           0        7.258853   -2.139271    0.691789
     11          1           0        8.604664   -1.774109   -0.384819
     12          6           0        6.680166   -1.365365   -1.216306
     13          1           0        6.974881   -0.554331   -1.878058
     14          1           0        6.761785   -2.296256   -1.766237
     15          8           0        5.338227   -1.245872   -0.851233
     16          6           0        4.857529    0.042634   -0.587280
     17          1           0        5.123132    0.724400   -1.391625
     18          1           0        5.263702    0.439078    0.333724
     19          6           0        3.349476   -0.063918   -0.487675
     20          1           0        3.082457   -0.751099    0.312169
     21          1           0        2.953586   -0.465233   -1.416762
     22          8           0        2.854188    1.216834   -0.223770
     23          6           0        1.482063    1.316720    0.014872
     24          1           0        1.330453    2.215685    0.597201
     25          1           0        1.138422    0.474476    0.610694
     26          6           0        0.688873    1.421512   -1.286666
     27          1           0        0.838123    0.552078   -1.915214
     28          1           0        1.036142    2.283770   -1.841995
     29         16           0       -1.092969    1.669960   -1.036316
     30          6           0       -1.647748   -0.024679   -0.665271
     31          1           0       -1.349522   -0.680716   -1.473485
[...]
     19          6           0        3.342259   -0.027515   -0.422981
     20          1           0        3.109444   -0.779502    0.327417
     21          1           0        2.914796   -0.355825   -1.366520
     22          8           0        2.847779    1.222845   -0.037435
     23          6           0        1.473471    1.298477    0.202533
     24          1           0        1.319236    2.119705    0.889529
     25          1           0        1.122543    0.391101    0.687609
     26          6           0        0.694485    1.565603   -1.083636
     27          1           0        0.853051    0.782457   -1.814833
     28          1           0        1.046037    2.491025   -1.522100
     29         16           0       -1.090409    1.780487   -0.824800
     30          6           0       -1.645884    0.052623   -0.672227
     31          1           0       -1.336228   -0.498507   -1.551291
     32          1           0       -1.194862   -0.408353    0.196596
     33          6           0       -3.166666    0.024892   -0.545107
     34          1           0       -3.620386    0.463832   -1.425144
     35          1           0       -3.473314    0.598181    0.320013
     36         16           0       -3.725507   -1.700114   -0.383146
     37          6           0       -5.533593   -1.498702   -0.410147
     38          1           0       -5.930659   -2.482685   -0.621977
     39          1           0       -5.799578   -0.861119   -1.243966
     40          6           0       -6.119588   -0.979337    0.901155
     41          1           0       -5.874842   -1.662366    1.704004
     42          1           0       -5.702993   -0.017219    1.167453
     43         16           0       -7.936173   -0.872903    0.891906
     44          6           0       -8.250055    0.654842   -0.048045
     45          1           0       -7.708185    0.621056   -0.985513
     46          1           0       -9.303500    0.606205   -0.296561
     47          6           0       -7.951401    1.946054    0.708199
     48          1           0       -6.901544    2.029575    0.966749
     49          1           0       -8.206996    2.804179    0.092972
     50          1           0       -8.527043    1.998854    1.624729
 ---------------------------------------------------------------------
 Stoichiometry    C14H30O3S3
 Framework group  C1[X(C14H30O3S3)]
                         Standard orientation:                         
 ---------------------------------------------------------------------
 Center     Atomic      Atomic             Coordinates (Angstroms)
 Number     Number       Type             X           Y           Z
 ---------------------------------------------------------------------
      1          6           0        8.663588    1.353705    2.094843
      2          1           0        9.038907    1.998711    1.308462
      3          1           0        7.674619    1.698488    2.374975
      4          1           0        9.317301    1.443217    2.956824
      5          6           0        8.608166   -0.084278    1.618275
      6          1           0        9.604055   -0.434786    1.348929
      7          1           0        8.238636   -0.734942    2.409632
      8          8           0        7.761923   -0.154811    0.507246
      9          6           0        7.628744   -1.429762   -0.043261
     10          1           0        7.267455   -2.134808    0.702991
     11          1           0        8.595643   -1.786501   -0.400679
     12          6           0        6.658319   -1.392445   -1.207287
     13          1           0        6.943305   -0.595476   -1.889650
     14          1           0        6.728873   -2.334075   -1.740139
     15          8           0        5.322686   -1.262175   -0.821107
     16          6           0        4.845250    0.035613   -0.596969
     17          1           0        5.070042    0.678810   -1.444329
     18          1           0        5.289309    0.476833    0.285072
     19          6           0        3.344296   -0.073642   -0.425911
     20          1           0        3.117213   -0.723459    0.416084
     21          1           0        2.910356   -0.519716   -1.316692
     22          8           0        2.851856    1.215917   -0.199860
     23          6           0        1.479237    1.322084    0.038201
     24          1           0        1.329406    2.224443    0.615664
     25          1           0        1.132255    0.484278    0.637755
     26          6           0        0.691029    1.422887   -1.266012
     27          1           0        0.844858    0.552645   -1.892211
     28          1           0        1.038955    2.284548   -1.821649
     29         16           0       -1.092110    1.669719   -1.024130
     30          6           0       -1.645528   -0.024274   -0.648015
     31          1           0       -1.341788   -0.683357   -1.451592
     32          1           0       -1.188117   -0.370570    0.269388
     33          6           0       -3.165358   -0.034996   -0.507624
     34          1           0       -3.625534    0.288012   -1.433312
     35          1           0       -3.466201    0.644281    0.279270
     36         16           0       -3.722076   -1.724953   -0.122539
     37          6           0       -5.530421   -1.528011   -0.162256
     38          1           0       -5.928425   -2.530860   -0.243753
     39          1           0       -5.802650   -1.002148   -1.068828
     40          6           0       -6.107420   -0.845084    1.076020
     41          1           0       -5.856622   -1.419973    1.957836
     42          1           0       -5.689489    0.143034    1.214194
     43         16           0       -7.924083   -0.740070    1.066111
     44          6           0       -8.245456    0.655104   -0.059165
     45          1           0       -7.710209    0.501574   -0.988439
     46          1           0       -9.300605    0.575467   -0.291957
     47          6           0       -7.942184    2.032285    0.523693
     48          1           0       -6.890572    2.147802    0.762003
     49          1           0       -8.202600    2.804819   -0.194350
     50          1           0       -8.511360    2.202009    1.430010
 ---------------------------------------------------------------------
 Standard basis: 6-31G(d) (6D, 7F)
   372 basis functions,   752 primitive gaussians,   372 cartesian basis functions
    93 alpha electrons       93 beta electrons
 Requested convergence on RMS density matrix=1.00D-08 within  64 cycles.
 Requested convergence on MAX density matrix=1.00D-06.
 Requested convergence on             energy=1.00D-06.
 SCF Done:  E(RHF) =  -1964.69671965     A.U. after    5 cycles
            NFock=  5  Conv=0.63D-08     -V/T= 2.0006
 Step number  34 out of a maximum of   55
     Eigenvalues ---    0.00010   0.00208   0.00226   0.00294   0.00353
     Eigenvalues ---    0.00389   0.00412   0.00431   0.00470   0.00497
     Eigenvalues ---    0.00532   0.00578   0.00660   0.00679   0.00764
     Eigenvalues ---    0.00828   0.00843   0.01398   0.01629   0.04738
     Eigenvalues ---    0.04893   0.04974   0.05060   0.05111   0.05241
     Eigenvalues ---    0.05338   0.05346   0.05469   0.05510   0.05577
     Eigenvalues ---    0.05622   0.05683   0.05691   0.05708   0.05756
     Eigenvalues ---    0.05769   0.05796   0.05818   0.05860   0.05872
     Eigenvalues ---    0.05879   0.05956   0.06056   0.06083   0.06101
     Eigenvalues ---    0.06129   0.06433   0.10888   0.10970   0.11050
     Eigenvalues ---    0.11131   0.11347   0.11536   0.11572   0.11619
     Eigenvalues ---    0.11694   0.11745   0.11853   0.12165   0.13446
     Eigenvalues ---    0.13588   0.13612   0.13725   0.13744   0.13760
     Eigenvalues ---    0.13943   0.14021   0.14049   0.14116   0.14138
     Eigenvalues ---    0.14338   0.15893   0.15966   0.15999   0.16011
     Eigenvalues ---    0.16068   0.16109   0.20812   0.21798   0.21900
     Eigenvalues ---    0.21978   0.22010   0.22073   0.22209   0.22695
     Eigenvalues ---    0.22824   0.22988   0.23377   0.23598   0.24082
     Eigenvalues ---    0.24176   0.24253   0.24359   0.24425   0.24445
     Eigenvalues ---    0.24911   0.25018   0.25921   0.27272   0.29232
     Eigenvalues ---    0.29576   0.29848   0.30097   0.30725   0.30923
     Eigenvalues ---    0.31176   0.32726   0.33396   0.33453   0.33537
     Eigenvalues ---    0.33574   0.33620   0.33639   0.33696   0.33748
     Eigenvalues ---    0.33915   0.34026   0.34218   0.34267   0.34300
     Eigenvalues ---    0.34309   0.34345   0.34373   0.34396   0.34406
     Eigenvalues ---    0.34423   0.34447   0.34466   0.34476   0.34484
     Eigenvalues ---    0.34499   0.34535   0.34582   0.34642   0.34800
     Eigenvalues ---    0.35264   0.36313   0.38419   0.41842   0.43485
     Eigenvalues ---    0.43900   0.44076   0.44160   0.47035
 Maximum Force            0.000000     0.000015     YES
 RMS     Force            0.000000     0.000010     YES
 Maximum Displacement     0.000747     0.000060     NO 
 RMS     Displacement     0.000166     0.000040     NO 
 Optimization completed on the basis of negligible forces.
    -- Stationary point found.
                          Input orientation:                          
 ---------------------------------------------------------------------
 Center     Atomic      Atomic             Coordinates (Angstroms)
 Number     Number       Type             X           Y           Z
 ---------------------------------------------------------------------
      1          6           0        8.643061    1.062941    2.297090
      2          1           0        9.023715    1.802964    1.602281
      3          1           0        7.652012    1.369640    2.611997
      4          1           0        9.290620    1.041172    3.168042
      5          6           0        8.591520   -0.302298    1.640242
      6          1           0        9.589415   -0.616058    1.335350
      7          1           0        8.216621   -1.048573    2.339304
      8          8           0        7.753193   -0.229764    0.523356
      9          6           0        7.624364   -1.423814   -0.186533
     10          1           0        7.258044   -2.218263    0.460902
     11          1           0        8.593895   -1.732480   -0.579774
     12          6           0        6.662195   -1.237471   -1.343073
     13          1           0        6.951729   -0.359976   -1.915933
     14          1           0        6.736852   -2.103305   -1.991404
     15          8           0        5.323815   -1.156887   -0.952862
     16          6           0        4.844348    0.101871   -0.568054
     17          1           0        5.074912    0.847979   -1.324636
     18          1           0        5.281993    0.426478    0.366267
     19          6           0        3.342259   -0.027515   -0.422981
     20          1           0        3.109444   -0.779502    0.327417
     21          1           0        2.914796   -0.355825   -1.366520
     22          8           0        2.847779    1.222845   -0.037435
     23          6           0        1.473471    1.298477    0.202533
     24          1           0        1.319236    2.119705    0.889529
     25          1           0        1.122543    0.391101    0.687609
     26          6           0        0.694485    1.565603   -1.083636
     27          1           0        0.853051    0.782457   -1.814833
     28          1           0        1.046037    2.491025   -1.522100
     29         16           0       -1.090409    1.780487   -0.824800
     30          6           0       -1.645884    0.052623   -0.672227
     31          1           0       -1.336228   -0.498507   -1.551291
     32          1           0       -1.194862   -0.408353    0.196596
     33          6           0       -3.166666    0.024892   -0.545107
     34          1           0       -3.620386    0.463832   -1.425144
     35          1           0       -3.473314    0.598181    0.320013
     36         16           0       -3.725507   -1.700114   -0.383146
     37          6           0       -5.533593   -1.498702   -0.410147
     38          1           0       -5.930659   -2.482685   -0.621977
     39          1           0       -5.799578   -0.861119   -1.243966
     40          6           0       -6.119588   -0.979337    0.901155
     41          1           0       -5.874842   -1.662366    1.704004
     42          1           0       -5.702993   -0.017219    1.167453
     43         16           0       -7.936173   -0.872903    0.891906
     44          6           0       -8.250055    0.654842   -0.048045
     45          1           0       -7.708185    0.621056   -0.985513
     46          1           0       -9.303500    0.606205   -0.296561
     47          6           0       -7.951401    1.946054    0.708199
     48          1           0       -6.901544    2.029575    0.966749
     49          1           0       -8.206996    2.804179    0.092972
     50          1           0       -8.527043    1.998854    1.624729
 ---------------------------------------------------------------------
 Stoichiometry    C14H30O3S3
 Framework group  C1[X(C14H30O3S3)]
                         Standard orientation:                         
 ---------------------------------------------------------------------
 Center     Atomic      Atomic             Coordinates (Angstroms)
 Number     Number       Type             X           Y           Z
 ---------------------------------------------------------------------
      1          6           0        8.663588    1.353705    2.094843
      2          1           0        9.038907    1.998711    1.308462
      3          1           0        7.674619    1.698488    2.374975
      4          1           0        9.317301    1.443217    2.956824
      5          6           0        8.608166   -0.084278    1.618275
      6          1           0        9.604055   -0.434786    1.348929
      7          1           0        8.238636   -0.734942    2.409632
      8          8           0        7.761923   -0.154811    0.507246
      9          6           0        7.628744   -1.429762   -0.043261
     10          1           0        7.267455   -2.134808    0.702991
     11          1           0        8.595643   -1.786501   -0.400679
     12          6           0        6.658319   -1.392445   -1.207287
     13          1           0        6.943305   -0.595476   -1.889650
     14          1           0        6.728873   -2.334075   -1.740139
     15          8           0        5.322686   -1.262175   -0.821107
     16          6           0        4.845250    0.035613   -0.596969
     17          1           0        5.070042    0.678810   -1.444329
     18          1           0        5.289309    0.476833    0.285072
     19          6           0        3.344296   -0.073642   -0.425911
     20          1           0        3.117213   -0.723459    0.416084
     21          1           0        2.910356   -0.519716   -1.316692
     22          8           0        2.851856    1.215917   -0.199860
     23          6           0        1.479237    1.322084    0.038201
     24          1           0        1.329406    2.224443    0.615664
     25          1           0        1.132255    0.484278    0.637755
     26          6           0        0.691029    1.422887   -1.266012
     27          1           0        0.844858    0.552645   -1.892211
     28          1           0        1.038955    2.284548   -1.821649
     29         16           0       -1.092110    1.669719   -1.024130
     30          6           0       -1.645528   -0.024274   -0.648015
     31          1           0       -1.341788   -0.683357   -1.451592
     32          1           0       -1.188117   -0.370570    0.269388
     33          6           0       -3.165358   -0.034996   -0.507624
     34          1           0       -3.625534    0.288012   -1.433312
     35          1           0       -3.466201    0.644281    0.279270
     36         16           0       -3.722076   -1.724953   -0.122539
     37          6           0       -5.530421   -1.528011   -0.162256
     38          1           0       -5.928425   -2.530860   -0.243753
     39          1           0       -5.802650   -1.002148   -1.068828
     40          6           0       -6.107420   -0.845084    1.076020
     41          1           0       -5.856622   -1.419973    1.957836
     42          1           0       -5.689489    0.143034    1.214194
     43         16           0       -7.924083   -0.740070    1.066111
     44          6           0       -8.245456    0.655104   -0.059165
     45          1           0       -7.710209    0.501574   -0.988439
     46          1           0       -9.300605    0.575467   -0.291957
     47          6           0       -7.942184    2.032285    0.523693
     48          1           0       -6.890572    2.147802    0.762003
     49          1           0       -8.202600    2.804819   -0.194350
     50          1           0       -8.511360    2.202009    1.430010
 ---------------------------------------------------------------------
 Mulliken charges:
     1  C   -0.490450
     2  H    0.174304
     3  H    0.175635
     4  H    0.157999
     5  C    0.023124
     6  H    0.137612
     7  H    0.141180
     8  O   -0.625100
     9  C    0.009953
    10  H    0.152126
    11  H    0.135120
    12  C    0.002772
    13  H    0.156396
    14  H    0.169504
    15  O   -0.647331
    16  C    0.013478
    17  H    0.149227
    18  H    0.182447
    19  C    0.007581
    20  H    0.153312
    21  H    0.146930
    22  O   -0.640790
    23  C    0.028152
    24  H    0.187411
    25  H    0.145930
    26  C   -0.505191
    27  H    0.195367
    28  H    0.214075
    29  S    0.116891
    30  C   -0.478231
    31  H    0.206699
    32  H    0.206288
    33  C   -0.479588
    34  H    0.203758
    35  H    0.203800
    36  S    0.127171
    37  C   -0.476715
    38  H    0.219013
    39  H    0.194562
    40  C   -0.476914
    41  H    0.216921
    42  H    0.197145
    43  S    0.115557
    44  C   -0.476297
    45  H    0.187866
    46  H    0.201811
    47  C   -0.474022
    48  H    0.162807
    49  H    0.168652
    50  H    0.182053
 Sum of Mulliken charges =  -0.00000
 Dipole moment (field-independent basis, Debye):
    X=              2.0488    Y=              0.1717    Z=             -0.5688  Tot=              2.1332
 Quadrupole moment (field-independent basis, Debye-Ang):
   XX=           -128.5438   YY=           -155.2979   ZZ=           -147.9826
   XY=            -17.4896   XZ=             11.5958   YZ=              1.0808
 Traceless Quadrupole moment (field-independent basis, Debye-Ang):
   XX=             15.3976   YY=            -11.3565   ZZ=             -4.0411
   XY=            -17.4896   XZ=             11.5958   YZ=              1.0808
 Octapole moment (field-independent basis, Debye-Ang**2):
  XXX=            360.1947  YYY=             -2.6024  ZZZ=             -1.7156  XYY=             38.7342
  XXY=             31.6718  XXZ=            -49.7236  XZZ=             66.7277  YZZ=             -1.6841
  YYZ=              3.2305  XYZ=             -1.7949
 Hexadecapole moment (field-independent basis, Debye-Ang**3):
 XXXX=         -27924.7203 YYYY=          -1571.0060 ZZZZ=          -1016.9118 XXXY=          -1316.9072
 XXXZ=           1080.0385 YYYX=            -29.6997 YYYZ=             -6.4757 ZZZX=             46.0107
 ZZZY=              6.8202 XXYY=          -5220.8851 XXZZ=          -5086.4087 YYZZ=           -431.4289
 XXYZ=             75.4168 YYXZ=            -31.6742 ZZXY=             -7.8071
 Job cpu time:       0 days  3 hours  0 minutes 38.6 seconds.
 Normal termination of Gaussian 16 at Sat Jul  8 15:09:40 2023.
