 Copyright (c) 1988-2019, Gaussian, Inc.  All Rights Reserved.
  
 This is part of the Gaussian(R) 16 program.  It is based on
 the Gaussian(R) 09 system (copyright 2009, Gaussian, Inc.),
 the Gaussian(R) 03 system (copyright 2003, Gaussian, Inc.),
 the Gaussian(R) 98 system (copyright 1998, Gaussian, Inc.),
 the Gaussian(R) 94 system (copyright 1995, Gaussian, Inc.),
 the Gaussian 92(TM) system (copyright 1992, Gaussian, Inc.),
 the Gaussian 90(TM) system (copyright 1990, Gaussian, Inc.),
 the Gaussian 88(TM) system (copyright 1988, Gaussian, Inc.),
 the Gaussian 86(TM) system (copyright 1986, Carnegie Mellon
 University), and the Gaussian 82(TM) system (copyright 1983,
 Carnegie Mellon University). Gaussian is a federally registered
 trademark of Gaussian, Inc.
 Cite this work as:
 Gaussian 16, Revision C.01,
 M. J. Frisch, G. W. Trucks, H. B. Schlegel, G. E. Scuseria, 
 M. A. Robb, J. R. Cheeseman, G. Scalmani, V. Barone, 
 G. A. Petersson, H. Nakatsuji, X. Li, M. Caricato, A. V. Marenich, 
 J. Bloino, B. G. Janesko, R. Gomperts, B. Mennucci, H. P. Hratchian, 
 J. V. Ortiz, A. F. Izmaylov, J. L. Sonnenberg, D. Williams-Young, 
 F. Ding, F. Lipparini, F. Egidi, J. Goings, B. Peng, A. Petrone, 
 T. Henderson, D. Ranasinghe, V. G. Zakrzewski, J. Gao, N. Rega, 
 G. Zheng, W. Liang, M. Hada, M. Ehara, K. Toyota, R. Fukuda, 
 J. Hasegawa, M. Ishida, T. Nakajima, Y. Honda, O. Kitao, H. Nakai, 
 T. Vreven, K. Throssell, J. A. Montgomery, Jr., J. E. Peralta, 
 F. Ogliaro, M. J. Bearpark, J. J. Heyd, E. N. Brothers, K. N. Kudin, 
 V. N. Staroverov, T. A. Keith, R. Kobayashi, J. Normand, 
 K. Raghavachari, A. P. Rendell, J. C. Burant, S. S. Iyengar, 
 J. Tomasi, M. Cossi, J. M. Millam, M. Klene, C. Adamo, R. Cammi, 
 J. W. Ochterski, R. L. Martin, K. Morokuma, O. Farkas, 
 J. B. Foresman, and D. J. Fox, Gaussian, Inc., Wallingford CT, 2019.
 
 ******************************************
 Gaussian 16:  EM64L-G16RevC.01  3-Jul-2019
                 8-Jul-2023 
 ******************************************
 ----------------------------------------------------------------------
 #P HF/6-31G(d) Opt=(Tight,MaxCycle=55) GFInput GFPrint SCF(Conver=8,XQ
 C,MaxConventionalCycles=64,MaxCycle=128) Test
 ----------------------------------------------------------------------
 1/6=55,7=10,18=20,19=15,38=1/1,3;
 2/9=110,12=2,17=6,18=5,40=1/2;
 3/5=1,6=6,7=1,11=9,24=110,25=1,30=1,71=1/1,2,3;
 4//1;
 5/5=2,6=8,7=128,8=3,13=1,38=5,85=64/2,8;
 6/7=2,8=2,9=2,10=2,28=1/1;
 7//1,2,3,16;
 1/6=55,7=10,18=20,19=15/3(2);
 2/9=110/2;
 99//99;
 2/9=110/2;
 3/5=1,6=6,7=1,11=9,25=1,30=1,71=1/1,2,3;
 4/5=5,16=3,69=1/1;
 5/5=2,6=8,7=128,8=3,13=1,38=5,85=64/2,8;
 7//1,2,3,16;
 1/6=55,7=10,18=20,19=15/3(-5);
 2/9=110/2;
 6/7=2,8=2,9=2,10=2,19=2,28=1/1;
 99/9=1/99;
 ----------------------------------------------------------
 Optimization step - Input generated by PyRED DVE-DMDS-OPLS
 ----------------------------------------------------------
 Symbolic Z-matrix:
 Charge =  0 Multiplicity = 1
 C                     10.701   -1.198     0.784 
 H                     10.295   -1.767     1.625 
 H                     11.154   -1.903     0.082 
 H                     11.479   -0.528     1.16 
 C                     9.603    -0.409     0.102 
 H                     9.156     0.309     0.806 
 H                     10.009    0.172    -0.741 
 O                     8.636    -1.326    -0.371 
 C                     7.58     -0.743    -1.099 
 H                     7.163    -1.524    -1.74 
 H                     7.94      0.068    -1.747 
 C                     6.479    -0.216    -0.188 
 H                     6.125    -1.035     0.454 
 H                     6.859     0.581     0.469 
 O                     5.459     0.286    -1.023 
 C                     4.398     0.924    -0.349 
 H                     3.923     1.584    -1.081 
 H                     4.771     1.551     0.474 
 C                     3.38     -0.077     0.195 
 H                     3.852    -0.732     0.934 
 H                     3.013    -0.709    -0.626 
 O                     2.315     0.568     0.86 
 C                     1.28      1.023     0.014 
 H                     0.885     0.187    -0.584 
 H                     1.632     1.79     -0.689 
 C                     0.196     1.605     0.904 
 H                     0.594     2.462     1.453 
 H                    -0.113     0.865     1.647 
 S                    -1.242     2.215    -0.028 
 C                    -2.16      0.665    -0.326 
 H                    -2.84      0.893    -1.151 
 H                    -1.479    -0.112    -0.682 
 C                    -2.935     0.181     0.894 
 H                    -3.617     0.958     1.248 
 H                    -2.253    -0.039     1.719 
 S                    -3.841    -1.376     0.608 
 C                    -5.256    -0.803    -0.392 
 H                    -5.67     -1.715    -0.831 
 H                    -4.908    -0.184    -1.223 
 C                    -6.317    -0.067     0.418 
 H                    -6.665    -0.687     1.248 
 H                    -5.903     0.845     0.856 
 S                    -7.731     0.501    -0.583 
 C                    -8.622    -1.061    -0.895 
 H                    -9.361    -0.799    -1.657 
 H                    -7.943    -1.784    -1.356 
 C                    -9.309    -1.655     0.328 
 H                    -10.018   -0.944     0.76 
 H                    -9.856    -2.563     0.051 
 H                    -8.59     -1.929     1.104 
 
 ITRead=  0  0  0  0  0  0  0  0  0  0  0  0  0  0  0  0  0  0  0  0
 ITRead=  0  0  0  0  0  0  0  0  0  0  0  0  0  0  0  0  0  0  0  0
 ITRead=  0  0  0  0  0  0  0  0  0  0
 MicOpt= -1 -1 -1 -1 -1 -1 -1 -1 -1 -1 -1 -1 -1 -1 -1 -1 -1 -1 -1 -1
 MicOpt= -1 -1 -1 -1 -1 -1 -1 -1 -1 -1 -1 -1 -1 -1 -1 -1 -1 -1 -1 -1
 MicOpt= -1 -1 -1 -1 -1 -1 -1 -1 -1 -1
 NAtoms=     50 NQM=       50 NQMF=       0 NMMI=      0 NMMIF=      0
                NMic=       0 NMicF=      0.
                          Input orientation:                          
 ---------------------------------------------------------------------
 Center     Atomic      Atomic             Coordinates (Angstroms)
 Number     Number       Type             X           Y           Z
 ---------------------------------------------------------------------
      1          6           0       10.701000   -1.198000    0.784000
      2          1           0       10.295000   -1.767000    1.625000
      3          1           0       11.154000   -1.903000    0.082000
      4          1           0       11.479000   -0.528000    1.160000
      5          6           0        9.603000   -0.409000    0.102000
      6          1           0        9.156000    0.309000    0.806000
      7          1           0       10.009000    0.172000   -0.741000
      8          8           0        8.636000   -1.326000   -0.371000
      9          6           0        7.580000   -0.743000   -1.099000
     10          1           0        7.163000   -1.524000   -1.740000
     11          1           0        7.940000    0.068000   -1.747000
     12          6           0        6.479000   -0.216000   -0.188000
     13          1           0        6.125000   -1.035000    0.454000
     14          1           0        6.859000    0.581000    0.469000
     15          8           0        5.459000    0.286000   -1.023000
     16          6           0        4.398000    0.924000   -0.349000
     17          1           0        3.923000    1.584000   -1.081000
     18          1           0        4.771000    1.551000    0.474000
     19          6           0        3.380000   -0.077000    0.195000
     20          1           0        3.852000   -0.732000    0.934000
     21          1           0        3.013000   -0.709000   -0.626000
     22          8           0        2.315000    0.568000    0.860000
     23          6           0        1.280000    1.023000    0.014000
     24          1           0        0.885000    0.187000   -0.584000
     25          1           0        1.632000    1.790000   -0.689000
     26          6           0        0.196000    1.605000    0.904000
     27          1           0        0.594000    2.462000    1.453000
     28          1           0       -0.113000    0.865000    1.647000
     29         16           0       -1.242000    2.215000   -0.028000
     30          6           0       -2.160000    0.665000   -0.326000
     31          1           0       -2.840000    0.893000   -1.151000
     32          1           0       -1.479000   -0.112000   -0.682000
     33          6           0       -2.935000    0.181000    0.894000
     34          1           0       -3.617000    0.958000    1.248000
     35          1           0       -2.253000   -0.039000    1.719000
     36         16           0       -3.841000   -1.376000    0.608000
     37          6           0       -5.256000   -0.803000   -0.392000
     38          1           0       -5.670000   -1.715000   -0.831000
     39          1           0       -4.908000   -0.184000   -1.223000
     40          6           0       -6.317000   -0.067000    0.418000
     41          1           0       -6.665000   -0.687000    1.248000
     42          1           0       -5.903000    0.845000    0.856000
     43         16           0       -7.731000    0.501000   -0.583000
     44          6           0       -8.622000   -1.061000   -0.895000
     45          1           0       -9.361000   -0.799000   -1.657000
     46          1           0       -7.943000   -1.784000   -1.356000
     47          6           0       -9.309000   -1.655000    0.328000
     48          1           0      -10.018000   -0.944000    0.760000
     49          1           0       -9.856000   -2.563000    0.051000
     50          1           0       -8.590000   -1.929000    1.104000
 ---------------------------------------------------------------------
 Stoichiometry    C14H30O3S3
 Framework group  C1[X(C14H30O3S3)]
                         Standard orientation:                         
 ---------------------------------------------------------------------
 Center     Atomic      Atomic             Coordinates (Angstroms)
 Number     Number       Type             X           Y           Z
 ---------------------------------------------------------------------
      1          6           0      -10.700991   -1.198113   -0.783989
      2          1           0      -10.294982   -1.767107   -1.624989
      3          1           0      -11.153980   -1.903121   -0.081989
      4          1           0      -11.479002   -0.528126   -1.159989
      5          6           0       -9.603004   -0.409096   -0.101989
      6          1           0       -9.156016    0.308911   -0.805989
      7          1           0      -10.009014    0.171898    0.741011
      8          8           0       -8.635989   -1.326080    0.371011
      9          6           0       -7.579999   -0.743063    1.099011
     10          1           0       -7.162986   -1.524056    1.740011
     11          1           0       -7.940012    0.067931    1.747011
     12          6           0       -6.479007   -0.216045    0.188011
     13          1           0       -6.124994   -1.035040   -0.453989
     14          1           0       -6.859020    0.580949   -0.468989
     15          8           0       -5.459015    0.285971    1.023011
     16          6           0       -4.398026    0.923988    0.349011
     17          1           0       -3.923036    1.583996    1.081011
     18          1           0       -4.771036    1.550982   -0.473989
     19          6           0       -3.380010   -0.076995   -0.194989
     20          1           0       -3.851999   -0.732003   -0.933989
     21          1           0       -3.012999   -0.708989    0.626011
     22          8           0       -2.315020    0.568022   -0.859989
     23          6           0       -1.280027    1.023038   -0.013989
     24          1           0       -0.885014    0.187045    0.584011
     25          1           0       -1.632040    1.790033    0.689011
     26          6           0       -0.196037    1.605056   -0.903989
     27          1           0       -0.594050    2.462050   -1.452989
     28          1           0        0.112975    0.865061   -1.646989
     29         16           0        1.241954    2.215079    0.028011
     30          6           0        2.159979    0.665094    0.326011
     31          1           0        2.839975    0.893105    1.151011
     32          1           0        1.478991   -0.111917    0.682011
     33          6           0        2.934986    0.181106   -0.893989
     34          1           0        3.616974    0.958117   -1.247989
     35          1           0        2.252990   -0.038905   -1.718989
     36         16           0        3.841011   -1.375879   -0.607989
     37          6           0        5.256002   -0.802856    0.392011
     38          1           0        5.670017   -1.714849    0.831011
     39          1           0        4.907992   -0.183862    1.223011
     40          6           0        6.316990   -0.066839   -0.417989
     41          1           0        6.665000   -0.686833   -1.247989
     42          1           0        5.902976    0.845154   -0.855989
     43         16           0        7.730981    0.501184    0.583011
     44          6           0        8.622006   -1.060802    0.895011
     45          1           0        9.361002   -0.798790    1.657011
     46          1           0        7.943018   -1.783813    1.356011
     47          6           0        9.309016   -1.654791   -0.327989
     48          1           0       10.018004   -0.943779   -0.759989
     49          1           0        9.856031   -2.562782   -0.050989
     50          1           0        8.590020   -1.928802   -1.103989
 ---------------------------------------------------------------------
 Standard basis: 6-31G(d) (6D, 7F)
   372 basis functions,   752 primitive gaussians,   372 cartesian basis functions
    93 alpha electrons       93 beta electrons
 Requested convergence on RMS density matrix=1.00D-08 within  64 cycles.
 Requested convergence on MAX density matrix=1.00D-06.
 Requested convergence on             energy=1.00D-06.
 SCF Done:  E(RHF) =  -1964.68965140     A.U. after   13 cycles
            NFock= 13  Conv=0.55D-08     -V/T= 2.0009
 Mulliken charges:
     1  C   -0.485976
     2  H    0.172869
     3  H    0.175512
     4  H    0.156530
     5  C    0.015958
     6  H    0.136952
     7  H    0.142790
     8  O   -0.633236
     9  C    0.003312
    10  H    0.183839
    11  H    0.154220
    12  C   -0.000488
    13  H    0.154485
    14  H    0.144012
    15  O   -0.644390
    16  C   -0.004445
    17  H    0.174730
    18  H    0.155317
    19  C   -0.009468
    20  H    0.176573
    21  H    0.157312
    22  O   -0.639817
    23  C    0.027248
    24  H    0.148672
    25  H    0.159418
    26  C   -0.493262
    27  H    0.212674
    28  H    0.203332
    29  S    0.117863
    30  C   -0.475919
    31  H    0.204091
    32  H    0.208741
    33  C   -0.475297
    34  H    0.208480
    35  H    0.204842
    36  S    0.121496
    37  C   -0.475565
    38  H    0.201862
    39  H    0.207193
    40  C   -0.475729
    41  H    0.209723
    42  H    0.201833
    43  S    0.118077
    44  C   -0.474225
    45  H    0.200242
    46  H    0.187609
    47  C   -0.474802
    48  H    0.181077
    49  H    0.168172
    50  H    0.165559
 Sum of Mulliken charges =  -0.00000
 Dipole moment (field-independent basis, Debye):
    X=             -0.2483    Y=             -0.4261    Z=             -0.3067  Tot=              0.5808
 Quadrupole moment (field-independent basis, Debye-Ang):
   XX=           -134.4221   YY=           -157.9170   ZZ=           -152.0566
   XY=            -23.5547   XZ=              6.9418   YZ=             -3.5920
 Traceless Quadrupole moment (field-independent basis, Debye-Ang):
   XX=             13.7098   YY=             -9.7851   ZZ=             -3.9247
   XY=            -23.5547   XZ=              6.9418   YZ=             -3.5920
 Octapole moment (field-independent basis, Debye-Ang**2):
  XXX=            -93.6059  YYY=             -6.1152  ZZZ=              1.2272  XYY=            -17.5920
  XXY=            -19.3391  XXZ=            -18.9248  XZZ=            -18.1635  YZZ=             -3.4385
  YYZ=              0.9520  XYZ=            -18.8094
 Hexadecapole moment (field-independent basis, Debye-Ang**3):
 XXXX=         -31288.1423 YYYY=          -1407.2907 ZZZZ=           -606.8490 XXXY=          -1822.2489
 XXXZ=            497.4819 YYYX=            -61.2884 YYYZ=            -22.2483 ZZZX=            -21.5544
 ZZZY=            -11.9789 XXYY=          -6064.8621 XXZZ=          -5740.8985 YYZZ=           -328.6027
 XXYZ=           -102.6778 YYXZ=             17.7322 ZZXY=             19.3478
 Step number   1 out of a maximum of   55
     Eigenvalues ---    0.00230   0.00230   0.00230   0.00230   0.00230
     Eigenvalues ---    0.00230   0.00398   0.00444   0.00445   0.00457
     Eigenvalues ---    0.00460   0.00521   0.00576   0.01505   0.01532
     Eigenvalues ---    0.01539   0.01552   0.01564   0.01574   0.04363
     Eigenvalues ---    0.04481   0.04500   0.04500   0.04533   0.04615
     Eigenvalues ---    0.04900   0.04922   0.04940   0.05394   0.05464
     Eigenvalues ---    0.05471   0.05521   0.05624   0.05653   0.05656
     Eigenvalues ---    0.05661   0.05663   0.05672   0.05744   0.05792
     Eigenvalues ---    0.05835   0.05847   0.05847   0.05967   0.05991
     Eigenvalues ---    0.05998   0.06000   0.11022   0.11075   0.11209
     Eigenvalues ---    0.11442   0.11561   0.11576   0.11586   0.11603
     Eigenvalues ---    0.11607   0.11633   0.11668   0.11753   0.13579
     Eigenvalues ---    0.13604   0.13670   0.13909   0.13926   0.13938
     Eigenvalues ---    0.13945   0.13946   0.13956   0.13959   0.13960
     Eigenvalues ---    0.14038   0.16000   0.16000   0.16000   0.16000
     Eigenvalues ---    0.16000   0.16000   0.21935   0.21942   0.21942
     Eigenvalues ---    0.22003   0.22003   0.22004   0.22007   0.22010
     Eigenvalues ---    0.22025   0.22032   0.22037   0.22058   0.24176
     Eigenvalues ---    0.24234   0.24244   0.24316   0.24372   0.24679
     Eigenvalues ---    0.25000   0.25000   0.25000   0.25000   0.25000
     Eigenvalues ---    0.25000   0.29625   0.29955   0.29963   0.30048
     Eigenvalues ---    0.30069   0.30510   0.30918   0.33530   0.33556
     Eigenvalues ---    0.33619   0.33634   0.33703   0.33771   0.33775
     Eigenvalues ---    0.33822   0.33864   0.34170   0.34298   0.34343
     Eigenvalues ---    0.34383   0.34404   0.34405   0.34421   0.34429
     Eigenvalues ---    0.34443   0.34448   0.34449   0.34451   0.34459
     Eigenvalues ---    0.34459   0.34464   0.34481   0.34489   0.34490
     Eigenvalues ---    0.34491   0.34493   0.34494   0.43360   0.43676
     Eigenvalues ---    0.43759   0.43917   0.44062   0.44176
 Maximum Force            0.009725     0.000015     NO 
 RMS     Force            0.003429     0.000010     NO 
 Maximum Displacement     0.492415     0.000060     NO 
 RMS     Displacement     0.108778     0.000040     NO 
                          Input orientation:                          
 ---------------------------------------------------------------------
 Center     Atomic      Atomic             Coordinates (Angstroms)
 Number     Number       Type             X           Y           Z
 ---------------------------------------------------------------------
      1          6           0       10.810602   -1.181118    0.776819
      2          1           0       10.404572   -1.738680    1.612558
      3          1           0       11.240678   -1.886867    0.076390
      4          1           0       11.599981   -0.534266    1.145415
      5          6           0        9.724154   -0.366737    0.104899
      6          1           0        9.301117    0.348117    0.805282
      7          1           0       10.129604    0.199189   -0.730624
      8          8           0        8.738026   -1.249670   -0.359869
      9          6           0        7.680335   -0.676062   -1.072683
     10          1           0        7.275579   -1.448861   -1.711328
     11          1           0        8.028681    0.132046   -1.708728
     12          6           0        6.578460   -0.175639   -0.153076
     13          1           0        6.235673   -0.993358    0.472168
     14          1           0        6.936892    0.613949    0.501302
     15          8           0        5.555312    0.313355   -0.974101
     16          6           0        4.475167    0.925692   -0.327956
     17          1           0        4.022985    1.582897   -1.057775
     18          1           0        4.814654    1.537591    0.502772
     19          6           0        3.458025   -0.097630    0.164352
     20          1           0        3.905782   -0.749708    0.901087
     21          1           0        3.123350   -0.714978   -0.664112
     22          8           0        2.373352    0.521176    0.800589
     23          6           0        1.337010    0.961715   -0.032172
     24          1           0        0.965900    0.131725   -0.626473
     25          1           0        1.679462    1.727811   -0.718776
     26          6           0        0.247253    1.522389    0.866093
     27          1           0        0.637189    2.370589    1.412762
     28          1           0       -0.045688    0.783280    1.598446
     29         16           0       -1.204140    2.127598   -0.046420
     30          6           0       -2.171039    0.608126   -0.330454
     31          1           0       -2.823872    0.845646   -1.159372
     32          1           0       -1.520138   -0.188226   -0.662209
     33          6           0       -2.985241    0.167838    0.883657
     34          1           0       -3.638165    0.963225    1.213340
     35          1           0       -2.331512   -0.061485    1.714287
     36         16           0       -3.940751   -1.359770    0.612946
     37          6           0       -5.362760   -0.798777   -0.379804
     38          1           0       -5.765303   -1.705209   -0.811367
     39          1           0       -5.024755   -0.186215   -1.203445
     40          6           0       -6.433611   -0.071444    0.429450
     41          1           0       -6.771090   -0.684427    1.252450
     42          1           0       -6.031211    0.835131    0.861106
     43         16           0       -7.854445    0.486740   -0.563422
     44          6           0       -8.791477   -1.046007   -0.873958
     45          1           0       -9.501832   -0.770863   -1.643895
     46          1           0       -8.137784   -1.789212   -1.311805
     47          6           0       -9.530187   -1.608950    0.335228
     48          1           0      -10.217893   -0.878635    0.743606
     49          1           0      -10.098323   -2.488259    0.047123
     50          1           0       -8.850575   -1.906770    1.124696
 ---------------------------------------------------------------------
 Stoichiometry    C14H30O3S3
 Framework group  C1[X(C14H30O3S3)]
                         Standard orientation:                         
 ---------------------------------------------------------------------
 Center     Atomic      Atomic             Coordinates (Angstroms)
 Number     Number       Type             X           Y           Z
 ---------------------------------------------------------------------
      1          6           0      -10.811704   -1.226657   -0.749078
      2          1           0      -10.403857   -1.802993   -1.571084
      3          1           0      -11.239823   -1.916594   -0.031896
      4          1           0      -11.602927   -0.591226   -1.133258
      5          6           0       -9.727812   -0.393093   -0.096845
      6          1           0       -9.306758    0.305926   -0.814201
      7          1           0      -10.135105    0.191600    0.724744
      8          8           0       -8.739160   -1.261634    0.389195
      9          6           0       -7.683317   -0.667871    1.088110
     10          1           0       -7.276396   -1.423846    1.745247
     11          1           0       -8.034185    0.154295    1.704448
     12          6           0       -6.582749   -0.186487    0.156848
     13          1           0       -6.237413   -1.018017   -0.448461
     14          1           0       -6.943393    0.586031   -0.516417
     15          8           0       -5.561219    0.325192    0.965978
     16          6           0       -4.482769    0.924984    0.305398
     17          1           0       -4.032683    1.600929    1.019221
     18          1           0       -4.823905    1.515670   -0.539881
     19          6           0       -3.462497   -0.106881   -0.161972
     20          1           0       -3.908170   -0.777854   -0.882833
     21          1           0       -3.126156   -0.703084    0.681174
     22          8           0       -2.379539    0.499631   -0.812803
     23          6           0       -1.344674    0.963191    0.009229
     24          1           0       -0.971220    0.148873    0.623410
     25          1           0       -1.689533    1.744593    0.677125
     26          6           0       -0.256407    1.505287   -0.902151
     27          1           0       -0.648749    2.338902   -1.469155
     28          1           0        0.038871    0.749614   -1.616439
     29         16           0        1.193003    2.136624   -0.004306
     30          6           0        2.164350    0.627319    0.316391
     31          1           0        2.816312    0.886688    1.139427
     32          1           0        1.515749   -0.162735    0.667163
     33          6           0        2.980096    0.160316   -0.886651
     34          1           0        3.630722    0.949462   -1.235327
     35          1           0        2.327215   -0.090902   -1.711595
     36         16           0        3.940081   -1.357477   -0.579076
     37          6           0        5.360222   -0.768496    0.400043
     38          1           0        5.765367   -1.663063    0.853380
     39          1           0        5.020238   -0.137267    1.208637
     40          6           0        6.429071   -0.057701   -0.426371
     41          1           0        6.768530   -0.689338   -1.234314
     42          1           0        6.024068    0.837007   -0.879805
     43         16           0        7.848045    0.528471    0.552938
     44          6           0        8.789560   -0.993555    0.900448
     45          1           0        9.498943   -0.697823    1.663619
     46          1           0        8.137988   -1.727929    1.355998
     47          6           0        9.530177   -1.583282   -0.294725
     48          1           0       10.215794   -0.860982   -0.720500
     49          1           0       10.100862   -2.453699    0.014563
     50          1           0        8.851607   -1.902062   -1.076871
 ---------------------------------------------------------------------
 Standard basis: 6-31G(d) (6D, 7F)
   372 basis functions,   752 primitive gaussians,   372 cartesian basis functions
    93 alpha electrons       93 beta electrons
 Requested convergence on RMS density matrix=1.00D-08 within  64 cycles.
 Requested convergence on MAX density matrix=1.00D-06.
 Requested convergence on             energy=1.00D-06.
 SCF Done:  E(RHF) =  -1964.69347911     A.U. after   12 cycles
            NFock= 12  Conv=0.27D-08     -V/T= 2.0006
 Step number   2 out of a maximum of   55
     Eigenvalues ---    0.00230   0.00230   0.00230   0.00230   0.00230
     Eigenvalues ---    0.00238   0.00398   0.00444   0.00445   0.00457
     Eigenvalues ---    0.00460   0.00521   0.00576   0.01505   0.01531
     Eigenvalues ---    0.01535   0.01552   0.01561   0.01573   0.04309
     Eigenvalues ---    0.04446   0.04455   0.04462   0.04501   0.04571
     Eigenvalues ---    0.04922   0.04933   0.04940   0.05374   0.05464
     Eigenvalues ---    0.05475   0.05487   0.05656   0.05657   0.05658
     Eigenvalues ---    0.05662   0.05666   0.05678   0.05738   0.05775
     Eigenvalues ---    0.05807   0.05818   0.05845   0.05938   0.05947
     Eigenvalues ---    0.05962   0.05977   0.11080   0.11162   0.11259
     Eigenvalues ---    0.11482   0.11594   0.11621   0.11629   0.11631
     Eigenvalues ---    0.11639   0.11653   0.11700   0.11791   0.13575
     Eigenvalues ---    0.13606   0.13687   0.13923   0.13940   0.13943
     Eigenvalues ---    0.13950   0.13964   0.13973   0.13977   0.13988
     Eigenvalues ---    0.14084   0.15994   0.16000   0.16000   0.16000
     Eigenvalues ---    0.16000   0.16010   0.21930   0.21941   0.21954
     Eigenvalues ---    0.22002   0.22007   0.22009   0.22011   0.22020
     Eigenvalues ---    0.22026   0.22030   0.22047   0.22091   0.23872
     Eigenvalues ---    0.24195   0.24240   0.24299   0.24353   0.24628
     Eigenvalues ---    0.24748   0.25000   0.25000   0.25000   0.25000
     Eigenvalues ---    0.26119   0.29633   0.29954   0.29963   0.30041
     Eigenvalues ---    0.30076   0.30510   0.30911   0.33534   0.33574
     Eigenvalues ---    0.33626   0.33664   0.33723   0.33772   0.33803
     Eigenvalues ---    0.33842   0.33988   0.34178   0.34308   0.34351
     Eigenvalues ---    0.34386   0.34402   0.34410   0.34418   0.34423
     Eigenvalues ---    0.34444   0.34448   0.34450   0.34454   0.34456
     Eigenvalues ---    0.34462   0.34468   0.34482   0.34486   0.34490
     Eigenvalues ---    0.34492   0.34494   0.37491   0.42626   0.43553
     Eigenvalues ---    0.43736   0.43875   0.44011   0.44156
 Maximum Force            0.003454     0.000015     NO 
 RMS     Force            0.000552     0.000010     NO 
 Maximum Displacement     0.290232     0.000060     NO 
 RMS     Displacement     0.061542     0.000040     NO 
                          Input orientation:                          
 ---------------------------------------------------------------------
 Center     Atomic      Atomic             Coordinates (Angstroms)
 Number     Number       Type             X           Y           Z
 ---------------------------------------------------------------------
      1          6           0       10.767657   -1.211317    0.784168
      2          1           0       10.356582   -1.735728    1.638874
      3          1           0       11.180320   -1.944920    0.101761
      4          1           0       11.570524   -0.567021    1.127819
      5          6           0        9.691033   -0.397530    0.094725
      6          1           0        9.288497    0.346257    0.778091
      7          1           0       10.105113    0.135679   -0.758554
      8          8           0        8.687522   -1.275482   -0.335536
      9          6           0        7.632905   -0.706049   -1.053058
     10          1           0        7.216333   -1.482823   -1.679859
     11          1           0        7.982653    0.092658   -1.700939
     12          6           0        6.540465   -0.181345   -0.135261
     13          1           0        6.196891   -0.988877    0.503802
     14          1           0        6.915346    0.612505    0.506081
     15          8           0        5.517102    0.305255   -0.956531
     16          6           0        4.442031    0.930736   -0.316511
     17          1           0        3.999873    1.598193   -1.044100
     18          1           0        4.782398    1.532828    0.521526
     19          6           0        3.407498   -0.079771    0.167210
     20          1           0        3.845125   -0.742464    0.901492
     21          1           0        3.071655   -0.687102   -0.668698
     22          8           0        2.328258    0.552250    0.798075
     23          6           0        1.291882    0.990562   -0.033932
     24          1           0        0.901276    0.158591   -0.614396
     25          1           0        1.633387    1.746825   -0.733078
     26          6           0        0.215121    1.574319    0.865396
     27          1           0        0.616247    2.422957    1.403341
     28          1           0       -0.085438    0.842187    1.602600
     29         16           0       -1.230253    2.189100   -0.047060
     30          6           0       -2.172195    0.663042   -0.363854
     31          1           0       -2.843990    0.913363   -1.174167
     32          1           0       -1.510576   -0.111077   -0.727354
     33          6           0       -2.953301    0.171507    0.852361
     34          1           0       -3.617145    0.944366    1.214322
     35          1           0       -2.280246   -0.070802    1.664234
     36         16           0       -3.882236   -1.364379    0.549633
     37          6           0       -5.316824   -0.789348   -0.412974
     38          1           0       -5.719720   -1.688104   -0.860910
     39          1           0       -4.991393   -0.152012   -1.223558
     40          6           0       -6.378290   -0.085696    0.429159
     41          1           0       -6.703438   -0.723167    1.239512
     42          1           0       -5.975002    0.813126    0.876985
     43         16           0       -7.811334    0.488497   -0.532671
     44          6           0       -8.730682   -1.048866   -0.856257
     45          1           0       -9.470887   -0.763108   -1.593552
     46          1           0       -8.077988   -1.768644   -1.334128
     47          6           0       -9.413569   -1.658016    0.363964
     48          1           0      -10.096929   -0.950558    0.817776
     49          1           0       -9.977266   -2.538912    0.071177
     50          1           0       -8.696991   -1.963686    1.117854
 ---------------------------------------------------------------------
 Stoichiometry    C14H30O3S3
 Framework group  C1[X(C14H30O3S3)]
                         Standard orientation:                         
 ---------------------------------------------------------------------
 Center     Atomic      Atomic             Coordinates (Angstroms)
 Number     Number       Type             X           Y           Z
 ---------------------------------------------------------------------
      1          6           0      -10.770133   -1.241549   -0.759295
      2          1           0      -10.358594   -1.779695   -1.605194
      3          1           0      -11.181315   -1.964153   -0.064373
      4          1           0      -11.574185   -0.604447   -1.113426
      5          6           0       -9.694513   -0.414487   -0.084232
      6          1           0       -9.293474    0.318267   -0.780279
      7          1           0      -10.109071    0.132428    0.760094
      8          8           0       -8.689403   -1.283425    0.360358
      9          6           0       -7.635384   -0.700242    1.067643
     10          1           0       -7.217288   -1.465627    1.707307
     11          1           0       -7.986128    0.108758    1.702075
     12          6           0       -6.544194   -0.189405    0.140583
     13          1           0       -6.199606   -1.007089   -0.484880
     14          1           0       -6.920633    0.592875   -0.513930
     15          8           0       -5.521250    0.312664    0.953018
     16          6           0       -4.447469    0.928938    0.301996
     17          1           0       -4.006062    1.609322    1.017975
     18          1           0       -4.789174    1.516213   -0.545953
     19          6           0       -3.411528   -0.087958   -0.165035
     20          1           0       -3.848415   -0.763684   -0.887788
     21          1           0       -3.074341   -0.680513    0.680876
     22          8           0       -2.333584    0.535018   -0.807015
     23          6           0       -1.297545    0.989007    0.016966
     24          1           0       -0.905347    0.167607    0.611247
     25          1           0       -1.639955    1.756450    0.703371
     26          6           0       -0.222121    1.559177   -0.892619
     27          1           0       -0.624848    2.397944   -1.444664
     28          1           0        0.079286    0.815152   -1.617466
     29         16           0        1.222667    2.191626    0.008620
     30          6           0        2.167199    0.672657    0.350759
     31          1           0        2.838949    0.937732    1.156403
     32          1           0        1.506985   -0.096254    0.727621
     33          6           0        2.948555    0.161853   -0.857327
     34          1           0        3.610997    0.929533   -1.232632
     35          1           0        2.275531   -0.095241   -1.664667
     36         16           0        3.880089   -1.367202   -0.529081
     37          6           0        5.314177   -0.773666    0.422981
     38          1           0        5.718715   -1.664065    0.885878
     39          1           0        4.988082   -0.123220    1.222813
     40          6           0        6.374140   -0.082675   -0.431441
     41          1           0        6.699953   -0.733252   -1.231040
     42          1           0        5.969211    0.807792   -0.894228
     43         16           0        7.806685    0.510008    0.519859
     44          6           0        8.728644   -1.020185    0.868991
     45          1           0        9.468715   -0.720804    1.600995
     46          1           0        8.077319   -1.732813    1.359284
     47          6           0        9.411968   -1.648812   -0.341064
     48          1           0       10.093991   -0.948046   -0.807108
     49          1           0        9.977209   -2.523723   -0.033672
     50          1           0        8.695549   -1.968346   -1.089336
 ---------------------------------------------------------------------
 Standard basis: 6-31G(d) (6D, 7F)
   372 basis functions,   752 primitive gaussians,   372 cartesian basis functions
    93 alpha electrons       93 beta electrons
 Requested convergence on RMS density matrix=1.00D-08 within  64 cycles.
 Requested convergence on MAX density matrix=1.00D-06.
 Requested convergence on             energy=1.00D-06.
 SCF Done:  E(RHF) =  -1964.69364444     A.U. after   11 cycles
            NFock= 11  Conv=0.52D-08     -V/T= 2.0006
 Step number   3 out of a maximum of   55
     Eigenvalues ---    0.00230   0.00230   0.00230   0.00230   0.00232
     Eigenvalues ---    0.00297   0.00398   0.00444   0.00445   0.00457
     Eigenvalues ---    0.00460   0.00521   0.00576   0.01173   0.01507
     Eigenvalues ---    0.01533   0.01548   0.01555   0.01571   0.04356
     Eigenvalues ---    0.04481   0.04485   0.04495   0.04563   0.04683
     Eigenvalues ---    0.04937   0.04950   0.04955   0.05385   0.05477
     Eigenvalues ---    0.05492   0.05510   0.05648   0.05654   0.05656
     Eigenvalues ---    0.05659   0.05692   0.05749   0.05766   0.05782
     Eigenvalues ---    0.05828   0.05839   0.05909   0.05963   0.05979
     Eigenvalues ---    0.05986   0.06017   0.11011   0.11152   0.11189
     Eigenvalues ---    0.11412   0.11469   0.11574   0.11597   0.11602
     Eigenvalues ---    0.11611   0.11629   0.11649   0.11817   0.13560
     Eigenvalues ---    0.13601   0.13681   0.13919   0.13926   0.13932
     Eigenvalues ---    0.13938   0.13945   0.13953   0.13959   0.14011
     Eigenvalues ---    0.14196   0.15972   0.16000   0.16000   0.16000
     Eigenvalues ---    0.16001   0.16006   0.21630   0.21950   0.21957
     Eigenvalues ---    0.21959   0.22012   0.22013   0.22016   0.22022
     Eigenvalues ---    0.22030   0.22034   0.22043   0.22291   0.24189
     Eigenvalues ---    0.24239   0.24279   0.24338   0.24423   0.24696
     Eigenvalues ---    0.24862   0.25000   0.25000   0.25000   0.25097
     Eigenvalues ---    0.29101   0.29668   0.29958   0.30011   0.30059
     Eigenvalues ---    0.30333   0.30860   0.32674   0.33544   0.33607
     Eigenvalues ---    0.33641   0.33673   0.33720   0.33772   0.33805
     Eigenvalues ---    0.33850   0.33986   0.34179   0.34306   0.34345
     Eigenvalues ---    0.34384   0.34407   0.34412   0.34422   0.34437
     Eigenvalues ---    0.34444   0.34450   0.34451   0.34454   0.34460
     Eigenvalues ---    0.34463   0.34480   0.34485   0.34490   0.34491
     Eigenvalues ---    0.34493   0.35063   0.35580   0.41839   0.43580
     Eigenvalues ---    0.43735   0.43881   0.44013   0.44318
 Maximum Force            0.001125     0.000015     NO 
 RMS     Force            0.000231     0.000010     NO 
 Maximum Displacement     0.303513     0.000060     NO 
 RMS     Displacement     0.079533     0.000040     NO 
                          Input orientation:                          
 ---------------------------------------------------------------------
 Center     Atomic      Atomic             Coordinates (Angstroms)
 Number     Number       Type             X           Y           Z
 ---------------------------------------------------------------------
      1          6           0       10.832534   -1.149620    0.782051
      2          1           0       10.421906   -1.668855    1.640780
      3          1           0       11.248757   -1.887100    0.105137
      4          1           0       11.632690   -0.498869    1.121323
      5          6           0        9.753247   -0.344788    0.084717
      6          1           0        9.348533    0.404043    0.763026
      7          1           0       10.168608    0.183721   -0.771995
      8          8           0        8.753671   -1.228539   -0.339627
      9          6           0        7.694815   -0.666627   -1.055487
     10          1           0        7.290024   -1.440904   -1.694318
     11          1           0        8.034245    0.146548   -1.692273
     12          6           0        6.592464   -0.167442   -0.133993
     13          1           0        6.257239   -0.988838    0.493624
     14          1           0        6.959233    0.621233    0.520077
     15          8           0        5.565883    0.319327   -0.950167
     16          6           0        4.478351    0.913580   -0.302947
     17          1           0        4.038403    1.605558   -1.010097
     18          1           0        4.801323    1.485755    0.563592
     19          6           0        3.445248   -0.122848    0.128325
     20          1           0        3.880463   -0.810915    0.841847
     21          1           0        3.126520   -0.699742   -0.736446
     22          8           0        2.353680    0.478483    0.767002
     23          6           0        1.315389    0.918426   -0.060358
     24          1           0        0.934343    0.090976   -0.655020
     25          1           0        1.649364    1.690460   -0.747533
     26          6           0        0.228566    1.475652    0.845123
     27          1           0        0.620059    2.319790    1.397982
     28          1           0       -0.066957    0.727788    1.569429
     29         16           0       -1.219527    2.094979   -0.059973
     30          6           0       -2.191266    0.578539   -0.329623
     31          1           0       -2.844517    0.811430   -1.160731
     32          1           0       -1.543307   -0.226512   -0.649618
     33          6           0       -3.005527    0.156097    0.891479
     34          1           0       -3.656605    0.959720    1.208962
     35          1           0       -2.352214   -0.069468    1.724586
     36         16           0       -3.966437   -1.368165    0.633469
     37          6           0       -5.377320   -0.790681   -0.361935
     38          1           0       -5.788929   -1.692281   -0.797441
     39          1           0       -5.030520   -0.173703   -1.180300
     40          6           0       -6.439835   -0.053921    0.450885
     41          1           0       -6.785867   -0.671188    1.269032
     42          1           0       -6.028283    0.847870    0.886357
     43         16           0       -7.849974    0.520474   -0.543858
     44          6           0       -8.768965   -1.015775   -0.871900
     45          1           0       -9.463681   -0.744411   -1.657943
     46          1           0       -8.099857   -1.758443   -1.289842
     47          6           0       -9.527900   -1.579630    0.325840
     48          1           0      -10.224185   -0.849027    0.720782
     49          1           0      -10.088283   -2.461068    0.026676
     50          1           0       -8.857602   -1.873090    1.126321
 ---------------------------------------------------------------------
 Stoichiometry    C14H30O3S3
 Framework group  C1[X(C14H30O3S3)]
                         Standard orientation:                         
 ---------------------------------------------------------------------
 Center     Atomic      Atomic             Coordinates (Angstroms)
 Number     Number       Type             X           Y           Z
 ---------------------------------------------------------------------
      1          6           0      -10.836968   -1.199967   -0.737615
      2          1           0      -10.424536   -1.753065   -1.574047
      3          1           0      -11.251915   -1.910001   -0.031215
      4          1           0      -11.638422   -0.565609   -1.103803
      5          6           0       -9.760052   -0.364601   -0.073309
      6          1           0       -9.356639    0.356691   -0.781576
      7          1           0      -10.177236    0.197671    0.760723
      8          8           0       -8.758688   -1.227791    0.387569
      9          6           0       -7.701644   -0.634426    1.080354
     10          1           0       -7.295467   -1.380839    1.750693
     11          1           0       -8.043418    0.203415    1.682994
     12          6           0       -6.599844   -0.170901    0.139770
     13          1           0       -6.262261   -1.016590   -0.453374
     14          1           0       -6.968023    0.589361   -0.546364
     15          8           0       -5.574965    0.351429    0.935854
     16          6           0       -4.488395    0.921173    0.265398
     17          1           0       -4.050556    1.642665    0.943776
     18          1           0       -4.812123    1.456495   -0.624105
     19          6           0       -3.452564   -0.129637   -0.122325
     20          1           0       -3.885674   -0.847471   -0.807228
     21          1           0       -3.133068   -0.669756    0.765603
     22          8           0       -2.361979    0.447540   -0.784534
     23          6           0       -1.325289    0.923572    0.024657
     24          1           0       -0.942702    0.122160    0.653035
     25          1           0       -1.661546    1.722389    0.679337
     26          6           0       -0.239165    1.445709   -0.902321
     27          1           0       -0.632266    2.265487   -1.489623
     28          1           0        0.058608    0.669424   -1.595116
     29         16           0        1.206852    2.105141   -0.022591
     30          6           0        2.181972    0.603375    0.309701
     31          1           0        2.834109    0.871768    1.130919
     32          1           0        1.535692   -0.189388    0.662125
     33          6           0        2.998054    0.133058   -0.892539
     34          1           0        3.647455    0.924506   -1.242392
     35          1           0        2.345840   -0.128096   -1.716055
     36         16           0        3.962372   -1.377026   -0.571562
     37          6           0        5.371215   -0.755780    0.400097
     38          1           0        5.784648   -1.637745    0.872518
     39          1           0        5.022410   -0.106527    1.192220
     40          6           0        6.432546   -0.050512   -0.441688
     41          1           0        6.780586   -0.700047   -1.233582
     42          1           0        6.019171    0.831645   -0.914083
     43         16           0        7.840655    0.567619    0.529436
     44          6           0        8.763033   -0.951666    0.920854
     45          1           0        9.456575   -0.646585    1.695489
     46          1           0        8.095391   -1.678125    1.368568
     47          6           0        9.524106   -1.562447   -0.252266
     48          1           0       10.218939   -0.847033   -0.676486
     49          1           0       10.086358   -2.429514    0.083188
     50          1           0        8.855045   -1.890140   -1.040403
 ---------------------------------------------------------------------
 Standard basis: 6-31G(d) (6D, 7F)
   372 basis functions,   752 primitive gaussians,   372 cartesian basis functions
    93 alpha electrons       93 beta electrons
 Requested convergence on RMS density matrix=1.00D-08 within  64 cycles.
 Requested convergence on MAX density matrix=1.00D-06.
 Requested convergence on             energy=1.00D-06.
 SCF Done:  E(RHF) =  -1964.69368705     A.U. after   11 cycles
            NFock= 11  Conv=0.69D-08     -V/T= 2.0006
 Step number   4 out of a maximum of   55
     Eigenvalues ---    0.00217   0.00230   0.00230   0.00230   0.00231
     Eigenvalues ---    0.00398   0.00442   0.00443   0.00445   0.00455
     Eigenvalues ---    0.00514   0.00561   0.00576   0.00617   0.01508
     Eigenvalues ---    0.01535   0.01548   0.01560   0.01571   0.04359
     Eigenvalues ---    0.04491   0.04500   0.04514   0.04556   0.04948
     Eigenvalues ---    0.04954   0.04968   0.05149   0.05384   0.05472
     Eigenvalues ---    0.05503   0.05546   0.05654   0.05662   0.05665
     Eigenvalues ---    0.05685   0.05700   0.05755   0.05770   0.05788
     Eigenvalues ---    0.05846   0.05854   0.05939   0.05993   0.05996
     Eigenvalues ---    0.06006   0.06104   0.11053   0.11173   0.11272
     Eigenvalues ---    0.11378   0.11512   0.11571   0.11580   0.11599
     Eigenvalues ---    0.11605   0.11614   0.11689   0.11957   0.13545
     Eigenvalues ---    0.13613   0.13682   0.13911   0.13924   0.13932
     Eigenvalues ---    0.13935   0.13939   0.13951   0.13968   0.14043
     Eigenvalues ---    0.14638   0.15981   0.16000   0.16000   0.16000
     Eigenvalues ---    0.16004   0.16068   0.21244   0.21952   0.21958
     Eigenvalues ---    0.21966   0.22015   0.22016   0.22022   0.22030
     Eigenvalues ---    0.22031   0.22042   0.22169   0.23120   0.24203
     Eigenvalues ---    0.24238   0.24281   0.24339   0.24470   0.24695
     Eigenvalues ---    0.24976   0.25000   0.25000   0.25072   0.25672
     Eigenvalues ---    0.29583   0.29760   0.29968   0.30038   0.30066
     Eigenvalues ---    0.30498   0.30870   0.33245   0.33545   0.33605
     Eigenvalues ---    0.33633   0.33722   0.33764   0.33803   0.33825
     Eigenvalues ---    0.33889   0.33979   0.34179   0.34295   0.34333
     Eigenvalues ---    0.34393   0.34407   0.34416   0.34427   0.34438
     Eigenvalues ---    0.34445   0.34450   0.34451   0.34454   0.34459
     Eigenvalues ---    0.34463   0.34485   0.34486   0.34490   0.34492
     Eigenvalues ---    0.34499   0.35201   0.38091   0.41735   0.43576
     Eigenvalues ---    0.43735   0.43872   0.44045   0.44974
 Maximum Force            0.001150     0.000015     NO 
 RMS     Force            0.000204     0.000010     NO 
 Maximum Displacement     0.135201     0.000060     NO 
 RMS     Displacement     0.028240     0.000040     NO 
                          Input orientation:                          
 ---------------------------------------------------------------------
 Center     Atomic      Atomic             Coordinates (Angstroms)
 Number     Number       Type             X           Y           Z
 ---------------------------------------------------------------------
      1          6           0       10.829973   -1.157204    0.794205
      2          1           0       10.415670   -1.661887    1.659745
      3          1           0       11.239241   -1.906744    0.126447
      4          1           0       11.635932   -0.509078    1.124482
      5          6           0        9.757001   -0.351860    0.087312
      6          1           0        9.359388    0.409128    0.756221
      7          1           0       10.176278    0.162211   -0.776173
      8          8           0        8.749388   -1.231379   -0.325300
      9          6           0        7.692582   -0.668370   -1.042830
     10          1           0        7.286008   -1.442430   -1.680750
     11          1           0        8.034040    0.142955   -1.680799
     12          6           0        6.591695   -0.164916   -0.121620
     13          1           0        6.252596   -0.984715    0.506009
     14          1           0        6.961832    0.621920    0.532656
     15          8           0        5.567410    0.326410   -0.937173
     16          6           0        4.479662    0.918473   -0.289082
     17          1           0        4.047426    1.622269   -0.989281
     18          1           0        4.800144    1.477246    0.586979
     19          6           0        3.438573   -0.118543    0.121542
     20          1           0        3.865968   -0.818777    0.827885
     21          1           0        3.122000   -0.681741   -0.752894
     22          8           0        2.347011    0.480798    0.761419
     23          6           0        1.311182    0.926321   -0.065263
     24          1           0        0.927036    0.101398   -0.661329
     25          1           0        1.649165    1.697553   -0.751372
     26          6           0        0.225829    1.486906    0.840245
     27          1           0        0.620675    2.327837    1.395493
     28          1           0       -0.073839    0.738690    1.562361
     29         16           0       -1.219105    2.112444   -0.065889
     30          6           0       -2.184382    0.596383   -0.360334
     31          1           0       -2.840612    0.839243   -1.186097
     32          1           0       -1.532759   -0.199667   -0.694834
     33          6           0       -2.994010    0.148900    0.855162
     34          1           0       -3.648551    0.943480    1.187553
     35          1           0       -2.337213   -0.086470    1.682708
     36         16           0       -3.947772   -1.375881    0.573294
     37          6           0       -5.370764   -0.787952   -0.398829
     38          1           0       -5.779609   -1.682535   -0.850675
     39          1           0       -5.034784   -0.150983   -1.206162
     40          6           0       -6.432338   -0.076449    0.437866
     41          1           0       -6.767910   -0.713437    1.245075
     42          1           0       -6.022359    0.817809    0.889794
     43         16           0       -7.854127    0.511112   -0.532820
     44          6           0       -8.794708   -1.015409   -0.845495
     45          1           0       -9.511213   -0.733848   -1.607957
     46          1           0       -8.144288   -1.759610   -1.289023
     47          6           0       -9.520950   -1.583626    0.370568
     48          1           0      -10.199424   -0.851377    0.792327
     49          1           0      -10.096524   -2.458687    0.081955
     50          1           0       -8.828466   -1.887914    1.147682
 ---------------------------------------------------------------------
 Stoichiometry    C14H30O3S3
 Framework group  C1[X(C14H30O3S3)]
                         Standard orientation:                         
 ---------------------------------------------------------------------
 Center     Atomic      Atomic             Coordinates (Angstroms)
 Number     Number       Type             X           Y           Z
 ---------------------------------------------------------------------
      1          6           0      -10.833881   -1.210945   -0.744423
      2          1           0      -10.418342   -1.750173   -1.588267
      3          1           0      -11.241179   -1.933072   -0.045958
      4          1           0      -11.641525   -0.579204   -1.101265
      5          6           0       -9.762934   -0.374112   -0.071869
      6          1           0       -9.367323    0.359375   -0.771960
      7          1           0      -10.183473    0.174397    0.769530
      8          8           0       -8.753038   -1.233099    0.376837
      9          6           0       -7.697633   -0.637988    1.070114
     10          1           0       -7.289029   -1.383765    1.739645
     11          1           0       -8.041131    0.198323    1.673800
     12          6           0       -6.598105   -0.170515    0.128544
     13          1           0       -6.256943   -1.014869   -0.464459
     14          1           0       -6.970306    0.587438   -0.557868
     15          8           0       -5.575031    0.356974    0.922749
     16          6           0       -4.488850    0.924319    0.250374
     17          1           0       -4.058377    1.657770    0.920580
     18          1           0       -4.810826    1.445299   -0.648141
     19          6           0       -3.445129   -0.126226   -0.116888
     20          1           0       -3.870771   -0.856363   -0.793382
     21          1           0       -3.127052   -0.651705    0.780190
     22          8           0       -2.355153    0.448743   -0.781360
     23          6           0       -1.320416    0.930961    0.025870
     24          1           0       -0.934113    0.132566    0.655707
     25          1           0       -1.660333    1.729229    0.679325
     26          6           0       -0.236568    1.456130   -0.902387
     27          1           0       -0.633610    2.272193   -1.492106
     28          1           0        0.064972    0.679261   -1.592769
     29         16           0        1.206816    2.122564   -0.023342
     30          6           0        2.176004    0.622561    0.333816
     31          1           0        2.831663    0.901281    1.148635
     32          1           0        1.526450   -0.160535    0.701292
     33          6           0        2.986697    0.126922   -0.862130
     34          1           0        3.639172    0.908645   -1.227438
     35          1           0        2.330451   -0.144391   -1.679042
     36         16           0        3.944391   -1.382347   -0.517172
     37          6           0        5.365934   -0.750797    0.429375
     38          1           0        5.777105   -1.624735    0.918013
     39          1           0        5.028373   -0.081622    1.209539
     40          6           0        6.425620   -0.072037   -0.436411
     41          1           0        6.762773   -0.741228   -1.216449
     42          1           0        6.013315    0.801570   -0.925117
     43         16           0        7.845961    0.559083    0.508716
     44          6           0        8.790481   -0.950677    0.884530
     45          1           0        9.506311   -0.635770    1.634479
     46          1           0        8.142004   -1.677425    1.358779
     47          6           0        9.518098   -1.567181   -0.306941
     48          1           0       10.194660   -0.851395   -0.758948
     49          1           0       10.095937   -2.427984    0.017764
     50          1           0        8.826345   -1.905343   -1.070588
 ---------------------------------------------------------------------
 Standard basis: 6-31G(d) (6D, 7F)
   372 basis functions,   752 primitive gaussians,   372 cartesian basis functions
    93 alpha electrons       93 beta electrons
 Requested convergence on RMS density matrix=1.00D-08 within  64 cycles.
 Requested convergence on MAX density matrix=1.00D-06.
 Requested convergence on             energy=1.00D-06.
 SCF Done:  E(RHF) =  -1964.69373459     A.U. after   11 cycles
            NFock= 11  Conv=0.40D-08     -V/T= 2.0006
 Step number   5 out of a maximum of   55
     Eigenvalues ---    0.00204   0.00230   0.00230   0.00230   0.00310
     Eigenvalues ---    0.00356   0.00399   0.00443   0.00445   0.00459
     Eigenvalues ---    0.00495   0.00526   0.00576   0.00714   0.01510
     Eigenvalues ---    0.01537   0.01549   0.01570   0.01581   0.04370
     Eigenvalues ---    0.04493   0.04500   0.04560   0.04625   0.04953
     Eigenvalues ---    0.04964   0.04974   0.05170   0.05380   0.05469
     Eigenvalues ---    0.05503   0.05547   0.05664   0.05668   0.05675
     Eigenvalues ---    0.05697   0.05702   0.05756   0.05766   0.05787
     Eigenvalues ---    0.05848   0.05856   0.05923   0.05994   0.05995
     Eigenvalues ---    0.06002   0.06066   0.11057   0.11176   0.11334
     Eigenvalues ---    0.11481   0.11560   0.11568   0.11590   0.11599
     Eigenvalues ---    0.11610   0.11617   0.11807   0.11938   0.13538
     Eigenvalues ---    0.13617   0.13685   0.13906   0.13917   0.13930
     Eigenvalues ---    0.13935   0.13939   0.13959   0.13991   0.14064
     Eigenvalues ---    0.14343   0.15998   0.16000   0.16000   0.16003
     Eigenvalues ---    0.16022   0.16150   0.21122   0.21953   0.21958
     Eigenvalues ---    0.21967   0.22015   0.22018   0.22023   0.22029
     Eigenvalues ---    0.22041   0.22083   0.22461   0.23235   0.24201
     Eigenvalues ---    0.24241   0.24300   0.24359   0.24477   0.24697
     Eigenvalues ---    0.24991   0.25000   0.25037   0.25393   0.25770
     Eigenvalues ---    0.29669   0.29817   0.29974   0.30047   0.30130
     Eigenvalues ---    0.30409   0.30948   0.32441   0.33546   0.33598
     Eigenvalues ---    0.33632   0.33700   0.33724   0.33766   0.33806
     Eigenvalues ---    0.33852   0.34100   0.34191   0.34316   0.34356
     Eigenvalues ---    0.34394   0.34410   0.34425   0.34438   0.34445
     Eigenvalues ---    0.34447   0.34451   0.34454   0.34459   0.34460
     Eigenvalues ---    0.34482   0.34486   0.34490   0.34491   0.34505
     Eigenvalues ---    0.34620   0.34927   0.37845   0.43493   0.43686
     Eigenvalues ---    0.43841   0.43949   0.44244   0.45757
 Maximum Force            0.000575     0.000015     NO 
 RMS     Force            0.000142     0.000010     NO 
 Maximum Displacement     0.107399     0.000060     NO 
 RMS     Displacement     0.028494     0.000040     NO 
                          Input orientation:                          
 ---------------------------------------------------------------------
 Center     Atomic      Atomic             Coordinates (Angstroms)
 Number     Number       Type             X           Y           Z
 ---------------------------------------------------------------------
      1          6           0       10.835203   -1.154526    0.799871
      2          1           0       10.418079   -1.610982    1.690442
      3          1           0       11.224663   -1.941595    0.164252
      4          1           0       11.656011   -0.507856    1.094359
      5          6           0        9.772459   -0.360960    0.064047
      6          1           0        9.394794    0.437664    0.700086
      7          1           0       10.195242    0.105378   -0.824466
      8          8           0        8.744673   -1.236690   -0.301808
      9          6           0        7.686862   -0.681709   -1.023444
     10          1           0        7.274088   -1.463040   -1.648541
     11          1           0        8.027180    0.119327   -1.674821
     12          6           0        6.594258   -0.160769   -0.101717
     13          1           0        6.251150   -0.971269    0.535990
     14          1           0        6.975544    0.628392    0.543313
     15          8           0        5.569636    0.331942   -0.914643
     16          6           0        4.482159    0.919352   -0.263006
     17          1           0        4.063662    1.647061   -0.947171
     18          1           0        4.798354    1.450245    0.631627
     19          6           0        3.426538   -0.118575    0.106928
     20          1           0        3.839950   -0.843570    0.796604
     21          1           0        3.113431   -0.653094   -0.786417
     22          8           0        2.335842    0.476472    0.751318
     23          6           0        1.300306    0.926149   -0.072133
     24          1           0        0.906783    0.101399   -0.662300
     25          1           0        1.642406    1.690258   -0.764390
     26          6           0        0.222830    1.500787    0.834547
     27          1           0        0.627172    2.340411    1.384880
     28          1           0       -0.080755    0.758239    1.560791
     29         16           0       -1.220755    2.131256   -0.070738
     30          6           0       -2.183820    0.616342   -0.378978
     31          1           0       -2.846197    0.865486   -1.197848
     32          1           0       -1.531294   -0.173308   -0.726463
     33          6           0       -2.984734    0.151258    0.836183
     34          1           0       -3.639764    0.939535    1.181992
     35          1           0       -2.321443   -0.090630    1.656568
     36         16           0       -3.936600   -1.372461    0.540240
     37          6           0       -5.370811   -0.774978   -0.409970
     38          1           0       -5.778529   -1.661636   -0.877945
     39          1           0       -5.044564   -0.119206   -1.206022
     40          6           0       -6.430947   -0.087371    0.449054
     41          1           0       -6.756584   -0.743092    1.245076
     42          1           0       -6.022032    0.798961    0.917054
     43         16           0       -7.864126    0.509497   -0.499530
     44          6           0       -8.799807   -1.016002   -0.832452
     45          1           0       -9.518297   -0.728989   -1.590958
     46          1           0       -8.146733   -1.752092   -1.285418
     47          6           0       -9.523591   -1.603027    0.376631
     48          1           0      -10.204484   -0.878923    0.808276
     49          1           0      -10.095945   -2.476363    0.076865
     50          1           0       -8.829465   -1.914698    1.149185
 ---------------------------------------------------------------------
 Stoichiometry    C14H30O3S3
 Framework group  C1[X(C14H30O3S3)]
                         Standard orientation:                         
 ---------------------------------------------------------------------
 Center     Atomic      Atomic             Coordinates (Angstroms)
 Number     Number       Type             X           Y           Z
 ---------------------------------------------------------------------
      1          6           0      -10.839987   -1.206213   -0.751640
      2          1           0      -10.421949   -1.695207   -1.624330
      3          1           0      -11.227354   -1.969474   -0.086397
      4          1           0      -11.662458   -0.573238   -1.070255
      5          6           0       -9.779030   -0.382607   -0.046903
      6          1           0       -9.403488    0.392155   -0.713001
      7          1           0      -10.202752    0.116169    0.823357
      8          8           0       -8.749000   -1.241251    0.351677
      9          6           0       -7.692391   -0.656609    1.051319
     10          1           0       -7.277543   -1.412566    1.705564
     11          1           0       -8.034530    0.167800    1.671849
     12          6           0       -6.601294   -0.168445    0.110072
     13          1           0       -6.256338   -1.001783   -0.496438
     14          1           0       -6.984679    0.594655   -0.564399
     15          8           0       -5.577698    0.357365    0.903319
     16          6           0       -4.491829    0.922218    0.229438
     17          1           0       -4.074966    1.676465    0.885273
     18          1           0       -4.809544    1.417898   -0.684647
     19          6           0       -3.433737   -0.126440   -0.101073
     20          1           0       -3.845522   -0.878172   -0.762520
     21          1           0       -3.119101   -0.625800    0.811865
     22          8           0       -2.344665    0.446328   -0.768004
     23          6           0       -1.310048    0.929562    0.037394
     24          1           0       -0.914351    0.128841    0.658393
     25          1           0       -1.653868    1.718623    0.700181
     26          6           0       -0.234206    1.471921   -0.890856
     27          1           0       -0.640750    2.288995   -1.472612
     28          1           0        0.071037    0.703018   -1.588412
     29         16           0        1.208032    2.139934   -0.010698
     30          6           0        2.174905    0.640220    0.354657
     31          1           0        2.836859    0.921976    1.163233
     32          1           0        1.524412   -0.137234    0.732160
     33          6           0        2.976677    0.131192   -0.842187
     34          1           0        3.629678    0.907344   -1.217963
     35          1           0        2.313791   -0.143374   -1.652552
     36         16           0        3.932370   -1.377816   -0.488781
     37          6           0        5.365327   -0.741079    0.437527
     38          1           0        5.775342   -1.608279    0.938774
     39          1           0        5.037650   -0.056287    1.208152
     40          6           0        6.423560   -0.084063   -0.447394
     41          1           0        6.750626   -0.768803   -1.217991
     42          1           0        6.012349    0.782808   -0.948654
     43         16           0        7.855485    0.551996    0.477312
     44          6           0        8.795007   -0.957423    0.867744
     45          1           0        9.512966   -0.639985    1.614540
     46          1           0        8.143858   -1.677342    1.348613
     47          6           0        9.519952   -1.588261   -0.318360
     48          1           0       10.198954   -0.879439   -0.777476
     49          1           0       10.094530   -2.448146    0.014239
     50          1           0        8.826414   -1.930814   -1.078263
 ---------------------------------------------------------------------
 Standard basis: 6-31G(d) (6D, 7F)
   372 basis functions,   752 primitive gaussians,   372 cartesian basis functions
    93 alpha electrons       93 beta electrons
 Requested convergence on RMS density matrix=1.00D-08 within  64 cycles.
 Requested convergence on MAX density matrix=1.00D-06.
 Requested convergence on             energy=1.00D-06.
 SCF Done:  E(RHF) =  -1964.69377317     A.U. after   11 cycles
            NFock= 11  Conv=0.36D-08     -V/T= 2.0006
 Step number   6 out of a maximum of   55
     Eigenvalues ---    0.00164   0.00230   0.00230   0.00230   0.00255
     Eigenvalues ---    0.00398   0.00427   0.00443   0.00446   0.00459
     Eigenvalues ---    0.00498   0.00526   0.00577   0.00681   0.01511
     Eigenvalues ---    0.01538   0.01549   0.01570   0.01631   0.04373
     Eigenvalues ---    0.04497   0.04504   0.04566   0.04731   0.04968
     Eigenvalues ---    0.04980   0.04991   0.05371   0.05405   0.05463
     Eigenvalues ---    0.05507   0.05566   0.05668   0.05673   0.05683
     Eigenvalues ---    0.05698   0.05712   0.05758   0.05786   0.05817
     Eigenvalues ---    0.05852   0.05862   0.05926   0.05993   0.06003
     Eigenvalues ---    0.06006   0.06070   0.11068   0.11185   0.11315
     Eigenvalues ---    0.11486   0.11547   0.11562   0.11579   0.11596
     Eigenvalues ---    0.11605   0.11671   0.11830   0.12172   0.13548
     Eigenvalues ---    0.13650   0.13690   0.13892   0.13907   0.13928
     Eigenvalues ---    0.13935   0.13936   0.13961   0.13989   0.14077
     Eigenvalues ---    0.14480   0.15999   0.16000   0.16001   0.16003
     Eigenvalues ---    0.16019   0.16122   0.21115   0.21951   0.21957
     Eigenvalues ---    0.21975   0.22015   0.22019   0.22025   0.22036
     Eigenvalues ---    0.22041   0.22163   0.22749   0.23229   0.24207
     Eigenvalues ---    0.24245   0.24292   0.24350   0.24461   0.24694
     Eigenvalues ---    0.24994   0.25000   0.25048   0.25179   0.26240
     Eigenvalues ---    0.29644   0.29711   0.29975   0.30050   0.30134
     Eigenvalues ---    0.30377   0.30940   0.32750   0.33544   0.33607
     Eigenvalues ---    0.33631   0.33691   0.33724   0.33766   0.33806
     Eigenvalues ---    0.33853   0.34165   0.34208   0.34320   0.34368
     Eigenvalues ---    0.34394   0.34410   0.34425   0.34437   0.34446
     Eigenvalues ---    0.34448   0.34451   0.34454   0.34458   0.34460
     Eigenvalues ---    0.34483   0.34486   0.34489   0.34492   0.34519
     Eigenvalues ---    0.34594   0.35093   0.38088   0.43494   0.43707
     Eigenvalues ---    0.43847   0.44003   0.44266   0.53685
 Maximum Force            0.000949     0.000015     NO 
 RMS     Force            0.000172     0.000010     NO 
 Maximum Displacement     0.102423     0.000060     NO 
 RMS     Displacement     0.027057     0.000040     NO 
                          Input orientation:                          
 ---------------------------------------------------------------------
 Center     Atomic      Atomic             Coordinates (Angstroms)
 Number     Number       Type             X           Y           Z
 ---------------------------------------------------------------------
      1          6           0       10.854059   -1.129459    0.805957
      2          1           0       10.434787   -1.556782    1.709938
      3          1           0       11.234723   -1.937870    0.192087
      4          1           0       11.681587   -0.482512    1.080393
      5          6           0        9.797306   -0.346928    0.050146
      6          1           0        9.427738    0.472722    0.664012
      7          1           0       10.222334    0.090831   -0.851783
      8          8           0        8.760405   -1.222554   -0.289767
      9          6           0        7.700115   -0.673004   -1.012556
     10          1           0        7.288185   -1.457016   -1.635070
     11          1           0        8.037211    0.127001   -1.666782
     12          6           0        6.609629   -0.151854   -0.088777
     13          1           0        6.265280   -0.962468    0.548302
     14          1           0        6.994241    0.634818    0.557388
     15          8           0        5.584342    0.344938   -0.898242
     16          6           0        4.490905    0.914471   -0.240302
     17          1           0        4.080017    1.664839   -0.904589
     18          1           0        4.798045    1.415763    0.674220
     19          6           0        3.430709   -0.133721    0.084119
     20          1           0        3.836404   -0.882055    0.753384
     21          1           0        3.126069   -0.638040   -0.829364
     22          8           0        2.334557    0.443594    0.735784
     23          6           0        1.299137    0.899917   -0.084193
     24          1           0        0.904798    0.079347   -0.679657
     25          1           0        1.642896    1.667352   -0.772136
     26          6           0        0.222537    1.470732    0.825875
     27          1           0        0.628249    2.306833    1.380683
     28          1           0       -0.081466    0.724871    1.548574
     29         16           0       -1.220966    2.107155   -0.075696
     30          6           0       -2.191167    0.596201   -0.382264
     31          1           0       -2.852156    0.846937   -1.201825
     32          1           0       -1.542236   -0.196814   -0.728850
     33          6           0       -2.994942    0.136315    0.833128
     34          1           0       -3.646091    0.928194    1.178102
     35          1           0       -2.333204   -0.107746    1.654144
     36         16           0       -3.955426   -1.382276    0.537340
     37          6           0       -5.386911   -0.775956   -0.411847
     38          1           0       -5.800615   -1.659163   -0.881183
     39          1           0       -5.056903   -0.121388   -1.207363
     40          6           0       -6.442399   -0.082722    0.448565
     41          1           0       -6.771686   -0.737170    1.244159
     42          1           0       -6.027548    0.800259    0.917734
     43         16           0       -7.872907    0.522780   -0.498956
     44          6           0       -8.819432   -0.997204   -0.827594
     45          1           0       -9.538525   -0.707642   -1.584645
     46          1           0       -8.172010   -1.737832   -1.281407
     47          6           0       -9.543084   -1.577914    0.384627
     48          1           0      -10.218976   -0.849310    0.816635
     49          1           0      -10.120952   -2.448881    0.088428
     50          1           0       -8.848668   -1.891587    1.156126
 ---------------------------------------------------------------------
 Stoichiometry    C14H30O3S3
 Framework group  C1[X(C14H30O3S3)]
                         Standard orientation:                         
 ---------------------------------------------------------------------
 Center     Atomic      Atomic             Coordinates (Angstroms)
 Number     Number       Type             X           Y           Z
 ---------------------------------------------------------------------
      1          6           0      -10.859990   -1.187517   -0.747215
      2          1           0      -10.439953   -1.655099   -1.630680
      3          1           0      -11.238257   -1.967661   -0.096401
      4          1           0      -11.689344   -0.556141   -1.050849
      5          6           0       -9.805012   -0.368077   -0.028975
      6          1           0       -9.437870    0.423265   -0.680300
      7          1           0      -10.230833    0.109820    0.851961
      8          8           0       -8.765651   -1.224306    0.350535
      9          6           0       -7.706530   -0.639115    1.046564
     10          1           0       -7.292267   -1.392399    1.704465
     11          1           0       -8.045482    0.189411    1.663257
     12          6           0       -6.617808   -0.158391    0.099087
     13          1           0       -6.271566   -0.996702   -0.499990
     14          1           0       -7.004769    0.596528   -0.582577
     15          8           0       -5.593514    0.378016    0.884160
     16          6           0       -4.501860    0.919377    0.199997
     17          1           0       -4.092695    1.700754    0.828640
     18          1           0       -4.810702    1.377012   -0.736575
     19          6           0       -3.439017   -0.139907   -0.076145
     20          1           0       -3.842997   -0.919468   -0.709858
     21          1           0       -3.132668   -0.600620    0.859530
     22          8           0       -2.344666    0.409526   -0.754401
     23          6           0       -1.310129    0.906021    0.043039
     24          1           0       -0.913370    0.114920    0.675619
     25          1           0       -1.655644    1.703554    0.694923
     26          6           0       -0.235418    1.436954   -0.893032
     27          1           0       -0.643574    2.245420   -1.485712
     28          1           0        0.070270    0.659258   -1.580612
     29         16           0        1.206757    2.118205   -0.022634
     30          6           0        2.181090    0.625612    0.352995
     31          1           0        2.841745    0.915736    1.159728
[...]
     18          1           0        4.783156    1.378195    0.733665
     19          6           0        3.437143   -0.155479    0.060891
     20          1           0        3.843127   -0.930088    0.699150
     21          1           0        3.144972   -0.620275   -0.876830
     22          8           0        2.328858    0.383018    0.727670
     23          6           0        1.295776    0.861716   -0.084819
     24          1           0        0.895949    0.054195   -0.693785
     25          1           0        1.646313    1.637467   -0.759360
     26          6           0        0.225032    1.425419    0.835120
     27          1           0        0.635188    2.253465    1.398587
     28          1           0       -0.079568    0.672801    1.550359
     29         16           0       -1.218419    2.079592   -0.053748
     30          6           0       -2.199776    0.577920   -0.370894
     31          1           0       -2.860921    0.842629   -1.185860
     32          1           0       -1.557600   -0.215651   -0.728361
     33          6           0       -3.002315    0.111658    0.842007
     34          1           0       -3.646298    0.904323    1.198176
     35          1           0       -2.340236   -0.146516    1.658376
     36         16           0       -3.973812   -1.397772    0.536018
     37          6           0       -5.399850   -0.776913   -0.411891
     38          1           0       -5.821294   -1.657469   -0.879296
     39          1           0       -5.064095   -0.127578   -1.209186
     40          6           0       -6.447747   -0.072748    0.447637
     41          1           0       -6.782754   -0.722056    1.244929
     42          1           0       -6.025774    0.807915    0.914710
     43         16           0       -7.872884    0.546153   -0.499346
     44          6           0       -8.828363   -0.966190   -0.838970
     45          1           0       -9.547453   -0.663539   -1.590842
     46          1           0       -8.186601   -1.705108   -1.303216
     47          6           0       -9.551656   -1.554317    0.368903
     48          1           0      -10.224000   -0.827068    0.808585
     49          1           0      -10.133786   -2.420283    0.066518
     50          1           0       -8.858022   -1.878070    1.136869
 ---------------------------------------------------------------------
 Stoichiometry    C14H30O3S3
 Framework group  C1[X(C14H30O3S3)]
                         Standard orientation:                         
 ---------------------------------------------------------------------
 Center     Atomic      Atomic             Coordinates (Angstroms)
 Number     Number       Type             X           Y           Z
 ---------------------------------------------------------------------
      1          6           0      -10.873291   -1.137228   -0.743866
      2          1           0      -10.453519   -1.511876   -1.670618
      3          1           0      -11.221902   -1.982971   -0.162239
      4          1           0      -11.723453   -0.504768   -0.979955
      5          6           0       -9.830972   -0.357717    0.033147
      6          1           0       -9.488890    0.496028   -0.548642
      7          1           0      -10.256561    0.029666    0.957194
      8          8           0       -8.765972   -1.218962    0.326179
      9          6           0       -7.696477   -0.656277    1.028003
     10          1           0       -7.260505   -1.435757    1.639561
     11          1           0       -8.030274    0.137411    1.690802
     12          6           0       -6.637507   -0.119231    0.079088
     13          1           0       -6.285966   -0.926594   -0.557596
     14          1           0       -7.053019    0.652099   -0.566012
     15          8           0       -5.606841    0.409495    0.863066
     16          6           0       -4.502542    0.919499    0.171718
     17          1           0       -4.096509    1.723087    0.773617
     18          1           0       -4.797326    1.340916   -0.785560
     19          6           0       -3.446487   -0.157981   -0.047267
     20          1           0       -3.850860   -0.961031   -0.650434
     21          1           0       -3.152231   -0.580267    0.909712
     22          8           0       -2.340268    0.353689   -0.738166
     23          6           0       -1.307831    0.870498    0.051473
     24          1           0       -0.905246    0.091651    0.694989
     25          1           0       -1.659949    1.674214    0.691569
     26          6           0       -0.239437    1.396108   -0.893415
     27          1           0       -0.652370    2.197434   -1.492369
     28          1           0        0.066644    0.613585   -1.575144
     29         16           0        1.202945    2.092705   -0.035590
     30          6           0        2.188738    0.609134    0.346366
     31          1           0        2.849836    0.911252    1.148254
     32          1           0        1.549072   -0.169696    0.739023
     33          6           0        2.991539    0.092156   -0.845625
     34          1           0        3.633016    0.870141   -1.236948
     35          1           0        2.329487   -0.203500   -1.649202
     36         16           0        3.967483   -1.399684   -0.474465
     37          6           0        5.392596   -0.733819    0.443827
     38          1           0        5.816880   -1.591799    0.949112
     39          1           0        5.055715   -0.050954    1.212106
     40          6           0        6.437803   -0.065288   -0.446866
     41          1           0        6.773936   -0.748128   -1.215144
     42          1           0        6.012989    0.792812   -0.951823
     43         16           0        7.862019    0.598578    0.470588
     44          6           0        8.821983   -0.894735    0.875494
     45          1           0        9.540866   -0.557329    1.612624
     46          1           0        8.182669   -1.614266    1.372422
     47          6           0        9.545880   -1.533456   -0.306035
     48          1           0       10.215829   -0.824419   -0.777940
     49          1           0       10.130670   -2.383682    0.033592
     50          1           0        8.852497   -1.892582   -1.058340
 ---------------------------------------------------------------------
 Standard basis: 6-31G(d) (6D, 7F)
   372 basis functions,   752 primitive gaussians,   372 cartesian basis functions
    93 alpha electrons       93 beta electrons
 Requested convergence on RMS density matrix=1.00D-08 within  64 cycles.
 Requested convergence on MAX density matrix=1.00D-06.
 Requested convergence on             energy=1.00D-06.
 SCF Done:  E(RHF) =  -1964.69384163     A.U. after    4 cycles
            NFock=  4  Conv=0.23D-08     -V/T= 2.0006
 Step number  30 out of a maximum of   55
     Eigenvalues ---    0.00153   0.00238   0.00261   0.00322   0.00335
     Eigenvalues ---    0.00392   0.00429   0.00444   0.00455   0.00500
     Eigenvalues ---    0.00536   0.00550   0.00600   0.00628   0.00725
     Eigenvalues ---    0.00867   0.01190   0.01382   0.01545   0.04722
     Eigenvalues ---    0.04841   0.04961   0.05026   0.05099   0.05150
     Eigenvalues ---    0.05289   0.05357   0.05446   0.05492   0.05547
     Eigenvalues ---    0.05594   0.05654   0.05680   0.05705   0.05720
     Eigenvalues ---    0.05726   0.05752   0.05779   0.05798   0.05843
     Eigenvalues ---    0.05896   0.05924   0.05967   0.05978   0.06013
     Eigenvalues ---    0.06089   0.06399   0.10640   0.11089   0.11243
     Eigenvalues ---    0.11455   0.11557   0.11581   0.11590   0.11610
     Eigenvalues ---    0.11729   0.11778   0.11821   0.12282   0.13366
     Eigenvalues ---    0.13605   0.13704   0.13768   0.13826   0.13866
     Eigenvalues ---    0.13896   0.13960   0.14012   0.14084   0.14243
     Eigenvalues ---    0.14287   0.15862   0.15977   0.16005   0.16019
     Eigenvalues ---    0.16040   0.16087   0.20340   0.20978   0.21765
     Eigenvalues ---    0.21885   0.21968   0.22137   0.22703   0.22742
     Eigenvalues ---    0.23035   0.23098   0.23462   0.23697   0.24026
     Eigenvalues ---    0.24191   0.24273   0.24399   0.24461   0.24620
     Eigenvalues ---    0.24705   0.24883   0.26638   0.27220   0.28989
     Eigenvalues ---    0.29805   0.30072   0.30164   0.30253   0.30765
     Eigenvalues ---    0.30908   0.31307   0.33517   0.33541   0.33637
     Eigenvalues ---    0.33672   0.33711   0.33769   0.33799   0.33855
     Eigenvalues ---    0.33896   0.34165   0.34292   0.34327   0.34386
     Eigenvalues ---    0.34399   0.34425   0.34446   0.34447   0.34451
     Eigenvalues ---    0.34457   0.34468   0.34478   0.34487   0.34511
     Eigenvalues ---    0.34533   0.34628   0.34679   0.34713   0.34753
     Eigenvalues ---    0.34904   0.36365   0.37914   0.39442   0.43532
     Eigenvalues ---    0.43821   0.44028   0.44284   0.44455
 Maximum Force            0.000000     0.000015     YES
 RMS     Force            0.000000     0.000010     YES
 Maximum Displacement     0.000037     0.000060     YES
 RMS     Displacement     0.000009     0.000040     YES
 Optimization completed.
    -- Stationary point found.
                          Input orientation:                          
 ---------------------------------------------------------------------
 Center     Atomic      Atomic             Coordinates (Angstroms)
 Number     Number       Type             X           Y           Z
 ---------------------------------------------------------------------
      1          6           0       10.865920   -1.082499    0.806204
      2          1           0       10.446277   -1.417175    1.748185
      3          1           0       11.217409   -1.952041    0.262647
      4          1           0       11.714118   -0.437906    1.014958
      5          6           0        9.822226   -0.340827   -0.005239
      6          1           0        9.477244    0.536736    0.538132
      7          1           0       10.247649    0.006708   -0.945073
      8          8           0        8.759872   -1.217085   -0.260997
      9          6           0        7.689522   -0.688795   -0.987806
     10          1           0        7.256278   -1.495634   -1.564845
     11          1           0        8.021788    0.075888   -1.684601
     12          6           0        6.628166   -0.113463   -0.064338
     13          1           0        6.278219   -0.893006    0.606954
     14          1           0        7.040939    0.686654    0.546552
     15          8           0        5.596817    0.377394   -0.871695
     16          6           0        4.490456    0.914252   -0.204393
     17          1           0        4.082809    1.689450   -0.841411
     18          1           0        4.783156    1.378195    0.733665
     19          6           0        3.437143   -0.155479    0.060891
     20          1           0        3.843127   -0.930088    0.699150
     21          1           0        3.144972   -0.620275   -0.876830
     22          8           0        2.328858    0.383018    0.727670
     23          6           0        1.295776    0.861716   -0.084819
     24          1           0        0.895949    0.054195   -0.693785
     25          1           0        1.646313    1.637467   -0.759360
     26          6           0        0.225032    1.425419    0.835120
     27          1           0        0.635188    2.253465    1.398587
     28          1           0       -0.079568    0.672801    1.550359
     29         16           0       -1.218419    2.079592   -0.053748
     30          6           0       -2.199776    0.577920   -0.370894
     31          1           0       -2.860921    0.842629   -1.185860
     32          1           0       -1.557600   -0.215651   -0.728361
     33          6           0       -3.002315    0.111658    0.842007
     34          1           0       -3.646298    0.904323    1.198176
     35          1           0       -2.340236   -0.146516    1.658376
     36         16           0       -3.973812   -1.397772    0.536018
     37          6           0       -5.399850   -0.776913   -0.411891
     38          1           0       -5.821294   -1.657469   -0.879296
     39          1           0       -5.064095   -0.127578   -1.209186
     40          6           0       -6.447747   -0.072748    0.447637
     41          1           0       -6.782754   -0.722056    1.244929
     42          1           0       -6.025774    0.807915    0.914710
     43         16           0       -7.872884    0.546153   -0.499346
     44          6           0       -8.828363   -0.966190   -0.838970
     45          1           0       -9.547453   -0.663539   -1.590842
     46          1           0       -8.186601   -1.705108   -1.303216
     47          6           0       -9.551656   -1.554317    0.368903
     48          1           0      -10.224000   -0.827068    0.808585
     49          1           0      -10.133786   -2.420283    0.066518
     50          1           0       -8.858022   -1.878070    1.136869
 ---------------------------------------------------------------------
 Stoichiometry    C14H30O3S3
 Framework group  C1[X(C14H30O3S3)]
                         Standard orientation:                         
 ---------------------------------------------------------------------
 Center     Atomic      Atomic             Coordinates (Angstroms)
 Number     Number       Type             X           Y           Z
 ---------------------------------------------------------------------
      1          6           0      -10.873291   -1.137228   -0.743866
      2          1           0      -10.453519   -1.511876   -1.670618
      3          1           0      -11.221902   -1.982971   -0.162239
      4          1           0      -11.723453   -0.504768   -0.979955
      5          6           0       -9.830972   -0.357717    0.033147
      6          1           0       -9.488890    0.496028   -0.548642
      7          1           0      -10.256561    0.029666    0.957194
      8          8           0       -8.765972   -1.218962    0.326179
      9          6           0       -7.696477   -0.656277    1.028003
     10          1           0       -7.260505   -1.435757    1.639561
     11          1           0       -8.030274    0.137411    1.690802
     12          6           0       -6.637507   -0.119231    0.079088
     13          1           0       -6.285966   -0.926594   -0.557596
     14          1           0       -7.053019    0.652099   -0.566012
     15          8           0       -5.606841    0.409495    0.863066
     16          6           0       -4.502542    0.919499    0.171718
     17          1           0       -4.096509    1.723087    0.773617
     18          1           0       -4.797326    1.340916   -0.785560
     19          6           0       -3.446487   -0.157981   -0.047267
     20          1           0       -3.850860   -0.961031   -0.650434
     21          1           0       -3.152231   -0.580267    0.909712
     22          8           0       -2.340268    0.353689   -0.738166
     23          6           0       -1.307831    0.870498    0.051473
     24          1           0       -0.905246    0.091651    0.694989
     25          1           0       -1.659949    1.674214    0.691569
     26          6           0       -0.239437    1.396108   -0.893415
     27          1           0       -0.652370    2.197434   -1.492369
     28          1           0        0.066644    0.613585   -1.575144
     29         16           0        1.202945    2.092705   -0.035590
     30          6           0        2.188738    0.609134    0.346366
     31          1           0        2.849836    0.911252    1.148254
     32          1           0        1.549072   -0.169696    0.739023
     33          6           0        2.991539    0.092156   -0.845625
     34          1           0        3.633016    0.870141   -1.236948
     35          1           0        2.329487   -0.203500   -1.649202
     36         16           0        3.967483   -1.399684   -0.474465
     37          6           0        5.392596   -0.733819    0.443827
     38          1           0        5.816880   -1.591799    0.949112
     39          1           0        5.055715   -0.050954    1.212106
     40          6           0        6.437803   -0.065288   -0.446866
     41          1           0        6.773936   -0.748128   -1.215144
     42          1           0        6.012989    0.792812   -0.951823
     43         16           0        7.862019    0.598578    0.470588
     44          6           0        8.821983   -0.894735    0.875494
     45          1           0        9.540866   -0.557329    1.612624
     46          1           0        8.182669   -1.614266    1.372422
     47          6           0        9.545880   -1.533456   -0.306035
     48          1           0       10.215829   -0.824419   -0.777940
     49          1           0       10.130670   -2.383682    0.033592
     50          1           0        8.852497   -1.892582   -1.058340
 ---------------------------------------------------------------------
 Mulliken charges:
     1  C   -0.488586
     2  H    0.172601
     3  H    0.175983
     4  H    0.157001
     5  C    0.017424
     6  H    0.136113
     7  H    0.143316
     8  O   -0.632179
     9  C    0.002809
    10  H    0.180199
    11  H    0.154961
    12  C    0.004946
    13  H    0.152385
    14  H    0.144726
    15  O   -0.645233
    16  C   -0.002216
    17  H    0.171967
    18  H    0.155930
    19  C   -0.006398
    20  H    0.174696
    21  H    0.157061
    22  O   -0.639654
    23  C    0.029921
    24  H    0.149145
    25  H    0.157606
    26  C   -0.494612
    27  H    0.213156
    28  H    0.204583
    29  S    0.113121
    30  C   -0.475966
    31  H    0.205411
    32  H    0.210089
    33  C   -0.475859
    34  H    0.209485
    35  H    0.206400
    36  S    0.116488
    37  C   -0.475856
    38  H    0.203510
    39  H    0.208367
    40  C   -0.476168
    41  H    0.210630
    42  H    0.203445
    43  S    0.114430
    44  C   -0.476247
    45  H    0.201599
    46  H    0.188919
    47  C   -0.475608
    48  H    0.181671
    49  H    0.168376
    50  H    0.166116
 Sum of Mulliken charges =  -0.00000
 Dipole moment (field-independent basis, Debye):
    X=             -0.3427    Y=             -0.5169    Z=             -0.0373  Tot=              0.6213
 Quadrupole moment (field-independent basis, Debye-Ang):
   XX=           -131.4115   YY=           -158.0957   ZZ=           -150.7330
   XY=            -22.4117   XZ=              6.2175   YZ=             -3.7038
 Traceless Quadrupole moment (field-independent basis, Debye-Ang):
   XX=             15.3352   YY=            -11.3489   ZZ=             -3.9863
   XY=            -22.4117   XZ=              6.2175   YZ=             -3.7038
 Octapole moment (field-independent basis, Debye-Ang**2):
  XXX=           -105.1761  YYY=             -6.2564  ZZZ=              1.2813  XYY=            -25.5959
  XXY=            -26.5808  XXZ=              4.7232  XZZ=            -19.4962  YZZ=             -3.2957
  YYZ=              0.8094  XYZ=            -12.3820
 Hexadecapole moment (field-independent basis, Debye-Ang**3):
 XXXX=         -32032.2929 YYYY=          -1276.5606 ZZZZ=           -546.5920 XXXY=          -1806.8216
 XXXZ=            444.8462 YYYX=            -45.9285 YYYZ=            -17.7639 ZZZX=            -19.8666
 ZZZY=             -9.8107 XXYY=          -6279.3646 XXZZ=          -5931.9421 YYZZ=           -297.8688
 XXYZ=           -117.5526 YYXZ=             16.6103 ZZXY=             14.0509
 Job cpu time:       0 days  2 hours 33 minutes 18.3 seconds.
 Normal termination of Gaussian 16 at Sat Jul  8 19:51:30 2023.
