 Copyright (c) 1988-2019, Gaussian, Inc.  All Rights Reserved.
  
 This is part of the Gaussian(R) 16 program.  It is based on
 the Gaussian(R) 09 system (copyright 2009, Gaussian, Inc.),
 the Gaussian(R) 03 system (copyright 2003, Gaussian, Inc.),
 the Gaussian(R) 98 system (copyright 1998, Gaussian, Inc.),
 the Gaussian(R) 94 system (copyright 1995, Gaussian, Inc.),
 the Gaussian 92(TM) system (copyright 1992, Gaussian, Inc.),
 the Gaussian 90(TM) system (copyright 1990, Gaussian, Inc.),
 the Gaussian 88(TM) system (copyright 1988, Gaussian, Inc.),
 the Gaussian 86(TM) system (copyright 1986, Carnegie Mellon
 University), and the Gaussian 82(TM) system (copyright 1983,
 Carnegie Mellon University). Gaussian is a federally registered
 trademark of Gaussian, Inc.
 Cite this work as:
 Gaussian 16, Revision C.01,
 M. J. Frisch, G. W. Trucks, H. B. Schlegel, G. E. Scuseria, 
 M. A. Robb, J. R. Cheeseman, G. Scalmani, V. Barone, 
 G. A. Petersson, H. Nakatsuji, X. Li, M. Caricato, A. V. Marenich, 
 J. Bloino, B. G. Janesko, R. Gomperts, B. Mennucci, H. P. Hratchian, 
 J. V. Ortiz, A. F. Izmaylov, J. L. Sonnenberg, D. Williams-Young, 
 F. Ding, F. Lipparini, F. Egidi, J. Goings, B. Peng, A. Petrone, 
 T. Henderson, D. Ranasinghe, V. G. Zakrzewski, J. Gao, N. Rega, 
 G. Zheng, W. Liang, M. Hada, M. Ehara, K. Toyota, R. Fukuda, 
 J. Hasegawa, M. Ishida, T. Nakajima, Y. Honda, O. Kitao, H. Nakai, 
 T. Vreven, K. Throssell, J. A. Montgomery, Jr., J. E. Peralta, 
 F. Ogliaro, M. J. Bearpark, J. J. Heyd, E. N. Brothers, K. N. Kudin, 
 V. N. Staroverov, T. A. Keith, R. Kobayashi, J. Normand, 
 K. Raghavachari, A. P. Rendell, J. C. Burant, S. S. Iyengar, 
 J. Tomasi, M. Cossi, J. M. Millam, M. Klene, C. Adamo, R. Cammi, 
 J. W. Ochterski, R. L. Martin, K. Morokuma, O. Farkas, 
 J. B. Foresman, and D. J. Fox, Gaussian, Inc., Wallingford CT, 2019.
 
 ******************************************
 Gaussian 16:  EM64L-G16RevC.01  3-Jul-2019
                 8-Jul-2023 
 ******************************************
 ----------------------------------------------------------------------
 #P HF/6-31G(d) Opt=(Tight,MaxCycle=55) GFInput GFPrint SCF(Conver=8,XQ
 C,MaxConventionalCycles=64,MaxCycle=128) Test
 ----------------------------------------------------------------------
 1/6=55,7=10,18=20,19=15,38=1/1,3;
 2/9=110,12=2,17=6,18=5,40=1/2;
 3/5=1,6=6,7=1,11=9,24=110,25=1,30=1,71=1/1,2,3;
 4//1;
 5/5=2,6=8,7=128,8=3,13=1,38=5,85=64/2,8;
 6/7=2,8=2,9=2,10=2,28=1/1;
 7//1,2,3,16;
 1/6=55,7=10,18=20,19=15/3(2);
 2/9=110/2;
 99//99;
 2/9=110/2;
 3/5=1,6=6,7=1,11=9,25=1,30=1,71=1/1,2,3;
 4/5=5,16=3,69=1/1;
 5/5=2,6=8,7=128,8=3,13=1,38=5,85=64/2,8;
 7//1,2,3,16;
 1/6=55,7=10,18=20,19=15/3(-5);
 2/9=110/2;
 6/7=2,8=2,9=2,10=2,19=2,28=1/1;
 99/9=1/99;
 ----------------------------------------------------------
 Optimization step - Input generated by PyRED DVE-DMDS-OPLS
 ----------------------------------------------------------
 Symbolic Z-matrix:
 Charge =  0 Multiplicity = 1
 C                     0.882     3.905    -0.149 
 H                     1.726     4.601    -0.115 
 H                     0.07      4.392    -0.698 
 H                     0.539     3.722     0.873 
 C                     1.25      2.592    -0.823 
 H                     0.378     1.935    -0.862 
 H                     1.595     2.767    -1.853 
 O                     2.237     1.857    -0.117 
 C                     3.537     2.394    -0.183 
 H                     3.651     3.252     0.497 
 H                     3.759     2.737    -1.204 
 C                     4.532     1.325     0.201 
 H                     5.525     1.783     0.332 
 H                     4.235     0.885     1.165 
 O                     4.571     0.359    -0.823 
 C                     5.513    -0.673    -0.623 
 H                     6.45     -0.259    -0.218 
 H                     5.724    -1.091    -1.611 
 C                     5.035    -1.801     0.281 
 H                     4.646    -1.4       1.227 
 H                     5.904    -2.426     0.524 
 O                     4.08     -2.628    -0.343 
 C                     2.743    -2.546     0.111 
 H                     2.723    -2.286     1.178 
 H                     2.316    -3.548     0.011 
 C                     1.915    -1.555    -0.7 
 H                     1.904    -1.869    -1.747 
 H                     2.338    -0.55     -0.662 
 S                     0.172    -1.504    -0.175 
 C                     0.317    -0.556     1.38 
 H                     0.853    -1.157     2.122 
 H                     0.897     0.35      1.186 
 C                    -1.053    -0.208     1.959 
 H                    -0.912     0.168     2.976 
 H                    -1.681    -1.1       2.041 
 S                    -1.98      1.104     1.09 
 C                    -3.054     0.165    -0.05 
 H                    -2.459    -0.561    -0.606 
 H                    -3.406     0.912    -0.768 
 C                    -4.234    -0.503     0.646 
 H                    -3.885    -1.26      1.353 
 H                    -4.807     0.228     1.223 
 S                    -5.335    -1.408    -0.492 
 C                    -6.216    -0.043    -1.323 
 H                    -5.489     0.644    -1.766 
 H                    -6.734    -0.526    -2.156 
 C                    -7.209     0.704    -0.443 
 H                    -6.714     1.198     0.398 
 H                    -7.725     1.477    -1.022 
 H                    -7.959     0.02     -0.036 
 
 ITRead=  0  0  0  0  0  0  0  0  0  0  0  0  0  0  0  0  0  0  0  0
 ITRead=  0  0  0  0  0  0  0  0  0  0  0  0  0  0  0  0  0  0  0  0
 ITRead=  0  0  0  0  0  0  0  0  0  0
 MicOpt= -1 -1 -1 -1 -1 -1 -1 -1 -1 -1 -1 -1 -1 -1 -1 -1 -1 -1 -1 -1
 MicOpt= -1 -1 -1 -1 -1 -1 -1 -1 -1 -1 -1 -1 -1 -1 -1 -1 -1 -1 -1 -1
 MicOpt= -1 -1 -1 -1 -1 -1 -1 -1 -1 -1
 NAtoms=     50 NQM=       50 NQMF=       0 NMMI=      0 NMMIF=      0
                NMic=       0 NMicF=      0.
                          Input orientation:                          
 ---------------------------------------------------------------------
 Center     Atomic      Atomic             Coordinates (Angstroms)
 Number     Number       Type             X           Y           Z
 ---------------------------------------------------------------------
      1          6           0        0.882000    3.905000   -0.149000
      2          1           0        1.726000    4.601000   -0.115000
      3          1           0        0.070000    4.392000   -0.698000
      4          1           0        0.539000    3.722000    0.873000
      5          6           0        1.250000    2.592000   -0.823000
      6          1           0        0.378000    1.935000   -0.862000
      7          1           0        1.595000    2.767000   -1.853000
      8          8           0        2.237000    1.857000   -0.117000
      9          6           0        3.537000    2.394000   -0.183000
     10          1           0        3.651000    3.252000    0.497000
     11          1           0        3.759000    2.737000   -1.204000
     12          6           0        4.532000    1.325000    0.201000
     13          1           0        5.525000    1.783000    0.332000
     14          1           0        4.235000    0.885000    1.165000
     15          8           0        4.571000    0.359000   -0.823000
     16          6           0        5.513000   -0.673000   -0.623000
     17          1           0        6.450000   -0.259000   -0.218000
     18          1           0        5.724000   -1.091000   -1.611000
     19          6           0        5.035000   -1.801000    0.281000
     20          1           0        4.646000   -1.400000    1.227000
     21          1           0        5.904000   -2.426000    0.524000
     22          8           0        4.080000   -2.628000   -0.343000
     23          6           0        2.743000   -2.546000    0.111000
     24          1           0        2.723000   -2.286000    1.178000
     25          1           0        2.316000   -3.548000    0.011000
     26          6           0        1.915000   -1.555000   -0.700000
     27          1           0        1.904000   -1.869000   -1.747000
     28          1           0        2.338000   -0.550000   -0.662000
     29         16           0        0.172000   -1.504000   -0.175000
     30          6           0        0.317000   -0.556000    1.380000
     31          1           0        0.853000   -1.157000    2.122000
     32          1           0        0.897000    0.350000    1.186000
     33          6           0       -1.053000   -0.208000    1.959000
     34          1           0       -0.912000    0.168000    2.976000
     35          1           0       -1.681000   -1.100000    2.041000
     36         16           0       -1.980000    1.104000    1.090000
     37          6           0       -3.054000    0.165000   -0.050000
     38          1           0       -2.459000   -0.561000   -0.606000
     39          1           0       -3.406000    0.912000   -0.768000
     40          6           0       -4.234000   -0.503000    0.646000
     41          1           0       -3.885000   -1.260000    1.353000
     42          1           0       -4.807000    0.228000    1.223000
     43         16           0       -5.335000   -1.408000   -0.492000
     44          6           0       -6.216000   -0.043000   -1.323000
     45          1           0       -5.489000    0.644000   -1.766000
     46          1           0       -6.734000   -0.526000   -2.156000
     47          6           0       -7.209000    0.704000   -0.443000
     48          1           0       -6.714000    1.198000    0.398000
     49          1           0       -7.725000    1.477000   -1.022000
     50          1           0       -7.959000    0.020000   -0.036000
 ---------------------------------------------------------------------
 Stoichiometry    C14H30O3S3
 Framework group  C1[X(C14H30O3S3)]
                         Standard orientation:                         
 ---------------------------------------------------------------------
 Center     Atomic      Atomic             Coordinates (Angstroms)
 Number     Number       Type             X           Y           Z
 ---------------------------------------------------------------------
      1          6           0        0.881757    3.904948   -0.148946
      2          1           0        1.725738    4.600970   -0.114946
      3          1           0        0.069744    4.391927   -0.697946
      4          1           0        0.538762    3.721939    0.873054
      5          6           0        1.249792    2.591958   -0.822946
      6          1           0        0.377809    1.934935   -0.861946
      7          1           0        1.594787    2.766967   -1.852946
      8          8           0        2.236811    1.856984   -0.116946
      9          6           0        3.536797    2.394018   -0.182946
     10          1           0        3.650774    3.252021    0.497054
     11          1           0        3.758788    2.737024   -1.203946
     12          6           0        4.531825    1.325045    0.201054
     13          1           0        5.524813    1.783071    0.332054
     14          1           0        4.234837    0.885037    1.165054
     15          8           0        4.570851    0.359046   -0.822946
     16          6           0        5.512878   -0.672929   -0.622946
     17          1           0        6.449867   -0.258904   -0.217946
     18          1           0        5.723889   -1.090924   -1.610946
     19          6           0        5.034908   -1.800942    0.281054
     20          1           0        4.645897   -1.399952    1.227054
     21          1           0        5.903924   -2.425919    0.524054
     22          8           0        4.079930   -2.627967   -0.342946
     23          6           0        2.742928   -2.546003    0.111054
     24          1           0        2.722921   -2.286003    1.178054
     25          1           0        2.315954   -3.548014    0.011054
     26          6           0        1.914901   -1.555025   -0.699946
     27          1           0        1.903910   -1.869025   -1.746946
     28          1           0        2.337875   -0.550013   -0.661946
     29         16           0        0.171900   -1.504071   -0.174946
     30          6           0        0.316875   -0.556067    1.380054
     31          1           0        0.852891   -1.157053    2.122054
     32          1           0        0.896851    0.349948    1.186054
     33          6           0       -1.053134   -0.208103    1.959054
     34          1           0       -0.912144    0.167901    2.976054
     35          1           0       -1.681111   -1.100120    2.041054
     36         16           0       -1.980169    1.103872    1.090054
     37          6           0       -3.054144    0.164844   -0.049946
     38          1           0       -2.459125   -0.561140   -0.605946
     39          1           0       -3.406164    0.911835   -0.767946
     40          6           0       -4.234126   -0.503187    0.646054
     41          1           0       -3.885106   -1.260178    1.353054
     42          1           0       -4.807146    0.227797    1.223054
     43         16           0       -5.335102   -1.408217   -0.491946
     44          6           0       -6.216139   -0.043240   -1.322946
     45          1           0       -5.489157    0.643779   -1.765946
     46          1           0       -6.734126   -0.526254   -2.155946
     47          6           0       -7.209158    0.703734   -0.442946
     48          1           0       -6.714172    1.197747    0.398054
     49          1           0       -7.725179    1.476720   -1.021946
     50          1           0       -7.959140    0.019714   -0.035946
 ---------------------------------------------------------------------
 Standard basis: 6-31G(d) (6D, 7F)
   372 basis functions,   752 primitive gaussians,   372 cartesian basis functions
    93 alpha electrons       93 beta electrons
 Requested convergence on RMS density matrix=1.00D-08 within  64 cycles.
 Requested convergence on MAX density matrix=1.00D-06.
 Requested convergence on             energy=1.00D-06.
 SCF Done:  E(RHF) =  -1964.68360762     A.U. after   13 cycles
            NFock= 13  Conv=0.51D-08     -V/T= 2.0009
 Mulliken charges:
     1  C   -0.500477
     2  H    0.153651
     3  H    0.163376
     4  H    0.177596
     5  C   -0.004577
     6  H    0.210175
     7  H    0.145570
     8  O   -0.637145
     9  C    0.017429
    10  H    0.145323
    11  H    0.158291
    12  C    0.000482
    13  H    0.145409
    14  H    0.149943
    15  O   -0.625522
    16  C   -0.000148
    17  H    0.134703
    18  H    0.191187
    19  C    0.000030
    20  H    0.143620
    21  H    0.161326
    22  O   -0.636022
    23  C    0.025616
    24  H    0.138745
    25  H    0.179679
    26  C   -0.526267
    27  H    0.200449
    28  H    0.268330
    29  S    0.085744
    30  C   -0.470201
    31  H    0.180695
    32  H    0.244838
    33  C   -0.492976
    34  H    0.205622
    35  H    0.202671
    36  S    0.109014
    37  C   -0.483627
    38  H    0.246260
    39  H    0.193849
    40  C   -0.474294
    41  H    0.199044
    42  H    0.205271
    43  S    0.119141
    44  C   -0.473771
    45  H    0.187519
    46  H    0.198369
    47  C   -0.473947
    48  H    0.164860
    49  H    0.166013
    50  H    0.179130
 Sum of Mulliken charges =  -0.00000
 Dipole moment (field-independent basis, Debye):
    X=              2.4027    Y=              3.3065    Z=              1.7415  Tot=              4.4428
 Quadrupole moment (field-independent basis, Debye-Ang):
   XX=           -131.5711   YY=           -154.1584   ZZ=           -145.2690
   XY=             -0.9190   XZ=             10.6520   YZ=             -6.8864
 Traceless Quadrupole moment (field-independent basis, Debye-Ang):
   XX=             12.0951   YY=            -10.4922   ZZ=             -1.6028
   XY=             -0.9190   XZ=             10.6520   YZ=             -6.8864
 Octapole moment (field-independent basis, Debye-Ang**2):
  XXX=            120.7613  YYY=             40.1736  ZZZ=             -1.7408  XYY=             38.5130
  XXY=             74.9852  XXZ=             -2.6919  XZZ=              8.5667  YZZ=             -4.6846
  YYZ=             -4.7783  XYZ=              6.1761
 Hexadecapole moment (field-independent basis, Debye-Ang**3):
 XXXX=         -12284.5411 YYYY=          -2884.7076 ZZZZ=           -796.4656 XXXY=           -231.2444
 XXXZ=            323.3076 YYYX=             73.4703 YYYZ=            -38.7481 ZZZX=             -5.3424
 ZZZY=             -0.4773 XXYY=          -2808.1406 XXZZ=          -2310.3898 YYZZ=           -603.7671
 XXYZ=            -48.6225 YYXZ=             11.8362 ZZXY=             -1.8388
 Step number   1 out of a maximum of   55
     Eigenvalues ---    0.00230   0.00230   0.00230   0.00230   0.00230
     Eigenvalues ---    0.00230   0.00402   0.00436   0.00446   0.00466
     Eigenvalues ---    0.00468   0.00487   0.00633   0.01444   0.01502
     Eigenvalues ---    0.01539   0.01572   0.01582   0.01585   0.04194
     Eigenvalues ---    0.04358   0.04487   0.04514   0.04596   0.04706
     Eigenvalues ---    0.04777   0.04803   0.04840   0.04849   0.05400
     Eigenvalues ---    0.05431   0.05527   0.05535   0.05629   0.05630
     Eigenvalues ---    0.05650   0.05653   0.05712   0.05720   0.05766
     Eigenvalues ---    0.05773   0.05826   0.05847   0.05975   0.06006
     Eigenvalues ---    0.06174   0.06191   0.11152   0.11186   0.11194
     Eigenvalues ---    0.11462   0.11601   0.11604   0.11678   0.11729
     Eigenvalues ---    0.11765   0.11824   0.11861   0.11869   0.13701
     Eigenvalues ---    0.13730   0.13769   0.13876   0.13934   0.13954
     Eigenvalues ---    0.13987   0.14014   0.14036   0.14047   0.14123
     Eigenvalues ---    0.14133   0.16000   0.16000   0.16000   0.16000
     Eigenvalues ---    0.16000   0.16000   0.21994   0.22006   0.22012
     Eigenvalues ---    0.22013   0.22016   0.22029   0.22031   0.22049
     Eigenvalues ---    0.22055   0.22061   0.22069   0.22117   0.24104
     Eigenvalues ---    0.24141   0.24161   0.24256   0.24328   0.24525
     Eigenvalues ---    0.25000   0.25000   0.25000   0.25000   0.25000
     Eigenvalues ---    0.25000   0.29656   0.29897   0.29970   0.30113
     Eigenvalues ---    0.30125   0.30263   0.31346   0.33512   0.33533
     Eigenvalues ---    0.33604   0.33627   0.33654   0.33714   0.33832
     Eigenvalues ---    0.33859   0.33943   0.34239   0.34241   0.34299
     Eigenvalues ---    0.34299   0.34323   0.34358   0.34359   0.34380
     Eigenvalues ---    0.34381   0.34398   0.34418   0.34418   0.34421
     Eigenvalues ---    0.34424   0.34430   0.34454   0.34457   0.34466
     Eigenvalues ---    0.34525   0.34691   0.34700   0.42650   0.43321
     Eigenvalues ---    0.43763   0.44158   0.44275   0.44305
 Maximum Force            0.027656     0.000015     NO 
 RMS     Force            0.005038     0.000010     NO 
 Maximum Displacement     2.696399     0.000060     NO 
 RMS     Displacement     0.657996     0.000040     NO 
                          Input orientation:                          
 ---------------------------------------------------------------------
 Center     Atomic      Atomic             Coordinates (Angstroms)
 Number     Number       Type             X           Y           Z
 ---------------------------------------------------------------------
      1          6           0        2.088831    4.832269   -0.517362
      2          1           0        3.072490    5.285298   -0.394632
      3          1           0        1.496873    5.492163   -1.151636
      4          1           0        1.607624    4.779669    0.457966
      5          6           0        2.168171    3.448363   -1.142697
      6          1           0        1.169624    3.043326   -1.275761
      7          1           0        2.650403    3.494067   -2.123626
      8          8           0        2.847296    2.508017   -0.333514
      9          6           0        4.235358    2.682223   -0.257264
     10          1           0        4.490773    3.497644    0.426077
     11          1           0        4.638573    2.928295   -1.243115
     12          6           0        4.888487    1.409558    0.229916
     13          1           0        5.939703    1.625222    0.449354
     14          1           0        4.415327    1.075911    1.157719
     15          8           0        4.802861    0.435050   -0.776694
     16          6           0        5.520134   -0.748268   -0.521908
     17          1           0        6.479318   -0.488957   -0.060703
     18          1           0        5.725609   -1.189308   -1.494572
     19          6           0        4.843985   -1.811267    0.336302
     20          1           0        4.463657   -1.398972    1.273568
     21          1           0        5.625917   -2.528522    0.593971
     22          8           0        3.853198   -2.545267   -0.339661
     23          6           0        2.506614   -2.483095    0.077247
     24          1           0        2.454421   -2.322257    1.156128
     25          1           0        2.096806   -3.471197   -0.121108
     26          6           0        1.672285   -1.446449   -0.663828
     27          1           0        1.697749   -1.661642   -1.730272
     28          1           0        2.052615   -0.441349   -0.522394
     29         16           0       -0.085329   -1.529274   -0.190202
     30          6           0       -0.065840   -0.778061    1.473083
     31          1           0        0.492514   -1.425301    2.148797
     32          1           0        0.443411    0.179905    1.418691
     33          6           0       -1.472806   -0.618382    2.051851
     34          1           0       -1.375734   -0.371403    3.107502
     35          1           0       -2.022138   -1.556678    2.003713
     36         16           0       -2.500418    0.717373    1.348981
     37          6           0       -3.514605   -0.124556    0.086176
     38          1           0       -2.880326   -0.726658   -0.555760
     39          1           0       -3.911156    0.685702   -0.523028
     40          6           0       -4.651674   -0.952996    0.675337
     41          1           0       -4.257138   -1.771839    1.273042
     42          1           0       -5.265329   -0.347936    1.338320
     43         16           0       -5.695943   -1.762980   -0.580112
     44          6           0       -6.678255   -0.374249   -1.238001
     45          1           0       -6.009641    0.413198   -1.581113
     46          1           0       -7.156066   -0.782484   -2.126877
     47          6           0       -7.729642    0.177572   -0.283308
     48          1           0       -7.280987    0.597662    0.615595
     49          1           0       -8.298889    0.972136   -0.767378
     50          1           0       -8.423711   -0.603280    0.023190
 ---------------------------------------------------------------------
 Stoichiometry    C14H30O3S3
 Framework group  C1[X(C14H30O3S3)]
                         Standard orientation:                         
 ---------------------------------------------------------------------
 Center     Atomic      Atomic             Coordinates (Angstroms)
 Number     Number       Type             X           Y           Z
 ---------------------------------------------------------------------
      1          6           0        2.757782    4.579972   -0.124274
      2          1           0        3.787354    4.895772    0.043459
      3          1           0        2.265107    5.354633   -0.711939
      4          1           0        2.254234    4.514754    0.838938
      5          6           0        2.677475    3.248050   -0.853704
      6          1           0        1.639291    2.982368   -1.028194
      7          1           0        3.181298    3.306739   -1.823022
      8          8           0        3.218331    2.171867   -0.112391
      9          6           0        4.615463    2.164711   -0.008243
     10          1           0        4.956213    2.887975    0.738671
     11          1           0        5.065839    2.431881   -0.967836
     12          6           0        5.095802    0.787267    0.386117
     13          1           0        6.161016    0.852511    0.632655
     14          1           0        4.566344    0.446586    1.280337
     15          8           0        4.910274   -0.090298   -0.693569
     16          6           0        5.470006   -1.369890   -0.523322
     17          1           0        6.444463   -1.268145   -0.033355
     18          1           0        5.638741   -1.758703   -1.524902
     19          6           0        4.650128   -2.401452    0.243066
     20          1           0        4.305072   -2.016524    1.205288
     21          1           0        5.331739   -3.228291    0.452851
     22          8           0        3.589779   -2.952672   -0.497986
     23          6           0        2.253180   -2.753989   -0.091788
     24          1           0        2.199630   -2.669555    0.995677
     25          1           0        1.728086   -3.665263   -0.370155
     26          6           0        1.568920   -1.568237   -0.759407
     27          1           0        1.588963   -1.704033   -1.838953
     28          1           0        2.068024   -0.632173   -0.536789
     29         16           0       -0.194572   -1.465813   -0.312206
     30          6           0       -0.115564   -0.850301    1.404220
     31          1           0        0.344508   -1.611357    2.033820
     32          1           0        0.509535    0.037738    1.429334
     33          6           0       -1.503233   -0.559781    1.978674
     34          1           0       -1.397552   -0.407067    3.051209
     35          1           0       -2.163593   -1.415627    1.852437
     36         16           0       -2.342923    0.943189    1.370191
     37          6           0       -3.428059    0.332301    0.035502
     38          1           0       -2.860546   -0.294419   -0.644255
     39          1           0       -3.708735    1.229365   -0.513494
     40          6           0       -4.670705   -0.389268    0.546890
     41          1           0       -4.392861   -1.293708    1.083738
     42          1           0       -5.217815    0.236212    1.248077
     43         16           0       -5.781871   -0.965342   -0.778317
     44          6           0       -6.570957    0.580981   -1.337387
     45          1           0       -5.803090    1.302114   -1.611595
     46          1           0       -7.077713    0.303845   -2.260130
     47          6           0       -7.564804    1.186628   -0.354118
     48          1           0       -7.085704    1.478386    0.579227
     49          1           0       -8.021272    2.080365   -0.781399
     50          1           0       -8.356370    0.477960   -0.116174
 ---------------------------------------------------------------------
 Standard basis: 6-31G(d) (6D, 7F)
   372 basis functions,   752 primitive gaussians,   372 cartesian basis functions
    93 alpha electrons       93 beta electrons
 Requested convergence on RMS density matrix=1.00D-08 within  64 cycles.
 Requested convergence on MAX density matrix=1.00D-06.
 Requested convergence on             energy=1.00D-06.
 SCF Done:  E(RHF) =  -1964.68344611     A.U. after   14 cycles
            NFock= 14  Conv=0.69D-08     -V/T= 2.0008
 Step number   2 out of a maximum of   55
     Eigenvalues ---    0.00230   0.00230   0.00230   0.00230   0.00230
     Eigenvalues ---    0.00238   0.00402   0.00445   0.00446   0.00466
     Eigenvalues ---    0.00480   0.00487   0.00634   0.01444   0.01502
     Eigenvalues ---    0.01540   0.01579   0.01585   0.02278   0.04121
     Eigenvalues ---    0.04337   0.04419   0.04469   0.04498   0.04628
     Eigenvalues ---    0.04647   0.04707   0.04801   0.05200   0.05307
     Eigenvalues ---    0.05514   0.05517   0.05633   0.05639   0.05650
     Eigenvalues ---    0.05658   0.05661   0.05726   0.05763   0.05770
     Eigenvalues ---    0.05795   0.05859   0.05871   0.06070   0.06177
     Eigenvalues ---    0.06182   0.06638   0.11219   0.11247   0.11301
     Eigenvalues ---    0.11380   0.11612   0.11623   0.11775   0.11836
     Eigenvalues ---    0.11860   0.11883   0.11931   0.12206   0.13784
     Eigenvalues ---    0.13793   0.13816   0.13862   0.13942   0.13966
     Eigenvalues ---    0.14037   0.14060   0.14118   0.14176   0.14235
     Eigenvalues ---    0.14395   0.15993   0.16000   0.16000   0.16000
     Eigenvalues ---    0.16000   0.16001   0.21710   0.22007   0.22012
     Eigenvalues ---    0.22015   0.22020   0.22027   0.22041   0.22064
     Eigenvalues ---    0.22065   0.22068   0.22099   0.23277   0.24103
     Eigenvalues ---    0.24134   0.24158   0.24251   0.24322   0.24472
     Eigenvalues ---    0.24610   0.25000   0.25000   0.25000   0.25000
     Eigenvalues ---    0.28963   0.29642   0.29880   0.29975   0.30086
     Eigenvalues ---    0.30161   0.30262   0.31332   0.33520   0.33550
     Eigenvalues ---    0.33612   0.33642   0.33687   0.33767   0.33845
     Eigenvalues ---    0.33911   0.34016   0.34240   0.34254   0.34297
     Eigenvalues ---    0.34307   0.34331   0.34358   0.34367   0.34380
     Eigenvalues ---    0.34389   0.34401   0.34416   0.34419   0.34422
     Eigenvalues ---    0.34423   0.34432   0.34449   0.34463   0.34508
     Eigenvalues ---    0.34629   0.34689   0.41305   0.42803   0.43589
     Eigenvalues ---    0.43954   0.44006   0.44266   0.59238
 Maximum Force            0.020694     0.000015     NO 
 RMS     Force            0.003372     0.000010     NO 
 Maximum Displacement     2.349351     0.000060     NO 
 RMS     Displacement     0.596454     0.000040     NO 
                          Input orientation:                          
 ---------------------------------------------------------------------
 Center     Atomic      Atomic             Coordinates (Angstroms)
 Number     Number       Type             X           Y           Z
 ---------------------------------------------------------------------
      1          6           0        1.068967    4.049306   -0.040425
      2          1           0        1.928728    4.710599   -0.055082
      3          1           0        0.253650    4.557965   -0.544930
      4          1           0        0.778589    3.887534    0.991361
      5          6           0        1.352671    2.721748   -0.725784
      6          1           0        0.466673    2.105579   -0.715255
      7          1           0        1.641513    2.877397   -1.762356
      8          8           0        2.342356    1.959856   -0.075896
      9          6           0        3.648165    2.429256   -0.207301
     10          1           0        3.821756    3.274053    0.454597
     11          1           0        3.830221    2.755153   -1.227462
     12          6           0        4.630180    1.332049    0.132427
     13          1           0        5.623434    1.771969    0.209167
     14          1           0        4.382130    0.898530    1.097017
     15          8           0        4.611430    0.365862   -0.877238
     16          6           0        5.494476   -0.707316   -0.702861
     17          1           0        6.446599   -0.324232   -0.338962
     18          1           0        5.650171   -1.120883   -1.689934
     19          6           0        5.057663   -1.846634    0.207587
     20          1           0        4.765193   -1.483463    1.188025
     21          1           0        5.926986   -2.483646    0.340970
     22          8           0        4.044745   -2.646222   -0.336579
     23          6           0        2.722419   -2.573967    0.130461
     24          1           0        2.723062   -2.322869    1.186376
     25          1           0        2.323804   -3.574698    0.032953
     26          6           0        1.840611   -1.607710   -0.648142
     27          1           0        1.763940   -1.940574   -1.675569
     28          1           0        2.247154   -0.609352   -0.661666
     29         16           0        0.135017   -1.586589   -0.009260
     30          6           0        0.261101   -0.496896    1.446396
     31          1           0        0.791489   -1.017749    2.234831
     32          1           0        0.830046    0.379536    1.173756
     33          6           0       -1.109165   -0.100661    2.001917
     34          1           0       -0.954045    0.358578    2.970471
     35          1           0       -1.723261   -0.975953    2.169223
     36         16           0       -2.061961    1.128063    1.046902
     37          6           0       -3.121455    0.135326   -0.057341
     38          1           0       -2.524965   -0.596619   -0.578482
     39          1           0       -3.473302    0.844711   -0.795056
     40          6           0       -4.300530   -0.520131    0.656889
     41          1           0       -3.950073   -1.240204    1.384887
     42          1           0       -4.876746    0.216419    1.198501
     43         16           0       -5.389423   -1.478071   -0.445196
     44          6           0       -6.301097   -0.192226   -1.359877
     45          1           0       -5.597740    0.474054   -1.842994
     46          1           0       -6.804594   -0.735021   -2.150803
     47          6           0       -7.316999    0.589894   -0.534680
     48          1           0       -6.845190    1.148868    0.264985
     49          1           0       -7.841535    1.301979   -1.165095
     50          1           0       -8.047857   -0.074600   -0.089471
 ---------------------------------------------------------------------
 Stoichiometry    C14H30O3S3
 Framework group  C1[X(C14H30O3S3)]
                         Standard orientation:                         
 ---------------------------------------------------------------------
 Center     Atomic      Atomic             Coordinates (Angstroms)
 Number     Number       Type             X           Y           Z
 ---------------------------------------------------------------------
      1          6           0        1.147616    4.036424   -0.090908
      2          1           0        2.018398    4.683012   -0.110283
      3          1           0        0.341822    4.553853   -0.601756
      4          1           0        0.852812    3.889441    0.941835
      5          6           0        1.410118    2.697786   -0.763035
      6          1           0        0.513868    2.096716   -0.748267
      7          1           0        1.703290    2.838629   -1.800508
      8          8           0        2.385750    1.925636   -0.104070
      9          6           0        3.699487    2.371755   -0.237529
     10          1           0        3.886139    3.219817    0.416594
     11          1           0        3.888725    2.684765   -1.260415
     12          6           0        4.662339    1.261512    0.114477
     13          1           0        5.662718    1.685400    0.188856
     14          1           0        4.405402    0.841477    1.082701
     15          8           0        4.629055    0.286151   -0.885952
     16          6           0        5.493634   -0.799989   -0.699701
     17          1           0        6.451447   -0.429485   -0.337711
     18          1           0        5.644025   -1.225546   -1.682491
     19          6           0        5.036185   -1.923038    0.220771
     20          1           0        4.748204   -1.545634    1.197153
     21          1           0        5.894447   -2.573256    0.361840
     22          8           0        4.010889   -2.710673   -0.317615
     23          6           0        2.689176   -2.611747    0.146262
     24          1           0        2.692253   -2.350596    1.199731
     25          1           0        2.273956   -3.606529    0.057573
     26          6           0        1.825060   -1.638315   -0.643162
     27          1           0        1.744542   -1.979667   -1.667506
     28          1           0        2.248354   -0.647102   -0.665463
     29         16           0        0.118982   -1.582430   -0.007675
     30          6           0        0.260906   -0.481120    1.437744
     31          1           0        0.781126   -1.003234    2.232097
     32          1           0        0.844969    0.382981    1.157805
     33          6           0       -1.103443   -0.056622    1.986916
     34          1           0       -0.942263    0.409201    2.951328
     35          1           0       -1.732451   -0.919833    2.161432
     36         16           0       -2.033825    1.178732    1.018450
     37          6           0       -3.107990    0.193403   -0.078227
     38          1           0       -2.523010   -0.553415   -0.591251
     39          1           0       -3.446611    0.901501   -0.823333
     40          6           0       -4.299127   -0.435287    0.640039
     41          1           0       -3.962061   -1.154141    1.375527
     42          1           0       -4.863794    0.315991    1.173526
     43         16           0       -5.402106   -1.385311   -0.454867
     44          6           0       -6.290481   -0.093151   -1.383470
     45          1           0       -5.575203    0.556564   -1.871621
     46          1           0       -6.801693   -0.634961   -2.170110
     47          6           0       -7.294483    0.713789   -0.567662
     48          1           0       -6.814697    1.272391    0.227504
     49          1           0       -7.805904    1.428515   -1.205816
     50          1           0       -8.037165    0.065959   -0.117485
 ---------------------------------------------------------------------
 Standard basis: 6-31G(d) (6D, 7F)
   372 basis functions,   752 primitive gaussians,   372 cartesian basis functions
    93 alpha electrons       93 beta electrons
 Requested convergence on RMS density matrix=1.00D-08 within  64 cycles.
 Requested convergence on MAX density matrix=1.00D-06.
 Requested convergence on             energy=1.00D-06.
 SCF Done:  E(RHF) =  -1964.68678296     A.U. after   12 cycles
            NFock= 12  Conv=0.99D-08     -V/T= 2.0006
 Step number   3 out of a maximum of   55
     Eigenvalues ---    0.00222   0.00230   0.00230   0.00230   0.00230
     Eigenvalues ---    0.00271   0.00402   0.00446   0.00454   0.00466
     Eigenvalues ---    0.00475   0.00487   0.00638   0.01391   0.01445
     Eigenvalues ---    0.01521   0.01571   0.01585   0.01996   0.04108
     Eigenvalues ---    0.04326   0.04404   0.04457   0.04490   0.04662
     Eigenvalues ---    0.04682   0.04691   0.04791   0.05162   0.05318
     Eigenvalues ---    0.05509   0.05509   0.05587   0.05637   0.05651
     Eigenvalues ---    0.05656   0.05670   0.05738   0.05756   0.05773
     Eigenvalues ---    0.05778   0.05867   0.05884   0.06029   0.06165
     Eigenvalues ---    0.06171   0.06548   0.11252   0.11268   0.11297
     Eigenvalues ---    0.11378   0.11623   0.11638   0.11786   0.11805
     Eigenvalues ---    0.11865   0.11904   0.11928   0.12191   0.13797
     Eigenvalues ---    0.13803   0.13822   0.13897   0.13946   0.13976
     Eigenvalues ---    0.14042   0.14072   0.14129   0.14181   0.14244
     Eigenvalues ---    0.14376   0.15995   0.16000   0.16000   0.16000
     Eigenvalues ---    0.16000   0.16008   0.21857   0.22012   0.22016
     Eigenvalues ---    0.22020   0.22031   0.22032   0.22062   0.22069
     Eigenvalues ---    0.22075   0.22108   0.22240   0.23960   0.24123
     Eigenvalues ---    0.24155   0.24230   0.24309   0.24437   0.24580
     Eigenvalues ---    0.24888   0.25000   0.25000   0.25000   0.25710
     Eigenvalues ---    0.29629   0.29882   0.29961   0.30042   0.30100
     Eigenvalues ---    0.30255   0.31319   0.33449   0.33535   0.33565
     Eigenvalues ---    0.33612   0.33646   0.33695   0.33806   0.33846
     Eigenvalues ---    0.34006   0.34231   0.34250   0.34289   0.34306
     Eigenvalues ---    0.34331   0.34342   0.34360   0.34375   0.34385
     Eigenvalues ---    0.34393   0.34402   0.34417   0.34420   0.34423
     Eigenvalues ---    0.34425   0.34449   0.34463   0.34508   0.34626
     Eigenvalues ---    0.34688   0.35491   0.41542   0.42899   0.43533
     Eigenvalues ---    0.43945   0.44094   0.44299   0.67034
 Maximum Force            0.006634     0.000015     NO 
 RMS     Force            0.001135     0.000010     NO 
 Maximum Displacement     1.221560     0.000060     NO 
 RMS     Displacement     0.360970     0.000040     NO 
                          Input orientation:                          
 ---------------------------------------------------------------------
 Center     Atomic      Atomic             Coordinates (Angstroms)
 Number     Number       Type             X           Y           Z
 ---------------------------------------------------------------------
      1          6           0        1.496754    4.398598   -0.506954
      2          1           0        2.402338    4.985692   -0.379299
      3          1           0        0.819661    4.969877   -1.137580
      4          1           0        1.029390    4.272644    0.465539
      5          6           0        1.775205    3.043415   -1.140503
      6          1           0        0.844900    2.509201   -1.288168
      7          1           0        2.249062    3.165138   -2.114692
      8          8           0        2.567860    2.202018   -0.335171
      9          6           0        3.920354    2.542248   -0.243185
     10          1           0        4.069414    3.370872    0.449623
     11          1           0        4.309526    2.840249   -1.216270
     12          6           0        4.705861    1.349916    0.248101
     13          1           0        5.720996    1.674709    0.486293
     14          1           0        4.254958    0.963784    1.161502
     15          8           0        4.739223    0.382259   -0.761154
     16          6           0        5.570491   -0.719486   -0.519598
     17          1           0        6.501132   -0.395537   -0.048969
     18          1           0        5.815515   -1.141135   -1.488166
     19          6           0        4.956635   -1.814834    0.334428
     20          1           0        4.552365   -1.420976    1.266298
     21          1           0        5.762841   -2.498429    0.593445
     22          8           0        3.996915   -2.558564   -0.358425
     23          6           0        2.664834   -2.507440    0.075644
     24          1           0        2.622863   -2.379816    1.156338
     25          1           0        2.233668   -3.475046   -0.155003
     26          6           0        1.869298   -1.414987   -0.629191
     27          1           0        1.899749   -1.584622   -1.700197
     28          1           0        2.278273   -0.429588   -0.442511
     29         16           0        0.104871   -1.455030   -0.189488
     30          6           0        0.119003   -0.702352    1.469928
     31          1           0        0.665209   -1.349649    2.149848
     32          1           0        0.631727    0.251146    1.423540
     33          6           0       -1.291015   -0.529678    2.035285
     34          1           0       -1.196657   -0.287844    3.088887
     35          1           0       -1.847403   -1.459492    1.980709
     36         16           0       -2.287780    0.827153    1.335249
     37          6           0       -3.327734    0.015223    0.076666
     38          1           0       -2.718082   -0.612393   -0.559044
     39          1           0       -3.689859    0.835646   -0.533770
     40          6           0       -4.497828   -0.766821    0.667068
     41          1           0       -4.137449   -1.594938    1.267661
     42          1           0       -5.088344   -0.137026    1.322035
     43         16           0       -5.566435   -1.545905   -0.584610
     44          6           0       -6.505929   -0.135127   -1.252051
     45          1           0       -5.818514    0.633630   -1.589732
     46          1           0       -6.984749   -0.533577   -2.140925
     47          6           0       -7.554715    0.444697   -0.309443
     48          1           0       -7.107049    0.859671    0.588856
     49          1           0       -8.098236    1.246672   -0.804670
     50          1           0       -8.268111   -0.316168   -0.008175
 ---------------------------------------------------------------------
 Stoichiometry    C14H30O3S3
 Framework group  C1[X(C14H30O3S3)]
                         Standard orientation:                         
 ---------------------------------------------------------------------
 Center     Atomic      Atomic             Coordinates (Angstroms)
 Number     Number       Type             X           Y           Z
 ---------------------------------------------------------------------
      1          6           0        1.804456    4.334664   -0.151790
      2          1           0        2.742396    4.852896    0.029215
      3          1           0        1.171972    4.994013   -0.741472
      4          1           0        1.317332    4.162703    0.803812
      5          6           0        2.008119    3.018171   -0.887186
      6          1           0        1.049001    2.555643   -1.084205
      7          1           0        2.501488    3.185652   -1.844755
      8          8           0        2.737123    2.069315   -0.143522
      9          6           0        4.106509    2.317017   -0.013602
     10          1           0        4.296597    3.078494    0.743260
     11          1           0        4.526102    2.665060   -0.956980
     12          6           0        4.811156    1.043802    0.389432
     13          1           0        5.840949    1.285662    0.661011
     14          1           0        4.325371    0.616521    1.265878
     15          8           0        4.798875    0.157275   -0.692227
     16          6           0        5.558056   -1.009232   -0.530656
     17          1           0        6.500365   -0.781042   -0.028152
     18          1           0        5.789803   -1.368711   -1.527158
     19          6           0        4.867147   -2.127524    0.229629
     20          1           0        4.475260   -1.782993    1.186009
     21          1           0        5.626601   -2.877754    0.441161
     22          8           0        3.873165   -2.754356   -0.527552
     23          6           0        2.541010   -2.654772   -0.102212
     24          1           0        2.492478   -2.609142    0.984762
     25          1           0        2.054715   -3.572992   -0.411653
     26          6           0        1.823111   -1.463732   -0.726043
     27          1           0        1.857451   -1.551206   -1.806749
     28          1           0        2.288931   -0.523018   -0.459228
     29         16           0        0.053815   -1.428545   -0.305926
     30          6           0        0.091694   -0.809384    1.407431
     31          1           0        0.588251   -1.540105    2.039177
     32          1           0        0.662227    0.111273    1.440290
     33          6           0       -1.312581   -0.594227    1.972509
     34          1           0       -1.217718   -0.441283    3.042590
     35          1           0       -1.923899   -1.480772    1.840484
     36         16           0       -2.215245    0.871965    1.372461
     37          6           0       -3.285912    0.226187    0.045280
     38          1           0       -2.707265   -0.386665   -0.632424
     39          1           0       -3.589109    1.112388   -0.502059
     40          6           0       -4.509332   -0.525447    0.562560
     41          1           0       -4.208216   -1.418431    1.099469
     42          1           0       -5.069005    0.086893    1.259796
     43         16           0       -5.606683   -1.137305   -0.755409
     44          6           0       -6.449331    0.376492   -1.318246
     45          1           0       -5.711834    1.125141   -1.588758
     46          1           0       -6.939663    0.078700   -2.239671
     47          6           0       -7.473270    0.945121   -0.342097
     48          1           0       -7.013149    1.260550    0.589752
     49          1           0       -7.960174    1.815240   -0.777582
     50          1           0       -8.235731    0.208762   -0.107489
 ---------------------------------------------------------------------
 Standard basis: 6-31G(d) (6D, 7F)
   372 basis functions,   752 primitive gaussians,   372 cartesian basis functions
    93 alpha electrons       93 beta electrons
 Requested convergence on RMS density matrix=1.00D-08 within  64 cycles.
 Requested convergence on MAX density matrix=1.00D-06.
 Requested convergence on             energy=1.00D-06.
 SCF Done:  E(RHF) =  -1964.68730445     A.U. after   13 cycles
            NFock= 13  Conv=0.59D-08     -V/T= 2.0007
 Step number   4 out of a maximum of   55
     Eigenvalues ---    0.00215   0.00230   0.00230   0.00230   0.00231
     Eigenvalues ---    0.00268   0.00402   0.00446   0.00466   0.00476
     Eigenvalues ---    0.00485   0.00504   0.00642   0.01392   0.01450
     Eigenvalues ---    0.01531   0.01578   0.01586   0.02664   0.04118
     Eigenvalues ---    0.04322   0.04464   0.04492   0.04589   0.04660
     Eigenvalues ---    0.04746   0.04780   0.04900   0.05175   0.05344
     Eigenvalues ---    0.05501   0.05516   0.05620   0.05634   0.05650
     Eigenvalues ---    0.05655   0.05684   0.05742   0.05758   0.05769
     Eigenvalues ---    0.05808   0.05877   0.05920   0.06064   0.06187
     Eigenvalues ---    0.06195   0.06725   0.11040   0.11201   0.11218
     Eigenvalues ---    0.11381   0.11589   0.11626   0.11636   0.11682
     Eigenvalues ---    0.11766   0.11809   0.11875   0.11927   0.13730
     Eigenvalues ---    0.13763   0.13799   0.13867   0.13907   0.13968
     Eigenvalues ---    0.14018   0.14041   0.14061   0.14150   0.14236
     Eigenvalues ---    0.14672   0.15908   0.16000   0.16000   0.16000
     Eigenvalues ---    0.16001   0.16011   0.17753   0.22012   0.22017
     Eigenvalues ---    0.22019   0.22025   0.22039   0.22058   0.22061
     Eigenvalues ---    0.22069   0.22141   0.22482   0.22693   0.24120
     Eigenvalues ---    0.24154   0.24211   0.24300   0.24434   0.24591
     Eigenvalues ---    0.24856   0.25000   0.25000   0.25437   0.26758
     Eigenvalues ---    0.27822   0.29651   0.29896   0.29991   0.30153
     Eigenvalues ---    0.30288   0.30332   0.31386   0.33525   0.33553
     Eigenvalues ---    0.33612   0.33642   0.33690   0.33773   0.33852
     Eigenvalues ---    0.34006   0.34068   0.34243   0.34257   0.34302
     Eigenvalues ---    0.34308   0.34331   0.34359   0.34370   0.34383
     Eigenvalues ---    0.34390   0.34402   0.34417   0.34422   0.34424
     Eigenvalues ---    0.34427   0.34448   0.34461   0.34466   0.34510
     Eigenvalues ---    0.34681   0.34868   0.40996   0.43171   0.43531
     Eigenvalues ---    0.43956   0.44255   0.44825   0.67195
 Maximum Force            0.008502     0.000015     NO 
 RMS     Force            0.001476     0.000010     NO 
 Maximum Displacement     1.070275     0.000060     NO 
 RMS     Displacement     0.278350     0.000040     NO 
                          Input orientation:                          
 ---------------------------------------------------------------------
 Center     Atomic      Atomic             Coordinates (Angstroms)
 Number     Number       Type             X           Y           Z
 ---------------------------------------------------------------------
      1          6           0        1.270109    4.266350   -0.129777
      2          1           0        2.158021    4.885959   -0.149359
      3          1           0        0.483175    4.803782   -0.645600
      4          1           0        0.970452    4.133316    0.901939
      5          6           0        1.495884    2.915701   -0.795495
      6          1           0        0.576762    2.352280   -0.794496
      7          1           0        1.800371    3.047736   -1.828446
      8          8           0        2.433624    2.116353   -0.127231
      9          6           0        3.770580    2.481234   -0.251607
     10          1           0        4.005839    3.316696    0.399582
     11          1           0        4.001205    2.771252   -1.270550
     12          6           0        4.646652    1.310894    0.129386
     13          1           0        5.672233    1.661178    0.217962
     14          1           0        4.340852    0.928395    1.095989
     15          8           0        4.565421    0.335798   -0.861799
     16          6           0        5.431907   -0.748345   -0.731993
     17          1           0        6.401402   -0.415171   -0.368902
     18          1           0        5.573439   -1.163776   -1.718263
     19          6           0        4.930104   -1.849235    0.184299
     20          1           0        4.614103   -1.460449    1.146302
     21          1           0        5.771369   -2.507564    0.365631
     22          8           0        3.937371   -2.625008   -0.407536
     23          6           0        2.649029   -2.601614    0.126759
     24          1           0        2.678468   -2.427989    1.196982
     25          1           0        2.238387   -3.586950   -0.029878
     26          6           0        1.763780   -1.573781   -0.570798
     27          1           0        1.683117   -1.827570   -1.617693
     28          1           0        2.169292   -0.577087   -0.510106
     29         16           0        0.056946   -1.588791    0.051381
     30          6           0        0.185311   -0.525208    1.520421
     31          1           0        0.728130   -1.051335    2.293989
     32          1           0        0.737482    0.366770    1.268140
     33          6           0       -1.186912   -0.162255    2.090594
     34          1           0       -1.029443    0.278522    3.064690
     35          1           0       -1.785801   -1.047934    2.245148
     36         16           0       -2.143127    1.083227    1.169802
     37          6           0       -3.144732    0.117862   -0.005257
     38          1           0       -2.516225   -0.559524   -0.558165
     39          1           0       -3.512316    0.857341   -0.701054
     40          6           0       -4.307920   -0.623275    0.651267
     41          1           0       -3.939994   -1.371350    1.338105
     42          1           0       -4.918529    0.057294    1.223490
     43         16           0       -5.339542   -1.556797   -0.519739
     44          6           0       -6.279081   -0.257645   -1.378569
     45          1           0       -5.596829    0.453009   -1.822421
     46          1           0       -6.759297   -0.778204   -2.195372
     47          6           0       -7.327953    0.453023   -0.527378
     48          1           0       -6.880858    0.992819    0.297008
     49          1           0       -7.868263    1.171215   -1.134113
     50          1           0       -8.038994   -0.253153   -0.121269
 ---------------------------------------------------------------------
 Stoichiometry    C14H30O3S3
 Framework group  C1[X(C14H30O3S3)]
                         Standard orientation:                         
 ---------------------------------------------------------------------
 Center     Atomic      Atomic             Coordinates (Angstroms)
 Number     Number       Type             X           Y           Z
 ---------------------------------------------------------------------
      1          6           0        1.469056    4.220971   -0.129593
      2          1           0        2.381907    4.803400   -0.142446
      3          1           0        0.707989    4.791758   -0.648389
      4          1           0        1.158208    4.097849    0.900040
      5          6           0        1.642677    2.863818   -0.797724
      6          1           0        0.701072    2.338864   -0.803477
      7          1           0        1.958317    2.985745   -1.828568
      8          8           0        2.542718    2.024723   -0.126355
      9          6           0        3.894303    2.334348   -0.242155
     10          1           0        4.160115    3.157738    0.412646
     11          1           0        4.142592    2.617140   -1.258975
     12          6           0        4.719061    1.127849    0.140583
     13          1           0        5.757710    1.435224    0.235927
     14          1           0        4.392145    0.755894    1.104385
     15          8           0        4.603337    0.159432   -0.853718
     16          6           0        5.423530   -0.959919   -0.721981
     17          1           0        6.403849   -0.668010   -0.352491
     18          1           0        5.553468   -1.378371   -1.708569
     19          6           0        4.871391   -2.041423    0.188431
     20          1           0        4.566174   -1.642322    1.149691
     21          1           0        5.683679   -2.734411    0.372718
     22          8           0        3.850888   -2.774018   -0.411144
     23          6           0        2.561550   -2.698737    0.115907
     24          1           0        2.591958   -2.529160    1.186751
     25          1           0        2.111461   -3.665864   -0.045756
     26          6           0        1.723563   -1.633450   -0.583831
     27          1           0        1.638529   -1.881063   -1.631858
     28          1           0        2.169549   -0.654522   -0.518109
     29         16           0        0.014003   -1.579465    0.028627
     30          6           0        0.177716   -0.525782    1.501282
     31          1           0        0.693861   -1.075831    2.276466
     32          1           0        0.767714    0.343244    1.254581
     33          6           0       -1.181608   -0.107856    2.064667
     34          1           0       -1.011690    0.323593    3.040845
     35          1           0       -1.817459   -0.968411    2.213396
     36         16           0       -2.080219    1.178386    1.141894
     37          6           0       -3.114052    0.258191   -0.041464
     38          1           0       -2.510886   -0.443204   -0.592658
     39          1           0       -3.446748    1.013972   -0.737301
     40          6           0       -4.310638   -0.435883    0.606426
     41          1           0       -3.977903   -1.200244    1.293282
     42          1           0       -4.895901    0.267903    1.177046
     43         16           0       -5.373169   -1.323033   -0.572962
     44          6           0       -6.253259    0.015988   -1.433533
     45          1           0       -5.539679    0.698949   -1.871562
     46          1           0       -6.749848   -0.482229   -2.254468
     47          6           0       -7.276771    0.767262   -0.586350
     48          1           0       -6.812523    1.286050    0.242033
     49          1           0       -7.783437    1.508690   -1.194164
     50          1           0       -8.018712    0.090061   -0.186214
 ---------------------------------------------------------------------
 Standard basis: 6-31G(d) (6D, 7F)
   372 basis functions,   752 primitive gaussians,   372 cartesian basis functions
    93 alpha electrons       93 beta electrons
 Requested convergence on RMS density matrix=1.00D-08 within  64 cycles.
 Requested convergence on MAX density matrix=1.00D-06.
 Requested convergence on             energy=1.00D-06.
 SCF Done:  E(RHF) =  -1964.68787909     A.U. after   13 cycles
            NFock= 13  Conv=0.44D-08     -V/T= 2.0005
 Step number   5 out of a maximum of   55
     Eigenvalues ---    0.00217   0.00228   0.00230   0.00230   0.00234
     Eigenvalues ---    0.00340   0.00400   0.00446   0.00461   0.00466
     Eigenvalues ---    0.00487   0.00535   0.00648   0.01405   0.01448
     Eigenvalues ---    0.01531   0.01585   0.01593   0.02394   0.03975
     Eigenvalues ---    0.04321   0.04462   0.04490   0.04597   0.04711
     Eigenvalues ---    0.04767   0.04781   0.04892   0.05285   0.05439
     Eigenvalues ---    0.05505   0.05515   0.05625   0.05650   0.05668
     Eigenvalues ---    0.05684   0.05712   0.05753   0.05780   0.05785
     Eigenvalues ---    0.05883   0.05909   0.05939   0.06080   0.06196
     Eigenvalues ---    0.06220   0.07805   0.11194   0.11210   0.11237
     Eigenvalues ---    0.11493   0.11586   0.11629   0.11636   0.11688
     Eigenvalues ---    0.11771   0.11828   0.11853   0.11956   0.13750
     Eigenvalues ---    0.13772   0.13812   0.13916   0.13918   0.13970
     Eigenvalues ---    0.13998   0.14050   0.14069   0.14171   0.14190
     Eigenvalues ---    0.15049   0.15947   0.16000   0.16000   0.16001
     Eigenvalues ---    0.16003   0.16014   0.18472   0.22018   0.22024
     Eigenvalues ---    0.22027   0.22030   0.22039   0.22056   0.22064
     Eigenvalues ---    0.22078   0.22319   0.22519   0.23373   0.24119
     Eigenvalues ---    0.24154   0.24221   0.24299   0.24418   0.24589
     Eigenvalues ---    0.24879   0.25000   0.25294   0.25698   0.26338
     Eigenvalues ---    0.29327   0.29893   0.29963   0.30105   0.30144
     Eigenvalues ---    0.30268   0.31303   0.33524   0.33552   0.33612
     Eigenvalues ---    0.33640   0.33680   0.33770   0.33814   0.33937
     Eigenvalues ---    0.34012   0.34199   0.34247   0.34287   0.34306
     Eigenvalues ---    0.34321   0.34353   0.34359   0.34370   0.34388
     Eigenvalues ---    0.34398   0.34409   0.34418   0.34423   0.34425
     Eigenvalues ---    0.34446   0.34452   0.34462   0.34510   0.34612
     Eigenvalues ---    0.34759   0.37351   0.41913   0.43481   0.43532
     Eigenvalues ---    0.43978   0.44236   0.46292   0.68230
 Maximum Force            0.005344     0.000015     NO 
 RMS     Force            0.001203     0.000010     NO 
 Maximum Displacement     0.789458     0.000060     NO 
 RMS     Displacement     0.227878     0.000040     NO 
                          Input orientation:                          
 ---------------------------------------------------------------------
 Center     Atomic      Atomic             Coordinates (Angstroms)
 Number     Number       Type             X           Y           Z
 ---------------------------------------------------------------------
      1          6           0        1.431262    4.266765   -0.119698
      2          1           0        2.316894    4.892670   -0.125091
      3          1           0        0.649595    4.797274   -0.653219
      4          1           0        1.112455    4.135008    0.907815
      5          6           0        1.679575    2.914842   -0.774923
      6          1           0        0.761759    2.345889   -0.796799
      7          1           0        2.013021    3.045404   -1.801288
      8          8           0        2.601502    2.121006   -0.077084
      9          6           0        3.941950    2.489310   -0.170177
     10          1           0        4.158687    3.331558    0.482242
     11          1           0        4.197575    2.773230   -1.186832
     12          6           0        4.805181    1.319914    0.243401
     13          1           0        5.831899    1.662248    0.364738
     14          1           0        4.462141    0.948200    1.204230
     15          8           0        4.743130    0.334597   -0.741195
     16          6           0        5.589039   -0.762151   -0.567699
     17          1           0        6.542667   -0.443444   -0.148687
     18          1           0        5.777773   -1.175489   -1.548516
     19          6           0        5.005392   -1.856196    0.310068
     20          1           0        4.606868   -1.441788    1.230862
     21          1           0        5.814908   -2.526867    0.583596
     22          8           0        4.042806   -2.611407   -0.361604
     23          6           0        2.715149   -2.557079    0.073331
     24          1           0        2.669505   -2.360782    1.140501
     25          1           0        2.290388   -3.536985   -0.093778
     26          6           0        1.912227   -1.522111   -0.709319
     27          1           0        1.934527   -1.781409   -1.759361
     28          1           0        2.328306   -0.531204   -0.613755
     29         16           0        0.154133   -1.490402   -0.249221
     30          6           0        0.180187   -0.413342    1.216729
     31          1           0        0.757684   -0.892547    1.998295
     32          1           0        0.664600    0.519031    0.963037
     33          6           0       -1.220830   -0.150391    1.774351
     34          1           0       -1.102736    0.290617    2.755829
     35          1           0       -1.762414   -1.076195    1.915819
     36         16           0       -2.249459    1.044335    0.862152
     37          6           0       -3.372494    0.022364   -0.144746
     38          1           0       -2.811009   -0.716250   -0.693881
     39          1           0       -3.781232    0.718537   -0.864758
     40          6           0       -4.494147   -0.627505    0.663025
     41          1           0       -4.087650   -1.332954    1.375168
     42          1           0       -5.036551    0.115912    1.229122
     43         16           0       -5.646261   -1.614237   -0.341167
     44          6           0       -6.631718   -0.352192   -1.205192
     45          1           0       -5.974721    0.321876   -1.739093
     46          1           0       -7.177060   -0.912104   -1.954362
     47          6           0       -7.607188    0.423136   -0.323836
     48          1           0       -7.093564    1.006764    0.430744
     49          1           0       -8.186563    1.111184   -0.931837
     50          1           0       -8.292191   -0.248639    0.178064
 ---------------------------------------------------------------------
 Stoichiometry    C14H30O3S3
 Framework group  C1[X(C14H30O3S3)]
                         Standard orientation:                         
 ---------------------------------------------------------------------
 Center     Atomic      Atomic             Coordinates (Angstroms)
 Number     Number       Type             X           Y           Z
 ---------------------------------------------------------------------
      1          6           0        1.678013    4.196283   -0.142141
      2          1           0        2.594428    4.776174   -0.148552
      3          1           0        0.927005    4.760894   -0.684625
      4          1           0        1.347940    4.090598    0.884827
      5          6           0        1.860223    2.827370   -0.783663
      6          1           0        0.914702    2.305738   -0.805210
      7          1           0        2.204849    2.931126   -1.809394
      8          8           0        2.737084    1.994183   -0.073721
      9          6           0        4.095004    2.292822   -0.163061
     10          1           0        4.351255    3.129024    0.482777
     11          1           0        4.369686    2.553787   -1.180898
     12          6           0        4.895467    1.084900    0.265755
     13          1           0        5.937710    1.375602    0.389404
     14          1           0        4.529279    0.740188    1.228106
     15          8           0        4.788008    0.094819   -0.710115
     16          6           0        5.576037   -1.041926   -0.522123
     17          1           0        6.542642   -0.768299   -0.100987
     18          1           0        5.748184   -1.473537   -1.498109
     19          6           0        4.933121   -2.096520    0.362492
     20          1           0        4.551804   -1.653714    1.277335
     21          1           0        5.706051   -2.804966    0.646425
     22          8           0        3.936532   -2.807982   -0.307350
     23          6           0        2.611287   -2.681997    0.120021
     24          1           0        2.570556   -2.473615    1.185096
     25          1           0        2.137918   -3.640515   -0.040382
     26          6           0        1.865981   -1.614862   -0.676299
     27          1           0        1.880103   -1.884811   -1.723796
     28          1           0        2.331585   -0.645588   -0.587585
     29         16           0        0.109589   -1.489299   -0.225843
     30          6           0        0.183451   -0.401243    1.230325
     31          1           0        0.731976   -0.901887    2.019289
     32          1           0        0.716002    0.502814    0.970700
     33          6           0       -1.205012   -0.062026    1.778081
     34          1           0       -1.069325    0.381592    2.756103
     35          1           0       -1.793781   -0.957664    1.925126
     36         16           0       -2.166954    1.174936    0.849563
     37          6           0       -3.335767    0.202098   -0.153902
     38          1           0       -2.810032   -0.569290   -0.693280
     39          1           0       -3.704986    0.911399   -0.882400
     40          6           0       -4.492992   -0.382162    0.653810
     41          1           0       -4.126446   -1.100686    1.374514
     42          1           0       -4.999508    0.393209    1.210208
     43         16           0       -5.689061   -1.318302   -0.347424
     44          6           0       -6.604689   -0.015859   -1.228157
     45          1           0       -5.911598    0.618815   -1.764700
     46          1           0       -7.174248   -0.554271   -1.975064
     47          6           0       -7.543597    0.816407   -0.359107
     48          1           0       -7.004531    1.380170    0.392825
     49          1           0       -8.084185    1.527339   -0.976432
     50          1           0       -8.264385    0.185150    0.145267
 ---------------------------------------------------------------------
 Standard basis: 6-31G(d) (6D, 7F)
   372 basis functions,   752 primitive gaussians,   372 cartesian basis functions
    93 alpha electrons       93 beta electrons
 Requested convergence on RMS density matrix=1.00D-08 within  64 cycles.
 Requested convergence on MAX density matrix=1.00D-06.
 Requested convergence on             energy=1.00D-06.
 SCF Done:  E(RHF) =  -1964.68821606     A.U. after   13 cycles
            NFock= 13  Conv=0.31D-08     -V/T= 2.0006
 Step number   6 out of a maximum of   55
     Eigenvalues ---    0.00222   0.00230   0.00230   0.00235   0.00315
     Eigenvalues ---    0.00376   0.00440   0.00446   0.00464   0.00479
     Eigenvalues ---    0.00552   0.00650   0.00723   0.00969   0.01446
     Eigenvalues ---    0.01539   0.01585   0.01652   0.02463   0.04319
     Eigenvalues ---    0.04429   0.04463   0.04492   0.04643   0.04781
     Eigenvalues ---    0.04819   0.04877   0.05102   0.05355   0.05492
     Eigenvalues ---    0.05523   0.05569   0.05642   0.05655   0.05669
     Eigenvalues ---    0.05706   0.05715   0.05747   0.05762   0.05787
     Eigenvalues ---    0.05888   0.05907   0.05952   0.06056   0.06190
     Eigenvalues ---    0.06233   0.07886   0.11179   0.11211   0.11273
     Eigenvalues ---    0.11404   0.11617   0.11624   0.11635   0.11657
     Eigenvalues ---    0.11770   0.11820   0.11904   0.11955   0.13672
     Eigenvalues ---    0.13742   0.13810   0.13902   0.13924   0.13968
     Eigenvalues ---    0.13985   0.14046   0.14080   0.14154   0.14180
     Eigenvalues ---    0.15249   0.15949   0.16000   0.16000   0.16001
     Eigenvalues ---    0.16007   0.16013   0.18725   0.22018   0.22025
     Eigenvalues ---    0.22027   0.22032   0.22043   0.22059   0.22065
     Eigenvalues ---    0.22291   0.22460   0.23038   0.23702   0.24120
     Eigenvalues ---    0.24155   0.24232   0.24306   0.24428   0.24590
     Eigenvalues ---    0.24884   0.25243   0.25315   0.26650   0.28964
     Eigenvalues ---    0.29327   0.29958   0.30064   0.30140   0.30252
     Eigenvalues ---    0.30980   0.32394   0.33269   0.33529   0.33591
     Eigenvalues ---    0.33624   0.33669   0.33694   0.33769   0.33863
     Eigenvalues ---    0.34016   0.34138   0.34246   0.34272   0.34305
     Eigenvalues ---    0.34311   0.34343   0.34359   0.34370   0.34388
     Eigenvalues ---    0.34396   0.34407   0.34418   0.34423   0.34425
     Eigenvalues ---    0.34447   0.34455   0.34471   0.34514   0.34677
     Eigenvalues ---    0.34838   0.36172   0.41473   0.43396   0.43558
     Eigenvalues ---    0.44015   0.44422   0.45336   0.67688
 Maximum Force            0.004542     0.000015     NO 
 RMS     Force            0.000962     0.000010     NO 
 Maximum Displacement     0.602731     0.000060     NO 
 RMS     Displacement     0.180337     0.000040     NO 
                          Input orientation:                          
 ---------------------------------------------------------------------
 Center     Atomic      Atomic             Coordinates (Angstroms)
 Number     Number       Type             X           Y           Z
 ---------------------------------------------------------------------
      1          6           0        1.232495    4.181434   -0.236947
      2          1           0        2.097138    4.836553   -0.250487
      3          1           0        0.434230    4.677476   -0.779613
      4          1           0        0.916101    4.054473    0.792266
      5          6           0        1.527492    2.828979   -0.871092
      6          1           0        0.629429    2.228349   -0.886338
      7          1           0        1.859659    2.954895   -1.898933
      8          8           0        2.474191    2.077326   -0.158601
      9          6           0        3.800849    2.493129   -0.256548
     10          1           0        3.984633    3.355173    0.380725
     11          1           0        4.044621    2.768939   -1.278754
     12          6           0        4.708476    1.364646    0.176788
     13          1           0        5.722325    1.747035    0.288812
     14          1           0        4.381344    0.998693    1.146025
     15          8           0        4.679563    0.357591   -0.787984
     16          6           0        5.558328   -0.710251   -0.589660
     17          1           0        6.501573   -0.351153   -0.179284
     18          1           0        5.757885   -1.135382   -1.563642
     19          6           0        5.011369   -1.808617    0.308134
     20          1           0        4.615435   -1.389304    1.227933
     21          1           0        5.837368   -2.460193    0.580829
     22          8           0        4.050011   -2.588632   -0.339929
     23          6           0        2.725839   -2.554500    0.112396
     24          1           0        2.694926   -2.355031    1.179641
     25          1           0        2.313994   -3.542179   -0.044488
     26          6           0        1.894228   -1.533094   -0.657073
     27          1           0        1.908372   -1.788006   -1.708765
     28          1           0        2.296599   -0.536363   -0.562705
     29         16           0        0.143212   -1.527119   -0.168075
     30          6           0        0.207040   -0.602274    1.397816
     31          1           0        0.764726   -1.176866    2.128272
     32          1           0        0.726522    0.331774    1.235519
     33          6           0       -1.185548   -0.342031    1.975859
     34          1           0       -1.062322   -0.001091    2.996297
     35          1           0       -1.760796   -1.257548    2.022357
     36         16           0       -2.162587    0.963900    1.164419
     37          6           0       -3.232863    0.074405   -0.011597
     38          1           0       -2.646416   -0.616584   -0.596969
     39          1           0       -3.584013    0.848017   -0.681847
     40          6           0       -4.413114   -0.631495    0.652565
     41          1           0       -4.062936   -1.412598    1.314570
     42          1           0       -4.981708    0.062080    1.255776
     43         16           0       -5.510307   -1.489017   -0.518688
     44          6           0       -6.431361   -0.127447   -1.299536
     45          1           0       -5.736773    0.595467   -1.708043
     46          1           0       -6.926049   -0.593153   -2.143025
     47          6           0       -7.461714    0.554159   -0.403563
     48          1           0       -6.998334    1.043103    0.445423
     49          1           0       -7.996803    1.313110   -0.966719
     50          1           0       -8.181328   -0.162775   -0.027515
 ---------------------------------------------------------------------
 Stoichiometry    C14H30O3S3
 Framework group  C1[X(C14H30O3S3)]
                         Standard orientation:                         
 ---------------------------------------------------------------------
 Center     Atomic      Atomic             Coordinates (Angstroms)
 Number     Number       Type             X           Y           Z
 ---------------------------------------------------------------------
      1          6           0        1.397509    4.150626   -0.124772
      2          1           0        2.284357    4.775462   -0.117572
      3          1           0        0.619425    4.688326   -0.656973
      4          1           0        1.072115    4.007422    0.899491
      5          6           0        1.648483    2.806073   -0.793718
      6          1           0        0.730255    2.237600   -0.828364
      7          1           0        1.989597    2.947649   -1.816578
      8          8           0        2.565272    2.003342   -0.098029
      9          6           0        3.905967    2.375294   -0.179870
     10          1           0        4.116497    3.213201    0.480890
     11          1           0        4.163901    2.669539   -1.193424
     12          6           0        4.771970    1.204867    0.226553
     13          1           0        5.797911    1.548717    0.352543
     14          1           0        4.427854    0.824866    1.184436
     15          8           0        4.712726    0.225414   -0.764883
     16          6           0        5.553079   -0.877184   -0.591874
     17          1           0        6.506261   -0.562078   -0.168527
     18          1           0        5.742345   -1.282955   -1.576114
     19          6           0        4.964259   -1.979368    0.274202
     20          1           0        4.578788   -1.571151    1.203389
     21          1           0        5.765937   -2.666241    0.532478
     22          8           0        3.979518   -2.708042   -0.398059
     23          6           0        2.655226   -2.639992    0.050061
     24          1           0        2.626258   -2.467999    1.122132
     25          1           0        2.210186   -3.608261   -0.134694
     26          6           0        1.863055   -1.570247   -0.694948
     27          1           0        1.873273   -1.797461   -1.753015
     28          1           0        2.299231   -0.590945   -0.572480
     29         16           0        0.111033   -1.516484   -0.212515
     30          6           0        0.199523   -0.636347    1.377753
     31          1           0        0.733579   -1.249160    2.094677
[...]
     18          1           0        5.936460   -1.129347   -1.417858
     19          6           0        4.965025   -1.760099    0.366829
     20          1           0        4.469016   -1.309537    1.221710
     21          1           0        5.734500   -2.426527    0.749433
     22          8           0        4.067814   -2.516827   -0.393802
     23          6           0        2.729415   -2.578457    0.014449
     24          1           0        2.657529   -2.484945    1.094316
     25          1           0        2.362708   -3.561615   -0.250589
     26          6           0        1.893446   -1.511463   -0.683538
     27          1           0        1.908179   -1.693647   -1.750756
     28          1           0        2.299892   -0.523930   -0.522223
     29         16           0        0.144342   -1.533096   -0.191100
     30          6           0        0.212635   -0.639323    1.393516
     31          1           0        0.762235   -1.233595    2.114942
     32          1           0        0.743429    0.292291    1.249083
     33          6           0       -1.180290   -0.374445    1.967933
     34          1           0       -1.063451   -0.054976    2.996313
     35          1           0       -1.768125   -1.283675    1.989278
     36         16           0       -2.133750    0.952641    1.159766
     37          6           0       -3.223212    0.069974   -0.004252
     38          1           0       -2.650127   -0.645583   -0.574812
     39          1           0       -3.555961    0.836564   -0.692550
     40          6           0       -4.419206   -0.596743    0.671953
     41          1           0       -4.086283   -1.367750    1.355350
     42          1           0       -4.976382    0.122623    1.256543
     43         16           0       -5.529951   -1.457401   -0.484826
     44          6           0       -6.433931   -0.090976   -1.278423
     45          1           0       -5.728565    0.623633   -1.684767
     46          1           0       -6.928102   -0.554068   -2.124277
     47          6           0       -7.461635    0.603426   -0.389693
     48          1           0       -6.997114    1.088106    0.461817
     49          1           0       -7.986050    1.367804   -0.956437
     50          1           0       -8.191092   -0.105447   -0.015763
 ---------------------------------------------------------------------
 Stoichiometry    C14H30O3S3
 Framework group  C1[X(C14H30O3S3)]
                         Standard orientation:                         
 ---------------------------------------------------------------------
 Center     Atomic      Atomic             Coordinates (Angstroms)
 Number     Number       Type             X           Y           Z
 ---------------------------------------------------------------------
      1          6           0        1.321677    4.057406   -0.099345
      2          1           0        2.180470    4.720628   -0.123417
      3          1           0        0.503227    4.558078   -0.607429
      4          1           0        1.035618    3.904881    0.935703
      5          6           0        1.608606    2.721425   -0.770783
      6          1           0        0.713712    2.115222   -0.777161
      7          1           0        1.915324    2.871929   -1.803932
      8          8           0        2.578625    1.960049   -0.097569
      9          6           0        3.900339    2.384368   -0.235397
     10          1           0        4.091659    3.262519    0.378076
     11          1           0        4.115658    2.640338   -1.269822
     12          6           0        4.830945    1.276075    0.200661
     13          1           0        5.839728    1.677499    0.294214
     14          1           0        4.523207    0.917097    1.180018
     15          8           0        4.810065    0.254551   -0.750028
     16          6           0        5.620640   -0.851254   -0.468600
     17          1           0        6.520688   -0.536151    0.057872
     18          1           0        5.918666   -1.274375   -1.418826
     19          6           0        4.914902   -1.926265    0.340191
     20          1           0        4.428083   -1.485569    1.205434
     21          1           0        5.659496   -2.628914    0.706890
     22          8           0        3.998607   -2.629753   -0.448285
     23          6           0        2.656145   -2.659520   -0.049924
     24          1           0        2.579976   -2.596273    1.031845
     25          1           0        2.259248   -3.621627   -0.346811
     26          6           0        1.860375   -1.545011   -0.720091
     27          1           0        1.876432   -1.695340   -1.792241
     28          1           0        2.297841   -0.576718   -0.526513
     29         16           0        0.108173   -1.523825   -0.238772
     30          6           0        0.194867   -0.680944    1.372606
     31          1           0        0.719755   -1.314472    2.078870
     32          1           0        0.756872    0.236603    1.259613
     33          6           0       -1.192530   -0.387739    1.946641
     34          1           0       -1.072325   -0.103427    2.984907
     35          1           0       -1.809968   -1.277335    1.936952
     36         16           0       -2.096451    0.993795    1.173551
     37          6           0       -3.206256    0.182985   -0.023063
     38          1           0       -2.653031   -0.533550   -0.611710
     39          1           0       -3.508996    0.980516   -0.689718
     40          6           0       -4.428048   -0.464034    0.625597
     41          1           0       -4.125245   -1.265835    1.287221
     42          1           0       -4.965344    0.255360    1.228477
     43         16           0       -5.558452   -1.252374   -0.563239
     44          6           0       -6.411732    0.166391   -1.320282
     45          1           0       -5.680570    0.869288   -1.700625
     46          1           0       -6.915011   -0.254467   -2.182673
     47          6           0       -7.422192    0.867185   -0.416916
     48          1           0       -6.947878    1.310415    0.451610
     49          1           0       -7.917395    1.665159   -0.963263
     50          1           0       -8.177021    0.171788   -0.068938
 ---------------------------------------------------------------------
 Standard basis: 6-31G(d) (6D, 7F)
   372 basis functions,   752 primitive gaussians,   372 cartesian basis functions
    93 alpha electrons       93 beta electrons
 Requested convergence on RMS density matrix=1.00D-08 within  64 cycles.
 Requested convergence on MAX density matrix=1.00D-06.
 Requested convergence on             energy=1.00D-06.
 SCF Done:  E(RHF) =  -1964.68897375     A.U. after    4 cycles
            NFock=  4  Conv=0.34D-08     -V/T= 2.0006
 Step number  28 out of a maximum of   55
     Eigenvalues ---    0.00113   0.00266   0.00301   0.00323   0.00339
     Eigenvalues ---    0.00395   0.00453   0.00479   0.00504   0.00549
     Eigenvalues ---    0.00621   0.00646   0.00729   0.00822   0.00978
     Eigenvalues ---    0.01100   0.01461   0.01640   0.03679   0.04667
     Eigenvalues ---    0.04704   0.04865   0.04991   0.05026   0.05185
     Eigenvalues ---    0.05212   0.05276   0.05448   0.05530   0.05543
     Eigenvalues ---    0.05573   0.05649   0.05677   0.05694   0.05740
     Eigenvalues ---    0.05753   0.05783   0.05832   0.05896   0.05915
     Eigenvalues ---    0.05980   0.06036   0.06192   0.06282   0.06418
     Eigenvalues ---    0.06924   0.08822   0.11229   0.11262   0.11471
     Eigenvalues ---    0.11582   0.11646   0.11699   0.11774   0.11792
     Eigenvalues ---    0.11856   0.11946   0.12125   0.12469   0.13360
     Eigenvalues ---    0.13805   0.13929   0.13983   0.13996   0.14031
     Eigenvalues ---    0.14070   0.14160   0.14214   0.14325   0.14740
     Eigenvalues ---    0.15995   0.16001   0.16008   0.16036   0.16075
     Eigenvalues ---    0.16086   0.16576   0.21292   0.21886   0.22172
     Eigenvalues ---    0.22424   0.22588   0.22847   0.23074   0.23613
     Eigenvalues ---    0.23675   0.23909   0.23997   0.24181   0.24273
     Eigenvalues ---    0.24361   0.24819   0.25046   0.25441   0.26250
     Eigenvalues ---    0.26659   0.27238   0.28761   0.29318   0.30044
     Eigenvalues ---    0.30237   0.30293   0.30805   0.31015   0.31846
     Eigenvalues ---    0.32740   0.33548   0.33560   0.33629   0.33704
     Eigenvalues ---    0.33708   0.33784   0.33813   0.34013   0.34099
     Eigenvalues ---    0.34248   0.34305   0.34332   0.34341   0.34365
     Eigenvalues ---    0.34379   0.34396   0.34401   0.34408   0.34413
     Eigenvalues ---    0.34433   0.34474   0.34507   0.34554   0.34620
     Eigenvalues ---    0.34637   0.34791   0.34850   0.35244   0.35467
     Eigenvalues ---    0.37076   0.39865   0.42704   0.43743   0.44045
     Eigenvalues ---    0.44409   0.45095   0.48847   0.72812
 Maximum Force            0.000000     0.000015     YES
 RMS     Force            0.000000     0.000010     YES
 Maximum Displacement     0.000030     0.000060     YES
 RMS     Displacement     0.000008     0.000040     YES
 Optimization completed.
    -- Stationary point found.
                          Input orientation:                          
 ---------------------------------------------------------------------
 Center     Atomic      Atomic             Coordinates (Angstroms)
 Number     Number       Type             X           Y           Z
 ---------------------------------------------------------------------
      1          6           0        1.174068    4.086553   -0.228224
      2          1           0        2.010384    4.776517   -0.278145
      3          1           0        0.336608    4.544496   -0.745553
      4          1           0        0.899247    3.956214    0.812883
      5          6           0        1.500934    2.740931   -0.861047
      6          1           0        0.626479    2.105823   -0.843033
      7          1           0        1.796480    2.869986   -1.900336
      8          8           0        2.499434    2.032519   -0.171847
      9          6           0        3.805620    2.495533   -0.331438
     10          1           0        3.971483    3.397690    0.253972
     11          1           0        4.006336    2.726915   -1.374555
     12          6           0        4.774775    1.432063    0.131442
     13          1           0        5.770312    1.868973    0.205954
     14          1           0        4.484765    1.093078    1.123254
     15          8           0        4.782009    0.382029   -0.787867
     16          6           0        5.630214   -0.687580   -0.478797
     17          1           0        6.522454   -0.327331    0.031771
     18          1           0        5.936460   -1.129347   -1.417858
     19          6           0        4.965025   -1.760099    0.366829
     20          1           0        4.469016   -1.309537    1.221710
     21          1           0        5.734500   -2.426527    0.749433
     22          8           0        4.067814   -2.516827   -0.393802
     23          6           0        2.729415   -2.578457    0.014449
     24          1           0        2.657529   -2.484945    1.094316
     25          1           0        2.362708   -3.561615   -0.250589
     26          6           0        1.893446   -1.511463   -0.683538
     27          1           0        1.908179   -1.693647   -1.750756
     28          1           0        2.299892   -0.523930   -0.522223
     29         16           0        0.144342   -1.533096   -0.191100
     30          6           0        0.212635   -0.639323    1.393516
     31          1           0        0.762235   -1.233595    2.114942
     32          1           0        0.743429    0.292291    1.249083
     33          6           0       -1.180290   -0.374445    1.967933
     34          1           0       -1.063451   -0.054976    2.996313
     35          1           0       -1.768125   -1.283675    1.989278
     36         16           0       -2.133750    0.952641    1.159766
     37          6           0       -3.223212    0.069974   -0.004252
     38          1           0       -2.650127   -0.645583   -0.574812
     39          1           0       -3.555961    0.836564   -0.692550
     40          6           0       -4.419206   -0.596743    0.671953
     41          1           0       -4.086283   -1.367750    1.355350
     42          1           0       -4.976382    0.122623    1.256543
     43         16           0       -5.529951   -1.457401   -0.484826
     44          6           0       -6.433931   -0.090976   -1.278423
     45          1           0       -5.728565    0.623633   -1.684767
     46          1           0       -6.928102   -0.554068   -2.124277
     47          6           0       -7.461635    0.603426   -0.389693
     48          1           0       -6.997114    1.088106    0.461817
     49          1           0       -7.986050    1.367804   -0.956437
     50          1           0       -8.191092   -0.105447   -0.015763
 ---------------------------------------------------------------------
 Stoichiometry    C14H30O3S3
 Framework group  C1[X(C14H30O3S3)]
                         Standard orientation:                         
 ---------------------------------------------------------------------
 Center     Atomic      Atomic             Coordinates (Angstroms)
 Number     Number       Type             X           Y           Z
 ---------------------------------------------------------------------
      1          6           0        1.321677    4.057406   -0.099345
      2          1           0        2.180470    4.720628   -0.123417
      3          1           0        0.503227    4.558078   -0.607429
      4          1           0        1.035618    3.904881    0.935703
      5          6           0        1.608606    2.721425   -0.770783
      6          1           0        0.713712    2.115222   -0.777161
      7          1           0        1.915324    2.871929   -1.803932
      8          8           0        2.578625    1.960049   -0.097569
      9          6           0        3.900339    2.384368   -0.235397
     10          1           0        4.091659    3.262519    0.378076
     11          1           0        4.115658    2.640338   -1.269822
     12          6           0        4.830945    1.276075    0.200661
     13          1           0        5.839728    1.677499    0.294214
     14          1           0        4.523207    0.917097    1.180018
     15          8           0        4.810065    0.254551   -0.750028
     16          6           0        5.620640   -0.851254   -0.468600
     17          1           0        6.520688   -0.536151    0.057872
     18          1           0        5.918666   -1.274375   -1.418826
     19          6           0        4.914902   -1.926265    0.340191
     20          1           0        4.428083   -1.485569    1.205434
     21          1           0        5.659496   -2.628914    0.706890
     22          8           0        3.998607   -2.629753   -0.448285
     23          6           0        2.656145   -2.659520   -0.049924
     24          1           0        2.579976   -2.596273    1.031845
     25          1           0        2.259248   -3.621627   -0.346811
     26          6           0        1.860375   -1.545011   -0.720091
     27          1           0        1.876432   -1.695340   -1.792241
     28          1           0        2.297841   -0.576718   -0.526513
     29         16           0        0.108173   -1.523825   -0.238772
     30          6           0        0.194867   -0.680944    1.372606
     31          1           0        0.719755   -1.314472    2.078870
     32          1           0        0.756872    0.236603    1.259613
     33          6           0       -1.192530   -0.387739    1.946641
     34          1           0       -1.072325   -0.103427    2.984907
     35          1           0       -1.809968   -1.277335    1.936952
     36         16           0       -2.096451    0.993795    1.173551
     37          6           0       -3.206256    0.182985   -0.023063
     38          1           0       -2.653031   -0.533550   -0.611710
     39          1           0       -3.508996    0.980516   -0.689718
     40          6           0       -4.428048   -0.464034    0.625597
     41          1           0       -4.125245   -1.265835    1.287221
     42          1           0       -4.965344    0.255360    1.228477
     43         16           0       -5.558452   -1.252374   -0.563239
     44          6           0       -6.411732    0.166391   -1.320282
     45          1           0       -5.680570    0.869288   -1.700625
     46          1           0       -6.915011   -0.254467   -2.182673
     47          6           0       -7.422192    0.867185   -0.416916
     48          1           0       -6.947878    1.310415    0.451610
     49          1           0       -7.917395    1.665159   -0.963263
     50          1           0       -8.177021    0.171788   -0.068938
 ---------------------------------------------------------------------
 Mulliken charges:
     1  C   -0.504065
     2  H    0.156185
     3  H    0.163975
     4  H    0.175130
     5  C   -0.000970
     6  H    0.200542
     7  H    0.144731
     8  O   -0.630957
     9  C    0.016046
    10  H    0.142824
    11  H    0.157904
    12  C    0.005438
    13  H    0.143042
    14  H    0.148255
    15  O   -0.622305
    16  C    0.000736
    17  H    0.134464
    18  H    0.190007
    19  C    0.006571
    20  H    0.144634
    21  H    0.154127
    22  O   -0.632885
    23  C    0.024315
    24  H    0.140838
    25  H    0.179268
    26  C   -0.522373
    27  H    0.205874
    28  H    0.253762
    29  S    0.089320
    30  C   -0.460179
    31  H    0.184368
    32  H    0.227042
    33  C   -0.494886
    34  H    0.208431
    35  H    0.205790
    36  S    0.109412
    37  C   -0.481948
    38  H    0.242820
    39  H    0.197275
    40  C   -0.475117
    41  H    0.200322
    42  H    0.206778
    43  S    0.115069
    44  C   -0.475924
    45  H    0.189241
    46  H    0.200057
    47  C   -0.475082
    48  H    0.165609
    49  H    0.166314
    50  H    0.180175
 Sum of Mulliken charges =  -0.00000
 Dipole moment (field-independent basis, Debye):
    X=              2.2607    Y=              2.8195    Z=              1.9552  Tot=              4.1089
 Quadrupole moment (field-independent basis, Debye-Ang):
   XX=           -132.0413   YY=           -151.5763   ZZ=           -145.4998
   XY=             -2.6644   XZ=             10.6288   YZ=             -8.4901
 Traceless Quadrupole moment (field-independent basis, Debye-Ang):
   XX=             10.9978   YY=             -8.5372   ZZ=             -2.4606
   XY=             -2.6644   XZ=             10.6288   YZ=             -8.4901
 Octapole moment (field-independent basis, Debye-Ang**2):
  XXX=            121.0940  YYY=             35.2607  ZZZ=             -2.1788  XYY=             43.4765
  XXY=             79.3758  XXZ=              4.5405  XZZ=              9.5064  YZZ=             -4.9272
  YYZ=             -3.8099  XYZ=              5.1345
 Hexadecapole moment (field-independent basis, Debye-Ang**3):
 XXXX=         -13198.6973 YYYY=          -2974.9834 ZZZZ=           -798.3259 XXXY=           -299.5475
 XXXZ=            355.5941 YYYX=             62.3028 YYYZ=            -43.0724 ZZZX=             -3.5515
 ZZZY=             -3.8677 XXYY=          -2933.9224 XXZZ=          -2469.5220 YYZZ=           -623.6501
 XXYZ=            -82.4397 YYXZ=              7.4858 ZZXY=              0.3264
 Job cpu time:       0 days  3 hours 26 minutes 40.3 seconds.
 Normal termination of Gaussian 16 at Sat Jul  8 15:35:47 2023.
