 Copyright (c) 1988-2019, Gaussian, Inc.  All Rights Reserved.
  
 This is part of the Gaussian(R) 16 program.  It is based on
 the Gaussian(R) 09 system (copyright 2009, Gaussian, Inc.),
 the Gaussian(R) 03 system (copyright 2003, Gaussian, Inc.),
 the Gaussian(R) 98 system (copyright 1998, Gaussian, Inc.),
 the Gaussian(R) 94 system (copyright 1995, Gaussian, Inc.),
 the Gaussian 92(TM) system (copyright 1992, Gaussian, Inc.),
 the Gaussian 90(TM) system (copyright 1990, Gaussian, Inc.),
 the Gaussian 88(TM) system (copyright 1988, Gaussian, Inc.),
 the Gaussian 86(TM) system (copyright 1986, Carnegie Mellon
 University), and the Gaussian 82(TM) system (copyright 1983,
 Carnegie Mellon University). Gaussian is a federally registered
 trademark of Gaussian, Inc.
 Cite this work as:
 Gaussian 16, Revision C.01,
 M. J. Frisch, G. W. Trucks, H. B. Schlegel, G. E. Scuseria, 
 M. A. Robb, J. R. Cheeseman, G. Scalmani, V. Barone, 
 G. A. Petersson, H. Nakatsuji, X. Li, M. Caricato, A. V. Marenich, 
 J. Bloino, B. G. Janesko, R. Gomperts, B. Mennucci, H. P. Hratchian, 
 J. V. Ortiz, A. F. Izmaylov, J. L. Sonnenberg, D. Williams-Young, 
 F. Ding, F. Lipparini, F. Egidi, J. Goings, B. Peng, A. Petrone, 
 T. Henderson, D. Ranasinghe, V. G. Zakrzewski, J. Gao, N. Rega, 
 G. Zheng, W. Liang, M. Hada, M. Ehara, K. Toyota, R. Fukuda, 
 J. Hasegawa, M. Ishida, T. Nakajima, Y. Honda, O. Kitao, H. Nakai, 
 T. Vreven, K. Throssell, J. A. Montgomery, Jr., J. E. Peralta, 
 F. Ogliaro, M. J. Bearpark, J. J. Heyd, E. N. Brothers, K. N. Kudin, 
 V. N. Staroverov, T. A. Keith, R. Kobayashi, J. Normand, 
 K. Raghavachari, A. P. Rendell, J. C. Burant, S. S. Iyengar, 
 J. Tomasi, M. Cossi, J. M. Millam, M. Klene, C. Adamo, R. Cammi, 
 J. W. Ochterski, R. L. Martin, K. Morokuma, O. Farkas, 
 J. B. Foresman, and D. J. Fox, Gaussian, Inc., Wallingford CT, 2019.
 
 ******************************************
 Gaussian 16:  EM64L-G16RevC.01  3-Jul-2019
                 8-Jul-2023 
 ******************************************
 ----------------------------------------------------------------------
 #P HF/6-31G(d) Opt=(Tight,MaxCycle=55) GFInput GFPrint SCF(Conver=8,XQ
 C,MaxConventionalCycles=64,MaxCycle=128) Test
 ----------------------------------------------------------------------
 1/6=55,7=10,18=20,19=15,38=1/1,3;
 2/9=110,12=2,17=6,18=5,40=1/2;
 3/5=1,6=6,7=1,11=9,24=110,25=1,30=1,71=1/1,2,3;
 4//1;
 5/5=2,6=8,7=128,8=3,13=1,38=5,85=64/2,8;
 6/7=2,8=2,9=2,10=2,28=1/1;
 7//1,2,3,16;
 1/6=55,7=10,18=20,19=15/3(2);
 2/9=110/2;
 99//99;
 2/9=110/2;
 3/5=1,6=6,7=1,11=9,25=1,30=1,71=1/1,2,3;
 4/5=5,16=3,69=1/1;
 5/5=2,6=8,7=128,8=3,13=1,38=5,85=64/2,8;
 7//1,2,3,16;
 1/6=55,7=10,18=20,19=15/3(-5);
 2/9=110/2;
 6/7=2,8=2,9=2,10=2,19=2,28=1/1;
 99/9=1/99;
 ----------------------------------------------------------
 Optimization step - Input generated by PyRED DVE-DMDS-OPLS
 ----------------------------------------------------------
 Symbolic Z-matrix:
 Charge =  0 Multiplicity = 1
 C                    -8.987    -1.546    -1.117 
 H                    -9.865    -1.602    -1.769 
 H                    -8.141    -1.971    -1.665 
 H                    -9.172    -2.167    -0.236 
 C                    -8.732    -0.104    -0.704 
 H                    -8.524     0.517    -1.588 
 H                    -9.618     0.306    -0.212 
 O                    -7.685     0.036     0.237 
 C                    -6.392    -0.144    -0.287 
 H                    -6.243     0.465    -1.192 
 H                    -6.207    -1.193    -0.56 
 C                    -5.415     0.303     0.791 
 H                    -5.574     1.364     1.001 
 H                    -5.607    -0.256     1.717 
 O                    -4.072     0.156     0.377 
 C                    -3.52     -1.127     0.604 
 H                    -4.079    -1.896     0.05 
 H                    -3.567    -1.381     1.673 
 C                    -2.078    -1.146     0.135 
 H                    -2.017    -0.724    -0.875 
 H                    -1.744    -2.186     0.081 
 O                    -1.164    -0.519     1.011 
 C                    -1.277     0.878     1.188 
 H                    -0.447     1.138     1.852 
 H                    -2.21      1.131     1.707 
 C                    -1.219     1.725    -0.08 
 H                    -1.18      2.777     0.224 
 H                    -2.137     1.595    -0.659 
 S                     0.133     1.379    -1.254 
 C                     1.607     1.456    -0.178 
 H                     2.401     1.894    -0.787 
 H                     1.417     2.154     0.642 
 C                     2.026     0.09      0.357 
 H                     2.273    -0.581    -0.471 
 H                     1.2      -0.379     0.895 
 S                     3.414     0.164     1.538 
 C                     4.83      0.511     0.44 
 H                     5.629     0.836     1.112 
 H                     4.606     1.357    -0.215 
 C                     5.276    -0.696    -0.378 
 H                     5.499    -1.541     0.276 
 H                     4.477    -1.02     -1.051 
 S                     6.692    -0.353    -1.474 
 C                     8.073    -0.259    -0.285 
 H                     8.904     0.145    -0.871 
 H                     7.844     0.485     0.483 
 C                     8.464    -1.591     0.342 
 H                     8.732    -2.32     -0.428 
 H                     9.323    -1.459     1.008 
 H                     7.649    -2.014     0.936 
 
 ITRead=  0  0  0  0  0  0  0  0  0  0  0  0  0  0  0  0  0  0  0  0
 ITRead=  0  0  0  0  0  0  0  0  0  0  0  0  0  0  0  0  0  0  0  0
 ITRead=  0  0  0  0  0  0  0  0  0  0
 MicOpt= -1 -1 -1 -1 -1 -1 -1 -1 -1 -1 -1 -1 -1 -1 -1 -1 -1 -1 -1 -1
 MicOpt= -1 -1 -1 -1 -1 -1 -1 -1 -1 -1 -1 -1 -1 -1 -1 -1 -1 -1 -1 -1
 MicOpt= -1 -1 -1 -1 -1 -1 -1 -1 -1 -1
 NAtoms=     50 NQM=       50 NQMF=       0 NMMI=      0 NMMIF=      0
                NMic=       0 NMicF=      0.
                          Input orientation:                          
 ---------------------------------------------------------------------
 Center     Atomic      Atomic             Coordinates (Angstroms)
 Number     Number       Type             X           Y           Z
 ---------------------------------------------------------------------
      1          6           0       -8.987000   -1.546000   -1.117000
      2          1           0       -9.865000   -1.602000   -1.769000
      3          1           0       -8.141000   -1.971000   -1.665000
      4          1           0       -9.172000   -2.167000   -0.236000
      5          6           0       -8.732000   -0.104000   -0.704000
      6          1           0       -8.524000    0.517000   -1.588000
      7          1           0       -9.618000    0.306000   -0.212000
      8          8           0       -7.685000    0.036000    0.237000
      9          6           0       -6.392000   -0.144000   -0.287000
     10          1           0       -6.243000    0.465000   -1.192000
     11          1           0       -6.207000   -1.193000   -0.560000
     12          6           0       -5.415000    0.303000    0.791000
     13          1           0       -5.574000    1.364000    1.001000
     14          1           0       -5.607000   -0.256000    1.717000
     15          8           0       -4.072000    0.156000    0.377000
     16          6           0       -3.520000   -1.127000    0.604000
     17          1           0       -4.079000   -1.896000    0.050000
     18          1           0       -3.567000   -1.381000    1.673000
     19          6           0       -2.078000   -1.146000    0.135000
     20          1           0       -2.017000   -0.724000   -0.875000
     21          1           0       -1.744000   -2.186000    0.081000
     22          8           0       -1.164000   -0.519000    1.011000
     23          6           0       -1.277000    0.878000    1.188000
     24          1           0       -0.447000    1.138000    1.852000
     25          1           0       -2.210000    1.131000    1.707000
     26          6           0       -1.219000    1.725000   -0.080000
     27          1           0       -1.180000    2.777000    0.224000
     28          1           0       -2.137000    1.595000   -0.659000
     29         16           0        0.133000    1.379000   -1.254000
     30          6           0        1.607000    1.456000   -0.178000
     31          1           0        2.401000    1.894000   -0.787000
     32          1           0        1.417000    2.154000    0.642000
     33          6           0        2.026000    0.090000    0.357000
     34          1           0        2.273000   -0.581000   -0.471000
     35          1           0        1.200000   -0.379000    0.895000
     36         16           0        3.414000    0.164000    1.538000
     37          6           0        4.830000    0.511000    0.440000
     38          1           0        5.629000    0.836000    1.112000
     39          1           0        4.606000    1.357000   -0.215000
     40          6           0        5.276000   -0.696000   -0.378000
     41          1           0        5.499000   -1.541000    0.276000
     42          1           0        4.477000   -1.020000   -1.051000
     43         16           0        6.692000   -0.353000   -1.474000
     44          6           0        8.073000   -0.259000   -0.285000
     45          1           0        8.904000    0.145000   -0.871000
     46          1           0        7.844000    0.485000    0.483000
     47          6           0        8.464000   -1.591000    0.342000
     48          1           0        8.732000   -2.320000   -0.428000
     49          1           0        9.323000   -1.459000    1.008000
     50          1           0        7.649000   -2.014000    0.936000
 ---------------------------------------------------------------------
 Stoichiometry    C14H30O3S3
 Framework group  C1[X(C14H30O3S3)]
                         Standard orientation:                         
 ---------------------------------------------------------------------
 Center     Atomic      Atomic             Coordinates (Angstroms)
 Number     Number       Type             X           Y           Z
 ---------------------------------------------------------------------
      1          6           0        8.987084   -1.544697    1.118750
      2          1           0        9.865096   -1.599905    1.770801
      3          1           0        8.141091   -1.969017    1.667287
      4          1           0        9.172061   -2.166778    0.238509
      5          6           0        8.732088   -0.103202    0.703987
      6          1           0        8.524111    0.518884    1.587229
      7          1           0        9.618082    0.306187    0.211467
      8          8           0        7.685071    0.035653   -0.237163
      9          6           0        6.392080   -0.143693    0.287083
     10          1           0        6.243103    0.466418    1.191338
     11          1           0        6.207076   -1.192356    0.561372
     12          6           0        5.415062    0.301993   -0.791446
     13          1           0        5.574067    1.362734   -1.002750
     14          1           0        5.607039   -0.258143   -1.716763
     15          8           0        4.072069    0.155513   -0.377239
     16          6           0        3.520054   -1.127760   -0.602655
     17          1           0        4.079058   -1.896085   -0.047723
     18          1           0        3.567030   -1.383071   -1.671343
     19          6           0        2.078063   -1.146172   -0.133603
     20          1           0        2.017086   -0.722933    0.875880
     21          1           0        1.744055   -2.186102   -0.078321
     22          8           0        1.164051   -0.520239   -1.010354
     23          6           0        1.277059    0.876542   -1.189069
     24          1           0        0.447049    1.135735   -1.853371
     25          1           0        2.210051    1.128897   -1.708397
     26          6           0        1.219092    1.725097    0.077893
     27          1           0        1.180095    2.776724   -0.227396
     28          1           0        2.137102    1.595799    0.657034
     29         16           0       -0.132888    1.380549    1.252343
     30          6           0       -1.606909    1.456242    0.176278
     31          1           0       -2.400893    1.894995    0.784756
     32          1           0       -1.416919    2.153234   -0.644581
     33          6           0       -2.025931    0.089591   -0.357038
     34          1           0       -2.272920   -0.580391    0.471789
     35          1           0       -1.199946   -0.380076   -0.894479
     36         16           0       -3.413954    0.162154   -1.538100
     37          6           0       -4.829929    0.510513   -0.440499
     38          1           0       -5.628939    0.834696   -1.112881
     39          1           0       -4.605909    1.357314    0.213459
     40          6           0       -5.275923   -0.695479    0.378990
     41          1           0       -5.498944   -1.541279   -0.273969
     42          1           0       -4.476913   -1.018661    1.052371
     43         16           0       -6.691899   -0.351123    1.474596
     44          6           0       -8.072921   -0.258569    0.285509
     45          1           0       -8.903906    0.146156    0.871029
     46          1           0       -7.843930    0.484486   -0.483407
     47          6           0       -8.463945   -1.591334   -0.339850
     48          1           0       -8.731936   -2.319387    0.431049
     49          1           0       -9.322957   -1.460143   -1.005994
     50          1           0       -7.648961   -2.015069   -0.933346
 ---------------------------------------------------------------------
 Standard basis: 6-31G(d) (6D, 7F)
   372 basis functions,   752 primitive gaussians,   372 cartesian basis functions
    93 alpha electrons       93 beta electrons
 Requested convergence on RMS density matrix=1.00D-08 within  64 cycles.
 Requested convergence on MAX density matrix=1.00D-06.
 Requested convergence on             energy=1.00D-06.
 SCF Done:  E(RHF) =  -1964.68576161     A.U. after   13 cycles
            NFock= 13  Conv=0.59D-08     -V/T= 2.0009
 Mulliken charges:
     1  C   -0.504999
     2  H    0.163220
     3  H    0.162432
     4  H    0.175227
     5  C    0.014604
     6  H    0.143527
     7  H    0.174767
     8  O   -0.636059
     9  C    0.006419
    10  H    0.150583
    11  H    0.143330
    12  C   -0.000220
    13  H    0.184078
    14  H    0.161001
    15  O   -0.649070
    16  C   -0.015487
    17  H    0.146044
    18  H    0.162879
    19  C   -0.001503
    20  H    0.174240
    21  H    0.176522
    22  O   -0.635814
    23  C    0.016213
    24  H    0.169580
    25  H    0.181093
    26  C   -0.519977
    27  H    0.192500
    28  H    0.222175
    29  S    0.117988
    30  C   -0.479900
    31  H    0.200379
    32  H    0.202080
    33  C   -0.490374
    34  H    0.196927
    35  H    0.253941
    36  S    0.109880
    37  C   -0.473927
    38  H    0.198158
    39  H    0.205865
    40  C   -0.474621
    41  H    0.208851
    42  H    0.201434
    43  S    0.114897
    44  C   -0.473505
    45  H    0.198402
    46  H    0.187834
    47  C   -0.474406
    48  H    0.179707
    49  H    0.167081
    50  H    0.166005
 Sum of Mulliken charges =  -0.00000
 Dipole moment (field-independent basis, Debye):
    X=              2.5272    Y=             -0.6550    Z=             -0.3382  Tot=              2.6325
 Quadrupole moment (field-independent basis, Debye-Ang):
   XX=           -120.6264   YY=           -147.2033   ZZ=           -159.0027
   XY=             -5.9154   XZ=             14.7592   YZ=             -3.6217
 Traceless Quadrupole moment (field-independent basis, Debye-Ang):
   XX=             21.6510   YY=             -4.9258   ZZ=            -16.7252
   XY=             -5.9154   XZ=             14.7592   YZ=             -3.6217
 Octapole moment (field-independent basis, Debye-Ang**2):
  XXX=             68.9487  YYY=             -3.5408  ZZZ=            -11.8531  XYY=             34.6217
  XXY=            -24.7579  XXZ=             14.6200  XZZ=             61.9541  YZZ=             -1.9443
  YYZ=            -10.7538  XYZ=             -4.1876
 Hexadecapole moment (field-independent basis, Debye-Ang**3):
 XXXX=         -22396.6124 YYYY=          -1063.0170 ZZZZ=          -1026.5948 XXXY=           -195.9457
 XXXZ=           1098.4803 YYYX=             -0.4386 YYYZ=            -14.4533 ZZZX=              2.9355
 ZZZY=             -4.3497 XXYY=          -4433.1985 XXZZ=          -4553.9698 YYZZ=           -362.4190
 XXYZ=             35.1608 YYXZ=             -7.2752 ZZXY=             -9.2115
 Step number   1 out of a maximum of   55
     Eigenvalues ---    0.00230   0.00230   0.00230   0.00230   0.00230
     Eigenvalues ---    0.00230   0.00422   0.00426   0.00438   0.00459
     Eigenvalues ---    0.00475   0.00482   0.00548   0.01493   0.01498
     Eigenvalues ---    0.01519   0.01523   0.01524   0.01603   0.04155
     Eigenvalues ---    0.04361   0.04478   0.04480   0.04486   0.04506
     Eigenvalues ---    0.04557   0.04681   0.04767   0.04968   0.05284
     Eigenvalues ---    0.05501   0.05531   0.05538   0.05617   0.05625
     Eigenvalues ---    0.05654   0.05662   0.05664   0.05680   0.05721
     Eigenvalues ---    0.05746   0.05801   0.05886   0.05968   0.06006
     Eigenvalues ---    0.06029   0.06097   0.11009   0.11231   0.11546
     Eigenvalues ---    0.11564   0.11584   0.11587   0.11599   0.11757
     Eigenvalues ---    0.11878   0.11899   0.11912   0.12056   0.13573
     Eigenvalues ---    0.13751   0.13906   0.13938   0.13951   0.13953
     Eigenvalues ---    0.13957   0.14041   0.14063   0.14149   0.14185
     Eigenvalues ---    0.14224   0.16000   0.16000   0.16000   0.16000
     Eigenvalues ---    0.16000   0.16000   0.21940   0.21993   0.21995
     Eigenvalues ---    0.22004   0.22007   0.22011   0.22011   0.22050
     Eigenvalues ---    0.22053   0.22090   0.22092   0.22105   0.24130
     Eigenvalues ---    0.24234   0.24260   0.24318   0.24335   0.24374
     Eigenvalues ---    0.25000   0.25000   0.25000   0.25000   0.25000
     Eigenvalues ---    0.25000   0.29798   0.29825   0.29913   0.30057
     Eigenvalues ---    0.30177   0.30223   0.30709   0.33576   0.33644
     Eigenvalues ---    0.33664   0.33708   0.33725   0.33843   0.33993
     Eigenvalues ---    0.34093   0.34158   0.34236   0.34250   0.34325
     Eigenvalues ---    0.34337   0.34355   0.34364   0.34382   0.34389
     Eigenvalues ---    0.34394   0.34396   0.34398   0.34408   0.34413
     Eigenvalues ---    0.34418   0.34442   0.34445   0.34454   0.34457
     Eigenvalues ---    0.34546   0.34624   0.34635   0.43217   0.43273
     Eigenvalues ---    0.43528   0.43569   0.43580   0.44527
 Maximum Force            0.012564     0.000015     NO 
 RMS     Force            0.003614     0.000010     NO 
 Maximum Displacement     1.021120     0.000060     NO 
 RMS     Displacement     0.300754     0.000040     NO 
                          Input orientation:                          
 ---------------------------------------------------------------------
 Center     Atomic      Atomic             Coordinates (Angstroms)
 Number     Number       Type             X           Y           Z
 ---------------------------------------------------------------------
      1          6           0       -9.382029   -1.355766   -1.075481
      2          1           0      -10.274520   -1.351801   -1.692932
      3          1           0       -8.595898   -1.843099   -1.640876
      4          1           0       -9.582276   -1.949026   -0.190329
      5          6           0       -9.014433    0.068412   -0.687798
      6          1           0       -8.790623    0.661475   -1.571598
      7          1           0       -9.848035    0.537178   -0.182383
      8          8           0       -7.942436    0.144867    0.216211
      9          6           0       -6.671429   -0.105555   -0.303919
     10          1           0       -6.498516    0.482566   -1.201895
     11          1           0       -6.555960   -1.151643   -0.568409
     12          6           0       -5.671848    0.294071    0.768524
     13          1           0       -5.773415    1.351615    0.967392
     14          1           0       -5.881530   -0.239395    1.689919
     15          8           0       -4.348098    0.080419    0.354781
     16          6           0       -3.824108   -1.198548    0.598105
     17          1           0       -4.408032   -1.947781    0.070540
     18          1           0       -3.868468   -1.426489    1.659388
     19          6           0       -2.390210   -1.282379    0.108865
     20          1           0       -2.316763   -0.887199   -0.895948
     21          1           0       -2.114663   -2.328144    0.069262
     22          8           0       -1.433521   -0.707014    0.959412
     23          6           0       -1.372831    0.685075    1.122726
     24          1           0       -0.569049    0.845397    1.827950
     25          1           0       -2.283022    1.045048    1.584815
     26          6           0       -1.130166    1.515871   -0.135486
     27          1           0       -1.017675    2.548927    0.173191
     28          1           0       -2.000995    1.478207   -0.773971
     29         16           0        0.269694    1.082796   -1.221391
     30          6           0        1.749632    1.268162   -0.167469
     31          1           0        2.496905    1.725968   -0.801247
     32          1           0        1.537096    1.976654    0.621641
     33          6           0        2.277089   -0.049942    0.397906
     34          1           0        2.546446   -0.721052   -0.406252
     35          1           0        1.512982   -0.551672    0.969358
     36         16           0        3.685740    0.150144    1.536228
     37          6           0        5.083215    0.531394    0.430440
     38          1           0        5.843569    0.937618    1.084092
     39          1           0        4.812168    1.318932   -0.258271
     40          6           0        5.621846   -0.681560   -0.324071
     41          1           0        5.892103   -1.469170    0.364440
     42          1           0        4.861943   -1.087414   -0.978327
     43         16           0        7.020599   -0.304710   -1.428076
     44          6           0        8.421403   -0.074139   -0.284679
     45          1           0        9.197995    0.363038   -0.900465
     46          1           0        8.164677    0.669644    0.458585
     47          6           0        8.937257   -1.349853    0.371906
     48          1           0        9.237045   -2.075826   -0.374092
     49          1           0        9.797792   -1.125766    0.995151
     50          1           0        8.189354   -1.811536    1.005537
 ---------------------------------------------------------------------
 Stoichiometry    C14H30O3S3
 Framework group  C1[X(C14H30O3S3)]
                         Standard orientation:                         
 ---------------------------------------------------------------------
 Center     Atomic      Atomic             Coordinates (Angstroms)
 Number     Number       Type             X           Y           Z
 ---------------------------------------------------------------------
      1          6           0        9.416080    0.429983    1.623474
      2          1           0       10.309445    0.993422    1.872949
      3          1           0        8.632188    0.742542    2.303905
      4          1           0        9.616779   -0.621491    1.795728
      5          6           0        9.043778    0.667664    0.167930
      6          1           0        8.819515    1.717828   -0.004629
      7          1           0        9.875282    0.401986   -0.470893
      8          8           0        7.970261   -0.123188   -0.272946
      9          6           0        6.700741    0.246447    0.174705
     10          1           0        6.527409    1.307459    0.012355
     11          1           0        6.588701    0.053460    1.236680
     12          6           0        5.698455   -0.563707   -0.630323
     13          1           0        5.796654   -0.306251   -1.675473
     14          1           0        5.908362   -1.623375   -0.527538
     15          8           0        4.375931   -0.275635   -0.260069
     16          6           0        3.855319   -1.027245    0.804626
     17          1           0        4.442183   -0.857834    1.703254
     18          1           0        3.898814   -2.087530    0.571923
     19          6           0        2.422378   -0.616638    1.088400
     20          1           0        2.349228    0.461597    1.145597
     21          1           0        2.149937   -1.014125    2.057367
     22          8           0        1.462792   -1.152011    0.215302
     23          6           0        1.397811   -0.723487   -1.119018
     24          1           0        0.592550   -1.298700   -1.554672
     25          1           0        2.306283   -0.994850   -1.641126
     26          6           0        1.154540    0.765959   -1.352632
     27          1           0        1.038595    0.913357   -2.420326
     28          1           0        2.026394    1.331283   -1.056483
     29         16           0       -0.242486    1.574745   -0.503789
     30          6           0       -1.724475    0.692666   -1.104599
     31          1           0       -2.472165    1.459287   -1.256027
     32          1           0       -1.515141    0.268272   -2.077172
     33          6           0       -2.248904   -0.368240   -0.137795
     34          1           0       -2.515145    0.085351    0.807183
     35          1           0       -1.484163   -1.096355    0.079389
     36         16           0       -3.659770   -1.321029   -0.787223
     37          6           0       -5.056755   -0.156545   -0.671187
     38          1           0       -5.819231   -0.582884   -1.309374
     39          1           0       -4.787012    0.796662   -1.103207
     40          6           0       -5.590762    0.027256    0.747166
     41          1           0       -5.859716   -0.925797    1.179332
     42          1           0       -4.828738    0.454299    1.385267
     43         16           0       -6.989015    1.188294    0.866471
     44          6           0       -8.392131    0.243525    0.187171
     45          1           0       -9.169105    0.985224    0.047152
     46          1           0       -8.138644   -0.124522   -0.798652
     47          6           0       -8.905211   -0.882810    1.077550
     48          1           0       -9.201808   -0.504888    2.048440
     49          1           0       -9.767293   -1.356979    0.618040
     50          1           0       -8.156880   -1.650905    1.232564
 ---------------------------------------------------------------------
 Standard basis: 6-31G(d) (6D, 7F)
   372 basis functions,   752 primitive gaussians,   372 cartesian basis functions
    93 alpha electrons       93 beta electrons
 Requested convergence on RMS density matrix=1.00D-08 within  64 cycles.
 Requested convergence on MAX density matrix=1.00D-06.
 Requested convergence on             energy=1.00D-06.
 SCF Done:  E(RHF) =  -1964.68907952     A.U. after   12 cycles
            NFock= 12  Conv=0.72D-08     -V/T= 2.0006
 Step number   2 out of a maximum of   55
     Eigenvalues ---    0.00229   0.00230   0.00230   0.00230   0.00230
     Eigenvalues ---    0.00288   0.00426   0.00438   0.00440   0.00459
     Eigenvalues ---    0.00475   0.00482   0.00553   0.01493   0.01497
     Eigenvalues ---    0.01518   0.01523   0.01586   0.01603   0.03984
     Eigenvalues ---    0.04310   0.04433   0.04438   0.04448   0.04456
     Eigenvalues ---    0.04467   0.04680   0.04752   0.04954   0.05208
     Eigenvalues ---    0.05492   0.05494   0.05510   0.05630   0.05651
     Eigenvalues ---    0.05656   0.05660   0.05663   0.05674   0.05740
     Eigenvalues ---    0.05748   0.05798   0.05880   0.05953   0.05981
     Eigenvalues ---    0.06026   0.06082   0.11073   0.11359   0.11606
     Eigenvalues ---    0.11616   0.11626   0.11642   0.11661   0.11785
     Eigenvalues ---    0.11894   0.11979   0.12076   0.12157   0.13575
     Eigenvalues ---    0.13817   0.13939   0.13967   0.13976   0.13984
     Eigenvalues ---    0.13996   0.14069   0.14079   0.14205   0.14275
     Eigenvalues ---    0.14400   0.15992   0.16000   0.16000   0.16000
     Eigenvalues ---    0.16000   0.16008   0.21441   0.21943   0.22001
     Eigenvalues ---    0.22010   0.22015   0.22018   0.22031   0.22050
     Eigenvalues ---    0.22051   0.22068   0.22100   0.22299   0.23540
     Eigenvalues ---    0.24167   0.24242   0.24273   0.24320   0.24371
     Eigenvalues ---    0.24626   0.25000   0.25000   0.25000   0.25000
     Eigenvalues ---    0.27473   0.29750   0.29826   0.29917   0.30055
     Eigenvalues ---    0.30184   0.30215   0.30642   0.33575   0.33643
     Eigenvalues ---    0.33678   0.33701   0.33776   0.33827   0.33991
     Eigenvalues ---    0.34058   0.34176   0.34241   0.34250   0.34268
     Eigenvalues ---    0.34339   0.34349   0.34363   0.34369   0.34385
     Eigenvalues ---    0.34393   0.34395   0.34401   0.34406   0.34412
     Eigenvalues ---    0.34417   0.34435   0.34443   0.34452   0.34494
     Eigenvalues ---    0.34539   0.34628   0.36586   0.42465   0.43259
     Eigenvalues ---    0.43460   0.43575   0.43997   0.44773
 Maximum Force            0.012425     0.000015     NO 
 RMS     Force            0.001646     0.000010     NO 
 Maximum Displacement     1.357407     0.000060     NO 
 RMS     Displacement     0.465632     0.000040     NO 
                          Input orientation:                          
 ---------------------------------------------------------------------
 Center     Atomic      Atomic             Coordinates (Angstroms)
 Number     Number       Type             X           Y           Z
 ---------------------------------------------------------------------
      1          6           0       -8.963620   -1.736670   -1.049009
      2          1           0       -9.874418   -1.776258   -1.632611
      3          1           0       -8.156737   -2.085802   -1.678426
      4          1           0       -9.063412   -2.418015   -0.215274
      5          6           0       -8.731674   -0.318475   -0.548278
      6          1           0       -8.608499    0.364343   -1.381224
      7          1           0       -9.587570    0.010973    0.018910
      8          8           0       -7.640995   -0.205388    0.320660
      9          6           0       -6.371270   -0.262660   -0.247064
     10          1           0       -6.292155    0.418615   -1.085668
     11          1           0       -6.150778   -1.257420   -0.609636
     12          6           0       -5.386916    0.148507    0.834323
     13          1           0       -5.600802    1.160781    1.134659
     14          1           0       -5.503723   -0.486907    1.701382
     15          8           0       -4.067931    0.126309    0.370047
     16          6           0       -3.384113   -1.087981    0.486280
     17          1           0       -3.881379   -1.861909   -0.085607
     18          1           0       -3.353921   -1.402457    1.521692
     19          6           0       -1.972322   -0.938251   -0.043828
     20          1           0       -1.998575   -0.465204   -1.013493
     21          1           0       -1.550256   -1.923337   -0.168718
     22          8           0       -1.097337   -0.276536    0.819398
     23          6           0       -1.268284    1.084671    1.073974
     24          1           0       -0.475549    1.337356    1.759253
     25          1           0       -2.205166    1.264998    1.578580
     26          6           0       -1.215511    2.002543   -0.143423
     27          1           0       -1.226835    3.022161    0.214322
     28          1           0       -2.095214    1.877039   -0.753292
     29         16           0        0.171018    1.801105   -1.299829
     30          6           0        1.632296    1.771850   -0.212387
     31          1           0        2.446539    2.154976   -0.806591
     32          1           0        1.481800    2.464536    0.600199
     33          6           0        1.960367    0.377557    0.319073
     34          1           0        2.155335   -0.298530   -0.497288
     35          1           0        1.122299   -0.026576    0.860361
     36         16           0        3.348019    0.347909    1.496552
     37          6           0        4.817615    0.540308    0.440185
     38          1           0        5.607361    0.804151    1.125535
     39          1           0        4.690719    1.376036   -0.227546
     40          6           0        5.185559   -0.719889   -0.340521
     41          1           0        5.311865   -1.555957    0.327451
     42          1           0        4.396573   -0.983600   -1.026584
     43         16           0        6.656595   -0.531570   -1.393953
     44          6           0        8.039508   -0.543852   -0.210619
     45          1           0        8.891158   -0.234040   -0.797657
     46          1           0        7.884705    0.220322    0.535611
     47          6           0        8.321457   -1.894028    0.441314
     48          1           0        8.520905   -2.649000   -0.304815
     49          1           0        9.186969   -1.817329    1.088174
     50          1           0        7.492301   -2.232405    1.046401
 ---------------------------------------------------------------------
 Stoichiometry    C14H30O3S3
 Framework group  C1[X(C14H30O3S3)]
                         Standard orientation:                         
 ---------------------------------------------------------------------
 Center     Atomic      Atomic             Coordinates (Angstroms)
 Number     Number       Type             X           Y           Z
 ---------------------------------------------------------------------
      1          6           0        8.966242   -1.766672    1.025262
      2          1           0        9.877403   -1.809358    1.608079
      3          1           0        8.160205   -2.121782    1.652413
      4          1           0        9.066604   -2.441496    0.186309
      5          6           0        8.731943   -0.345047    0.535471
      6          1           0        8.608196    0.331222    1.373659
      7          1           0        9.587055   -0.010021   -0.029628
      8          8           0        7.640644   -0.226956   -0.332022
      9          6           0        6.371302   -0.290430    0.235899
     10          1           0        6.291621    0.384318    1.079711
     11          1           0        6.152467   -1.288249    0.590994
     12          6           0        5.385777    0.127509   -0.841820
     13          1           0        5.598012    1.142356   -1.134542
     14          1           0        5.503068   -0.501107   -1.713755
     15          8           0        4.067069    0.099823   -0.377051
     16          6           0        3.384982   -1.114557   -0.502184
     17          1           0        3.883688   -1.892084    0.063534
     18          1           0        3.354713   -1.421179   -1.539947
     19          6           0        1.973249   -0.970959    0.029772
     20          1           0        1.999311   -0.505276    1.003000
     21          1           0        1.552702   -1.957591    0.147367
     22          8           0        1.096838   -0.303981   -0.827938
     23          6           0        1.265644    1.059378   -1.072222
     24          1           0        0.472178    1.316104   -1.755150
     25          1           0        2.201995    1.244930   -1.575919
     26          6           0        1.212153    1.967868    0.152160
     27          1           0        1.221786    2.990198   -0.197810
     28          1           0        2.092359    1.839022    0.760605
     29         16           0       -0.173473    1.755574    1.307708
     30          6           0       -1.635274    1.732444    0.220822
     31          1           0       -2.449770    2.109827    0.818345
     32          1           0       -1.486225    2.431524   -0.586539
     33          6           0       -1.961566    0.341758   -0.321080
     34          1           0       -2.155109   -0.340818    0.490205
     35          1           0       -1.123186   -0.057000   -0.865860
     36         16           0       -3.349787    0.319029   -1.498040
     37          6           0       -4.819113    0.501200   -0.439486
     38          1           0       -5.609606    0.769089   -1.122402
     39          1           0       -4.693101    1.332003    0.234529
     40          6           0       -5.184790   -0.765452    0.331783
     41          1           0       -5.310212   -1.596592   -0.342476
     42          1           0       -4.395057   -1.033215    1.015412
     43         16           0       -6.655551   -0.587341    1.387372
     44          6           0       -8.039063   -0.592652    0.204686
     45          1           0       -8.890862   -0.288582    0.794504
     46          1           0       -7.885777    0.177413   -0.535778
     47          6           0       -8.319360   -1.938237   -0.457372
     48          1           0       -8.517305   -2.699166    0.283084
     49          1           0       -9.185323   -1.857891   -1.103186
     50          1           0       -7.490023   -2.270767   -1.065444
 ---------------------------------------------------------------------
 Standard basis: 6-31G(d) (6D, 7F)
   372 basis functions,   752 primitive gaussians,   372 cartesian basis functions
    93 alpha electrons       93 beta electrons
 Requested convergence on RMS density matrix=1.00D-08 within  64 cycles.
 Requested convergence on MAX density matrix=1.00D-06.
 Requested convergence on             energy=1.00D-06.
 SCF Done:  E(RHF) =  -1964.68845509     A.U. after   13 cycles
            NFock= 13  Conv=0.26D-08     -V/T= 2.0005
 Step number   3 out of a maximum of   55
     Eigenvalues ---    0.00230   0.00230   0.00230   0.00230   0.00232
     Eigenvalues ---    0.00401   0.00425   0.00438   0.00459   0.00475
     Eigenvalues ---    0.00482   0.00539   0.00891   0.01493   0.01497
     Eigenvalues ---    0.01516   0.01524   0.01579   0.01603   0.04059
     Eigenvalues ---    0.04318   0.04450   0.04457   0.04465   0.04521
     Eigenvalues ---    0.04568   0.04761   0.04940   0.04966   0.05250
     Eigenvalues ---    0.05491   0.05495   0.05513   0.05628   0.05636
     Eigenvalues ---    0.05653   0.05658   0.05659   0.05693   0.05750
     Eigenvalues ---    0.05788   0.05814   0.05938   0.05965   0.05985
     Eigenvalues ---    0.06021   0.06108   0.11027   0.11217   0.11551
     Eigenvalues ---    0.11580   0.11620   0.11629   0.11639   0.11780
     Eigenvalues ---    0.11814   0.11878   0.11979   0.12014   0.13580
     Eigenvalues ---    0.13780   0.13901   0.13933   0.13961   0.13975
     Eigenvalues ---    0.13989   0.14058   0.14066   0.14122   0.14200
     Eigenvalues ---    0.14368   0.15980   0.15998   0.16000   0.16000
     Eigenvalues ---    0.16000   0.16000   0.21190   0.21943   0.21982
     Eigenvalues ---    0.22011   0.22015   0.22023   0.22034   0.22041
     Eigenvalues ---    0.22051   0.22055   0.22097   0.23147   0.24018
     Eigenvalues ---    0.24170   0.24192   0.24246   0.24311   0.24352
     Eigenvalues ---    0.24406   0.24774   0.25000   0.25000   0.25000
     Eigenvalues ---    0.29362   0.29805   0.29845   0.29940   0.30054
     Eigenvalues ---    0.30207   0.30212   0.30722   0.33590   0.33650
     Eigenvalues ---    0.33680   0.33715   0.33784   0.33887   0.33997
     Eigenvalues ---    0.34100   0.34175   0.34227   0.34241   0.34260
     Eigenvalues ---    0.34332   0.34344   0.34360   0.34369   0.34385
     Eigenvalues ---    0.34390   0.34396   0.34397   0.34405   0.34411
     Eigenvalues ---    0.34416   0.34433   0.34443   0.34448   0.34454
     Eigenvalues ---    0.34539   0.34626   0.39136   0.41801   0.43234
     Eigenvalues ---    0.43468   0.43557   0.43730   0.44451
 Maximum Force            0.015669     0.000015     NO 
 RMS     Force            0.002118     0.000010     NO 
 Maximum Displacement     1.022293     0.000060     NO 
 RMS     Displacement     0.311264     0.000040     NO 
                          Input orientation:                          
 ---------------------------------------------------------------------
 Center     Atomic      Atomic             Coordinates (Angstroms)
 Number     Number       Type             X           Y           Z
 ---------------------------------------------------------------------
      1          6           0       -9.172644   -1.363538   -1.117280
      2          1           0      -10.064240   -1.327456   -1.736720
      3          1           0       -8.382019   -1.819322   -1.704389
      4          1           0       -9.374828   -2.001383   -0.263273
      5          6           0       -8.805100    0.039102   -0.652021
      6          1           0       -8.576704    0.673748   -1.507138
      7          1           0       -9.644333    0.482159   -0.130586
      8          8           0       -7.739711    0.062663    0.257853
      9          6           0       -6.464994   -0.147865   -0.269220
     10          1           0       -6.283390    0.500219   -1.125080
     11          1           0       -6.336958   -1.175712   -0.600678
     12          6           0       -5.471448    0.185084    0.832368
     13          1           0       -5.590792    1.224131    1.110461
     14          1           0       -5.680150   -0.421474    1.709417
     15          8           0       -4.148406    0.015703    0.403696
     16          6           0       -3.600788   -1.262409    0.578601
     17          1           0       -4.160684   -2.007245    0.015071
     18          1           0       -3.625288   -1.545543    1.628723
     19          6           0       -2.167342   -1.267799    0.086284
     20          1           0       -2.132034   -0.838722   -0.909736
     21          1           0       -1.828219   -2.294436    0.018321
     22          8           0       -1.263769   -0.632631    0.943762
     23          6           0       -1.353536    0.751614    1.112131
     24          1           0       -0.562715    1.007358    1.806135
     25          1           0       -2.297239    1.022698    1.573613
     26          6           0       -1.224704    1.580748   -0.162140
     27          1           0       -1.227302    2.627768    0.122822
     28          1           0       -2.089510    1.427890   -0.795818
     29         16           0        0.192383    1.268461   -1.260716
     30          6           0        1.646696    1.449377   -0.175611
     31          1           0        2.417088    1.873406   -0.807036
     32          1           0        1.432746    2.179652    0.595078
     33          6           0        2.133298    0.134625    0.432412
     34          1           0        2.373057   -0.572860   -0.351062
     35          1           0        1.363398   -0.321369    1.036203
     36         16           0        3.558693    0.334788    1.547029
     37          6           0        4.948244    0.586373    0.398420
     38          1           0        5.747047    0.969971    1.020898
     39          1           0        4.707372    1.359196   -0.319787
     40          6           0        5.390466   -0.688439   -0.316324
     41          1           0        5.630499   -1.461430    0.401690
     42          1           0        4.592807   -1.071732   -0.940385
     43         16           0        6.781649   -0.440651   -1.461754
     44          6           0        8.198085   -0.226989   -0.339623
     45          1           0        9.004572    0.087810   -0.991666
     46          1           0        8.004910    0.596262    0.337982
     47          6           0        8.603688   -1.480686    0.429392
     48          1           0        8.834472   -2.293026   -0.250241
     49          1           0        9.484965   -1.276354    1.031534
     50          1           0        7.818714   -1.814735    1.099389
 ---------------------------------------------------------------------
 Stoichiometry    C14H30O3S3
 Framework group  C1[X(C14H30O3S3)]
                         Standard orientation:                         
 ---------------------------------------------------------------------
 Center     Atomic      Atomic             Coordinates (Angstroms)
 Number     Number       Type             X           Y           Z
 ---------------------------------------------------------------------
      1          6           0        9.191221   -1.277507    1.175158
      2          1           0       10.083103   -1.210006    1.791553
      3          1           0        8.401873   -1.706249    1.783957
      4          1           0        9.394212   -1.955105    0.352536
      5          6           0        8.820534    0.100501    0.643520
      6          1           0        8.591338    0.774904    1.467422
      7          1           0        9.658554    0.519773    0.100897
      8          8           0        7.754569    0.078316   -0.265713
      9          6           0        6.480593   -0.109303    0.271704
     10          1           0        6.298161    0.578653    1.095672
     11          1           0        6.354856   -1.120355    0.652085
     12          6           0        5.485725    0.168510   -0.843887
     13          1           0        5.602779    1.193288   -1.171495
     14          1           0        5.695157   -0.478928   -1.691028
     15          8           0        4.163283    0.017181   -0.406695
     16          6           0        3.618181   -1.268942   -0.519827
     17          1           0        4.179930   -1.984808    0.078341
     18          1           0        3.642648   -1.601986   -1.555203
     19          6           0        2.185037   -1.253643   -0.026841
     20          1           0        2.149432   -0.777436    0.947515
     21          1           0        1.848056   -2.276530    0.090433
     22          8           0        1.279665   -0.662087   -0.913134
     23          6           0        1.366500    0.712685   -1.147654
     24          1           0        0.574751    0.933308   -1.852569
     25          1           0        2.309376    0.963263   -1.622229
     26          6           0        1.236713    1.601625    0.085541
     27          1           0        1.237001    2.633801   -0.249231
     28          1           0        2.102200    1.481031    0.725223
     29         16           0       -0.179091    1.339443    1.198774
     30          6           0       -1.634404    1.465257    0.107241
     31          1           0       -2.405294    1.917481    0.718162
     32          1           0       -1.422399    2.158220   -0.697677
     33          6           0       -2.118667    0.121920   -0.436798
     34          1           0       -2.356519   -0.547719    0.379818
     35          1           0       -1.348187   -0.360910   -1.018585
     36         16           0       -3.545119    0.265604   -1.558750
     37          6           0       -4.934512    0.569097   -0.422560
     38          1           0       -5.734461    0.920836   -1.062148
     39          1           0       -4.694804    1.375910    0.257653
     40          6           0       -5.373706   -0.670917    0.352707
     41          1           0       -5.612574   -1.477885   -0.327306
     42          1           0       -4.574899   -1.022277    0.993863
     43         16           0       -6.764725   -0.371371    1.485906
     44          6           0       -8.182250   -0.214545    0.355794
     45          1           0       -8.988999    0.129488    0.992565
     46          1           0       -7.991156    0.575703   -0.360585
     47          6           0       -8.585733   -1.504443   -0.352030
     48          1           0       -8.814457   -2.283771    0.365877
     49          1           0       -9.467778   -1.330958   -0.962666
     50          1           0       -7.800468   -1.868608   -1.005797
 ---------------------------------------------------------------------
 Standard basis: 6-31G(d) (6D, 7F)
   372 basis functions,   752 primitive gaussians,   372 cartesian basis functions
    93 alpha electrons       93 beta electrons
 Requested convergence on RMS density matrix=1.00D-08 within  64 cycles.
 Requested convergence on MAX density matrix=1.00D-06.
 Requested convergence on             energy=1.00D-06.
 SCF Done:  E(RHF) =  -1964.68981586     A.U. after   12 cycles
            NFock= 12  Conv=0.57D-08     -V/T= 2.0006
 Step number   4 out of a maximum of   55
     Eigenvalues ---    0.00227   0.00230   0.00230   0.00232   0.00239
     Eigenvalues ---    0.00392   0.00412   0.00438   0.00458   0.00473
     Eigenvalues ---    0.00482   0.00586   0.00832   0.01456   0.01493
     Eigenvalues ---    0.01504   0.01543   0.01581   0.01603   0.04012
     Eigenvalues ---    0.04347   0.04477   0.04486   0.04491   0.04520
     Eigenvalues ---    0.04774   0.04881   0.04982   0.05185   0.05490
     Eigenvalues ---    0.05515   0.05518   0.05543   0.05643   0.05645
     Eigenvalues ---    0.05651   0.05659   0.05697   0.05745   0.05749
     Eigenvalues ---    0.05820   0.05840   0.05967   0.05981   0.06020
     Eigenvalues ---    0.06119   0.06214   0.10993   0.11284   0.11456
     Eigenvalues ---    0.11590   0.11600   0.11613   0.11646   0.11718
     Eigenvalues ---    0.11789   0.11856   0.11910   0.12066   0.13582
     Eigenvalues ---    0.13703   0.13865   0.13927   0.13957   0.13961
     Eigenvalues ---    0.14023   0.14049   0.14059   0.14099   0.14185
     Eigenvalues ---    0.14347   0.15966   0.16000   0.16000   0.16000
     Eigenvalues ---    0.16001   0.16002   0.21516   0.21952   0.22008
     Eigenvalues ---    0.22017   0.22018   0.22030   0.22042   0.22051
     Eigenvalues ---    0.22053   0.22078   0.22921   0.23146   0.23941
     Eigenvalues ---    0.24194   0.24244   0.24310   0.24342   0.24386
     Eigenvalues ---    0.24835   0.25000   0.25000   0.25031   0.29649
     Eigenvalues ---    0.29791   0.29886   0.30009   0.30157   0.30190
     Eigenvalues ---    0.30352   0.32421   0.33062   0.33587   0.33642
     Eigenvalues ---    0.33679   0.33709   0.33778   0.33886   0.34053
     Eigenvalues ---    0.34084   0.34178   0.34241   0.34261   0.34322
     Eigenvalues ---    0.34338   0.34359   0.34369   0.34378   0.34385
     Eigenvalues ---    0.34394   0.34396   0.34404   0.34410   0.34415
     Eigenvalues ---    0.34423   0.34437   0.34444   0.34453   0.34541
     Eigenvalues ---    0.34622   0.35339   0.38940   0.42459   0.43247
     Eigenvalues ---    0.43481   0.43582   0.44353   0.53099
 Maximum Force            0.010255     0.000015     NO 
 RMS     Force            0.001111     0.000010     NO 
 Maximum Displacement     0.277710     0.000060     NO 
 RMS     Displacement     0.067488     0.000040     NO 
                          Input orientation:                          
 ---------------------------------------------------------------------
 Center     Atomic      Atomic             Coordinates (Angstroms)
 Number     Number       Type             X           Y           Z
 ---------------------------------------------------------------------
      1          6           0       -9.214128   -1.434425   -1.098740
      2          1           0      -10.110488   -1.417578   -1.711855
      3          1           0       -8.418526   -1.875011   -1.690506
      4          1           0       -9.397235   -2.074623   -0.242298
      5          6           0       -8.871554   -0.023563   -0.638470
      6          1           0       -8.660743    0.613637   -1.496078
      7          1           0       -9.716280    0.403993   -0.113224
      8          8           0       -7.802054    0.022619    0.264957
      9          6           0       -6.526273   -0.158052   -0.269355
     10          1           0       -6.364077    0.496098   -1.124303
     11          1           0       -6.377808   -1.181809   -0.604533
     12          6           0       -5.533638    0.192722    0.827748
     13          1           0       -5.676127    1.226852    1.112749
     14          1           0       -5.721126   -0.423431    1.702691
     15          8           0       -4.210433    0.057224    0.388409
     16          6           0       -3.627544   -1.205037    0.560805
     17          1           0       -4.178908   -1.960973    0.003861
     18          1           0       -3.635569   -1.489140    1.610800
     19          6           0       -2.199168   -1.183449    0.049563
     20          1           0       -2.179220   -0.740357   -0.940526
     21          1           0       -1.856755   -2.206893   -0.041828
     22          8           0       -1.278626   -0.571027    0.906480
     23          6           0       -1.330944    0.811972    1.103793
     24          1           0       -0.523422    1.023273    1.793367
     25          1           0       -2.257325    1.106501    1.583687
     26          6           0       -1.178393    1.668349   -0.149953
     27          1           0       -1.128633    2.706079    0.162865
     28          1           0       -2.051328    1.574848   -0.783262
     29         16           0        0.218078    1.309399   -1.257010
     30          6           0        1.669171    1.456797   -0.165945
     31          1           0        2.443142    1.904306   -0.776274
     32          1           0        1.449764    2.155996    0.631315
     33          6           0        2.142651    0.118759    0.399133
     34          1           0        2.377258   -0.565183   -0.406013
     35          1           0        1.363948   -0.348230    0.984767
     36         16           0        3.565655    0.269119    1.525148
     37          6           0        4.965316    0.531213    0.390854
     38          1           0        5.752833    0.924642    1.021176
     39          1           0        4.725204    1.299546   -0.332157
     40          6           0        5.430453   -0.740961   -0.314524
     41          1           0        5.669383   -1.509177    0.408495
     42          1           0        4.644473   -1.134517   -0.946567
     43         16           0        6.832822   -0.481920   -1.444197
     44          6           0        8.235643   -0.239298   -0.310200
     45          1           0        9.034085    0.113219   -0.952575
     46          1           0        8.012328    0.565789    0.379594
     47          6           0        8.682790   -1.490526    0.440076
     48          1           0        8.940685   -2.284311   -0.251447
     49          1           0        9.556612   -1.265933    1.045596
     50          1           0        7.910032   -1.860530    1.104914
 ---------------------------------------------------------------------
 Stoichiometry    C14H30O3S3
 Framework group  C1[X(C14H30O3S3)]
                         Standard orientation:                         
 ---------------------------------------------------------------------
 Center     Atomic      Atomic             Coordinates (Angstroms)
 Number     Number       Type             X           Y           Z
 ---------------------------------------------------------------------
      1          6           0        9.232338   -1.466208    1.016743
      2          1           0       10.129146   -1.480007    1.629277
      3          1           0        8.437525   -1.937130    1.585769
      4          1           0        9.415297   -2.061619    0.128549
      5          6           0        8.888317   -0.033934    0.629474
      6          1           0        8.677658    0.558401    1.518697
      7          1           0        9.732314    0.420615    0.126178
      8          8           0        7.818101    0.057518   -0.269646
      9          6           0        6.542864   -0.151284    0.255636
     10          1           0        6.380804    0.458155    1.143036
     11          1           0        6.395450   -1.190963    0.538125
     12          6           0        5.549129    0.254329   -0.821383
     13          1           0        5.690598    1.301797   -1.053225
     14          1           0        5.736437   -0.316119   -1.726826
     15          8           0        4.226362    0.095460   -0.388605
     16          6           0        3.644327   -1.156809   -0.624914
     17          1           0        4.196699   -1.939788   -0.107753
     18          1           0        3.651781   -1.386835   -1.688070
     19          6           0        2.216320   -1.162561   -0.112218
     20          1           0        2.196774   -0.770700    0.899250
     21          1           0        1.874773   -2.189618   -0.073043
     22          8           0        1.294655   -0.507867   -0.936037
     23          6           0        1.345748    0.883455   -1.062399
     24          1           0        0.537542    1.129086   -1.739688
     25          1           0        2.271537    1.202897   -1.527263
     26          6           0        1.193475    1.674468    0.233612
     27          1           0        1.142672    2.726797   -0.025690
     28          1           0        2.066960    1.549414    0.860687
     29         16           0       -0.201880    1.258231    1.321859
     30          6           0       -1.653910    1.460050    0.240795
     31          1           0       -2.427769    1.875129    0.873764
     32          1           0       -1.435648    2.199286   -0.519819
     33          6           0       -2.126774    0.152277   -0.391636
     34          1           0       -2.360241   -0.572138    0.377645
     35          1           0       -1.348150   -0.283515   -1.000942
     36         16           0       -3.550743    0.358864   -1.507473
     37          6           0       -4.949752    0.561463   -0.360260
     38          1           0       -5.738050    0.985970   -0.969076
     39          1           0       -4.709693    1.292011    0.400927
     40          6           0       -5.413367   -0.745499    0.279464
     41          1           0       -5.652243   -1.475929   -0.481726
     42          1           0       -4.626604   -1.170222    0.889992
     43         16           0       -6.815084   -0.545715    1.421907
     44          6           0       -8.218948   -0.246561    0.302804
     45          1           0       -9.017181    0.071990    0.962935
     46          1           0       -7.996781    0.592931   -0.345073
     47          6           0       -8.665687   -1.458146   -0.510163
     48          1           0       -8.922442   -2.286469    0.140043
     49          1           0       -9.540139   -1.203594   -1.102780
     50          1           0       -7.893143   -1.793035   -1.193604
 ---------------------------------------------------------------------
 Standard basis: 6-31G(d) (6D, 7F)
   372 basis functions,   752 primitive gaussians,   372 cartesian basis functions
    93 alpha electrons       93 beta electrons
 Requested convergence on RMS density matrix=1.00D-08 within  64 cycles.
 Requested convergence on MAX density matrix=1.00D-06.
 Requested convergence on             energy=1.00D-06.
 SCF Done:  E(RHF) =  -1964.69026732     A.U. after   11 cycles
            NFock= 11  Conv=0.59D-08     -V/T= 2.0006
 Step number   5 out of a maximum of   55
     Eigenvalues ---    0.00223   0.00229   0.00230   0.00237   0.00245
     Eigenvalues ---    0.00384   0.00404   0.00439   0.00457   0.00471
     Eigenvalues ---    0.00481   0.00600   0.00968   0.01357   0.01494
     Eigenvalues ---    0.01503   0.01548   0.01580   0.01605   0.04121
     Eigenvalues ---    0.04334   0.04472   0.04474   0.04498   0.04588
     Eigenvalues ---    0.04747   0.04775   0.04988   0.05128   0.05492
     Eigenvalues ---    0.05511   0.05532   0.05619   0.05652   0.05656
     Eigenvalues ---    0.05662   0.05669   0.05699   0.05745   0.05767
     Eigenvalues ---    0.05823   0.05865   0.05975   0.05990   0.06020
     Eigenvalues ---    0.06109   0.06265   0.11019   0.11333   0.11445
     Eigenvalues ---    0.11572   0.11579   0.11604   0.11615   0.11751
     Eigenvalues ---    0.11829   0.11912   0.11999   0.12046   0.13582
     Eigenvalues ---    0.13770   0.13918   0.13942   0.13961   0.13962
     Eigenvalues ---    0.13998   0.14058   0.14065   0.14121   0.14223
     Eigenvalues ---    0.14889   0.15960   0.16000   0.16000   0.16001
     Eigenvalues ---    0.16001   0.16002   0.21485   0.21947   0.21962
     Eigenvalues ---    0.22013   0.22021   0.22025   0.22031   0.22051
     Eigenvalues ---    0.22054   0.22072   0.22726   0.23033   0.24086
     Eigenvalues ---    0.24197   0.24245   0.24315   0.24361   0.24400
     Eigenvalues ---    0.24812   0.24968   0.25000   0.25176   0.28945
     Eigenvalues ---    0.29810   0.29872   0.29990   0.30144   0.30188
     Eigenvalues ---    0.30374   0.31578   0.33580   0.33640   0.33676
     Eigenvalues ---    0.33695   0.33740   0.33762   0.33878   0.34093
     Eigenvalues ---    0.34171   0.34241   0.34257   0.34331   0.34339
     Eigenvalues ---    0.34348   0.34367   0.34368   0.34385   0.34392
     Eigenvalues ---    0.34396   0.34400   0.34409   0.34411   0.34418
     Eigenvalues ---    0.34435   0.34443   0.34451   0.34531   0.34621
     Eigenvalues ---    0.34719   0.35809   0.37729   0.42217   0.43247
     Eigenvalues ---    0.43488   0.43587   0.44406   0.52285
 Maximum Force            0.001193     0.000015     NO 
 RMS     Force            0.000274     0.000010     NO 
 Maximum Displacement     0.231627     0.000060     NO 
 RMS     Displacement     0.042733     0.000040     NO 
                          Input orientation:                          
 ---------------------------------------------------------------------
 Center     Atomic      Atomic             Coordinates (Angstroms)
 Number     Number       Type             X           Y           Z
 ---------------------------------------------------------------------
      1          6           0       -9.209380   -1.458382   -1.068723
      2          1           0      -10.108477   -1.448962   -1.677571
      3          1           0       -8.415236   -1.899721   -1.661488
      4          1           0       -9.385868   -2.094047   -0.207675
      5          6           0       -8.870061   -0.043289   -0.619425
      6          1           0       -8.666876    0.590288   -1.481234
      7          1           0       -9.712857    0.384102   -0.091320
      8          8           0       -7.795333    0.013202    0.277636
      9          6           0       -6.521954   -0.161766   -0.263870
     10          1           0       -6.369675    0.491266   -1.121080
     11          1           0       -6.371891   -1.185054   -0.598490
     12          6           0       -5.523883    0.194686    0.826433
     13          1           0       -5.666099    1.229353    1.108720
     14          1           0       -5.703609   -0.417996    1.705092
     15          8           0       -4.203136    0.060328    0.378733
     16          6           0       -3.614453   -1.198589    0.557507
     17          1           0       -4.168258   -1.961488    0.013409
     18          1           0       -3.614511   -1.470698    1.610389
     19          6           0       -2.190685   -1.176576    0.034215
     20          1           0       -2.178786   -0.737115   -0.956960
     21          1           0       -1.844019   -2.198599   -0.055585
     22          8           0       -1.269071   -0.555149    0.883043
     23          6           0       -1.331711    0.828378    1.075099
     24          1           0       -0.526263    1.047504    1.764112
     25          1           0       -2.260066    1.111333    1.558233
     26          6           0       -1.185900    1.687542   -0.178948
     27          1           0       -1.125442    2.723517    0.137056
     28          1           0       -2.065460    1.603656   -0.803962
     29         16           0        0.205717    1.319511   -1.289568
     30          6           0        1.656125    1.471227   -0.197103
     31          1           0        2.433398    1.930350   -0.793864
     32          1           0        1.426127    2.159879    0.605659
     33          6           0        2.127506    0.129439    0.360992
     34          1           0        2.383312   -0.544026   -0.446305
     35          1           0        1.335574   -0.347401    0.920951
     36         16           0        3.525963    0.273127    1.519298
     37          6           0        4.947503    0.563315    0.418823
     38          1           0        5.720920    0.952108    1.068656
     39          1           0        4.715505    1.341508   -0.295776
     40          6           0        5.433163   -0.694245   -0.298905
     41          1           0        5.665173   -1.472917    0.414690
     42          1           0        4.658004   -1.082344   -0.947277
     43         16           0        6.850765   -0.410202   -1.404590
     44          6           0        8.254899   -0.260085   -0.255241
     45          1           0        9.062814    0.115652   -0.871983
     46          1           0        8.043910    0.506845    0.479862
     47          6           0        8.677149   -1.560909    0.421315
     48          1           0        8.923527   -2.317324   -0.314586
     49          1           0        9.552204   -1.388505    1.041694
     50          1           0        7.895702   -1.955724    1.060912
 ---------------------------------------------------------------------
 Stoichiometry    C14H30O3S3
 Framework group  C1[X(C14H30O3S3)]
                         Standard orientation:                         
 ---------------------------------------------------------------------
 Center     Atomic      Atomic             Coordinates (Angstroms)
 Number     Number       Type             X           Y           Z
 ---------------------------------------------------------------------
      1          6           0        9.228034   -1.312779    1.201377
      2          1           0       10.127839   -1.237145    1.804528
      3          1           0        8.435477   -1.690190    1.838738
      4          1           0        9.404753   -2.035898    0.412395
      5          6           0        8.885371    0.046018    0.604932
      6          1           0        8.681961    0.767092    1.394930
      7          1           0        9.726685    0.416511    0.033278
      8          8           0        7.809460    0.005015   -0.291552
      9          6           0        6.537080   -0.113854    0.267245
     10          1           0        6.384531    0.626171    1.050534
     11          1           0        6.389448   -1.096132    0.708769
     12          6           0        5.537000    0.123046   -0.853327
     13          1           0        5.676825    1.122177   -1.244010
     14          1           0        5.716890   -0.579082   -1.662264
     15          8           0        4.217059    0.034515   -0.392049
     16          6           0        3.630661   -1.237349   -0.435403
     17          1           0        4.186629   -1.937180    0.185801
     18          1           0        3.629999   -1.619647   -1.453465
     19          6           0        2.207480   -1.162559    0.084592
     20          1           0        2.195894   -0.620425    1.023556
     21          1           0        1.862950   -2.169921    0.282820
     22          8           0        1.283620   -0.636417   -0.824093
     23          6           0        1.343285    0.719032   -1.161960
     24          1           0        0.536579    0.862320   -1.869207
     25          1           0        2.270497    0.950836   -1.673691
     26          6           0        1.197270    1.706147   -0.005958
     27          1           0        1.134378    2.702627   -0.430023
     28          1           0        2.077742    1.690682    0.623196
     29         16           0       -0.192285    1.455479    1.139391
     30          6           0       -1.644297    1.487735    0.039028
     31          1           0       -2.421765    2.006154    0.584788
     32          1           0       -1.416626    2.087737   -0.832598
     33          6           0       -2.113683    0.093432   -0.372876
     34          1           0       -2.367185   -0.491035    0.501683
     35          1           0       -1.321476   -0.438672   -0.880184
     36         16           0       -3.513807    0.110814   -1.537931
     37          6           0       -4.934602    0.513515   -0.472471
     38          1           0       -5.709565    0.829728   -1.158808
     39          1           0       -4.703294    1.363570    0.155192
     40          6           0       -5.416906   -0.661678    0.375326
     41          1           0       -5.648224   -1.512103   -0.251288
     42          1           0       -4.640203   -0.977352    1.060133
     43         16           0       -6.833745   -0.264526    1.446612
     44          6           0       -8.239548   -0.239812    0.289790
     45          1           0       -9.047469    0.197757    0.864311
     46          1           0       -8.030961    0.445171   -0.522838
     47          6           0       -8.660026   -1.605861   -0.244321
     48          1           0       -8.904022   -2.280369    0.568034
     49          1           0       -9.536163   -1.501878   -0.878265
     50          1           0       -7.878563   -2.064875   -0.839506
 ---------------------------------------------------------------------
 Standard basis: 6-31G(d) (6D, 7F)
   372 basis functions,   752 primitive gaussians,   372 cartesian basis functions
    93 alpha electrons       93 beta electrons
 Requested convergence on RMS density matrix=1.00D-08 within  64 cycles.
 Requested convergence on MAX density matrix=1.00D-06.
 Requested convergence on             energy=1.00D-06.
 SCF Done:  E(RHF) =  -1964.69032074     A.U. after   11 cycles
            NFock= 11  Conv=0.74D-08     -V/T= 2.0006
 Step number   6 out of a maximum of   55
     Eigenvalues ---    0.00220   0.00225   0.00232   0.00237   0.00284
     Eigenvalues ---    0.00391   0.00416   0.00445   0.00458   0.00471
     Eigenvalues ---    0.00481   0.00575   0.01048   0.01200   0.01493
     Eigenvalues ---    0.01503   0.01553   0.01575   0.01605   0.04123
     Eigenvalues ---    0.04323   0.04384   0.04486   0.04490   0.04593
     Eigenvalues ---    0.04772   0.04920   0.05004   0.05150   0.05489
     Eigenvalues ---    0.05509   0.05530   0.05627   0.05648   0.05662
     Eigenvalues ---    0.05666   0.05692   0.05719   0.05743   0.05766
     Eigenvalues ---    0.05812   0.05860   0.05958   0.05977   0.06012
     Eigenvalues ---    0.06094   0.06255   0.11025   0.11296   0.11391
     Eigenvalues ---    0.11545   0.11559   0.11603   0.11622   0.11743
     Eigenvalues ---    0.11830   0.11884   0.11947   0.12063   0.13555
     Eigenvalues ---    0.13666   0.13850   0.13926   0.13939   0.13963
     Eigenvalues ---    0.14004   0.14057   0.14063   0.14117   0.14239
     Eigenvalues ---    0.14567   0.15951   0.16000   0.16000   0.16000
     Eigenvalues ---    0.16001   0.16003   0.20996   0.21475   0.21959
     Eigenvalues ---    0.22012   0.22020   0.22027   0.22033   0.22047
     Eigenvalues ---    0.22051   0.22712   0.22784   0.23382   0.24027
     Eigenvalues ---    0.24211   0.24254   0.24304   0.24351   0.24441
     Eigenvalues ---    0.24783   0.25000   0.25024   0.28004   0.28827
     Eigenvalues ---    0.29843   0.29914   0.29984   0.30145   0.30195
     Eigenvalues ---    0.30525   0.32431   0.33577   0.33641   0.33673
     Eigenvalues ---    0.33700   0.33748   0.33792   0.33859   0.34087
     Eigenvalues ---    0.34169   0.34241   0.34255   0.34322   0.34340
     Eigenvalues ---    0.34346   0.34367   0.34368   0.34380   0.34390
     Eigenvalues ---    0.34394   0.34397   0.34408   0.34415   0.34417
     Eigenvalues ---    0.34441   0.34443   0.34453   0.34537   0.34618
     Eigenvalues ---    0.35011   0.35647   0.38382   0.42223   0.43250
     Eigenvalues ---    0.43490   0.43726   0.44426   0.51968
 Maximum Force            0.001075     0.000015     NO 
 RMS     Force            0.000147     0.000010     NO 
 Maximum Displacement     0.193242     0.000060     NO 
 RMS     Displacement     0.032829     0.000040     NO 
                          Input orientation:                          
 ---------------------------------------------------------------------
 Center     Atomic      Atomic             Coordinates (Angstroms)
 Number     Number       Type             X           Y           Z
 ---------------------------------------------------------------------
      1          6           0       -9.214657   -1.443960   -1.066627
      2          1           0      -10.114474   -1.428593   -1.674198
      3          1           0       -8.421699   -1.881251   -1.663894
      4          1           0       -9.390692   -2.086358   -0.210566
      5          6           0       -8.873114   -0.032990   -0.606086
      6          1           0       -8.670986    0.607495   -1.462954
      7          1           0       -9.714575    0.390802   -0.073032
      8          8           0       -7.796589    0.014470    0.289155
      9          6           0       -6.524095   -0.151906   -0.256914
     10          1           0       -6.373479    0.513716   -1.104580
     11          1           0       -6.373553   -1.170026   -0.606770
     12          6           0       -5.523900    0.188754    0.836306
     13          1           0       -5.665201    1.219162    1.134173
     14          1           0       -5.701818   -0.436657    1.706202
     15          8           0       -4.204650    0.059877    0.382765
     16          6           0       -3.613152   -1.199231    0.550525
     17          1           0       -4.169949   -1.959237    0.005420
     18          1           0       -3.606202   -1.477863    1.601585
     19          6           0       -2.192487   -1.171555    0.018561
     20          1           0       -2.187106   -0.720978   -0.967632
     21          1           0       -1.846379   -2.192370   -0.085045
     22          8           0       -1.265272   -0.559443    0.868100
     23          6           0       -1.324683    0.822462    1.071121
     24          1           0       -0.518159    1.037000    1.760183
     25          1           0       -2.251918    1.101578    1.558364
     26          6           0       -1.181454    1.690784   -0.177600
     27          1           0       -1.116133    2.724112    0.145774
     28          1           0       -2.064985    1.614160   -0.797889
     29         16           0        0.204632    1.327238   -1.297600
     30          6           0        1.660480    1.461904   -0.208976
     31          1           0        2.441455    1.915016   -0.805199
     32          1           0        1.439366    2.150463    0.596191
     33          6           0        2.120092    0.113116    0.343377
     34          1           0        2.370482   -0.559073   -0.466652
     35          1           0        1.323411   -0.358656    0.900368
     36         16           0        3.520074    0.238654    1.502013
     37          6           0        4.943324    0.519066    0.401101
     38          1           0        5.717380    0.912196    1.047668
     39          1           0        4.712680    1.291672   -0.319870
     40          6           0        5.428224   -0.744811   -0.306003
     41          1           0        5.658718   -1.517252    0.414764
     42          1           0        4.654449   -1.138302   -0.952651
     43         16           0        6.850623   -0.469130   -1.407160
     44          6           0        8.234164   -0.237527   -0.246825
     45          1           0        9.030808    0.165429   -0.860949
     46          1           0        7.979904    0.529765    0.474261
     47          6           0        8.707289   -1.507606    0.454055
     48          1           0        8.996141   -2.262769   -0.267462
     49          1           0        9.566431   -1.286246    1.081048
     50          1           0        7.937235   -1.928100    1.091052
 ---------------------------------------------------------------------
 Stoichiometry    C14H30O3S3
 Framework group  C1[X(C14H30O3S3)]
                         Standard orientation:                         
 ---------------------------------------------------------------------
 Center     Atomic      Atomic             Coordinates (Angstroms)
 Number     Number       Type             X           Y           Z
 ---------------------------------------------------------------------
      1          6           0        9.229937   -1.272630    1.235262
      2          1           0       10.130308   -1.175767    1.834428
      3          1           0        8.437645   -1.625957    1.886543
      4          1           0        9.405359   -2.024039    0.472952
      5          6           0        8.887594    0.063755    0.589922
      6          1           0        8.686082    0.813373    1.353313
      7          1           0        9.728452    0.412325    0.004038
      8          8           0        7.810236   -0.009466   -0.302575
      9          6           0        6.538288   -0.101263    0.262081
     10          1           0        6.388272    0.672037    1.012932
     11          1           0        6.388339   -1.063267    0.745499
     12          6           0        5.536999    0.089518   -0.866011
     13          1           0        5.677750    1.070672   -1.299550
     14          1           0        5.714285   -0.646913   -1.644312
     15          8           0        4.218200    0.022462   -0.398033
     16          6           0        3.626885   -1.247854   -0.394806
     17          1           0        4.184386   -1.927784    0.246802
     18          1           0        3.619045   -1.664971   -1.398979
     19          6           0        2.206702   -1.149266    0.129980
     20          1           0        2.202106   -0.570463    1.046818
     21          1           0        1.860963   -2.147004    0.369921
     22          8           0        1.278544   -0.656787   -0.793119
     23          6           0        1.337398    0.685400   -1.179746
     24          1           0        0.530185    0.805444   -1.890597
     25          1           0        2.264111    0.896759   -1.700905
     26          6           0        1.195083    1.713370   -0.058665
     27          1           0        1.129188    2.693968   -0.517677
     28          1           0        2.079203    1.720779    0.565461
     29         16           0       -0.189877    1.503165    1.101292
     30          6           0       -1.646760    1.490364    0.005820
     31          1           0       -2.427308    2.019255    0.536606
[...]
     18          1           0       -3.597186   -1.461268    1.658699
     19          6           0       -2.191213   -1.165211    0.067212
     20          1           0       -2.191341   -0.724740   -0.923544
     21          1           0       -1.840793   -2.185453   -0.026908
     22          8           0       -1.262838   -0.540500    0.907074
     23          6           0       -1.328225    0.843377    1.096560
     24          1           0       -0.521043    1.068190    1.781624
     25          1           0       -2.255729    1.124256    1.582165
     26          6           0       -1.191944    1.698841   -0.161519
     27          1           0       -1.132786    2.736083    0.150356
     28          1           0       -2.076200    1.609213   -0.779010
     29         16           0        0.192353    1.334386   -1.283609
     30          6           0        1.652804    1.481367   -0.202825
     31          1           0        2.427801    1.929568   -0.810632
     32          1           0        1.435822    2.178787    0.595954
     33          6           0        2.121429    0.139867    0.359611
     34          1           0        2.369898   -0.538190   -0.446194
     35          1           0        1.331554   -0.330935    0.926555
     36         16           0        3.529003    0.282945    1.506780
     37          6           0        4.943420    0.551125    0.391416
     38          1           0        5.722953    0.950401    1.027468
     39          1           0        4.707097    1.316534   -0.335430
     40          6           0        5.421461   -0.720402   -0.306720
     41          1           0        5.656887   -1.486158    0.419700
     42          1           0        4.642004   -1.119131   -0.943225
     43         16           0        6.835676   -0.457200   -1.421649
     44          6           0        8.235825   -0.270182   -0.272966
     45          1           0        9.038673    0.113178   -0.891493
     46          1           0        8.009197    0.500273    0.453923
     47          6           0        8.677521   -1.557153    0.417474
     48          1           0        8.942509   -2.314949   -0.310459
     49          1           0        9.545167   -1.363693    1.042067
     50          1           0        7.898849   -1.961082    1.054787
 ---------------------------------------------------------------------
 Stoichiometry    C14H30O3S3
 Framework group  C1[X(C14H30O3S3)]
                         Standard orientation:                         
 ---------------------------------------------------------------------
 Center     Atomic      Atomic             Coordinates (Angstroms)
 Number     Number       Type             X           Y           Z
 ---------------------------------------------------------------------
      1          6           0        9.196910   -1.400822    1.168481
      2          1           0       10.082443   -1.364415    1.795918
      3          1           0        8.389294   -1.815010    1.762600
      4          1           0        9.391372   -2.074351    0.340822
      5          6           0        8.868860   -0.007528    0.648657
      6          1           0        8.652025    0.665544    1.476398
      7          1           0        9.721767    0.393906    0.116387
      8          8           0        7.809581    0.007201   -0.268506
      9          6           0        6.525542   -0.118097    0.261324
     10          1           0        6.361868    0.602136    1.060545
     11          1           0        6.361268   -1.110491    0.673764
     12          6           0        5.548394    0.153646   -0.870887
     13          1           0        5.697571    1.162382   -1.232607
     14          1           0        5.740927   -0.527156   -1.694727
     15          8           0        4.221080    0.054427   -0.432221
     16          6           0        3.622823   -1.206754   -0.557390
     17          1           0        4.179284   -1.951145    0.009302
     18          1           0        3.609963   -1.518771   -1.598949
     19          6           0        2.204510   -1.156192   -0.020824
     20          1           0        2.204721   -0.673741    0.950182
     21          1           0        1.855095   -2.171795    0.117044
     22          8           0        1.275128   -0.568833   -0.886139
     23          6           0        1.339121    0.805731   -1.134686
     24          1           0        0.531385    1.000292   -1.828303
     25          1           0        2.266118    1.066429   -1.632364
     26          6           0        1.202667    1.714106    0.085719
     27          1           0        1.142379    2.737002   -0.270209
     28          1           0        2.087317    1.651786    0.706001
     29         16           0       -0.180724    1.396718    1.223122
     30          6           0       -1.641854    1.495991    0.137830
     31          1           0       -2.416966    1.969072    0.726327
     32          1           0       -1.425927    2.158800   -0.690170
     33          6           0       -2.109501    0.131229   -0.366450
     34          1           0       -2.356930   -0.511963    0.467757
     35          1           0       -1.319468   -0.362670   -0.913163
     36         16           0       -3.517784    0.223812   -1.517928
     37          6           0       -4.931893    0.538164   -0.414293
     38          1           0       -5.712118    0.909151   -1.066421
     39          1           0       -4.695924    1.334182    0.279018
     40          6           0       -5.408390   -0.702771    0.337856
     41          1           0       -5.643461   -1.499117   -0.355014
     42          1           0       -4.628240   -1.073192    0.990414
     43         16           0       -6.822292   -0.393412    1.441270
     44          6           0       -8.223191   -0.256987    0.286397
     45          1           0       -9.026088    0.151746    0.888392
     46          1           0       -7.997652    0.481875   -0.472908
     47          6           0       -8.664025   -1.572720   -0.348118
     48          1           0       -8.927936   -2.298925    0.411709
     49          1           0       -9.532165   -1.406952   -0.979945
     50          1           0       -7.885293   -2.002829   -0.967989
 ---------------------------------------------------------------------
 Standard basis: 6-31G(d) (6D, 7F)
   372 basis functions,   752 primitive gaussians,   372 cartesian basis functions
    93 alpha electrons       93 beta electrons
 Requested convergence on RMS density matrix=1.00D-08 within  64 cycles.
 Requested convergence on MAX density matrix=1.00D-06.
 Requested convergence on             energy=1.00D-06.
 SCF Done:  E(RHF) =  -1964.69035215     A.U. after    4 cycles
            NFock=  4  Conv=0.32D-08     -V/T= 2.0006
 Step number  27 out of a maximum of   55
     Eigenvalues ---    0.00183   0.00201   0.00243   0.00326   0.00387
     Eigenvalues ---    0.00425   0.00460   0.00482   0.00496   0.00512
     Eigenvalues ---    0.00583   0.00805   0.00825   0.01031   0.01136
     Eigenvalues ---    0.01500   0.01531   0.01583   0.01692   0.04564
     Eigenvalues ---    0.04768   0.04781   0.04903   0.04986   0.05121
     Eigenvalues ---    0.05278   0.05341   0.05471   0.05530   0.05556
     Eigenvalues ---    0.05636   0.05664   0.05678   0.05691   0.05737
     Eigenvalues ---    0.05747   0.05770   0.05827   0.05857   0.05886
     Eigenvalues ---    0.05933   0.05964   0.06027   0.06052   0.06137
     Eigenvalues ---    0.06267   0.06626   0.11095   0.11275   0.11462
     Eigenvalues ---    0.11577   0.11609   0.11677   0.11756   0.11840
     Eigenvalues ---    0.11904   0.11983   0.12177   0.12252   0.13493
     Eigenvalues ---    0.13585   0.13820   0.13949   0.14005   0.14047
     Eigenvalues ---    0.14080   0.14162   0.14167   0.14374   0.14712
     Eigenvalues ---    0.15686   0.15972   0.15992   0.16009   0.16017
     Eigenvalues ---    0.16024   0.16107   0.20891   0.21733   0.21853
     Eigenvalues ---    0.22088   0.22214   0.22562   0.23025   0.23080
     Eigenvalues ---    0.23379   0.23633   0.23771   0.24072   0.24161
     Eigenvalues ---    0.24221   0.24313   0.24468   0.24768   0.24951
     Eigenvalues ---    0.26287   0.27921   0.28764   0.29687   0.30081
     Eigenvalues ---    0.30132   0.30197   0.30307   0.30555   0.31754
     Eigenvalues ---    0.32199   0.33004   0.33584   0.33659   0.33688
     Eigenvalues ---    0.33722   0.33774   0.33862   0.33900   0.34223
     Eigenvalues ---    0.34246   0.34282   0.34339   0.34352   0.34372
     Eigenvalues ---    0.34377   0.34386   0.34401   0.34417   0.34429
     Eigenvalues ---    0.34444   0.34460   0.34481   0.34503   0.34607
     Eigenvalues ---    0.34690   0.34781   0.34842   0.34927   0.35710
     Eigenvalues ---    0.36062   0.36837   0.37752   0.42144   0.43302
     Eigenvalues ---    0.43486   0.44350   0.44769   0.54588
 Maximum Force            0.000000     0.000015     YES
 RMS     Force            0.000000     0.000010     YES
 Maximum Displacement     0.000046     0.000060     YES
 RMS     Displacement     0.000013     0.000040     YES
 Optimization completed.
    -- Stationary point found.
                          Input orientation:                          
 ---------------------------------------------------------------------
 Center     Atomic      Atomic             Coordinates (Angstroms)
 Number     Number       Type             X           Y           Z
 ---------------------------------------------------------------------
      1          6           0       -9.182741   -1.467058   -1.114044
      2          1           0      -10.067967   -1.458356   -1.742908
      3          1           0       -8.374424   -1.905524   -1.689496
      4          1           0       -9.377033   -2.104747   -0.258428
      5          6           0       -8.856249   -0.052495   -0.654136
      6          1           0       -8.639584    0.584756   -1.509803
      7          1           0       -9.709812    0.370541   -0.139953
      8          8           0       -7.797480    0.002450    0.262089
      9          6           0       -6.513041   -0.144193   -0.261252
     10          1           0       -6.349595    0.541345   -1.090469
     11          1           0       -6.347634   -1.153167   -0.630778
     12          6           0       -5.536756    0.176652    0.858787
     13          1           0       -5.687052    1.199798    1.176949
     14          1           0       -5.729110   -0.468464    1.710901
     15          8           0       -4.209114    0.060005    0.425433
     16          6           0       -3.609769   -1.194105    0.604739
     17          1           0       -4.165241   -1.962578    0.070131
     18          1           0       -3.597186   -1.461268    1.658699
     19          6           0       -2.191213   -1.165211    0.067212
     20          1           0       -2.191341   -0.724740   -0.923544
     21          1           0       -1.840793   -2.185453   -0.026908
     22          8           0       -1.262838   -0.540500    0.907074
     23          6           0       -1.328225    0.843377    1.096560
     24          1           0       -0.521043    1.068190    1.781624
     25          1           0       -2.255729    1.124256    1.582165
     26          6           0       -1.191944    1.698841   -0.161519
     27          1           0       -1.132786    2.736083    0.150356
     28          1           0       -2.076200    1.609213   -0.779010
     29         16           0        0.192353    1.334386   -1.283609
     30          6           0        1.652804    1.481367   -0.202825
     31          1           0        2.427801    1.929568   -0.810632
     32          1           0        1.435822    2.178787    0.595954
     33          6           0        2.121429    0.139867    0.359611
     34          1           0        2.369898   -0.538190   -0.446194
     35          1           0        1.331554   -0.330935    0.926555
     36         16           0        3.529003    0.282945    1.506780
     37          6           0        4.943420    0.551125    0.391416
     38          1           0        5.722953    0.950401    1.027468
     39          1           0        4.707097    1.316534   -0.335430
     40          6           0        5.421461   -0.720402   -0.306720
     41          1           0        5.656887   -1.486158    0.419700
     42          1           0        4.642004   -1.119131   -0.943225
     43         16           0        6.835676   -0.457200   -1.421649
     44          6           0        8.235825   -0.270182   -0.272966
     45          1           0        9.038673    0.113178   -0.891493
     46          1           0        8.009197    0.500273    0.453923
     47          6           0        8.677521   -1.557153    0.417474
     48          1           0        8.942509   -2.314949   -0.310459
     49          1           0        9.545167   -1.363693    1.042067
     50          1           0        7.898849   -1.961082    1.054787
 ---------------------------------------------------------------------
 Stoichiometry    C14H30O3S3
 Framework group  C1[X(C14H30O3S3)]
                         Standard orientation:                         
 ---------------------------------------------------------------------
 Center     Atomic      Atomic             Coordinates (Angstroms)
 Number     Number       Type             X           Y           Z
 ---------------------------------------------------------------------
      1          6           0        9.196910   -1.400822    1.168481
      2          1           0       10.082443   -1.364415    1.795918
      3          1           0        8.389294   -1.815010    1.762600
      4          1           0        9.391372   -2.074351    0.340822
      5          6           0        8.868860   -0.007528    0.648657
      6          1           0        8.652025    0.665544    1.476398
      7          1           0        9.721767    0.393906    0.116387
      8          8           0        7.809581    0.007201   -0.268506
      9          6           0        6.525542   -0.118097    0.261324
     10          1           0        6.361868    0.602136    1.060545
     11          1           0        6.361268   -1.110491    0.673764
     12          6           0        5.548394    0.153646   -0.870887
     13          1           0        5.697571    1.162382   -1.232607
     14          1           0        5.740927   -0.527156   -1.694727
     15          8           0        4.221080    0.054427   -0.432221
     16          6           0        3.622823   -1.206754   -0.557390
     17          1           0        4.179284   -1.951145    0.009302
     18          1           0        3.609963   -1.518771   -1.598949
     19          6           0        2.204510   -1.156192   -0.020824
     20          1           0        2.204721   -0.673741    0.950182
     21          1           0        1.855095   -2.171795    0.117044
     22          8           0        1.275128   -0.568833   -0.886139
     23          6           0        1.339121    0.805731   -1.134686
     24          1           0        0.531385    1.000292   -1.828303
     25          1           0        2.266118    1.066429   -1.632364
     26          6           0        1.202667    1.714106    0.085719
     27          1           0        1.142379    2.737002   -0.270209
     28          1           0        2.087317    1.651786    0.706001
     29         16           0       -0.180724    1.396718    1.223122
     30          6           0       -1.641854    1.495991    0.137830
     31          1           0       -2.416966    1.969072    0.726327
     32          1           0       -1.425927    2.158800   -0.690170
     33          6           0       -2.109501    0.131229   -0.366450
     34          1           0       -2.356930   -0.511963    0.467757
     35          1           0       -1.319468   -0.362670   -0.913163
     36         16           0       -3.517784    0.223812   -1.517928
     37          6           0       -4.931893    0.538164   -0.414293
     38          1           0       -5.712118    0.909151   -1.066421
     39          1           0       -4.695924    1.334182    0.279018
     40          6           0       -5.408390   -0.702771    0.337856
     41          1           0       -5.643461   -1.499117   -0.355014
     42          1           0       -4.628240   -1.073192    0.990414
     43         16           0       -6.822292   -0.393412    1.441270
     44          6           0       -8.223191   -0.256987    0.286397
     45          1           0       -9.026088    0.151746    0.888392
     46          1           0       -7.997652    0.481875   -0.472908
     47          6           0       -8.664025   -1.572720   -0.348118
     48          1           0       -8.927936   -2.298925    0.411709
     49          1           0       -9.532165   -1.406952   -0.979945
     50          1           0       -7.885293   -2.002829   -0.967989
 ---------------------------------------------------------------------
 Mulliken charges:
     1  C   -0.505939
     2  H    0.162148
     3  H    0.162553
     4  H    0.175175
     5  C    0.015438
     6  H    0.142118
     7  H    0.173877
     8  O   -0.634294
     9  C    0.010026
    10  H    0.149980
    11  H    0.141514
    12  C    0.000497
    13  H    0.182300
    14  H    0.160025
    15  O   -0.647053
    16  C   -0.012700
    17  H    0.142998
    18  H    0.161496
    19  C    0.002191
    20  H    0.167943
    21  H    0.176521
    22  O   -0.630932
    23  C    0.019762
    24  H    0.167687
    25  H    0.181660
    26  C   -0.519347
    27  H    0.193307
    28  H    0.215759
    29  S    0.117372
    30  C   -0.479987
    31  H    0.202162
    32  H    0.203498
    33  C   -0.483691
    34  H    0.201126
    35  H    0.242432
    36  S    0.106377
    37  C   -0.474569
    38  H    0.200572
    39  H    0.207440
    40  C   -0.475128
    41  H    0.209767
    42  H    0.203476
    43  S    0.111602
    44  C   -0.475644
    45  H    0.200259
    46  H    0.189057
    47  C   -0.475416
    48  H    0.180743
    49  H    0.167230
    50  H    0.166611
 Sum of Mulliken charges =  -0.00000
 Dipole moment (field-independent basis, Debye):
    X=              2.2574    Y=             -0.4243    Z=             -0.3951  Tot=              2.3307
 Quadrupole moment (field-independent basis, Debye-Ang):
   XX=           -120.1185   YY=           -147.1008   ZZ=           -158.3496
   XY=             -4.9672   XZ=             14.9734   YZ=             -3.2956
 Traceless Quadrupole moment (field-independent basis, Debye-Ang):
   XX=             21.7378   YY=             -5.2445   ZZ=            -16.4933
   XY=             -4.9672   XZ=             14.9734   YZ=             -3.2956
 Octapole moment (field-independent basis, Debye-Ang**2):
  XXX=             56.9096  YYY=             -4.9426  ZZZ=            -12.4811  XYY=             35.4869
  XXY=            -12.1529  XXZ=             12.8437  XZZ=             62.4063  YZZ=             -2.5171
  YYZ=            -10.3751  XYZ=             -4.6166
 Hexadecapole moment (field-independent basis, Debye-Ang**3):
 XXXX=         -23295.8282 YYYY=          -1051.8401 ZZZZ=           -997.1755 XXXY=           -122.2426
 XXXZ=           1110.4191 YYYX=             -7.6366 YYYZ=            -13.9206 ZZZX=             -2.4323
 ZZZY=             -3.2060 XXYY=          -4609.8667 XXZZ=          -4742.0699 YYZZ=           -354.6118
 XXYZ=             48.4444 YYXZ=             -7.2532 ZZXY=             -8.1873
 Job cpu time:       0 days  2 hours 42 minutes 13.4 seconds.
 Normal termination of Gaussian 16 at Sat Jul  8 16:34:21 2023.
