 Copyright (c) 1988-2019, Gaussian, Inc.  All Rights Reserved.
  
 This is part of the Gaussian(R) 16 program.  It is based on
 the Gaussian(R) 09 system (copyright 2009, Gaussian, Inc.),
 the Gaussian(R) 03 system (copyright 2003, Gaussian, Inc.),
 the Gaussian(R) 98 system (copyright 1998, Gaussian, Inc.),
 the Gaussian(R) 94 system (copyright 1995, Gaussian, Inc.),
 the Gaussian 92(TM) system (copyright 1992, Gaussian, Inc.),
 the Gaussian 90(TM) system (copyright 1990, Gaussian, Inc.),
 the Gaussian 88(TM) system (copyright 1988, Gaussian, Inc.),
 the Gaussian 86(TM) system (copyright 1986, Carnegie Mellon
 University), and the Gaussian 82(TM) system (copyright 1983,
 Carnegie Mellon University). Gaussian is a federally registered
 trademark of Gaussian, Inc.
 Cite this work as:
 Gaussian 16, Revision C.01,
 M. J. Frisch, G. W. Trucks, H. B. Schlegel, G. E. Scuseria, 
 M. A. Robb, J. R. Cheeseman, G. Scalmani, V. Barone, 
 G. A. Petersson, H. Nakatsuji, X. Li, M. Caricato, A. V. Marenich, 
 J. Bloino, B. G. Janesko, R. Gomperts, B. Mennucci, H. P. Hratchian, 
 J. V. Ortiz, A. F. Izmaylov, J. L. Sonnenberg, D. Williams-Young, 
 F. Ding, F. Lipparini, F. Egidi, J. Goings, B. Peng, A. Petrone, 
 T. Henderson, D. Ranasinghe, V. G. Zakrzewski, J. Gao, N. Rega, 
 G. Zheng, W. Liang, M. Hada, M. Ehara, K. Toyota, R. Fukuda, 
 J. Hasegawa, M. Ishida, T. Nakajima, Y. Honda, O. Kitao, H. Nakai, 
 T. Vreven, K. Throssell, J. A. Montgomery, Jr., J. E. Peralta, 
 F. Ogliaro, M. J. Bearpark, J. J. Heyd, E. N. Brothers, K. N. Kudin, 
 V. N. Staroverov, T. A. Keith, R. Kobayashi, J. Normand, 
 K. Raghavachari, A. P. Rendell, J. C. Burant, S. S. Iyengar, 
 J. Tomasi, M. Cossi, J. M. Millam, M. Klene, C. Adamo, R. Cammi, 
 J. W. Ochterski, R. L. Martin, K. Morokuma, O. Farkas, 
 J. B. Foresman, and D. J. Fox, Gaussian, Inc., Wallingford CT, 2019.
 
 ******************************************
 Gaussian 16:  EM64L-G16RevC.01  3-Jul-2019
                 8-Jul-2023 
 ******************************************
 ----------------------------------------------------------------------
 #P HF/6-31G(d) Opt=(Tight,MaxCycle=55) GFInput GFPrint SCF(Conver=8,XQ
 C,MaxConventionalCycles=64,MaxCycle=128) Test
 ----------------------------------------------------------------------
 1/6=55,7=10,18=20,19=15,38=1/1,3;
 2/9=110,12=2,17=6,18=5,40=1/2;
 3/5=1,6=6,7=1,11=9,24=110,25=1,30=1,71=1/1,2,3;
 4//1;
 5/5=2,6=8,7=128,8=3,13=1,38=5,85=64/2,8;
 6/7=2,8=2,9=2,10=2,28=1/1;
 7//1,2,3,16;
 1/6=55,7=10,18=20,19=15/3(2);
 2/9=110/2;
 99//99;
 2/9=110/2;
 3/5=1,6=6,7=1,11=9,25=1,30=1,71=1/1,2,3;
 4/5=5,16=3,69=1/1;
 5/5=2,6=8,7=128,8=3,13=1,38=5,85=64/2,8;
 7//1,2,3,16;
 1/6=55,7=10,18=20,19=15/3(-5);
 2/9=110/2;
 6/7=2,8=2,9=2,10=2,19=2,28=1/1;
 99/9=1/99;
 ----------------------------------------------------------
 Optimization step - Input generated by PyRED DVE-DMDS-OPLS
 ----------------------------------------------------------
 Symbolic Z-matrix:
 Charge =  0 Multiplicity = 1
 C                     12.302    0.937     0.001 
 H                     13.283    0.453     0.001 
 H                     12.228    1.574    -0.885 
 H                     12.228    1.573     0.887 
 C                     11.197   -0.098     0. 
 H                     11.274   -0.748    -0.886 
 H                     11.274   -0.749     0.886 
 O                     9.957     0.574     0.001 
 C                     8.856    -0.298     0. 
 H                     8.862    -0.949     0.887 
 H                     8.862    -0.948    -0.888 
 C                     7.601     0.551     0.001 
 H                     7.593     1.2       0.889 
 H                     7.593     1.202    -0.887 
 O                     6.496    -0.32      0.001 
 C                     5.261     0.352     0. 
 H                     5.158     0.993    -0.888 
 H                     5.158     0.994     0.888 
 C                     4.171    -0.7       0.001 
 H                     4.273    -1.341     0.889 
 H                     4.274    -1.341    -0.887 
 O                     2.934    -0.028     0. 
 C                     1.831    -0.902    -0.001 
 H                     1.852    -1.552     0.887 
 H                     1.853    -1.552    -0.888 
 C                     0.576    -0.047    -0.001 
 H                     0.575     0.592    -0.889 
 H                     0.575     0.593     0.886 
 S                    -0.9      -1.112    -0.001 
 C                    -2.182     0.183    -0.002 
 H                    -2.061     0.813     0.885 
 H                    -2.061     0.812    -0.889 
 C                    -3.558    -0.468    -0.001 
 H                    -3.679    -1.097     0.886 
 H                    -3.679    -1.099    -0.887 
 S                    -4.84      0.828    -0.002 
 C                    -6.323    -0.234     0. 
 H                    -6.309    -0.874     0.887 
 H                    -6.31     -0.875    -0.886 
 C                    -7.571     0.639     0. 
 H                    -7.581     1.281     0.886 
 H                    -7.583     1.279    -0.887 
 S                    -9.053    -0.422     0.002 
 C                    -10.34     0.868     0.001 
 H                    -10.211    1.5       0.885 
 H                    -10.212    1.498    -0.885 
 C                    -11.722    0.227     0.002 
 H                    -12.496    0.999     0.002 
 H                    -11.867   -0.4      -0.883 
 H                    -11.866   -0.398     0.888 
 
 ITRead=  0  0  0  0  0  0  0  0  0  0  0  0  0  0  0  0  0  0  0  0
 ITRead=  0  0  0  0  0  0  0  0  0  0  0  0  0  0  0  0  0  0  0  0
 ITRead=  0  0  0  0  0  0  0  0  0  0
 MicOpt= -1 -1 -1 -1 -1 -1 -1 -1 -1 -1 -1 -1 -1 -1 -1 -1 -1 -1 -1 -1
 MicOpt= -1 -1 -1 -1 -1 -1 -1 -1 -1 -1 -1 -1 -1 -1 -1 -1 -1 -1 -1 -1
 MicOpt= -1 -1 -1 -1 -1 -1 -1 -1 -1 -1
 NAtoms=     50 NQM=       50 NQMF=       0 NMMI=      0 NMMIF=      0
                NMic=       0 NMicF=      0.
                          Input orientation:                          
 ---------------------------------------------------------------------
 Center     Atomic      Atomic             Coordinates (Angstroms)
 Number     Number       Type             X           Y           Z
 ---------------------------------------------------------------------
      1          6           0       12.302000    0.937000    0.001000
      2          1           0       13.283000    0.453000    0.001000
      3          1           0       12.228000    1.574000   -0.885000
      4          1           0       12.228000    1.573000    0.887000
      5          6           0       11.197000   -0.098000    0.000000
      6          1           0       11.274000   -0.748000   -0.886000
      7          1           0       11.274000   -0.749000    0.886000
      8          8           0        9.957000    0.574000    0.001000
      9          6           0        8.856000   -0.298000    0.000000
     10          1           0        8.862000   -0.949000    0.887000
     11          1           0        8.862000   -0.948000   -0.888000
     12          6           0        7.601000    0.551000    0.001000
     13          1           0        7.593000    1.200000    0.889000
     14          1           0        7.593000    1.202000   -0.887000
     15          8           0        6.496000   -0.320000    0.001000
     16          6           0        5.261000    0.352000    0.000000
     17          1           0        5.158000    0.993000   -0.888000
     18          1           0        5.158000    0.994000    0.888000
     19          6           0        4.171000   -0.700000    0.001000
     20          1           0        4.273000   -1.341000    0.889000
     21          1           0        4.274000   -1.341000   -0.887000
     22          8           0        2.934000   -0.028000    0.000000
     23          6           0        1.831000   -0.902000   -0.001000
     24          1           0        1.852000   -1.552000    0.887000
     25          1           0        1.853000   -1.552000   -0.888000
     26          6           0        0.576000   -0.047000   -0.001000
     27          1           0        0.575000    0.592000   -0.889000
     28          1           0        0.575000    0.593000    0.886000
     29         16           0       -0.900000   -1.112000   -0.001000
     30          6           0       -2.182000    0.183000   -0.002000
     31          1           0       -2.061000    0.813000    0.885000
     32          1           0       -2.061000    0.812000   -0.889000
     33          6           0       -3.558000   -0.468000   -0.001000
     34          1           0       -3.679000   -1.097000    0.886000
     35          1           0       -3.679000   -1.099000   -0.887000
     36         16           0       -4.840000    0.828000   -0.002000
     37          6           0       -6.323000   -0.234000    0.000000
     38          1           0       -6.309000   -0.874000    0.887000
     39          1           0       -6.310000   -0.875000   -0.886000
     40          6           0       -7.571000    0.639000    0.000000
     41          1           0       -7.581000    1.281000    0.886000
     42          1           0       -7.583000    1.279000   -0.887000
     43         16           0       -9.053000   -0.422000    0.002000
     44          6           0      -10.340000    0.868000    0.001000
     45          1           0      -10.211000    1.500000    0.885000
     46          1           0      -10.212000    1.498000   -0.885000
     47          6           0      -11.722000    0.227000    0.002000
     48          1           0      -12.496000    0.999000    0.002000
     49          1           0      -11.867000   -0.400000   -0.883000
     50          1           0      -11.866000   -0.398000    0.888000
 ---------------------------------------------------------------------
 Stoichiometry    C14H30O3S3
 Framework group  C1[X(C14H30O3S3)]
                         Standard orientation:                         
 ---------------------------------------------------------------------
 Center     Atomic      Atomic             Coordinates (Angstroms)
 Number     Number       Type             X           Y           Z
 ---------------------------------------------------------------------
      1          6           0       12.301986   -0.937009   -0.000946
      2          1           0       13.282988   -0.453012   -0.000946
      3          1           0       12.227985   -1.574009    0.885054
      4          1           0       12.227985   -1.573009   -0.886946
      5          6           0       11.196990    0.097994    0.000054
      6          1           0       11.273991    0.747994    0.886054
      7          1           0       11.273991    0.748994   -0.885946
      8          8           0        9.956988   -0.574003   -0.000946
      9          6           0        8.855990    0.298001    0.000054
     10          1           0        8.861992    0.949001   -0.886946
     11          1           0        8.861992    0.948001    0.888054
     12          6           0        7.600988   -0.550996   -0.000946
     13          1           0        7.592986   -1.199996   -0.888946
     14          1           0        7.592986   -1.201996    0.887054
     15          8           0        6.495990    0.320008   -0.000946
     16          6           0        5.260988   -0.351989    0.000054
     17          1           0        5.157986   -0.992988    0.888054
     18          1           0        5.157986   -0.993988   -0.887946
     19          6           0        4.170991    0.700015   -0.000946
     20          1           0        4.272993    1.341014   -0.888946
     21          1           0        4.273993    1.341014    0.887054
     22          8           0        2.933989    0.028018    0.000054
     23          6           0        1.830992    0.902021    0.001054
     24          1           0        1.851994    1.552021   -0.886946
     25          1           0        1.852994    1.552021    0.888054
     26          6           0        0.575989    0.047025    0.001054
     27          1           0        0.574987   -0.591975    0.889054
     28          1           0        0.574987   -0.592975   -0.885946
     29         16           0       -0.900007    1.112030    0.001054
     30          6           0       -2.182011   -0.182967    0.002054
     31          1           0       -2.061013   -0.812967   -0.884946
     32          1           0       -2.061013   -0.811967    0.889054
     33          6           0       -3.558009    0.468037    0.001054
     34          1           0       -3.679008    1.097038   -0.885946
     35          1           0       -3.679008    1.099038    0.887054
     36         16           0       -4.840013   -0.827959    0.002054
     37          6           0       -6.323010    0.234046    0.000054
     38          1           0       -6.309008    0.874046   -0.886946
     39          1           0       -6.310008    0.875046    0.886054
     40          6           0       -7.571013   -0.638951    0.000054
     41          1           0       -7.581015   -1.280951   -0.885946
     42          1           0       -7.583015   -1.278951    0.887054
     43         16           0       -9.053010    0.422054   -0.001946
     44          6           0      -10.340013   -0.867943   -0.000946
     45          1           0      -10.211015   -1.499943   -0.884946
     46          1           0      -10.212015   -1.497943    0.885054
     47          6           0      -11.722011   -0.226938   -0.001946
     48          1           0      -12.496014   -0.998936   -0.001946
     49          1           0      -11.867010    0.400062    0.883054
     50          1           0      -11.866010    0.398062   -0.887946
 ---------------------------------------------------------------------
 Standard basis: 6-31G(d) (6D, 7F)
   372 basis functions,   752 primitive gaussians,   372 cartesian basis functions
    93 alpha electrons       93 beta electrons
 Requested convergence on RMS density matrix=1.00D-08 within  64 cycles.
 Requested convergence on MAX density matrix=1.00D-06.
 Requested convergence on             energy=1.00D-06.
 SCF Done:  E(RHF) =  -1964.69823512     A.U. after   12 cycles
            NFock= 12  Conv=0.96D-08     -V/T= 2.0009
 Mulliken charges:
     1  C   -0.487856
     2  H    0.157085
     3  H    0.173354
     4  H    0.173578
     5  C    0.024451
     6  H    0.140178
     7  H    0.139932
     8  O   -0.636485
     9  C    0.016067
    10  H    0.151427
    11  H    0.151391
    12  C    0.015125
    13  H    0.155368
    14  H    0.155013
    15  O   -0.652612
    16  C    0.016685
    17  H    0.155587
    18  H    0.155297
    19  C    0.012010
    20  H    0.155975
    21  H    0.155793
    22  O   -0.644665
    23  C    0.018949
    24  H    0.158980
    25  H    0.159289
    26  C   -0.476255
    27  H    0.200613
    28  H    0.200782
    29  S    0.123538
    30  C   -0.478111
    31  H    0.204936
    32  H    0.205128
    33  C   -0.479902
    34  H    0.204981
    35  H    0.204852
    36  S    0.134270
    37  C   -0.478593
    38  H    0.204729
    39  H    0.204788
    40  C   -0.479251
    41  H    0.201879
    42  H    0.201978
    43  S    0.126937
    44  C   -0.456230
    45  H    0.186797
    46  H    0.186656
    47  C   -0.495735
    48  H    0.172977
    49  H    0.179124
    50  H    0.179198
 Sum of Mulliken charges =  -0.00000
 Dipole moment (field-independent basis, Debye):
    X=              0.2413    Y=             -0.4966    Z=              0.0038  Tot=              0.5522
 Quadrupole moment (field-independent basis, Debye-Ang):
   XX=           -119.5029   YY=           -152.2416   ZZ=           -150.0568
   XY=             18.0805   XZ=              0.0169   YZ=              0.0047
 Traceless Quadrupole moment (field-independent basis, Debye-Ang):
   XX=             21.0975   YY=            -11.6412   ZZ=             -9.4564
   XY=             18.0805   XZ=              0.0169   YZ=              0.0047
 Octapole moment (field-independent basis, Debye-Ang**2):
  XXX=             84.2890  YYY=             -3.1171  ZZZ=             -0.0056  XYY=             24.0594
  XXY=            -39.4682  XXZ=              0.2284  XZZ=             40.6458  YZZ=             -2.8158
  YYZ=             -0.0078  XYZ=             -0.0174
 Hexadecapole moment (field-independent basis, Debye-Ang**3):
 XXXX=         -40776.6845 YYYY=           -651.7886 ZZZZ=           -259.6162 XXXY=           2199.9937
 XXXZ=              0.8060 YYYX=              7.0859 YYYZ=              0.0017 ZZZX=             -0.1951
 ZZZY=              0.0043 XXYY=          -8079.0145 XXZZ=          -7959.4823 YYZZ=           -146.6221
 XXYZ=              0.5533 YYXZ=             -0.0105 ZZXY=              1.6433
 Step number   1 out of a maximum of   55
     Eigenvalues ---    0.00230   0.00230   0.00230   0.00230   0.00230
     Eigenvalues ---    0.00230   0.00456   0.00461   0.00472   0.00520
     Eigenvalues ---    0.00565   0.00569   0.00581   0.01554   0.01589
     Eigenvalues ---    0.01595   0.01599   0.01613   0.01632   0.04957
     Eigenvalues ---    0.05049   0.05049   0.05055   0.05056   0.05057
     Eigenvalues ---    0.05348   0.05458   0.05472   0.05490   0.05493
     Eigenvalues ---    0.05499   0.05563   0.05669   0.05743   0.05759
     Eigenvalues ---    0.05782   0.05807   0.05812   0.05813   0.05824
     Eigenvalues ---    0.05929   0.05950   0.05972   0.06085   0.06086
     Eigenvalues ---    0.06089   0.06104   0.10937   0.10986   0.10996
     Eigenvalues ---    0.10998   0.11001   0.11079   0.11080   0.11080
     Eigenvalues ---    0.11098   0.11111   0.11157   0.11308   0.13600
     Eigenvalues ---    0.13601   0.13602   0.13602   0.13626   0.13626
     Eigenvalues ---    0.13626   0.13629   0.13634   0.13641   0.13660
     Eigenvalues ---    0.13715   0.16000   0.16000   0.16000   0.16000
     Eigenvalues ---    0.16000   0.16000   0.21943   0.21945   0.21959
     Eigenvalues ---    0.21960   0.21962   0.21963   0.22000   0.22003
     Eigenvalues ---    0.22006   0.22007   0.22007   0.22035   0.24311
     Eigenvalues ---    0.24389   0.24411   0.24440   0.24442   0.24594
     Eigenvalues ---    0.25000   0.25000   0.25000   0.25000   0.25000
     Eigenvalues ---    0.25000   0.30040   0.30076   0.30153   0.30505
     Eigenvalues ---    0.30834   0.30867   0.30950   0.33446   0.33511
     Eigenvalues ---    0.33561   0.33608   0.33616   0.33628   0.33652
     Eigenvalues ---    0.33680   0.33680   0.33691   0.33692   0.33695
     Eigenvalues ---    0.34278   0.34280   0.34305   0.34319   0.34326
     Eigenvalues ---    0.34332   0.34343   0.34343   0.34353   0.34366
     Eigenvalues ---    0.34369   0.34371   0.34379   0.34379   0.34385
     Eigenvalues ---    0.34395   0.34447   0.34452   0.43942   0.44360
     Eigenvalues ---    0.44432   0.44479   0.44642   0.44885
 Maximum Force            0.009556     0.000015     NO 
 RMS     Force            0.003324     0.000010     NO 
 Maximum Displacement     0.085511     0.000060     NO 
 RMS     Displacement     0.022508     0.000040     NO 
                          Input orientation:                          
 ---------------------------------------------------------------------
 Center     Atomic      Atomic             Coordinates (Angstroms)
 Number     Number       Type             X           Y           Z
 ---------------------------------------------------------------------
      1          6           0       12.288753    0.964430   -0.001968
      2          1           0       13.267838    0.496867   -0.003687
      3          1           0       12.207474    1.595498   -0.879025
      4          1           0       12.209496    1.593535    0.876680
      5          6           0       11.197183   -0.085792   -0.001789
      6          1           0       11.277030   -0.724535   -0.879060
      7          1           0       11.279327   -0.726731    0.873723
      8          8           0        9.955528    0.560384    0.000455
      9          6           0        8.855717   -0.297327    0.000148
     10          1           0        8.865665   -0.939379    0.877206
     11          1           0        8.864429   -0.936973   -0.878638
     12          6           0        7.606147    0.556597    0.002139
     13          1           0        7.595362    1.195347    0.880823
     14          1           0        7.594008    1.197330   -0.875070
     15          8           0        6.503065   -0.300833    0.001847
     16          6           0        5.265660    0.345508    0.002013
     17          1           0        5.161515    0.976855   -0.875925
     18          1           0        5.161449    0.976803    0.880053
     19          6           0        4.190853   -0.719922    0.001620
     20          1           0        4.294633   -1.351043    0.879736
     21          1           0        4.294942   -1.350908   -0.876644
     22          8           0        2.951664   -0.073251    0.001606
     23          6           0        1.851184   -0.933501    0.000793
     24          1           0        1.875748   -1.574129    0.878418
     25          1           0        1.876349   -1.572904   -0.877653
     26          6           0        0.598579   -0.073323    0.000893
     27          1           0        0.598681    0.560393   -0.875998
     28          1           0        0.598694    0.559813    0.878161
     29         16           0       -0.888021   -1.118378    0.000465
     30          6           0       -2.173864    0.168214   -0.000034
     31          1           0       -2.051604    0.790903    0.876498
     32          1           0       -2.051453    0.790445   -0.876865
     33          6           0       -3.555346   -0.479200    0.000000
     34          1           0       -3.677320   -1.101273    0.877147
     35          1           0       -3.676997   -1.102385   -0.876419
     36         16           0       -4.840696    0.808256   -0.001063
     37          6           0       -6.332413   -0.233742   -0.000311
     38          1           0       -6.321102   -0.867278    0.876976
     39          1           0       -6.321256   -0.868357   -0.876839
     40          6           0       -7.579475    0.645517   -0.000612
     41          1           0       -7.588547    1.281120    0.875558
     42          1           0       -7.589099    1.279680   -0.877818
     43         16           0       -9.070932   -0.394842    0.000666
     44          6           0      -10.361152    0.887132   -0.000635
     45          1           0      -10.233113    1.512718    0.874201
     46          1           0      -10.233147    1.510880   -0.876799
     47          6           0      -11.747312    0.250670    0.000135
     48          1           0      -12.511452    1.020349   -0.000384
     49          1           0      -11.894886   -0.368776   -0.876869
     50          1           0      -11.894784   -0.367464    0.878143
 ---------------------------------------------------------------------
 Stoichiometry    C14H30O3S3
 Framework group  C1[X(C14H30O3S3)]
                         Standard orientation:                         
 ---------------------------------------------------------------------
 Center     Atomic      Atomic             Coordinates (Angstroms)
 Number     Number       Type             X           Y           Z
 ---------------------------------------------------------------------
      1          6           0       12.287767   -0.972407    0.001755
      2          1           0       13.267087   -0.505339    0.003797
      3          1           0       12.206156   -1.604012    0.878395
      4          1           0       12.208205   -1.600893   -0.877308
      5          6           0       11.196726    0.078365    0.002253
      6          1           0       11.276882    0.716489    0.879946
      7          1           0       11.279205    0.719840   -0.872835
      8          8           0        9.954745   -0.567183   -0.000435
      9          6           0        8.855367    0.291082    0.000422
     10          1           0        8.865651    0.933707   -0.876212
     11          1           0        8.864389    0.930144    0.879630
     12          6           0        7.605366   -0.562211   -0.002150
     13          1           0        7.594273   -1.200376   -0.881255
     14          1           0        7.592892   -1.203515    0.874637
     15          8           0        6.502716    0.295776   -0.001308
     16          6           0        5.264986   -0.349941   -0.001918
     17          1           0        5.160510   -0.981815    0.875602
     18          1           0        5.160470   -0.980605   -0.880376
     19          6           0        4.190717    0.716030   -0.000838
     20          1           0        4.294828    1.347677   -0.878536
     21          1           0        4.295111    1.346384    0.877844
     22          8           0        2.951202    0.069984   -0.001268
     23          6           0        1.851155    0.930788    0.000097
     24          1           0        1.876055    1.571982   -0.877106
     25          1           0        1.876630    1.569599    0.878964
     26          6           0        0.598117    0.071242   -0.000588
     27          1           0        0.597887   -0.563052    0.875885
     28          1           0        0.597926   -0.561316   -0.878273
     29         16           0       -0.887956    1.117046    0.000508
     30          6           0       -2.174447   -0.168898    0.000140
     31          1           0       -2.052488   -0.791070   -0.876801
     32          1           0       -2.052363   -0.791768    0.876562
     33          6           0       -3.555603    0.479213    0.000513
     34          1           0       -3.677251    1.101926   -0.876226
     35          1           0       -3.676952    1.101881    0.877341
     36         16           0       -4.841602   -0.807596    0.000710
     37          6           0       -6.332793    0.235155    0.000623
     38          1           0       -6.321150    0.869263   -0.876246
     39          1           0       -6.321329    0.869186    0.877569
     40          6           0       -7.580298   -0.643475    0.000326
     41          1           0       -7.589678   -1.278496   -0.876262
     42          1           0       -7.590255   -1.278212    0.877114
     43         16           0       -9.071231    0.397636   -0.000287
     44          6           0      -10.362097   -0.883687    0.000150
     45          1           0      -10.234361   -1.508761   -0.875096
     46          1           0      -10.234420   -1.508078    0.875905
     47          6           0      -11.747936   -0.246526   -0.000219
     48          1           0      -12.512463   -1.015820   -0.000219
     49          1           0      -11.895211    0.372416    0.877190
     50          1           0      -11.895084    0.372261   -0.877822
 ---------------------------------------------------------------------
 Standard basis: 6-31G(d) (6D, 7F)
   372 basis functions,   752 primitive gaussians,   372 cartesian basis functions
    93 alpha electrons       93 beta electrons
 Requested convergence on RMS density matrix=1.00D-08 within  64 cycles.
 Requested convergence on MAX density matrix=1.00D-06.
 Requested convergence on             energy=1.00D-06.
 SCF Done:  E(RHF) =  -1964.70178299     A.U. after   10 cycles
            NFock= 10  Conv=0.57D-08     -V/T= 2.0006
 Step number   2 out of a maximum of   55
     Eigenvalues ---    0.00230   0.00230   0.00230   0.00230   0.00230
     Eigenvalues ---    0.00230   0.00456   0.00461   0.00472   0.00520
     Eigenvalues ---    0.00565   0.00569   0.00581   0.01554   0.01589
     Eigenvalues ---    0.01595   0.01599   0.01613   0.01632   0.04906
     Eigenvalues ---    0.04991   0.04994   0.04997   0.05002   0.05005
     Eigenvalues ---    0.05336   0.05445   0.05462   0.05475   0.05476
     Eigenvalues ---    0.05480   0.05544   0.05674   0.05743   0.05756
     Eigenvalues ---    0.05768   0.05790   0.05794   0.05798   0.05801
     Eigenvalues ---    0.05903   0.05914   0.05946   0.06040   0.06043
     Eigenvalues ---    0.06051   0.06075   0.11023   0.11061   0.11064
     Eigenvalues ---    0.11068   0.11080   0.11140   0.11142   0.11151
     Eigenvalues ---    0.11165   0.11195   0.11290   0.11384   0.13638
     Eigenvalues ---    0.13639   0.13640   0.13640   0.13642   0.13643
     Eigenvalues ---    0.13644   0.13649   0.13652   0.13671   0.13697
     Eigenvalues ---    0.13728   0.15994   0.16000   0.16000   0.16000
     Eigenvalues ---    0.16000   0.16003   0.21944   0.21958   0.21968
     Eigenvalues ---    0.21971   0.21972   0.21975   0.22005   0.22011
     Eigenvalues ---    0.22011   0.22013   0.22030   0.22197   0.24229
     Eigenvalues ---    0.24349   0.24400   0.24427   0.24441   0.24580
     Eigenvalues ---    0.24695   0.25000   0.25000   0.25000   0.25000
     Eigenvalues ---    0.25461   0.30038   0.30082   0.30163   0.30505
     Eigenvalues ---    0.30835   0.30868   0.30942   0.33457   0.33520
     Eigenvalues ---    0.33571   0.33610   0.33622   0.33639   0.33660
     Eigenvalues ---    0.33680   0.33686   0.33691   0.33694   0.33987
     Eigenvalues ---    0.34279   0.34287   0.34308   0.34321   0.34328
     Eigenvalues ---    0.34336   0.34343   0.34349   0.34359   0.34367
     Eigenvalues ---    0.34370   0.34375   0.34379   0.34384   0.34393
     Eigenvalues ---    0.34442   0.34449   0.37263   0.43417   0.44140
     Eigenvalues ---    0.44388   0.44474   0.44602   0.44849
 Maximum Force            0.001754     0.000015     NO 
 RMS     Force            0.000458     0.000010     NO 
 Maximum Displacement     0.054335     0.000060     NO 
 RMS     Displacement     0.014890     0.000040     NO 
                          Input orientation:                          
 ---------------------------------------------------------------------
 Center     Atomic      Atomic             Coordinates (Angstroms)
 Number     Number       Type             X           Y           Z
 ---------------------------------------------------------------------
      1          6           0       12.271031    0.976053   -0.001370
      2          1           0       13.252098    0.511812   -0.002515
      3          1           0       12.186494    1.606177   -0.879235
      4          1           0       12.187682    1.604409    0.877893
      5          6           0       11.183760   -0.079413   -0.001697
      6          1           0       11.271897   -0.717398   -0.879693
      7          1           0       11.273203   -0.719250    0.874796
      8          8           0        9.941026    0.562337   -0.000061
      9          6           0        8.842063   -0.295465   -0.000524
     10          1           0        8.846939   -0.937478    0.877534
     11          1           0        8.846096   -0.935452   -0.880057
     12          6           0        7.593355    0.559935    0.001034
     13          1           0        7.587303    1.198893    0.880593
     14          1           0        7.586328    1.200663   -0.877199
     15          8           0        6.491159   -0.297687    0.000817
     16          6           0        5.252070    0.343726    0.001162
     17          1           0        5.140010    0.974066   -0.877592
     18          1           0        5.140295    0.973613    0.880247
     19          6           0        4.183151   -0.727795    0.001092
     20          1           0        4.294718   -1.357870    0.880026
     21          1           0        4.294540   -1.357494   -0.878121
     22          8           0        2.942165   -0.086165    0.001338
     23          6           0        1.843603   -0.947127    0.000878
     24          1           0        1.862167   -1.587743    0.879507
     25          1           0        1.862183   -1.586876   -0.878407
     26          6           0        0.593893   -0.083245    0.001306
     27          1           0        0.596588    0.549706   -0.876685
     28          1           0        0.596851    0.549180    0.879686
     29         16           0       -0.891666   -1.129062    0.001205
     30          6           0       -2.170675    0.163384    0.001079
     31          1           0       -2.049517    0.785198    0.878918
     32          1           0       -2.049499    0.785024   -0.876903
     33          6           0       -3.550707   -0.485308    0.001145
     34          1           0       -3.671340   -1.106885    0.879338
     35          1           0       -3.671199   -1.107402   -0.876691
     36         16           0       -4.829263    0.807894    0.000656
     37          6           0       -6.319146   -0.235383    0.000735
     38          1           0       -6.311795   -0.868187    0.879119
     39          1           0       -6.311199   -0.869229   -0.876893
     40          6           0       -7.561433    0.649172   -0.000232
     41          1           0       -7.567524    1.283904    0.877102
     42          1           0       -7.567014    1.282721   -0.878438
     43         16           0       -9.051409   -0.392234    0.000042
     44          6           0      -10.335558    0.894875   -0.001123
     45          1           0      -10.208500    1.519413    0.875091
     46          1           0      -10.207947    1.518346   -0.878001
     47          6           0      -11.721950    0.258802   -0.001209
     48          1           0      -12.482699    1.032200   -0.001802
     49          1           0      -11.869567   -0.359603   -0.879339
     50          1           0      -11.870059   -0.358754    0.877446
 ---------------------------------------------------------------------
 Stoichiometry    C14H30O3S3
 Framework group  C1[X(C14H30O3S3)]
                         Standard orientation:                         
 ---------------------------------------------------------------------
 Center     Atomic      Atomic             Coordinates (Angstroms)
 Number     Number       Type             X           Y           Z
 ---------------------------------------------------------------------
      1          6           0       12.269244   -0.984717    0.001048
      2          1           0       13.250531   -0.520943    0.002470
      3          1           0       12.184412   -1.615334    0.878530
      4          1           0       12.185593   -1.612498   -0.878597
      5          6           0       11.182474    0.071265    0.002021
      6          1           0       11.270918    0.708675    0.880404
      7          1           0       11.272218    0.711592   -0.874084
      8          8           0        9.939436   -0.569894   -0.000000
      9          6           0        8.840880    0.288430    0.000989
     10          1           0        8.846058    0.930974   -0.876679
     11          1           0        8.845220    0.927880    0.880910
     12          6           0        7.591766   -0.566376   -0.001083
     13          1           0        7.585407   -1.204797   -0.881030
     14          1           0        7.584438   -1.207634    0.876760
     15          8           0        6.489978    0.291769   -0.000341
     16          6           0        5.250584   -0.349055   -0.001070
     17          1           0        5.138229   -0.979875    0.877302
     18          1           0        5.138506   -0.978355   -0.880536
     19          6           0        4.182174    0.722974   -0.000344
     20          1           0        4.294036    1.353529   -0.878895
     21          1           0        4.293866    1.352085    0.879251
     22          8           0        2.940883    0.081933   -0.000975
     23          6           0        1.842730    0.943416    0.000013
     24          1           0        1.861595    1.584556   -0.878226
     25          1           0        1.861618    1.582621    0.879686
     26          6           0        0.592610    0.080127   -0.000934
     27          1           0        0.595008   -0.553358    0.876672
     28          1           0        0.595265   -0.551765   -0.879698
     29         16           0       -0.892452    1.126649   -0.000191
     30          6           0       -2.172075   -0.165188   -0.000844
     31          1           0       -2.051215   -0.786526   -0.879062
     32          1           0       -2.051190   -0.787419    0.876759
     33          6           0       -3.551798    0.484159   -0.000510
     34          1           0       -3.672139    1.106327   -0.878326
     35          1           0       -3.671991    1.105777    0.877703
     36         16           0       -4.830968   -0.808437   -0.000802
     37          6           0       -6.320356    0.235548   -0.000241
     38          1           0       -6.312707    0.868882   -0.878240
     39          1           0       -6.312104    0.868857    0.877772
     40          6           0       -7.563063   -0.648417    0.000194
     41          1           0       -7.569459   -1.282613   -0.877525
     42          1           0       -7.568941   -1.282497    0.878016
     43         16           0       -9.052544    0.393696    0.000560
     44          6           0      -10.337304   -0.892804    0.000948
     45          1           0      -10.210546   -1.516869   -0.875646
     46          1           0      -10.209985   -1.516868    0.877447
     47          6           0      -11.723394   -0.256073    0.001427
     48          1           0      -12.484510   -1.029109    0.001553
     49          1           0      -11.870713    0.361869    0.879933
     50          1           0      -11.871213    0.362087   -0.876852
 ---------------------------------------------------------------------
 Standard basis: 6-31G(d) (6D, 7F)
   372 basis functions,   752 primitive gaussians,   372 cartesian basis functions
    93 alpha electrons       93 beta electrons
 Requested convergence on RMS density matrix=1.00D-08 within  64 cycles.
 Requested convergence on MAX density matrix=1.00D-06.
 Requested convergence on             energy=1.00D-06.
 SCF Done:  E(RHF) =  -1964.70187371     A.U. after    9 cycles
            NFock=  9  Conv=0.51D-08     -V/T= 2.0006
 Step number   3 out of a maximum of   55
     Eigenvalues ---    0.00230   0.00230   0.00230   0.00230   0.00230
     Eigenvalues ---    0.00230   0.00456   0.00461   0.00472   0.00520
     Eigenvalues ---    0.00565   0.00569   0.00581   0.01554   0.01589
     Eigenvalues ---    0.01595   0.01599   0.01613   0.01632   0.04938
     Eigenvalues ---    0.05025   0.05032   0.05040   0.05047   0.05051
     Eigenvalues ---    0.05351   0.05480   0.05481   0.05492   0.05494
     Eigenvalues ---    0.05499   0.05551   0.05704   0.05754   0.05772
     Eigenvalues ---    0.05779   0.05808   0.05810   0.05814   0.05819
     Eigenvalues ---    0.05929   0.05945   0.05961   0.06069   0.06075
     Eigenvalues ---    0.06079   0.06091   0.10983   0.10992   0.11010
     Eigenvalues ---    0.11012   0.11015   0.11064   0.11098   0.11100
     Eigenvalues ---    0.11109   0.11131   0.11272   0.11304   0.13607
     Eigenvalues ---    0.13610   0.13610   0.13615   0.13616   0.13630
     Eigenvalues ---    0.13631   0.13637   0.13640   0.13651   0.13676
     Eigenvalues ---    0.13718   0.15924   0.16000   0.16000   0.16000
     Eigenvalues ---    0.16000   0.16032   0.21936   0.21959   0.21970
     Eigenvalues ---    0.21971   0.21973   0.21976   0.21997   0.22012
     Eigenvalues ---    0.22012   0.22013   0.22026   0.22733   0.24131
     Eigenvalues ---    0.24334   0.24397   0.24420   0.24443   0.24507
     Eigenvalues ---    0.24602   0.25000   0.25000   0.25000   0.25002
     Eigenvalues ---    0.28074   0.30030   0.30116   0.30380   0.30698
     Eigenvalues ---    0.30850   0.30914   0.33455   0.33515   0.33569
     Eigenvalues ---    0.33610   0.33621   0.33637   0.33659   0.33676
     Eigenvalues ---    0.33685   0.33691   0.33693   0.33737   0.34278
     Eigenvalues ---    0.34287   0.34308   0.34321   0.34328   0.34336
     Eigenvalues ---    0.34343   0.34345   0.34356   0.34366   0.34370
     Eigenvalues ---    0.34373   0.34377   0.34379   0.34393   0.34412
     Eigenvalues ---    0.34449   0.34754   0.37345   0.42861   0.44131
     Eigenvalues ---    0.44385   0.44529   0.44616   0.44858
 Maximum Force            0.001005     0.000015     NO 
 RMS     Force            0.000191     0.000010     NO 
 Maximum Displacement     0.020586     0.000060     NO 
 RMS     Displacement     0.005214     0.000040     NO 
                          Input orientation:                          
 ---------------------------------------------------------------------
 Center     Atomic      Atomic             Coordinates (Angstroms)
 Number     Number       Type             X           Y           Z
 ---------------------------------------------------------------------
      1          6           0       12.277370    0.973722   -0.000405
      2          1           0       13.258181    0.508373   -0.000939
      3          1           0       12.193572    1.603547   -0.878902
      4          1           0       12.194158    1.602742    0.878725
      5          6           0       11.188841   -0.081314   -0.000523
      6          1           0       11.277065   -0.720193   -0.878377
      7          1           0       11.277716   -0.721050    0.876636
      8          8           0        9.946771    0.560584    0.000265
      9          6           0        8.847323   -0.296169    0.000018
     10          1           0        8.851706   -0.938022    0.878693
     11          1           0        8.851372   -0.937098   -0.879336
     12          6           0        7.598292    0.560152    0.000713
     13          1           0        7.592247    1.200013    0.880123
     14          1           0        7.591785    1.200764   -0.878145
     15          8           0        6.495679   -0.296429    0.000659
     16          6           0        5.256946    0.344948    0.000539
     17          1           0        5.145268    0.975417   -0.878692
     18          1           0        5.145239    0.975665    0.879582
     19          6           0        4.186735   -0.726436    0.000692
     20          1           0        4.297940   -1.356635    0.880092
     21          1           0        4.298018   -1.356931   -0.878478
     22          8           0        2.945959   -0.084899    0.000529
     23          6           0        1.846628   -0.944459    0.000359
     24          1           0        1.865266   -1.585127    0.879457
     25          1           0        1.865475   -1.585064   -0.878784
     26          6           0        0.595734   -0.080685    0.000241
     27          1           0        0.598508    0.552035   -0.878273
     28          1           0        0.598448    0.552198    0.878641
     29         16           0       -0.890694   -1.125825    0.000266
     30          6           0       -2.171976    0.164795   -0.000103
     31          1           0       -2.051393    0.786945    0.877925
     32          1           0       -2.051302    0.786530   -0.878414
     33          6           0       -3.552473   -0.485061   -0.000005
     34          1           0       -3.672543   -1.106831    0.878446
     35          1           0       -3.672404   -1.107403   -0.878068
     36         16           0       -4.833580    0.806096   -0.000537
     37          6           0       -6.324749   -0.235850    0.000013
     38          1           0       -6.317121   -0.869008    0.878469
     39          1           0       -6.317298   -0.869652   -0.877979
     40          6           0       -7.567993    0.648940   -0.000203
     41          1           0       -7.573658    1.283593    0.877531
     42          1           0       -7.573873    1.282844   -0.878477
     43         16           0       -9.059036   -0.391438    0.000434
     44          6           0      -10.345098    0.893961    0.000016
     45          1           0      -10.218349    1.518565    0.876547
     46          1           0      -10.218554    1.517786   -0.877097
     47          6           0      -11.731782    0.257007    0.000450
     48          1           0      -12.493593    1.029793    0.000251
     49          1           0      -11.879010   -0.361568   -0.877899
     50          1           0      -11.878765   -0.360870    0.879327
 ---------------------------------------------------------------------
 Stoichiometry    C14H30O3S3
 Framework group  C1[X(C14H30O3S3)]
                         Standard orientation:                         
 ---------------------------------------------------------------------
 Center     Atomic      Atomic             Coordinates (Angstroms)
 Number     Number       Type             X           Y           Z
 ---------------------------------------------------------------------
      1          6           0       12.275909   -0.982422    0.000310
      2          1           0       13.256951   -0.517560    0.000964
      3          1           0       12.191797   -1.612430    0.878644
      4          1           0       12.192384   -1.611173   -0.878982
      5          6           0       11.187904    0.073156    0.000699
      6          1           0       11.276446    0.711765    0.878717
      7          1           0       11.277098    0.713074   -0.876295
      8          8           0        9.945515   -0.568123   -0.000256
      9          6           0        8.846494    0.289177    0.000211
     10          1           0        8.851197    0.931253   -0.878298
     11          1           0        8.850861    0.929877    0.879730
     12          6           0        7.597037   -0.566523   -0.000705
     13          1           0        7.590675   -1.206155   -0.880280
     14          1           0        7.590210   -1.207358    0.877988
     15          8           0        6.494850    0.290607   -0.000431
     16          6           0        5.255798   -0.350154   -0.000477
     17          1           0        5.143806   -0.980794    0.878592
     18          1           0        5.143778   -0.980589   -0.879682
     19          6           0        4.186120    0.721762   -0.000354
     20          1           0        4.297640    1.352133   -0.879592
     21          1           0        4.297717    1.351975    0.878979
     22          8           0        2.945026    0.080843   -0.000357
     23          6           0        1.846123    0.940949    0.000033
     24          1           0        1.865080    1.581835   -0.878900
     25          1           0        1.865288    1.581318    0.879342
     26          6           0        0.594799    0.077798   -0.000072
     27          1           0        0.597257   -0.555150    0.878279
     28          1           0        0.597198   -0.554860   -0.878635
     29         16           0       -0.891110    1.123677    0.000171
     30          6           0       -2.173033   -0.166306    0.000207
     31          1           0       -2.052759   -0.788289   -0.877981
     32          1           0       -2.052669   -0.788326    0.878358
     33          6           0       -3.553206    0.484238    0.000276
     34          1           0       -3.672967    1.106293   -0.878015
     35          1           0       -3.672829    1.106413    0.878499
     36         16           0       -4.834956   -0.806281    0.000474
     37          6           0       -6.325606    0.236406    0.000192
     38          1           0       -6.317663    0.869787   -0.878101
     39          1           0       -6.317841    0.869978    0.878347
     40          6           0       -7.569290   -0.647766    0.000179
     41          1           0       -7.575270   -1.282189   -0.877719
     42          1           0       -7.575487   -1.281892    0.878289
     43         16           0       -9.059815    0.393355   -0.000191
     44          6           0      -10.346517   -0.891404   -0.000105
     45          1           0      -10.220078   -1.515845   -0.876796
     46          1           0      -10.220284   -1.515519    0.876848
     47          6           0      -11.732884   -0.253760   -0.000375
     48          1           0      -12.495079   -1.026167   -0.000376
     49          1           0      -11.879805    0.364661    0.878133
     50          1           0      -11.879559    0.364416   -0.879093
 ---------------------------------------------------------------------
 Standard basis: 6-31G(d) (6D, 7F)
   372 basis functions,   752 primitive gaussians,   372 cartesian basis functions
    93 alpha electrons       93 beta electrons
 Requested convergence on RMS density matrix=1.00D-08 within  64 cycles.
 Requested convergence on MAX density matrix=1.00D-06.
 Requested convergence on             energy=1.00D-06.
 SCF Done:  E(RHF) =  -1964.70188547     A.U. after    8 cycles
            NFock=  8  Conv=0.74D-08     -V/T= 2.0006
 Step number   4 out of a maximum of   55
     Eigenvalues ---    0.00230   0.00230   0.00230   0.00230   0.00230
     Eigenvalues ---    0.00230   0.00456   0.00461   0.00472   0.00520
     Eigenvalues ---    0.00565   0.00569   0.00581   0.01554   0.01589
     Eigenvalues ---    0.01595   0.01599   0.01613   0.01632   0.04933
     Eigenvalues ---    0.05019   0.05026   0.05033   0.05041   0.05044
     Eigenvalues ---    0.05348   0.05469   0.05477   0.05489   0.05489
     Eigenvalues ---    0.05495   0.05554   0.05702   0.05755   0.05774
     Eigenvalues ---    0.05779   0.05807   0.05810   0.05814   0.05818
     Eigenvalues ---    0.05905   0.05946   0.05961   0.06059   0.06074
     Eigenvalues ---    0.06078   0.06089   0.10963   0.10990   0.11017
     Eigenvalues ---    0.11019   0.11022   0.11101   0.11103   0.11111
     Eigenvalues ---    0.11113   0.11154   0.11287   0.11459   0.13612
     Eigenvalues ---    0.13614   0.13616   0.13619   0.13624   0.13633
     Eigenvalues ---    0.13634   0.13640   0.13642   0.13656   0.13680
     Eigenvalues ---    0.13720   0.15891   0.16000   0.16000   0.16000
     Eigenvalues ---    0.16004   0.16030   0.21750   0.21966   0.21969
     Eigenvalues ---    0.21972   0.21974   0.21978   0.22007   0.22013
     Eigenvalues ---    0.22014   0.22015   0.22037   0.22403   0.24047
     Eigenvalues ---    0.24338   0.24398   0.24422   0.24441   0.24561
     Eigenvalues ---    0.24706   0.24993   0.25000   0.25000   0.25014
     Eigenvalues ---    0.28008   0.30005   0.30115   0.30380   0.30637
     Eigenvalues ---    0.30850   0.30897   0.33422   0.33493   0.33569
     Eigenvalues ---    0.33597   0.33615   0.33634   0.33657   0.33667
     Eigenvalues ---    0.33680   0.33687   0.33691   0.33701   0.34279
     Eigenvalues ---    0.34286   0.34308   0.34320   0.34328   0.34335
     Eigenvalues ---    0.34343   0.34349   0.34352   0.34364   0.34370
     Eigenvalues ---    0.34375   0.34378   0.34381   0.34393   0.34411
     Eigenvalues ---    0.34449   0.35622   0.37580   0.42463   0.44374
     Eigenvalues ---    0.44438   0.44587   0.44763   0.44862
 Maximum Force            0.000178     0.000015     NO 
 RMS     Force            0.000032     0.000010     NO 
 Maximum Displacement     0.002359     0.000060     NO 
 RMS     Displacement     0.000824     0.000040     NO 
                          Input orientation:                          
 ---------------------------------------------------------------------
 Center     Atomic      Atomic             Coordinates (Angstroms)
 Number     Number       Type             X           Y           Z
 ---------------------------------------------------------------------
      1          6           0       12.276824    0.973002   -0.000710
      2          1           0       13.257387    0.507227   -0.001215
      3          1           0       12.193290    1.602813   -0.879205
      4          1           0       12.193861    1.602101    0.878348
      5          6           0       11.187897   -0.081680   -0.000779
      6          1           0       11.275862   -0.720759   -0.878494
      7          1           0       11.276475   -0.721509    0.876330
      8          8           0        9.946082    0.560284   -0.000076
      9          6           0        8.846674   -0.296264   -0.000204
     10          1           0        8.851256   -0.938095    0.878448
     11          1           0        8.850870   -0.937324   -0.879421
     12          6           0        7.597623    0.560076    0.000450
     13          1           0        7.591435    1.200064    0.879727
     14          1           0        7.590945    1.200698   -0.878361
     15          8           0        6.495099   -0.296313    0.000448
     16          6           0        5.256674    0.345210    0.000511
     17          1           0        5.145197    0.975878   -0.878564
     18          1           0        5.145322    0.975977    0.879534
     19          6           0        4.186231   -0.725963    0.000643
     20          1           0        4.297210   -1.356364    0.879889
     21          1           0        4.297108   -1.356482   -0.878533
     22          8           0        2.945815   -0.084210    0.000679
     23          6           0        1.846678   -0.943657    0.000620
     24          1           0        1.865541   -1.584419    0.879629
     25          1           0        1.865534   -1.584273   -0.878493
     26          6           0        0.595862   -0.079786    0.000688
     27          1           0        0.598512    0.553045   -0.877709
     28          1           0        0.598592    0.553011    0.879109
     29         16           0       -0.890285   -1.125149    0.000727
     30          6           0       -2.171696    0.165261    0.000647
     31          1           0       -2.051245    0.787283    0.878734
     32          1           0       -2.051222    0.787196   -0.877498
     33          6           0       -3.552023   -0.485019    0.000667
     34          1           0       -3.671892   -1.107018    0.878936
     35          1           0       -3.671836   -1.107208   -0.877477
     36         16           0       -4.833202    0.805981    0.000497
     37          6           0       -6.324197   -0.236073    0.000400
     38          1           0       -6.316843   -0.869437    0.878670
     39          1           0       -6.316562   -0.869688   -0.877686
     40          6           0       -7.567364    0.648872    0.000071
     41          1           0       -7.573244    1.283293    0.877927
     42          1           0       -7.572969    1.283015   -0.877989
     43         16           0       -9.058290   -0.391556   -0.000002
     44          6           0      -10.344413    0.893656   -0.000447
     45          1           0      -10.218041    1.518075    0.876233
     46          1           0      -10.217738    1.517772   -0.877300
     47          6           0      -11.730980    0.256345   -0.000574
     48          1           0      -12.492923    1.028931   -0.000819
     49          1           0      -11.877800   -0.362046   -0.879083
     50          1           0      -11.878090   -0.361774    0.878079
 ---------------------------------------------------------------------
 Stoichiometry    C14H30O3S3
 Framework group  C1[X(C14H30O3S3)]
                         Standard orientation:                         
 ---------------------------------------------------------------------
 Center     Atomic      Atomic             Coordinates (Angstroms)
 Number     Number       Type             X           Y           Z
 ---------------------------------------------------------------------
      1          6           0       12.275295   -0.981602    0.000543
      2          1           0       13.256088   -0.516312    0.001194
      3          1           0       12.191455   -1.611657    0.878834
      4          1           0       12.192016   -1.610374   -0.878719
      5          6           0       11.186890    0.073619    0.000962
      6          1           0       11.275177    0.712369    0.878884
      7          1           0       11.275779    0.713689   -0.875940
      8          8           0        9.944758   -0.567730    0.000057
      9          6           0        8.845774    0.289361    0.000471
     10          1           0        8.850668    0.931476   -0.877973
     11          1           0        8.850292    0.930134    0.879896
     12          6           0        7.596299   -0.566360   -0.000455
     13          1           0        7.589790   -1.206059   -0.879939
     14          1           0        7.589310   -1.207264    0.878149
     15          8           0        6.494199    0.290574   -0.000168
     16          6           0        5.255457   -0.350336   -0.000432
     17          1           0        5.143673   -0.981234    0.878439
     18          1           0        5.143787   -0.980761   -0.879659
     19          6           0        4.185544    0.721367   -0.000208
     20          1           0        4.296830    1.351999   -0.879250
     21          1           0        4.296738    1.351545    0.879171
     22          8           0        2.944810    0.080228   -0.000447
     23          6           0        1.846099    0.940219   -0.000101
     24          1           0        1.865274    1.581257   -0.878901
     25          1           0        1.865277    1.580539    0.879221
     26          6           0        0.594856    0.076967   -0.000443
     27          1           0        0.597197   -0.556151    0.877749
     28          1           0        0.597267   -0.555545   -0.879070
     29         16           0       -0.890774    1.123065   -0.000133
     30          6           0       -2.172824   -0.166710   -0.000465
     31          1           0       -2.052685   -0.788506   -0.878755
     32          1           0       -2.052652   -0.788991    0.877477
     33          6           0       -3.552828    0.484252   -0.000265
     34          1           0       -3.672395    1.106597   -0.878331
     35          1           0       -3.672328    1.106215    0.878082
     36         16           0       -4.834646   -0.806114   -0.000507
     37          6           0       -6.325125    0.236679   -0.000063
     38          1           0       -6.317463    0.870324   -0.878127
     39          1           0       -6.317172    0.870004    0.878229
     40          6           0       -7.568730   -0.647651   -0.000014
     41          1           0       -7.574929   -1.281784   -0.878077
     42          1           0       -7.574644   -1.282077    0.877839
     43         16           0       -9.059141    0.393514    0.000406
     44          6           0      -10.345900   -0.891061    0.000441
     45          1           0      -10.219842   -1.515257   -0.876443
     46          1           0      -10.219528   -1.515525    0.877090
     47          6           0      -11.732151   -0.253064    0.000783
     48          1           0      -12.494476   -1.025273    0.000781
     49          1           0      -11.878660    0.365114    0.879494
     50          1           0      -11.878961    0.365414   -0.877668
 ---------------------------------------------------------------------
 Standard basis: 6-31G(d) (6D, 7F)
   372 basis functions,   752 primitive gaussians,   372 cartesian basis functions
    93 alpha electrons       93 beta electrons
 Requested convergence on RMS density matrix=1.00D-08 within  64 cycles.
 Requested convergence on MAX density matrix=1.00D-06.
 Requested convergence on             energy=1.00D-06.
 SCF Done:  E(RHF) =  -1964.70188580     A.U. after    7 cycles
            NFock=  7  Conv=0.91D-08     -V/T= 2.0006
 Step number   5 out of a maximum of   55
     Eigenvalues ---    0.00230   0.00230   0.00230   0.00230   0.00230
     Eigenvalues ---    0.00230   0.00456   0.00461   0.00472   0.00520
     Eigenvalues ---    0.00565   0.00569   0.00580   0.01553   0.01588
     Eigenvalues ---    0.01594   0.01595   0.01612   0.01632   0.04933
     Eigenvalues ---    0.05020   0.05027   0.05034   0.05042   0.05045
     Eigenvalues ---    0.05346   0.05469   0.05476   0.05488   0.05489
     Eigenvalues ---    0.05494   0.05551   0.05622   0.05702   0.05756
     Eigenvalues ---    0.05779   0.05783   0.05808   0.05813   0.05816
     Eigenvalues ---    0.05821   0.05951   0.05965   0.06027   0.06074
     Eigenvalues ---    0.06079   0.06087   0.10946   0.10990   0.11015
     Eigenvalues ---    0.11018   0.11020   0.11104   0.11104   0.11113
     Eigenvalues ---    0.11115   0.11169   0.11288   0.12274   0.13612
     Eigenvalues ---    0.13613   0.13615   0.13619   0.13623   0.13634
     Eigenvalues ---    0.13634   0.13641   0.13643   0.13655   0.13680
     Eigenvalues ---    0.13722   0.15898   0.15994   0.16000   0.16000
     Eigenvalues ---    0.16003   0.16032   0.20821   0.21960   0.21966
     Eigenvalues ---    0.21971   0.21973   0.21990   0.22011   0.22013
     Eigenvalues ---    0.22014   0.22017   0.22106   0.22811   0.24021
     Eigenvalues ---    0.24340   0.24398   0.24422   0.24443   0.24567
     Eigenvalues ---    0.24705   0.24998   0.25000   0.25001   0.25186
     Eigenvalues ---    0.29345   0.30039   0.30115   0.30379   0.30849
     Eigenvalues ---    0.30862   0.31223   0.33397   0.33485   0.33567
     Eigenvalues ---    0.33610   0.33615   0.33633   0.33657   0.33663
     Eigenvalues ---    0.33683   0.33688   0.33691   0.33697   0.34279
     Eigenvalues ---    0.34286   0.34308   0.34319   0.34328   0.34335
     Eigenvalues ---    0.34343   0.34348   0.34355   0.34364   0.34370
     Eigenvalues ---    0.34376   0.34378   0.34381   0.34393   0.34417
     Eigenvalues ---    0.34450   0.35863   0.37775   0.42940   0.44380
     Eigenvalues ---    0.44428   0.44592   0.44834   0.47430
 Maximum Force            0.000038     0.000015     NO 
 RMS     Force            0.000008     0.000010     YES
 Maximum Displacement     0.002096     0.000060     NO 
 RMS     Displacement     0.000518     0.000040     NO 
                          Input orientation:                          
 ---------------------------------------------------------------------
 Center     Atomic      Atomic             Coordinates (Angstroms)
 Number     Number       Type             X           Y           Z
 ---------------------------------------------------------------------
      1          6           0       12.277048    0.972776   -0.000186
      2          1           0       13.257565    0.506934   -0.000407
      3          1           0       12.193707    1.602373   -0.878838
      4          1           0       12.193969    1.602090    0.878694
      5          6           0       11.188082   -0.081811   -0.000192
      6          1           0       11.276269   -0.721137   -0.877706
      7          1           0       11.276557   -0.721443    0.877070
      8          8           0        9.946292    0.560180    0.000123
      9          6           0        8.846838   -0.296306    0.000067
     10          1           0        8.851209   -0.937924    0.878869
     11          1           0        8.851063   -0.937616   -0.878961
     12          6           0        7.597834    0.560007    0.000324
     13          1           0        7.591612    1.200233    0.879420
     14          1           0        7.591389    1.200440   -0.878621
     15          8           0        6.495253   -0.296305    0.000366
     16          6           0        5.256831    0.345234    0.000241
     17          1           0        5.145387    0.975812   -0.878898
     18          1           0        5.145368    0.976133    0.879148
     19          6           0        4.186277   -0.725766    0.000425
     20          1           0        4.297227   -1.356081    0.879729
     21          1           0        4.297258   -1.356410   -0.878639
     22          8           0        2.945861   -0.083991    0.000285
     23          6           0        1.846628   -0.943336    0.000303
     24          1           0        1.865339   -1.583980    0.879394
     25          1           0        1.865434   -1.584137   -0.878670
     26          6           0        0.595809   -0.079511    0.000157
     27          1           0        0.598553    0.553203   -0.878309
     28          1           0        0.598495    0.553413    0.878472
     29         16           0       -0.890325   -1.124884    0.000227
     30          6           0       -2.171851    0.165397   -0.000020
     31          1           0       -2.051476    0.787536    0.877981
     32          1           0       -2.051430    0.787249   -0.878217
     33          6           0       -3.552130   -0.484968    0.000051
     34          1           0       -3.671938   -1.106923    0.878348
     35          1           0       -3.671886   -1.107236   -0.878031
     36         16           0       -4.833381    0.805941   -0.000221
     37          6           0       -6.324359   -0.236114    0.000061
     38          1           0       -6.316835   -0.869451    0.878335
     39          1           0       -6.316943   -0.869765   -0.877988
     40          6           0       -7.567520    0.648826   -0.000021
     41          1           0       -7.573177    1.283280    0.877800
     42          1           0       -7.573299    1.282942   -0.878085
     43         16           0       -9.058435   -0.391596    0.000284
     44          6           0      -10.344607    0.893541    0.000152
     45          1           0      -10.218079    1.517986    0.876781
     46          1           0      -10.218206    1.517677   -0.876715
     47          6           0      -11.731114    0.256130    0.000365
     48          1           0      -12.493126    1.028631    0.000291
     49          1           0      -11.878083   -0.362288   -0.878089
     50          1           0      -11.877952   -0.361989    0.879051
 ---------------------------------------------------------------------
 Stoichiometry    C14H30O3S3
 Framework group  C1[X(C14H30O3S3)]
                         Standard orientation:                         
 ---------------------------------------------------------------------
 Center     Atomic      Atomic             Coordinates (Angstroms)
 Number     Number       Type             X           Y           Z
 ---------------------------------------------------------------------
      1          6           0       12.275535   -0.981345    0.000317
      2          1           0       13.256281   -0.515988    0.000538
      3          1           0       12.191882   -1.610902    0.878969
      4          1           0       12.192145   -1.610618   -0.878563
      5          6           0       11.187090    0.073780    0.000324
      6          1           0       11.275593    0.713062    0.877837
      7          1           0       11.275881    0.713368   -0.876939
      8          8           0        9.944983   -0.567597    0.000008
      9          6           0        8.845952    0.289432    0.000065
     10          1           0        8.850640    0.931047   -0.878738
     11          1           0        8.850494    0.930739    0.879092
     12          6           0        7.596525   -0.566264   -0.000193
     13          1           0        7.589987   -1.206487   -0.879289
     14          1           0        7.589764   -1.206694    0.878752
     15          8           0        6.494367    0.290593   -0.000235
     16          6           0        5.255629   -0.350334   -0.000109
     17          1           0        5.143873   -0.980857    0.879029
     18          1           0        5.143854   -0.981177   -0.879016
     19          6           0        4.185604    0.721195   -0.000294
     20          1           0        4.296866    1.351455   -0.879598
     21          1           0        4.296897    1.351785    0.878770
     22          8           0        2.944871    0.080033   -0.000154
     23          6           0        1.846062    0.939922   -0.000172
     24          1           0        1.865091    1.580556   -0.879262
     25          1           0        1.865186    1.580713    0.878801
     26          6           0        0.594817    0.076715   -0.000026
     27          1           0        0.597248   -0.556001    0.878440
     28          1           0        0.597190   -0.556211   -0.878340
     29         16           0       -0.890800    1.122822   -0.000096
     30          6           0       -2.172964   -0.166825    0.000151
     31          1           0       -2.052896   -0.789024   -0.877850
     32          1           0       -2.052849   -0.788737    0.878348
     33          6           0       -3.552921    0.484222    0.000080
     34          1           0       -3.672422    1.106236   -0.878217
     35          1           0       -3.672369    1.106549    0.878162
     36         16           0       -4.834810   -0.806053    0.000352
     37          6           0       -6.325272    0.236738    0.000070
     38          1           0       -6.317436    0.870071   -0.878204
     39          1           0       -6.317543    0.870385    0.878119
     40          6           0       -7.568871   -0.647588    0.000153
     41          1           0       -7.574841   -1.282038   -0.877669
     42          1           0       -7.574963   -1.281701    0.878217
     43         16           0       -9.059271    0.393571   -0.000153
     44          6           0      -10.346078   -0.890929   -0.000021
     45          1           0      -10.219859   -1.515437   -0.876650
     46          1           0      -10.219986   -1.515128    0.876846
     47          6           0      -11.732270   -0.252834   -0.000234
     48          1           0      -12.494664   -1.024958   -0.000160
     49          1           0      -11.878934    0.365657    0.878220
     50          1           0      -11.878803    0.365358   -0.878920
 ---------------------------------------------------------------------
 Standard basis: 6-31G(d) (6D, 7F)
   372 basis functions,   752 primitive gaussians,   372 cartesian basis functions
    93 alpha electrons       93 beta electrons
 Requested convergence on RMS density matrix=1.00D-08 within  64 cycles.
 Requested convergence on MAX density matrix=1.00D-06.
 Requested convergence on             energy=1.00D-06.
 SCF Done:  E(RHF) =  -1964.70188583     A.U. after    7 cycles
            NFock=  7  Conv=0.43D-08     -V/T= 2.0006
 Step number   6 out of a maximum of   55
     Eigenvalues ---    0.00230   0.00230   0.00230   0.00230   0.00230
     Eigenvalues ---    0.00232   0.00456   0.00461   0.00472   0.00519
     Eigenvalues ---    0.00564   0.00569   0.00580   0.01536   0.01566
     Eigenvalues ---    0.01591   0.01595   0.01612   0.01631   0.04933
     Eigenvalues ---    0.05020   0.05027   0.05034   0.05042   0.05046
     Eigenvalues ---    0.05346   0.05468   0.05476   0.05487   0.05488
     Eigenvalues ---    0.05494   0.05544   0.05677   0.05701   0.05756
     Eigenvalues ---    0.05778   0.05790   0.05808   0.05813   0.05817
     Eigenvalues ---    0.05879   0.05955   0.05968   0.06064   0.06077
     Eigenvalues ---    0.06087   0.06144   0.10949   0.10996   0.11015
     Eigenvalues ---    0.11018   0.11021   0.11103   0.11104   0.11112
     Eigenvalues ---    0.11115   0.11170   0.11289   0.12264   0.13612
     Eigenvalues ---    0.13614   0.13617   0.13620   0.13624   0.13634
     Eigenvalues ---    0.13635   0.13641   0.13643   0.13654   0.13680
     Eigenvalues ---    0.13722   0.15905   0.15964   0.16000   0.16000
     Eigenvalues ---    0.16008   0.16029   0.21089   0.21930   0.21967
     Eigenvalues ---    0.21973   0.21975   0.22004   0.22012   0.22014
     Eigenvalues ---    0.22015   0.22045   0.22185   0.23456   0.23954
     Eigenvalues ---    0.24336   0.24399   0.24422   0.24444   0.24538
     Eigenvalues ---    0.24618   0.24999   0.25000   0.25011   0.25409
     Eigenvalues ---    0.29503   0.30026   0.30095   0.30349   0.30785
     Eigenvalues ---    0.30876   0.31088   0.33392   0.33485   0.33567
     Eigenvalues ---    0.33606   0.33619   0.33635   0.33658   0.33671
     Eigenvalues ---    0.33685   0.33688   0.33692   0.33702   0.34279
     Eigenvalues ---    0.34286   0.34308   0.34319   0.34328   0.34336
     Eigenvalues ---    0.34343   0.34347   0.34357   0.34364   0.34370
     Eigenvalues ---    0.34376   0.34379   0.34381   0.34394   0.34416
     Eigenvalues ---    0.34449   0.37438   0.38248   0.42964   0.44390
     Eigenvalues ---    0.44422   0.44603   0.44850   0.47536
 Maximum Force            0.000010     0.000015     YES
 RMS     Force            0.000002     0.000010     YES
 Maximum Displacement     0.001010     0.000060     NO 
 RMS     Displacement     0.000215     0.000040     NO 
                          Input orientation:                          
 ---------------------------------------------------------------------
 Center     Atomic      Atomic             Coordinates (Angstroms)
 Number     Number       Type             X           Y           Z
 ---------------------------------------------------------------------
      1          6           0       12.276985    0.972799   -0.000308
      2          1           0       13.257510    0.506970   -0.000519
      3          1           0       12.193651    1.602395   -0.878966
      4          1           0       12.193901    1.602125    0.878567
      5          6           0       11.188040   -0.081804   -0.000315
      6          1           0       11.276243   -0.721138   -0.877825
      7          1           0       11.276509   -0.721423    0.876962
      8          8           0        9.946241    0.560180   -0.000022
      9          6           0        8.846790   -0.296316   -0.000050
     10          1           0        8.851174   -0.937919    0.878768
     11          1           0        8.851005   -0.937642   -0.879071
     12          6           0        7.597802    0.560017    0.000209
     13          1           0        7.591582    1.200248    0.879309
     14          1           0        7.591353    1.200448   -0.878743
     15          8           0        6.495223   -0.296302    0.000257
     16          6           0        5.256803    0.345240    0.000229
     17          1           0        5.145316    0.975879   -0.878866
     18          1           0        5.145374    0.976075    0.879193
     19          6           0        4.186289   -0.725794    0.000385
     20          1           0        4.297283   -1.356173    0.879644
     21          1           0        4.297234   -1.356375   -0.878736
     22          8           0        2.945874   -0.084016    0.000348
     23          6           0        1.846640   -0.943368    0.000390
     24          1           0        1.865405   -1.584048    0.879457
     25          1           0        1.865400   -1.584126   -0.878619
     26          6           0        0.595834   -0.079529    0.000356
     27          1           0        0.598532    0.553243   -0.878075
     28          1           0        0.598558    0.553350    0.878709
     29         16           0       -0.890296   -1.124899    0.000439
     30          6           0       -2.171817    0.165383    0.000336
     31          1           0       -2.051419    0.787449    0.878390
     32          1           0       -2.051415    0.787313   -0.877815
     33          6           0       -3.552095   -0.484977    0.000384
     34          1           0       -3.671886   -1.107009    0.878634
     35          1           0       -3.671872   -1.107172   -0.877751
     36         16           0       -4.833344    0.805931    0.000258
     37          6           0       -6.324330   -0.236110    0.000280
     38          1           0       -6.316914   -0.869513    0.878511
     39          1           0       -6.316814   -0.869699   -0.877817
     40          6           0       -7.567490    0.648833    0.000114
     41          1           0       -7.573254    1.283213    0.877992
     42          1           0       -7.573153    1.283027   -0.877899
     43         16           0       -9.058414   -0.391574    0.000138
     44          6           0      -10.344589    0.893559   -0.000095
     45          1           0      -10.218183    1.517957    0.876590
     46          1           0      -10.218072    1.517750   -0.876911
     47          6           0      -11.731092    0.256148   -0.000108
     48          1           0      -12.493114    1.028643   -0.000244
     49          1           0      -11.877940   -0.362225   -0.878618
     50          1           0      -11.878049   -0.362024    0.878525
 ---------------------------------------------------------------------
 Stoichiometry    C14H30O3S3
 Framework group  C1[X(C14H30O3S3)]
                         Standard orientation:                         
 ---------------------------------------------------------------------
 Center     Atomic      Atomic             Coordinates (Angstroms)
 Number     Number       Type             X           Y           Z
 ---------------------------------------------------------------------
      1          6           0       12.275467   -0.981376    0.000478
      2          1           0       13.256222   -0.516032    0.000689
      3          1           0       12.191821   -1.610931    0.879136
      4          1           0       12.192071   -1.610660   -0.878397
      5          6           0       11.187044    0.073766    0.000485
      6          1           0       11.275563    0.713056    0.877995
      7          1           0       11.275829    0.713341   -0.876792
      8          8           0        9.944927   -0.567604    0.000192
      9          6           0        8.845899    0.289436    0.000220
     10          1           0        8.850602    0.931037   -0.878598
     11          1           0        8.850432    0.930759    0.879241
     12          6           0        7.596489   -0.566279   -0.000039
     13          1           0        7.589952   -1.206506   -0.879139
     14          1           0        7.589723   -1.206707    0.878913
     15          8           0        6.494333    0.290585   -0.000087
     16          6           0        5.255596   -0.350344   -0.000059
     17          1           0        5.143797   -0.980928    0.879036
     18          1           0        5.143855   -0.981124   -0.879022
     19          6           0        4.185612    0.721220   -0.000215
     20          1           0        4.296918    1.351543   -0.879474
     21          1           0        4.296869    1.351746    0.878906
     22          8           0        2.944879    0.080055   -0.000178
     23          6           0        1.846071    0.939951   -0.000220
     24          1           0        1.865153    1.580622   -0.879287
     25          1           0        1.865148    1.580700    0.878790
     26          6           0        0.594837    0.076731   -0.000185
     27          1           0        0.597222   -0.556043    0.878245
     28          1           0        0.597248   -0.556149   -0.878539
     29         16           0       -0.890775    1.122836   -0.000269
     30          6           0       -2.172934   -0.166812   -0.000166
     31          1           0       -2.052844   -0.788937   -0.878220
[...]
     19          6           0        4.186282   -0.725791    0.000153
     20          1           0        4.297256   -1.356183    0.879406
     21          1           0        4.297240   -1.356360   -0.878975
     22          8           0        2.945865   -0.084013    0.000100
     23          6           0        1.846631   -0.943366    0.000198
     24          1           0        1.865406   -1.583995    0.879301
     25          1           0        1.865386   -1.584170   -0.878777
     26          6           0        0.595825   -0.079524    0.000127
     27          1           0        0.598533    0.553222   -0.878323
     28          1           0        0.598543    0.553383    0.878461
     29         16           0       -0.890305   -1.124894    0.000233
     30          6           0       -2.171825    0.165387    0.000141
     31          1           0       -2.051420    0.787456    0.878193
     32          1           0       -2.051432    0.787317   -0.878012
     33          6           0       -3.552102   -0.484974    0.000201
     34          1           0       -3.671878   -1.107025    0.878440
     35          1           0       -3.671893   -1.107153   -0.877945
     36         16           0       -4.833349    0.805934    0.000117
     37          6           0       -6.324332   -0.236109    0.000202
     38          1           0       -6.316859   -0.869546    0.878409
     39          1           0       -6.316875   -0.869664   -0.877920
     40          6           0       -7.567491    0.648836    0.000154
     41          1           0       -7.573197    1.283181    0.878058
     42          1           0       -7.573211    1.283066   -0.877833
     43         16           0       -9.058412   -0.391574    0.000234
     44          6           0      -10.344588    0.893556    0.000159
     45          1           0      -10.218123    1.517908    0.876868
     46          1           0      -10.218134    1.517795   -0.876633
     47          6           0      -11.731088    0.256138    0.000209
     48          1           0      -12.493113    1.028630    0.000163
     49          1           0      -11.877994   -0.362193   -0.878321
     50          1           0      -11.877983   -0.362077    0.878822
 ---------------------------------------------------------------------
 Stoichiometry    C14H30O3S3
 Framework group  C1[X(C14H30O3S3)]
                         Standard orientation:                         
 ---------------------------------------------------------------------
 Center     Atomic      Atomic             Coordinates (Angstroms)
 Number     Number       Type             X           Y           Z
 ---------------------------------------------------------------------
      1          6           0       12.275481   -0.981370    0.000173
      2          1           0       13.256238   -0.516026    0.000125
      3          1           0       12.191964   -1.610704    0.879002
      4          1           0       12.191961   -1.610877   -0.878532
      5          6           0       11.187055    0.073770    0.000071
      6          1           0       11.275705    0.713289    0.877402
      7          1           0       11.275700    0.713114   -0.877387
      8          8           0        9.944938   -0.567602    0.000139
      9          6           0        8.845908    0.289438    0.000047
     10          1           0        8.850532    0.930808   -0.878940
     11          1           0        8.850526    0.930991    0.878900
     12          6           0        7.596494   -0.566277    0.000132
     13          1           0        7.589843   -1.206694   -0.878829
     14          1           0        7.589839   -1.206514    0.879223
     15          8           0        6.494335    0.290586    0.000042
     16          6           0        5.255596   -0.350344    0.000095
     17          1           0        5.143822   -0.980938    0.879187
     18          1           0        5.143838   -0.981114   -0.878872
     19          6           0        4.185606    0.721218   -0.000022
     20          1           0        4.296891    1.351555   -0.879274
     21          1           0        4.296876    1.351731    0.879106
     22          8           0        2.944872    0.080053    0.000032
     23          6           0        1.846063    0.939949   -0.000067
     24          1           0        1.865155    1.580569   -0.879170
     25          1           0        1.865135    1.580745    0.878909
     26          6           0        0.594830    0.076727    0.000005
     27          1           0        0.597224   -0.556020    0.878455
     28          1           0        0.597235   -0.556182   -0.878329
     29         16           0       -0.890783    1.122832   -0.000102
     30          6           0       -2.172941   -0.166816   -0.000009
     31          1           0       -2.052844   -0.788944   -0.878062
     32          1           0       -2.052856   -0.788805    0.878143
     33          6           0       -3.552897    0.484229   -0.000070
     34          1           0       -3.672365    1.106339   -0.878309
     35          1           0       -3.672380    1.106467    0.878077
     36         16           0       -4.834782   -0.806045    0.000014
     37          6           0       -6.325250    0.236735   -0.000071
     38          1           0       -6.317462    0.870168   -0.878278
     39          1           0       -6.317479    0.870287    0.878051
     40          6           0       -7.568846   -0.647594   -0.000023
     41          1           0       -7.574866   -1.281937   -0.877927
     42          1           0       -7.574880   -1.281822    0.877965
     43         16           0       -9.059252    0.393553   -0.000102
     44          6           0      -10.346063   -0.890941   -0.000027
     45          1           0      -10.219907   -1.515356   -0.876736
     46          1           0      -10.219919   -1.515242    0.876765
     47          6           0      -11.732248   -0.252837   -0.000077
     48          1           0      -12.494655   -1.024952   -0.000031
     49          1           0      -11.878848    0.365566    0.878453
     50          1           0      -11.878838    0.365451   -0.878691
 ---------------------------------------------------------------------
 Standard basis: 6-31G(d) (6D, 7F)
   372 basis functions,   752 primitive gaussians,   372 cartesian basis functions
    93 alpha electrons       93 beta electrons
 Requested convergence on RMS density matrix=1.00D-08 within  64 cycles.
 Requested convergence on MAX density matrix=1.00D-06.
 Requested convergence on             energy=1.00D-06.
 SCF Done:  E(RHF) =  -1964.70188583     A.U. after    4 cycles
            NFock=  4  Conv=0.33D-08     -V/T= 2.0006
 Step number  11 out of a maximum of   55
     Eigenvalues ---    0.00220   0.00230   0.00230   0.00230   0.00264
     Eigenvalues ---    0.00384   0.00419   0.00451   0.00459   0.00494
     Eigenvalues ---    0.00569   0.00578   0.00713   0.00792   0.01479
     Eigenvalues ---    0.01594   0.01595   0.01609   0.01630   0.04887
     Eigenvalues ---    0.04949   0.05032   0.05037   0.05046   0.05095
     Eigenvalues ---    0.05346   0.05455   0.05475   0.05485   0.05488
     Eigenvalues ---    0.05492   0.05553   0.05668   0.05702   0.05755
     Eigenvalues ---    0.05779   0.05782   0.05809   0.05813   0.05819
     Eigenvalues ---    0.05853   0.05965   0.05978   0.06063   0.06077
     Eigenvalues ---    0.06090   0.06116   0.10884   0.11013   0.11018
     Eigenvalues ---    0.11020   0.11050   0.11103   0.11104   0.11113
     Eigenvalues ---    0.11122   0.11188   0.11301   0.13013   0.13573
     Eigenvalues ---    0.13615   0.13623   0.13628   0.13634   0.13635
     Eigenvalues ---    0.13640   0.13643   0.13659   0.13719   0.13722
     Eigenvalues ---    0.13858   0.15660   0.15982   0.15999   0.16005
     Eigenvalues ---    0.16014   0.16102   0.20201   0.21885   0.21970
     Eigenvalues ---    0.21976   0.21997   0.22008   0.22014   0.22017
     Eigenvalues ---    0.22058   0.22193   0.22457   0.23588   0.24265
     Eigenvalues ---    0.24344   0.24403   0.24414   0.24442   0.24779
     Eigenvalues ---    0.24976   0.25003   0.25022   0.25671   0.28121
     Eigenvalues ---    0.29409   0.30095   0.30142   0.30491   0.30835
     Eigenvalues ---    0.31035   0.32801   0.33467   0.33530   0.33571
     Eigenvalues ---    0.33620   0.33624   0.33642   0.33661   0.33682
     Eigenvalues ---    0.33686   0.33690   0.33709   0.34281   0.34288
     Eigenvalues ---    0.34305   0.34311   0.34321   0.34329   0.34343
     Eigenvalues ---    0.34350   0.34357   0.34363   0.34368   0.34374
     Eigenvalues ---    0.34378   0.34397   0.34404   0.34409   0.34449
     Eigenvalues ---    0.35640   0.38022   0.40090   0.43046   0.44342
     Eigenvalues ---    0.44577   0.44741   0.45265   0.49657
 Maximum Force            0.000000     0.000015     YES
 RMS     Force            0.000000     0.000010     YES
 Maximum Displacement     0.000160     0.000060     NO 
 RMS     Displacement     0.000032     0.000040     YES
 Optimization completed on the basis of negligible forces.
    -- Stationary point found.
                          Input orientation:                          
 ---------------------------------------------------------------------
 Center     Atomic      Atomic             Coordinates (Angstroms)
 Number     Number       Type             X           Y           Z
 ---------------------------------------------------------------------
      1          6           0       12.276999    0.972794   -0.000041
      2          1           0       13.257525    0.506965    0.000006
      3          1           0       12.193793    1.602170   -0.878870
      4          1           0       12.193790    1.602342    0.878664
      5          6           0       11.188051   -0.081808    0.000060
      6          1           0       11.276384   -0.721370   -0.877270
      7          1           0       11.276379   -0.721195    0.877519
      8          8           0        9.946251    0.560179   -0.000007
      9          6           0        8.846797   -0.296317    0.000085
     10          1           0        8.851103   -0.937690    0.879072
     11          1           0        8.851098   -0.937872   -0.878769
     12          6           0        7.597807    0.560016   -0.000000
     13          1           0        7.591472    1.200436    0.878961
     14          1           0        7.591468    1.200256   -0.879092
     15          8           0        6.495224   -0.296301    0.000090
     16          6           0        5.256802    0.345241    0.000036
     17          1           0        5.145340    0.975890   -0.879056
     18          1           0        5.145356    0.976066    0.879004
     19          6           0        4.186282   -0.725791    0.000153
     20          1           0        4.297256   -1.356183    0.879406
     21          1           0        4.297240   -1.356360   -0.878975
     22          8           0        2.945865   -0.084013    0.000100
     23          6           0        1.846631   -0.943366    0.000198
     24          1           0        1.865406   -1.583995    0.879301
     25          1           0        1.865386   -1.584170   -0.878777
     26          6           0        0.595825   -0.079524    0.000127
     27          1           0        0.598533    0.553222   -0.878323
     28          1           0        0.598543    0.553383    0.878461
     29         16           0       -0.890305   -1.124894    0.000233
     30          6           0       -2.171825    0.165387    0.000141
     31          1           0       -2.051420    0.787456    0.878193
     32          1           0       -2.051432    0.787317   -0.878012
     33          6           0       -3.552102   -0.484974    0.000201
     34          1           0       -3.671878   -1.107025    0.878440
     35          1           0       -3.671893   -1.107153   -0.877945
     36         16           0       -4.833349    0.805934    0.000117
     37          6           0       -6.324332   -0.236109    0.000202
     38          1           0       -6.316859   -0.869546    0.878409
     39          1           0       -6.316875   -0.869664   -0.877920
     40          6           0       -7.567491    0.648836    0.000154
     41          1           0       -7.573197    1.283181    0.878058
     42          1           0       -7.573211    1.283066   -0.877833
     43         16           0       -9.058412   -0.391574    0.000234
     44          6           0      -10.344588    0.893556    0.000159
     45          1           0      -10.218123    1.517908    0.876868
     46          1           0      -10.218134    1.517795   -0.876633
     47          6           0      -11.731088    0.256138    0.000209
     48          1           0      -12.493113    1.028630    0.000163
     49          1           0      -11.877994   -0.362193   -0.878321
     50          1           0      -11.877983   -0.362077    0.878822
 ---------------------------------------------------------------------
 Stoichiometry    C14H30O3S3
 Framework group  C1[X(C14H30O3S3)]
                         Standard orientation:                         
 ---------------------------------------------------------------------
 Center     Atomic      Atomic             Coordinates (Angstroms)
 Number     Number       Type             X           Y           Z
 ---------------------------------------------------------------------
      1          6           0       12.275481   -0.981370    0.000173
      2          1           0       13.256238   -0.516026    0.000125
      3          1           0       12.191964   -1.610704    0.879002
      4          1           0       12.191961   -1.610877   -0.878532
      5          6           0       11.187055    0.073770    0.000071
      6          1           0       11.275705    0.713289    0.877402
      7          1           0       11.275700    0.713114   -0.877387
      8          8           0        9.944938   -0.567602    0.000139
      9          6           0        8.845908    0.289438    0.000047
     10          1           0        8.850532    0.930808   -0.878940
     11          1           0        8.850526    0.930991    0.878900
     12          6           0        7.596494   -0.566277    0.000132
     13          1           0        7.589843   -1.206694   -0.878829
     14          1           0        7.589839   -1.206514    0.879223
     15          8           0        6.494335    0.290586    0.000042
     16          6           0        5.255596   -0.350344    0.000095
     17          1           0        5.143822   -0.980938    0.879187
     18          1           0        5.143838   -0.981114   -0.878872
     19          6           0        4.185606    0.721218   -0.000022
     20          1           0        4.296891    1.351555   -0.879274
     21          1           0        4.296876    1.351731    0.879106
     22          8           0        2.944872    0.080053    0.000032
     23          6           0        1.846063    0.939949   -0.000067
     24          1           0        1.865155    1.580569   -0.879170
     25          1           0        1.865135    1.580745    0.878909
     26          6           0        0.594830    0.076727    0.000005
     27          1           0        0.597224   -0.556020    0.878455
     28          1           0        0.597235   -0.556182   -0.878329
     29         16           0       -0.890783    1.122832   -0.000102
     30          6           0       -2.172941   -0.166816   -0.000009
     31          1           0       -2.052844   -0.788944   -0.878062
     32          1           0       -2.052856   -0.788805    0.878143
     33          6           0       -3.552897    0.484229   -0.000070
     34          1           0       -3.672365    1.106339   -0.878309
     35          1           0       -3.672380    1.106467    0.878077
     36         16           0       -4.834782   -0.806045    0.000014
     37          6           0       -6.325250    0.236735   -0.000071
     38          1           0       -6.317462    0.870168   -0.878278
     39          1           0       -6.317479    0.870287    0.878051
     40          6           0       -7.568846   -0.647594   -0.000023
     41          1           0       -7.574866   -1.281937   -0.877927
     42          1           0       -7.574880   -1.281822    0.877965
     43         16           0       -9.059252    0.393553   -0.000102
     44          6           0      -10.346063   -0.890941   -0.000027
     45          1           0      -10.219907   -1.515356   -0.876736
     46          1           0      -10.219919   -1.515242    0.876765
     47          6           0      -11.732248   -0.252837   -0.000077
     48          1           0      -12.494655   -1.024952   -0.000031
     49          1           0      -11.878848    0.365566    0.878453
     50          1           0      -11.878838    0.365451   -0.878691
 ---------------------------------------------------------------------
 Mulliken charges:
     1  C   -0.489632
     2  H    0.157405
     3  H    0.173819
     4  H    0.173819
     5  C    0.024591
     6  H    0.139405
     7  H    0.139405
     8  O   -0.634466
     9  C    0.017139
    10  H    0.150708
    11  H    0.150708
    12  C    0.016341
    13  H    0.154477
    14  H    0.154477
    15  O   -0.651330
    16  C    0.018008
    17  H    0.154500
    18  H    0.154500
    19  C    0.012952
    20  H    0.155167
    21  H    0.155168
    22  O   -0.642951
    23  C    0.021095
    24  H    0.158743
    25  H    0.158743
    26  C   -0.479124
    27  H    0.201856
    28  H    0.201856
    29  S    0.120202
    30  C   -0.480249
    31  H    0.206639
    32  H    0.206639
    33  C   -0.482018
    34  H    0.206676
    35  H    0.206676
    36  S    0.131750
    37  C   -0.480720
    38  H    0.206382
    39  H    0.206383
    40  C   -0.481398
    41  H    0.203527
    42  H    0.203527
    43  S    0.124136
    44  C   -0.459815
    45  H    0.188289
    46  H    0.188289
    47  C   -0.496833
    48  H    0.173667
    49  H    0.180437
    50  H    0.180437
 Sum of Mulliken charges =  -0.00000
 Dipole moment (field-independent basis, Debye):
    X=              0.2607    Y=             -0.5652    Z=              0.0000  Tot=              0.6224
 Quadrupole moment (field-independent basis, Debye-Ang):
   XX=           -119.1011   YY=           -151.8705   ZZ=           -149.7590
   XY=             17.9647   XZ=             -0.0014   YZ=              0.0003
 Traceless Quadrupole moment (field-independent basis, Debye-Ang):
   XX=             21.1424   YY=            -11.6270   ZZ=             -9.5155
   XY=             17.9647   XZ=             -0.0014   YZ=              0.0003
 Octapole moment (field-independent basis, Debye-Ang**2):
  XXX=             75.0299  YYY=             -3.3092  ZZZ=              0.0019  XYY=             24.1490
  XXY=            -45.6606  XXZ=             -0.0014  XZZ=             41.1549  YZZ=             -2.8134
  YYZ=              0.0001  XYZ=              0.0011
 Hexadecapole moment (field-independent basis, Debye-Ang**3):
 XXXX=         -40636.0786 YYYY=           -656.5791 ZZZZ=           -256.5388 XXXY=           2180.7873
 XXXZ=             -0.3395 YYYX=              8.8773 YYYZ=              0.0175 ZZZX=             -0.2030
 ZZZY=              0.0147 XXYY=          -8048.6622 XXZZ=          -7934.9345 YYZZ=           -147.2326
 XXYZ=              0.0300 YYXZ=             -0.0689 ZZXY=              1.7438
 Job cpu time:       0 days  0 hours 48 minutes 14.0 seconds.
 Normal termination of Gaussian 16 at Sat Jul  8 14:46:45 2023.
