 Copyright (c) 1988-2019, Gaussian, Inc.  All Rights Reserved.
  
 This is part of the Gaussian(R) 16 program.  It is based on
 the Gaussian(R) 09 system (copyright 2009, Gaussian, Inc.),
 the Gaussian(R) 03 system (copyright 2003, Gaussian, Inc.),
 the Gaussian(R) 98 system (copyright 1998, Gaussian, Inc.),
 the Gaussian(R) 94 system (copyright 1995, Gaussian, Inc.),
 the Gaussian 92(TM) system (copyright 1992, Gaussian, Inc.),
 the Gaussian 90(TM) system (copyright 1990, Gaussian, Inc.),
 the Gaussian 88(TM) system (copyright 1988, Gaussian, Inc.),
 the Gaussian 86(TM) system (copyright 1986, Carnegie Mellon
 University), and the Gaussian 82(TM) system (copyright 1983,
 Carnegie Mellon University). Gaussian is a federally registered
 trademark of Gaussian, Inc.
 Cite this work as:
 Gaussian 16, Revision C.01,
 M. J. Frisch, G. W. Trucks, H. B. Schlegel, G. E. Scuseria, 
 M. A. Robb, J. R. Cheeseman, G. Scalmani, V. Barone, 
 G. A. Petersson, H. Nakatsuji, X. Li, M. Caricato, A. V. Marenich, 
 J. Bloino, B. G. Janesko, R. Gomperts, B. Mennucci, H. P. Hratchian, 
 J. V. Ortiz, A. F. Izmaylov, J. L. Sonnenberg, D. Williams-Young, 
 F. Ding, F. Lipparini, F. Egidi, J. Goings, B. Peng, A. Petrone, 
 T. Henderson, D. Ranasinghe, V. G. Zakrzewski, J. Gao, N. Rega, 
 G. Zheng, W. Liang, M. Hada, M. Ehara, K. Toyota, R. Fukuda, 
 J. Hasegawa, M. Ishida, T. Nakajima, Y. Honda, O. Kitao, H. Nakai, 
 T. Vreven, K. Throssell, J. A. Montgomery, Jr., J. E. Peralta, 
 F. Ogliaro, M. J. Bearpark, J. J. Heyd, E. N. Brothers, K. N. Kudin, 
 V. N. Staroverov, T. A. Keith, R. Kobayashi, J. Normand, 
 K. Raghavachari, A. P. Rendell, J. C. Burant, S. S. Iyengar, 
 J. Tomasi, M. Cossi, J. M. Millam, M. Klene, C. Adamo, R. Cammi, 
 J. W. Ochterski, R. L. Martin, K. Morokuma, O. Farkas, 
 J. B. Foresman, and D. J. Fox, Gaussian, Inc., Wallingford CT, 2019.
 
 ******************************************
 Gaussian 16:  EM64L-G16RevC.01  3-Jul-2019
                 8-Jul-2023 
 ******************************************
 ----------------------------------------------------------------------
 #P HF/6-31G(d) SCF(Conver=8,XQC,MaxConventionalCycles=64,MaxCycle=128)
  NoSymm Test Pop=mk IOp(6/33=2) GFInput GFPrint
 ----------------------------------------------------------------------
 1/38=1,172=1/1;
 2/12=2,15=1,17=6,18=5,40=1/2;
 3/5=1,6=6,7=1,11=9,24=110,25=1,30=1/1,2,3;
 4//1;
 5/5=2,6=8,7=128,8=3,13=1,38=5,85=64/2,8;
 6/7=2,8=2,9=2,10=2,15=8,20=1,28=1,33=2/1,2;
 99/5=1,9=1/99;
 -------------------------------------------------
 MEP step - Input generated by PyRED DVE-DMDS-OPLS
 -------------------------------------------------
 Symbolic Z-matrix:
 Charge =  0 Multiplicity = 1
 C                    -4.86874   4.50041  -2.19719 
 H                    -5.45728   4.95006  -1.4043 
 H                    -3.99799   5.12376  -2.37023 
 H                    -5.47466   4.50076  -3.09829 
 C                    -4.44193   3.0789   -1.85569 
 H                    -5.31365   2.45784  -1.65794 
 H                    -3.9146    2.64357  -2.6949 
 O                    -3.55372   3.00994  -0.77452 
 C                    -4.09922   3.21409   0.49373 
 H                    -5.02801   2.65973   0.60671 
 H                    -4.31143   4.26809   0.6633 
 C                    -3.10541   2.73767   1.52953 
 H                    -2.14126   3.19396   1.32806 
 H                    -3.4302    3.06326   2.51487 
 O                    -3.02176   1.34105   1.51377 
 C                    -1.74607   0.77066   1.4683 
 H                    -1.82344  -0.21647   1.90556 
 H                    -1.04331   1.34021   2.07203 
 C                    -1.24943   0.64028   0.0332 
 H                    -1.20539   1.60807  -0.45391 
 H                    -1.94649   0.02829  -0.52399 
 O                     0.        0.        0. 
 C                     1.11733   0.84128   0. 
 H                     1.12044   1.47038   0.88976 
 H                     1.09849   1.49326  -0.86893 
 C                     2.3811    0.        0. 
 H                     2.36616  -0.69451   0.83 
 H                     3.23338   0.65391   0.14837 
 S                     2.76917  -0.87504  -1.54276 
 C                     1.51705  -2.1905   -1.66476 
 H                     0.5521   -1.74486  -1.85422 
 H                     1.81256  -2.74527  -2.54722 
 C                     1.38019  -3.13886  -0.47687 
 H                     0.62749  -3.87397  -0.73939 
 H                     1.02015  -2.60273   0.3907 
 S                     2.93227  -4.00156  -0.07176 
 C                     2.29346  -5.25763   1.07593 
 H                     1.56025  -4.78764   1.72381 
 H                     3.12918  -5.53818   1.70398 
 C                     1.67475  -6.49871   0.42699 
 H                     1.11146  -7.05087   1.17077 
 H                     0.97195  -6.21335  -0.34506 
 S                     2.85278  -7.62626  -0.37648 
 C                     3.50834  -8.56386   1.03937 
 H                     4.4151   -9.02425   0.66557 
 H                     3.81055  -7.87368   1.81854 
 C                     2.57116  -9.63333   1.59336 
 H                     1.65211  -9.20505   1.97839 
 H                     2.3086   -10.35138   0.82533 
 H                     3.05329  -10.16532   2.40899 
 
 ITRead=  0  0  0  0  0  0  0  0  0  0  0  0  0  0  0  0  0  0  0  0
 ITRead=  0  0  0  0  0  0  0  0  0  0  0  0  0  0  0  0  0  0  0  0
 ITRead=  0  0  0  0  0  0  0  0  0  0
 MicOpt= -1 -1 -1 -1 -1 -1 -1 -1 -1 -1 -1 -1 -1 -1 -1 -1 -1 -1 -1 -1
 MicOpt= -1 -1 -1 -1 -1 -1 -1 -1 -1 -1 -1 -1 -1 -1 -1 -1 -1 -1 -1 -1
 MicOpt= -1 -1 -1 -1 -1 -1 -1 -1 -1 -1
 NAtoms=     50 NQM=       50 NQMF=       0 NMMI=      0 NMMIF=      0
                NMic=       0 NMicF=      0.
                          Input orientation:                          
 ---------------------------------------------------------------------
 Center     Atomic      Atomic             Coordinates (Angstroms)
 Number     Number       Type             X           Y           Z
 ---------------------------------------------------------------------
      1          6           0       -4.868738    4.500411   -2.197189
      2          1           0       -5.457277    4.950056   -1.404301
      3          1           0       -3.997985    5.123755   -2.370233
      4          1           0       -5.474658    4.500763   -3.098285
      5          6           0       -4.441935    3.078899   -1.855692
      6          1           0       -5.313648    2.457841   -1.657935
      7          1           0       -3.914596    2.643572   -2.694904
      8          8           0       -3.553718    3.009935   -0.774520
      9          6           0       -4.099215    3.214086    0.493730
     10          1           0       -5.028011    2.659731    0.606712
     11          1           0       -4.311433    4.268090    0.663301
     12          6           0       -3.105407    2.737668    1.529530
     13          1           0       -2.141258    3.193962    1.328057
     14          1           0       -3.430200    3.063263    2.514869
     15          8           0       -3.021765    1.341047    1.513769
     16          6           0       -1.746070    0.770662    1.468300
     17          1           0       -1.823440   -0.216469    1.905560
     18          1           0       -1.043310    1.340211    2.072028
     19          6           0       -1.249425    0.640284    0.033203
     20          1           0       -1.205395    1.608074   -0.453912
     21          1           0       -1.946493    0.028289   -0.523994
     22          8           0        0.000000    0.000000    0.000000
     23          6           0        1.117335    0.841279    0.000000
     24          1           0        1.120437    1.470378    0.889757
     25          1           0        1.098494    1.493262   -0.868925
     26          6           0        2.381100    0.000000    0.000000
     27          1           0        2.366155   -0.694507    0.830000
     28          1           0        3.233382    0.653909    0.148369
     29         16           0        2.769168   -0.875038   -1.542762
     30          6           0        1.517051   -2.190504   -1.664761
     31          1           0        0.552096   -1.744859   -1.854216
     32          1           0        1.812556   -2.745266   -2.547221
     33          6           0        1.380187   -3.138860   -0.476871
     34          1           0        0.627487   -3.873972   -0.739394
     35          1           0        1.020148   -2.602729    0.390704
     36         16           0        2.932271   -4.001559   -0.071758
     37          6           0        2.293460   -5.257627    1.075933
     38          1           0        1.560246   -4.787642    1.723807
     39          1           0        3.129179   -5.538184    1.703979
     40          6           0        1.674748   -6.498705    0.426994
     41          1           0        1.111456   -7.050869    1.170765
     42          1           0        0.971948   -6.213346   -0.345060
     43         16           0        2.852781   -7.626255   -0.376480
     44          6           0        3.508336   -8.563864    1.039370
     45          1           0        4.415102   -9.024247    0.665574
     46          1           0        3.810547   -7.873682    1.818540
     47          6           0        2.571157   -9.633330    1.593356
     48          1           0        1.652109   -9.205054    1.978391
     49          1           0        2.308602  -10.351376    0.825333
     50          1           0        3.053286  -10.165316    2.408989
 ---------------------------------------------------------------------
 Stoichiometry    C14H30O3S3
 Framework group  C1[X(C14H30O3S3)]
 Standard basis: 6-31G(d) (6D, 7F)
   372 basis functions,   752 primitive gaussians,   372 cartesian basis functions
    93 alpha electrons       93 beta electrons
 Requested convergence on RMS density matrix=1.00D-08 within  64 cycles.
 Requested convergence on MAX density matrix=1.00D-06.
 Requested convergence on             energy=1.00D-06.
 SCF Done:  E(RHF) =  -1964.68614902     A.U. after   13 cycles
            NFock= 13  Conv=0.47D-08     -V/T= 2.0006
 Mulliken charges:
     1  C   -0.507335
     2  H    0.162075
     3  H    0.174223
     4  H    0.162695
     5  C    0.015177
     6  H    0.144901
     7  H    0.172901
     8  O   -0.628230
     9  C    0.012419
    10  H    0.155570
    11  H    0.140125
    12  C    0.006430
    13  H    0.154548
    14  H    0.155716
    15  O   -0.633012
    16  C   -0.004553
    17  H    0.176149
    18  H    0.141311
    19  C   -0.012655
    20  H    0.171975
    21  H    0.178818
    22  O   -0.642902
    23  C    0.029433
    24  H    0.139771
    25  H    0.163999
    26  C   -0.500846
    27  H    0.210916
    28  H    0.199646
    29  S    0.120888
    30  C   -0.473878
    31  H    0.221410
    32  H    0.205841
    33  C   -0.470329
    34  H    0.186082
    35  H    0.205585
    36  S    0.156533
    37  C   -0.480837
    38  H    0.189081
    39  H    0.202942
    40  C   -0.472981
    41  H    0.192109
    42  H    0.203355
    43  S    0.132952
    44  C   -0.478713
    45  H    0.201040
    46  H    0.185795
    47  C   -0.472079
    48  H    0.161065
    49  H    0.180005
    50  H    0.164868
 Sum of Mulliken charges =  -0.00000
 Dipole moment (field-independent basis, Debye):
    X=             -3.9880    Y=              2.3671    Z=              3.2108  Tot=              5.6406
 Quadrupole moment (field-independent basis, Debye-Ang):
   XX=           -154.7439   YY=           -134.9374   ZZ=           -146.3875
   XY=             -0.1026   XZ=             15.5247   YZ=            -15.0856
 Traceless Quadrupole moment (field-independent basis, Debye-Ang):
   XX=             -9.3877   YY=             10.4189   ZZ=             -1.0312
   XY=             -0.1026   XZ=             15.5247   YZ=            -15.0856
 Octapole moment (field-independent basis, Debye-Ang**2):
  XXX=           -260.0122  YYY=            776.9981  ZZZ=             30.9777  XYY=            -73.5158
  XXY=            344.3483  XXZ=             29.6761  XZZ=            -69.7614  YZZ=            272.8634
  YYZ=            145.4371  XYZ=            -52.2698
 Hexadecapole moment (field-independent basis, Debye-Ang**3):
 XXXX=          -7346.4255 YYYY=         -18192.6080 ZZZZ=          -1427.3858 XXXY=           4436.2545
 XXXZ=             80.0537 YYYX=           4089.6953 YYYZ=           -321.8419 ZZZX=            -95.4792
 ZZZY=            612.8374 XXYY=          -4120.0403 XXZZ=          -1459.0561 YYZZ=          -3323.7710
 XXYZ=              8.5910 YYXZ=            327.0743 ZZXY=           1466.2359
 Merz-Kollman atomic radii used.
 Atom Element Radius
    1     6    1.50
    2     1    1.20
    3     1    1.20
    4     1    1.20
    5     6    1.50
    6     1    1.20
    7     1    1.20
    8     8    1.40
    9     6    1.50
   10     1    1.20
   11     1    1.20
   12     6    1.50
   13     1    1.20
   14     1    1.20
   15     8    1.40
   16     6    1.50
   17     1    1.20
   18     1    1.20
   19     6    1.50
   20     1    1.20
   21     1    1.20
   22     8    1.40
   23     6    1.50
   24     1    1.20
   25     1    1.20
   26     6    1.50
   27     1    1.20
   28     1    1.20
   29    16    1.75
   30     6    1.50
   31     1    1.20
   32     1    1.20
   33     6    1.50
   34     1    1.20
   35     1    1.20
   36    16    1.75
   37     6    1.50
   38     1    1.20
   39     1    1.20
   40     6    1.50
   41     1    1.20
   42     1    1.20
   43    16    1.75
   44     6    1.50
   45     1    1.20
   46     1    1.20
   47     6    1.50
   48     1    1.20
   49     1    1.20
   50     1    1.20
 Generate VDW surfaces: Layer= 4 Dens= 1 Start= 1.400 Inc= 0.200
            Electrostatic Properties Using The SCF Density.


       Atomic Center    1 is at  -4.868738  4.500411 -2.197189
       Atomic Center    2 is at  -5.457277  4.950056 -1.404301
       Atomic Center    3 is at  -3.997985  5.123755 -2.370233
       Atomic Center    4 is at  -5.474658  4.500763 -3.098285
       Atomic Center    5 is at  -4.441935  3.078899 -1.855692
       Atomic Center    6 is at  -5.313648  2.457841 -1.657935
       Atomic Center    7 is at  -3.914596  2.643572 -2.694904
       Atomic Center    8 is at  -3.553718  3.009935 -0.774520
       Atomic Center    9 is at  -4.099215  3.214086  0.493730
       Atomic Center   10 is at  -5.028011  2.659731  0.606712
       Atomic Center   11 is at  -4.311433  4.268090  0.663301
       Atomic Center   12 is at  -3.105407  2.737668  1.529530
       Atomic Center   13 is at  -2.141258  3.193962  1.328057
       Atomic Center   14 is at  -3.430200  3.063263  2.514869
       Atomic Center   15 is at  -3.021765  1.341047  1.513769
       Atomic Center   16 is at  -1.746070  0.770662  1.468300
       Atomic Center   17 is at  -1.823440 -0.216469  1.905560
       Atomic Center   18 is at  -1.043310  1.340211  2.072028
       Atomic Center   19 is at  -1.249425  0.640284  0.033203
       Atomic Center   20 is at  -1.205395  1.608074 -0.453912
       Atomic Center   21 is at  -1.946493  0.028289 -0.523994
       Atomic Center   22 is at   0.000000  0.000000  0.000000
       Atomic Center   23 is at   1.117335  0.841279  0.000000
       Atomic Center   24 is at   1.120437  1.470378  0.889757
       Atomic Center   25 is at   1.098494  1.493262 -0.868925
       Atomic Center   26 is at   2.381100  0.000000  0.000000
       Atomic Center   27 is at   2.366155 -0.694507  0.830000
       Atomic Center   28 is at   3.233382  0.653909  0.148369
       Atomic Center   29 is at   2.769168 -0.875038 -1.542762
       Atomic Center   30 is at   1.517051 -2.190504 -1.664761
       Atomic Center   31 is at   0.552096 -1.744859 -1.854216
       Atomic Center   32 is at   1.812556 -2.745266 -2.547221
       Atomic Center   33 is at   1.380187 -3.138860 -0.476871
       Atomic Center   34 is at   0.627487 -3.873972 -0.739394
       Atomic Center   35 is at   1.020148 -2.602729  0.390704
       Atomic Center   36 is at   2.932271 -4.001559 -0.071758
       Atomic Center   37 is at   2.293460 -5.257627  1.075933
       Atomic Center   38 is at   1.560246 -4.787642  1.723807
       Atomic Center   39 is at   3.129179 -5.538184  1.703979
       Atomic Center   40 is at   1.674748 -6.498705  0.426994
       Atomic Center   41 is at   1.111456 -7.050869  1.170765
       Atomic Center   42 is at   0.971948 -6.213346 -0.345060
       Atomic Center   43 is at   2.852781 -7.626255 -0.376480
       Atomic Center   44 is at   3.508336 -8.563864  1.039370
       Atomic Center   45 is at   4.415102 -9.024247  0.665574
       Atomic Center   46 is at   3.810547 -7.873682  1.818540
       Atomic Center   47 is at   2.571157 -9.633330  1.593356
       Atomic Center   48 is at   1.652109 -9.205054  1.978391
       Atomic Center   49 is at   2.308602-10.351376  0.825333
       Atomic Center   50 is at   3.053286-10.165316  2.408989
      ESP Fit Center   51 is at  -5.613408  6.463945 -2.197189
      ESP Fit Center   52 is at  -6.907716  3.997848 -2.197189
      ESP Fit Center   53 is at  -5.127559  6.300553 -3.247189
      ESP Fit Center   54 is at  -3.818738  4.500411 -4.015842
      ESP Fit Center   55 is at  -4.343738  5.409738 -4.015842
      ESP Fit Center   56 is at  -4.343738  3.591084 -4.015842
      ESP Fit Center   57 is at  -5.152129  5.889205 -0.045152
      ESP Fit Center   58 is at  -6.256164  5.530482 -0.045152
      ESP Fit Center   59 is at  -6.256164  4.369630 -0.045152
      ESP Fit Center   60 is at  -5.179826  6.523557 -0.885152
      ESP Fit Center   61 is at  -6.256164  6.333770 -0.885152
      ESP Fit Center   62 is at  -6.958694  5.496527 -0.885152
      ESP Fit Center   63 is at  -6.958694  4.403585 -0.885152
      ESP Fit Center   64 is at  -6.256164  6.333770 -1.923450
      ESP Fit Center   65 is at  -6.958694  5.496527 -1.923450
      ESP Fit Center   66 is at  -6.958694  4.403585 -1.923450
      ESP Fit Center   67 is at  -3.010506  5.123755 -1.011084
      ESP Fit Center   68 is at  -3.692837  6.062904 -1.011084
      ESP Fit Center   69 is at  -2.400210  5.123755 -1.851084
      ESP Fit Center   70 is at  -2.774018  6.150785 -1.851084
      ESP Fit Center   71 is at  -3.720534  6.697256 -1.851084
      ESP Fit Center   72 is at  -2.400210  5.123755 -2.889382
      ESP Fit Center   73 is at  -2.774018  6.150785 -2.889382
      ESP Fit Center   74 is at  -3.720534  6.697256 -2.889382
      ESP Fit Center   75 is at  -4.796872  6.507469 -2.889382
      ESP Fit Center   76 is at  -2.774018  4.096725 -2.889382
      ESP Fit Center   77 is at  -3.010506  5.123755 -3.729382
      ESP Fit Center   78 is at  -3.692837  6.062904 -3.729382
      ESP Fit Center   79 is at  -3.997985  5.123755 -4.050233
      ESP Fit Center   80 is at  -6.976075  5.047234 -2.579136
      ESP Fit Center   81 is at  -6.976075  3.954292 -2.579136
      ESP Fit Center   82 is at  -5.197207  6.074264 -3.617434
      ESP Fit Center   83 is at  -6.273545  5.884477 -3.617434
      ESP Fit Center   84 is at  -6.976075  5.047234 -3.617434
      ESP Fit Center   85 is at  -6.976075  3.954292 -3.617434
      ESP Fit Center   86 is at  -6.273545  3.117049 -3.617434
      ESP Fit Center   87 is at  -4.487179  4.500763 -4.457434
      ESP Fit Center   88 is at  -5.169510  5.439912 -4.457434
      ESP Fit Center   89 is at  -6.273545  5.081189 -4.457434
      ESP Fit Center   90 is at  -6.273545  3.920337 -4.457434
      ESP Fit Center   91 is at  -5.169510  3.561614 -4.457434
      ESP Fit Center   92 is at  -5.474658  4.500763 -4.778285
      ESP Fit Center   93 is at  -4.188808  0.994210 -1.855692
      ESP Fit Center   94 is at  -6.815065  3.004312 -1.138786
      ESP Fit Center   95 is at  -6.815065  1.911370 -1.138786
      ESP Fit Center   96 is at  -6.112535  1.074127 -1.138786
      ESP Fit Center   97 is at  -5.036197  0.884340 -1.138786
      ESP Fit Center   98 is at  -6.815065  3.004312 -2.177084
      ESP Fit Center   99 is at  -6.815065  1.911370 -2.177084
      ESP Fit Center  100 is at  -6.112535  1.074127 -2.177084
      ESP Fit Center  101 is at  -5.036197  0.884340 -2.177084
      ESP Fit Center  102 is at  -6.112535  1.877415 -3.017084
      ESP Fit Center  103 is at  -3.637145  1.070071 -2.175755
      ESP Fit Center  104 is at  -2.690629  1.616542 -2.175755
      ESP Fit Center  105 is at  -2.316821  2.643572 -3.214053
      ESP Fit Center  106 is at  -2.690629  3.670602 -3.214053
      ESP Fit Center  107 is at  -4.713483  1.259858 -3.214053
      ESP Fit Center  108 is at  -3.637145  1.070071 -3.214053
      ESP Fit Center  109 is at  -2.690629  1.616542 -3.214053
      ESP Fit Center  110 is at  -2.927117  2.643572 -4.054053
      ESP Fit Center  111 is at  -3.609448  3.582721 -4.054053
      ESP Fit Center  112 is at  -4.713483  3.223998 -4.054053
      ESP Fit Center  113 is at  -4.713483  2.063146 -4.054053
      ESP Fit Center  114 is at  -3.609448  1.704423 -4.054053
      ESP Fit Center  115 is at  -3.914596  2.643572 -4.374904
      ESP Fit Center  116 is at  -1.856308  3.989935 -0.774520
      ESP Fit Center  117 is at  -2.573718  4.707345 -0.774520
      ESP Fit Center  118 is at  -3.553718  1.049935 -0.774520
      ESP Fit Center  119 is at  -1.856308  3.009935 -1.754520
      ESP Fit Center  120 is at  -2.180485  4.007647 -1.754520
      ESP Fit Center  121 is at  -3.029190  1.395602 -1.754520
      ESP Fit Center  122 is at  -5.149215  3.214086  2.312383
      ESP Fit Center  123 is at  -5.826898  3.240157  1.965861
      ESP Fit Center  124 is at  -5.826898  2.079305  1.965861
      ESP Fit Center  125 is at  -6.529428  3.206202  1.125861
      ESP Fit Center  126 is at  -6.529428  2.113260  1.125861
      ESP Fit Center  127 is at  -5.826898  1.276017  1.125861
      ESP Fit Center  128 is at  -6.529428  3.206202  0.087563
      ESP Fit Center  129 is at  -6.529428  2.113260  0.087563
      ESP Fit Center  130 is at  -5.826898  1.276017  0.087563
      ESP Fit Center  131 is at  -4.750560  1.086230  0.087563
      ESP Fit Center  132 is at  -4.006285  5.207239  2.022450
      ESP Fit Center  133 is at  -5.110320  4.848516  2.022450
      ESP Fit Center  134 is at  -3.087466  5.295120  1.182450
      ESP Fit Center  135 is at  -4.033982  5.841591  1.182450
      ESP Fit Center  136 is at  -5.110320  5.651804  1.182450
      ESP Fit Center  137 is at  -5.812850  4.814561  1.182450
      ESP Fit Center  138 is at  -3.087466  5.295120  0.144152
      ESP Fit Center  139 is at  -4.033982  5.841591  0.144152
      ESP Fit Center  140 is at  -5.110320  5.651804  0.144152
      ESP Fit Center  141 is at  -2.349911  4.391973  2.579530
      ESP Fit Center  142 is at  -2.852280  4.822357  1.529530
      ESP Fit Center  143 is at  -1.153779  3.193962  2.687206
      ESP Fit Center  144 is at  -1.836110  4.133111  2.687206
      ESP Fit Center  145 is at  -0.543483  3.193962  1.847206
      ESP Fit Center  146 is at  -0.917291  4.220992  1.847206
      ESP Fit Center  147 is at  -1.863807  4.767463  1.847206
      ESP Fit Center  148 is at  -0.543483  3.193962  0.808908
      ESP Fit Center  149 is at  -0.917291  4.220992  0.808908
      ESP Fit Center  150 is at  -1.863807  4.767463  0.808908
      ESP Fit Center  151 is at  -1.836110  4.133111 -0.031092
      ESP Fit Center  152 is at  -3.430200  3.063263  4.194869
      ESP Fit Center  153 is at  -2.442721  3.063263  3.874018
      ESP Fit Center  154 is at  -3.125052  4.002412  3.874018
      ESP Fit Center  155 is at  -4.229087  3.643689  3.874018
      ESP Fit Center  156 is at  -4.229087  2.482837  3.874018
      ESP Fit Center  157 is at  -3.125052  2.124114  3.874018
      ESP Fit Center  158 is at  -2.206233  4.090293  3.034018
      ESP Fit Center  159 is at  -3.152749  4.636764  3.034018
      ESP Fit Center  160 is at  -4.229087  4.446977  3.034018
      ESP Fit Center  161 is at  -4.931617  3.609734  3.034018
      ESP Fit Center  162 is at  -4.931617  2.516792  3.034018
      ESP Fit Center  163 is at  -4.229087  1.679549  3.034018
      ESP Fit Center  164 is at  -3.021765  1.341047  3.473769
      ESP Fit Center  165 is at  -4.001765  1.341047  3.211179
      ESP Fit Center  166 is at  -3.511765  0.492342  3.211179
      ESP Fit Center  167 is at  -4.719175  1.341047  2.493769
      ESP Fit Center  168 is at  -4.394998  0.343335  2.493769
      ESP Fit Center  169 is at  -3.546293 -0.273286  2.493769
      ESP Fit Center  170 is at  -4.719175  0.361047  1.513769
      ESP Fit Center  171 is at  -4.001765 -0.356363  1.513769
      ESP Fit Center  172 is at  -4.394998  0.343335  0.533769
      ESP Fit Center  173 is at  -3.546293 -0.273286  0.533769
      ESP Fit Center  174 is at  -1.746070  0.770662  3.568300
      ESP Fit Center  175 is at  -0.216121 -0.212576  2.518300
      ESP Fit Center  176 is at  -1.823440 -0.216469  3.585560
      ESP Fit Center  177 is at  -0.835961 -0.216469  3.264709
      ESP Fit Center  178 is at  -2.622327 -0.796895  3.264709
      ESP Fit Center  179 is at  -1.518292 -1.155618  3.264709
      ESP Fit Center  180 is at  -3.324857 -0.762940  2.424709
      ESP Fit Center  181 is at  -2.622327 -1.600183  2.424709
      ESP Fit Center  182 is at  -1.545989 -1.789970  2.424709
      ESP Fit Center  183 is at  -0.599473 -1.243499  2.424709
      ESP Fit Center  184 is at  -3.324857 -0.762940  1.386411
      ESP Fit Center  185 is at  -2.622327 -1.600183  1.386411
      ESP Fit Center  186 is at  -1.545989 -1.789970  1.386411
      ESP Fit Center  187 is at  -1.043310  1.340211  3.752028
      ESP Fit Center  188 is at  -0.055831  1.340211  3.431177
      ESP Fit Center  189 is at  -0.738162  2.279360  3.431177
      ESP Fit Center  190 is at  -1.842197  1.920637  3.431177
      ESP Fit Center  191 is at  -0.738162  0.401062  3.431177
      ESP Fit Center  192 is at   0.554465  1.340211  2.591177
      ESP Fit Center  193 is at   0.180657  2.367241  2.591177
      ESP Fit Center  194 is at  -0.765859  2.913712  2.591177
      ESP Fit Center  195 is at   0.180657  0.313181  2.591177
      ESP Fit Center  196 is at  -1.249425  0.640284 -2.066797
      ESP Fit Center  197 is at   0.018572  2.635104  0.065237
      ESP Fit Center  198 is at  -0.927944  3.181575  0.065237
      ESP Fit Center  199 is at  -0.927944  3.181575 -0.973061
      ESP Fit Center  200 is at  -0.900247  2.547223 -1.813061
      ESP Fit Center  201 is at  -2.004282  2.188500 -1.813061
      ESP Fit Center  202 is at  -1.205395  1.608074 -2.133912
      ESP Fit Center  203 is at  -3.447910 -0.518182 -0.004845
      ESP Fit Center  204 is at  -2.745380 -1.355425 -0.004845
      ESP Fit Center  205 is at  -1.669042 -1.545212 -0.004845
      ESP Fit Center  206 is at  -3.447910  0.574760 -1.043143
      ESP Fit Center  207 is at  -3.447910 -0.518182 -1.043143
      ESP Fit Center  208 is at  -2.745380 -1.355425 -1.043143
      ESP Fit Center  209 is at  -1.669042 -1.545212 -1.043143
      ESP Fit Center  210 is at  -2.745380  0.608715 -1.883143
      ESP Fit Center  211 is at  -2.745380 -0.552137 -1.883143
      ESP Fit Center  212 is at  -1.641345 -0.910860 -1.883143
      ESP Fit Center  213 is at  -1.946493  0.028289 -2.203994
      ESP Fit Center  214 is at   0.490000 -0.848705  1.697410
      ESP Fit Center  215 is at  -0.524528 -1.614333  0.980000
      ESP Fit Center  216 is at  -0.980000 -1.697410  0.000000
      ESP Fit Center  217 is at   0.000000  0.000000 -1.960000
      ESP Fit Center  218 is at   2.310271  2.569545  0.000000
      ESP Fit Center  219 is at   1.370462  2.925968  0.000000
      ESP Fit Center  220 is at   0.372665  2.804813  0.000000
      ESP Fit Center  221 is at   1.120437  1.470378  2.569757
      ESP Fit Center  222 is at   2.107916  1.470378  2.248906
      ESP Fit Center  223 is at   1.425585  2.409527  2.248906
      ESP Fit Center  224 is at   1.425585  0.531229  2.248906
      ESP Fit Center  225 is at   2.344404  2.497408  1.408906
      ESP Fit Center  226 is at   1.397888  3.043879  1.408906
      ESP Fit Center  227 is at   0.321550  2.854092  1.408906
      ESP Fit Center  228 is at   1.397888  3.043879  0.370608
      ESP Fit Center  229 is at   0.321550  2.854092  0.370608
      ESP Fit Center  230 is at   1.375945  3.066763 -0.349776
      ESP Fit Center  231 is at   0.299607  2.876976 -0.349776
      ESP Fit Center  232 is at   2.322461  2.520292 -1.388074
      ESP Fit Center  233 is at   1.375945  3.066763 -1.388074
      ESP Fit Center  234 is at   0.299607  2.876976 -1.388074
      ESP Fit Center  235 is at   2.085973  1.493262 -2.228074
      ESP Fit Center  236 is at   1.403642  2.432411 -2.228074
      ESP Fit Center  237 is at   0.299607  2.073688 -2.228074
      ESP Fit Center  238 is at   0.299607  0.912836 -2.228074
      ESP Fit Center  239 is at   1.098494  1.493262 -2.548925
      ESP Fit Center  240 is at   2.906100  0.909327  1.818653
      ESP Fit Center  241 is at   2.366155 -0.694507  2.510000
      ESP Fit Center  242 is at   3.353634 -0.694507  2.189149
      ESP Fit Center  243 is at   2.671303  0.244642  2.189149
      ESP Fit Center  244 is at   1.567268 -0.114081  2.189149
      ESP Fit Center  245 is at   1.567268 -1.274933  2.189149
      ESP Fit Center  246 is at   2.671303 -1.633656  2.189149
      ESP Fit Center  247 is at   3.963930 -0.694507  1.349149
      ESP Fit Center  248 is at   3.590122 -1.721537  1.349149
      ESP Fit Center  249 is at   3.233382  0.653909  1.828369
      ESP Fit Center  250 is at   4.220861  0.653909  1.507518
      ESP Fit Center  251 is at   3.538530  1.593058  1.507518
      ESP Fit Center  252 is at   4.831157  0.653909  0.667518
      ESP Fit Center  253 is at   4.457349  1.680939  0.667518
      ESP Fit Center  254 is at   3.510833  2.227410  0.667518
      ESP Fit Center  255 is at   4.457349 -0.373121  0.667518
      ESP Fit Center  256 is at   4.831157  0.653909 -0.370780
      ESP Fit Center  257 is at   4.457349  1.680939 -0.370780
      ESP Fit Center  258 is at   3.510833  2.227410 -0.370780
      ESP Fit Center  259 is at   3.538530  1.593058 -1.210780
      ESP Fit Center  260 is at   4.684655 -0.875038 -0.015212
      ESP Fit Center  261 is at   4.380578 -1.910629 -0.015212
      ESP Fit Center  262 is at   5.157741 -0.875038 -0.997586
      ESP Fit Center  263 is at   4.921198  0.161325 -0.997586
      ESP Fit Center  264 is at   4.921198 -1.911401 -0.997586
      ESP Fit Center  265 is at   5.157741 -0.875038 -2.087938
      ESP Fit Center  266 is at   4.921198  0.161325 -2.087938
      ESP Fit Center  267 is at   4.258419  0.992424 -2.087938
      ESP Fit Center  268 is at   3.300676  1.453649 -2.087938
      ESP Fit Center  269 is at   0.617138  0.161325 -2.087938
      ESP Fit Center  270 is at   4.258419 -2.742500 -2.087938
      ESP Fit Center  271 is at   4.921198 -1.911401 -2.087938
      ESP Fit Center  272 is at   4.684655 -0.875038 -3.070312
      ESP Fit Center  273 is at   4.380578  0.160553 -3.070312
      ESP Fit Center  274 is at   3.564890  0.867350 -3.070312
      ESP Fit Center  275 is at   2.496566  1.020952 -3.070312
      ESP Fit Center  276 is at   1.514791  0.572591 -3.070312
      ESP Fit Center  277 is at   0.931272 -0.335383 -3.070312
      ESP Fit Center  278 is at   3.564890 -2.617426 -3.070312
      ESP Fit Center  279 is at   4.380578 -1.910629 -3.070312
      ESP Fit Center  280 is at   3.832183 -0.875038 -3.750136
      ESP Fit Center  281 is at   3.300676  0.045560 -3.750136
      ESP Fit Center  282 is at   2.237660  0.045560 -3.750136
      ESP Fit Center  283 is at   1.706153 -0.875038 -3.750136
      ESP Fit Center  284 is at   3.300676 -1.795636 -3.750136
      ESP Fit Center  285 is at   2.769168 -0.875038 -3.992762
      ESP Fit Center  286 is at   0.326086 -3.564950 -2.714761
      ESP Fit Center  287 is at   0.992051 -1.281177 -3.483414
      ESP Fit Center  288 is at   0.467051 -2.190504 -3.483414
      ESP Fit Center  289 is at  -0.949321 -1.198388 -1.335067
      ESP Fit Center  290 is at  -0.949321 -2.291330 -1.335067
      ESP Fit Center  291 is at  -0.246791 -0.361145 -2.373365
      ESP Fit Center  292 is at  -0.949321 -1.198388 -2.373365
      ESP Fit Center  293 is at  -0.949321 -2.291330 -2.373365
      ESP Fit Center  294 is at  -0.246791 -3.128573 -2.373365
      ESP Fit Center  295 is at   0.857244 -0.805710 -3.213365
      ESP Fit Center  296 is at  -0.246791 -1.164433 -3.213365
      ESP Fit Center  297 is at  -0.246791 -2.325285 -3.213365
      ESP Fit Center  298 is at   0.552096 -1.744859 -3.534216
      ESP Fit Center  299 is at   3.410331 -2.745266 -3.066370
      ESP Fit Center  300 is at   0.311139 -3.291737 -3.066370
      ESP Fit Center  301 is at   1.013669 -4.128980 -3.066370
      ESP Fit Center  302 is at   2.090007 -4.318767 -3.066370
      ESP Fit Center  303 is at   3.036523 -3.772296 -3.066370
      ESP Fit Center  304 is at   2.800035 -2.745266 -3.906370
      ESP Fit Center  305 is at   2.117704 -1.806117 -3.906370
      ESP Fit Center  306 is at   1.013669 -2.164840 -3.906370
      ESP Fit Center  307 is at   1.013669 -3.325692 -3.906370
      ESP Fit Center  308 is at   2.117704 -3.684415 -3.906370
      ESP Fit Center  309 is at   1.812556 -2.745266 -4.227221
      ESP Fit Center  310 is at  -0.658791 -2.636297 -0.476871
      ESP Fit Center  311 is at  -0.171400 -4.454398  0.619755
      ESP Fit Center  312 is at  -0.873930 -3.327501 -0.220245
      ESP Fit Center  313 is at  -0.873930 -4.420443 -0.220245
      ESP Fit Center  314 is at  -0.873930 -3.327501 -1.258543
      ESP Fit Center  315 is at  -0.873930 -4.420443 -1.258543
      ESP Fit Center  316 is at  -0.171400 -5.257686 -1.258543
      ESP Fit Center  317 is at  -0.171400 -4.454398 -2.098543
      ESP Fit Center  318 is at   0.932635 -4.813121 -2.098543
      ESP Fit Center  319 is at   1.020148 -2.602729  2.070704
      ESP Fit Center  320 is at   2.007627 -2.602729  1.749853
      ESP Fit Center  321 is at   1.325296 -1.663580  1.749853
      ESP Fit Center  322 is at   0.221261 -2.022303  1.749853
      ESP Fit Center  323 is at   0.221261 -3.183155  1.749853
      ESP Fit Center  324 is at  -0.481269 -2.056258  0.909853
      ESP Fit Center  325 is at  -0.481269 -3.149200  0.909853
      ESP Fit Center  326 is at  -0.481269 -2.056258 -0.128445
      ESP Fit Center  327 is at   3.995286 -4.001559  2.135616
      ESP Fit Center  328 is at   3.463779 -3.080961  2.135616
      ESP Fit Center  329 is at   2.400763 -3.080961  2.135616
      ESP Fit Center  330 is at   4.847758 -4.001559  1.455792
      ESP Fit Center  331 is at   4.543681 -2.965968  1.455792
      ESP Fit Center  332 is at   3.727993 -2.259171  1.455792
      ESP Fit Center  333 is at   5.320844 -4.001559  0.473418
      ESP Fit Center  334 is at   5.084301 -2.965196  0.473418
      ESP Fit Center  335 is at   4.421522 -2.134097  0.473418
      ESP Fit Center  336 is at   4.421522 -5.869021  0.473418
      ESP Fit Center  337 is at   5.084301 -5.037922  0.473418
      ESP Fit Center  338 is at   5.320844 -4.001559 -0.616934
      ESP Fit Center  339 is at   5.084301 -2.965196 -0.616934
      ESP Fit Center  340 is at   5.084301 -5.037922 -0.616934
      ESP Fit Center  341 is at   4.847758 -4.001559 -1.599308
      ESP Fit Center  342 is at   4.543681 -2.965968 -1.599308
      ESP Fit Center  343 is at   4.543681 -5.037150 -1.599308
      ESP Fit Center  344 is at   3.995286 -4.001559 -2.279132
      ESP Fit Center  345 is at   2.400763 -4.922157 -2.279132
      ESP Fit Center  346 is at   3.463779 -4.922157 -2.279132
      ESP Fit Center  347 is at   2.932271 -4.001559 -2.521758
      ESP Fit Center  348 is at   2.293460 -5.257627  3.175933
      ESP Fit Center  349 is at   2.818460 -4.348300  2.894586
      ESP Fit Center  350 is at   1.768460 -6.166954  2.894586
      ESP Fit Center  351 is at   1.560246 -4.787642  3.403807
      ESP Fit Center  352 is at   1.865394 -3.848493  3.082956
      ESP Fit Center  353 is at   0.761359 -4.207216  3.082956
      ESP Fit Center  354 is at   0.761359 -5.368068  3.082956
      ESP Fit Center  355 is at   1.865394 -5.726791  3.082956
      ESP Fit Center  356 is at   1.837697 -3.214141  2.242956
      ESP Fit Center  357 is at   0.761359 -3.403928  2.242956
      ESP Fit Center  358 is at   0.058829 -4.241171  2.242956
      ESP Fit Center  359 is at   0.058829 -5.334113  2.242956
      ESP Fit Center  360 is at   0.058829 -4.241171  1.204658
      ESP Fit Center  361 is at   0.058829 -5.334113  1.204658
      ESP Fit Center  362 is at   3.129179 -5.538184  3.383979
      ESP Fit Center  363 is at   4.116658 -5.538184  3.063128
      ESP Fit Center  364 is at   3.434327 -4.599035  3.063128
      ESP Fit Center  365 is at   2.330292 -6.118610  3.063128
      ESP Fit Center  366 is at   3.434327 -6.477333  3.063128
      ESP Fit Center  367 is at   4.726954 -5.538184  2.223128
      ESP Fit Center  368 is at   4.353146 -4.511154  2.223128
      ESP Fit Center  369 is at   4.726954 -5.538184  1.184830
      ESP Fit Center  370 is at   1.111456 -7.050869  2.850765
      ESP Fit Center  371 is at   2.098935 -7.050869  2.529914
      ESP Fit Center  372 is at   0.312569 -6.470443  2.529914
      ESP Fit Center  373 is at   0.312569 -7.631295  2.529914
      ESP Fit Center  374 is at  -0.389961 -6.504398  1.689914
      ESP Fit Center  375 is at  -0.389961 -7.597340  1.689914
      ESP Fit Center  376 is at  -0.389961 -7.597340  0.651616
      ESP Fit Center  377 is at   0.312569 -8.434583  0.651616
      ESP Fit Center  378 is at  -0.529469 -5.666875  0.174089
      ESP Fit Center  379 is at  -0.529469 -6.759817  0.174089
      ESP Fit Center  380 is at  -0.529469 -5.666875 -0.864209
      ESP Fit Center  381 is at  -0.529469 -6.759817 -0.864209
      ESP Fit Center  382 is at   0.173061 -7.597060 -0.864209
      ESP Fit Center  383 is at   1.277096 -5.274197 -1.704209
      ESP Fit Center  384 is at   0.173061 -5.632920 -1.704209
      ESP Fit Center  385 is at   0.173061 -6.793772 -1.704209
      ESP Fit Center  386 is at   0.971948 -6.213346 -2.025060
      ESP Fit Center  387 is at   5.241354 -7.626255  0.168696
      ESP Fit Center  388 is at   5.004811 -6.589892  0.168696
      ESP Fit Center  389 is at   0.700751 -8.662618  0.168696
      ESP Fit Center  390 is at   5.241354 -7.626255 -0.921656
      ESP Fit Center  391 is at   5.004811 -6.589892 -0.921656
      ESP Fit Center  392 is at   0.700751 -8.662618 -0.921656
      ESP Fit Center  393 is at   1.363530 -9.493717 -0.921656
      ESP Fit Center  394 is at   2.321273 -9.954942 -0.921656
      ESP Fit Center  395 is at   3.384289 -9.954942 -0.921656
      ESP Fit Center  396 is at   5.004811 -8.662618 -0.921656
      ESP Fit Center  397 is at   4.768268 -7.626255 -1.904030
      ESP Fit Center  398 is at   4.464191 -6.590664 -1.904030
      ESP Fit Center  399 is at   3.648503 -5.883867 -1.904030
      ESP Fit Center  400 is at   2.580179 -5.730265 -1.904030
      ESP Fit Center  401 is at   1.598404 -6.178626 -1.904030
      ESP Fit Center  402 is at   1.014885 -7.086600 -1.904030
      ESP Fit Center  403 is at   1.014885 -8.165910 -1.904030
      ESP Fit Center  404 is at   1.598404 -9.073884 -1.904030
      ESP Fit Center  405 is at   2.580179 -9.522245 -1.904030
      ESP Fit Center  406 is at   3.648503 -9.368643 -1.904030
      ESP Fit Center  407 is at   4.464191 -8.661846 -1.904030
      ESP Fit Center  408 is at   3.915796 -7.626255 -2.583854
      ESP Fit Center  409 is at   3.384289 -6.705657 -2.583854
      ESP Fit Center  410 is at   2.321273 -6.705657 -2.583854
      ESP Fit Center  411 is at   1.789766 -7.626255 -2.583854
      ESP Fit Center  412 is at   2.321273 -8.546853 -2.583854
      ESP Fit Center  413 is at   3.384289 -8.546853 -2.583854
      ESP Fit Center  414 is at   2.852781 -7.626255 -2.826480
      ESP Fit Center  415 is at   5.326989 -8.563864  2.089370
      ESP Fit Center  416 is at   5.367794 -7.587945  1.039370
      ESP Fit Center  417 is at   5.402581 -9.024247  2.024723
      ESP Fit Center  418 is at   6.012877 -9.024247  1.184723
      ESP Fit Center  419 is at   5.639069 -7.997217  1.184723
      ESP Fit Center  420 is at   4.692553-10.597748  1.184723
      ESP Fit Center  421 is at   5.639069-10.051277  1.184723
      ESP Fit Center  422 is at   6.012877 -9.024247  0.146425
      ESP Fit Center  423 is at   5.639069 -7.997217  0.146425
      ESP Fit Center  424 is at   4.692553-10.597748  0.146425
      ESP Fit Center  425 is at   5.639069-10.051277  0.146425
      ESP Fit Center  426 is at   5.402581 -9.024247 -0.693575
      ESP Fit Center  427 is at   4.720250 -9.963396 -0.693575
      ESP Fit Center  428 is at   3.810547 -7.873682  3.498540
      ESP Fit Center  429 is at   4.798026 -7.873682  3.177689
      ESP Fit Center  430 is at   4.115695 -6.934533  3.177689
      ESP Fit Center  431 is at   3.011660 -7.293256  3.177689
      ESP Fit Center  432 is at   4.115695 -8.812831  3.177689
      ESP Fit Center  433 is at   5.408322 -7.873682  2.337689
      ESP Fit Center  434 is at   5.034514 -6.846652  2.337689
      ESP Fit Center  435 is at   2.309130 -7.327211  2.337689
      ESP Fit Center  436 is at   5.034514 -6.846652  1.299391
      ESP Fit Center  437 is at   3.096157 -8.724003  3.412009
      ESP Fit Center  438 is at   1.380192-11.007776  2.643356
      ESP Fit Center  439 is at   1.652109 -9.205054  3.658391
      ESP Fit Center  440 is at   1.957257 -8.265905  3.337540
      ESP Fit Center  441 is at   0.853222 -8.624628  3.337540
      ESP Fit Center  442 is at   0.853222 -9.785480  3.337540
      ESP Fit Center  443 is at   0.150692 -8.658583  2.497540
      ESP Fit Center  444 is at   0.150692 -9.751525  2.497540
      ESP Fit Center  445 is at   0.853222-10.588768  2.497540
      ESP Fit Center  446 is at   0.150692 -8.658583  1.459242
      ESP Fit Center  447 is at   0.150692 -9.751525  1.459242
      ESP Fit Center  448 is at   0.807185-10.897847  1.344482
      ESP Fit Center  449 is at   1.509715-11.735090  1.344482
      ESP Fit Center  450 is at   2.586053-11.924877  1.344482
      ESP Fit Center  451 is at   0.807185 -9.804905  0.306184
      ESP Fit Center  452 is at   0.807185-10.897847  0.306184
      ESP Fit Center  453 is at   1.509715-11.735090  0.306184
      ESP Fit Center  454 is at   2.586053-11.924877  0.306184
      ESP Fit Center  455 is at   3.532569-11.378406  0.306184
      ESP Fit Center  456 is at   3.296081-10.351376 -0.533816
      ESP Fit Center  457 is at   1.509715 -9.770950 -0.533816
      ESP Fit Center  458 is at   1.509715-10.931802 -0.533816
      ESP Fit Center  459 is at   2.613750-11.290525 -0.533816
      ESP Fit Center  460 is at   2.308602-10.351376 -0.854667
      ESP Fit Center  461 is at   3.053286-10.165316  4.088989
      ESP Fit Center  462 is at   4.040765-10.165316  3.768138
      ESP Fit Center  463 is at   3.358434 -9.226167  3.768138
      ESP Fit Center  464 is at   2.254399 -9.584890  3.768138
      ESP Fit Center  465 is at   2.254399-10.745742  3.768138
      ESP Fit Center  466 is at   3.358434-11.104465  3.768138
      ESP Fit Center  467 is at   4.651061-10.165316  2.928138
      ESP Fit Center  468 is at   4.277253 -9.138286  2.928138
      ESP Fit Center  469 is at   2.254399-11.549030  2.928138
      ESP Fit Center  470 is at   3.330737-11.738817  2.928138
      ESP Fit Center  471 is at   4.277253-11.192346  2.928138
      ESP Fit Center  472 is at   4.651061-10.165316  1.889840
      ESP Fit Center  473 is at   3.330737-11.738817  1.889840
      ESP Fit Center  474 is at   4.277253-11.192346  1.889840
      ESP Fit Center  475 is at  -4.089255  6.207240 -0.700813
      ESP Fit Center  476 is at  -6.976849  3.485198 -1.663139
      ESP Fit Center  477 is at  -5.389398  6.781574 -2.731239
      ESP Fit Center  478 is at  -6.327596  6.329761 -2.731239
      ESP Fit Center  479 is at  -5.135777  6.357708 -3.693565
      ESP Fit Center  480 is at  -3.827417  4.500411 -4.359514
      ESP Fit Center  481 is at  -5.937277  5.781440  0.258468
      ESP Fit Center  482 is at  -6.417277  4.950056  0.258468
      ESP Fit Center  483 is at  -4.943453  6.531443 -0.444301
      ESP Fit Center  484 is at  -5.971101  6.531443 -0.444301
      ESP Fit Center  485 is at  -6.802485  5.927407 -0.444301
      ESP Fit Center  486 is at  -7.120046  4.950056 -0.444301
      ESP Fit Center  487 is at  -6.802485  3.972705 -0.444301
      ESP Fit Center  488 is at  -5.457277  6.870056 -1.404301
      ESP Fit Center  489 is at  -6.417277  6.612825 -1.404301
      ESP Fit Center  490 is at  -7.120046  5.910056 -1.404301
      ESP Fit Center  491 is at  -7.377277  4.950056 -1.404301
      ESP Fit Center  492 is at  -7.120046  3.990056 -1.404301
      ESP Fit Center  493 is at  -6.802485  5.927407 -2.364301
      ESP Fit Center  494 is at  -3.517985  5.955139 -0.707464
      ESP Fit Center  495 is at  -2.335216  5.123755 -1.410233
      ESP Fit Center  496 is at  -2.652777  6.101106 -1.410233
      ESP Fit Center  497 is at  -3.484161  6.705142 -1.410233
      ESP Fit Center  498 is at  -2.077985  5.123755 -2.370233
      ESP Fit Center  499 is at  -2.335216  6.083755 -2.370233
      ESP Fit Center  500 is at  -3.037985  6.786524 -2.370233
      ESP Fit Center  501 is at  -3.997985  7.043755 -2.370233
      ESP Fit Center  502 is at  -2.335216  4.163755 -2.370233
      ESP Fit Center  503 is at  -2.335216  5.123755 -3.330233
      ESP Fit Center  504 is at  -2.652777  6.101106 -3.330233
      ESP Fit Center  505 is at  -3.484161  6.705142 -3.330233
      ESP Fit Center  506 is at  -4.511809  6.705142 -3.330233
      ESP Fit Center  507 is at  -2.652777  4.146404 -3.330233
      ESP Fit Center  508 is at  -3.037985  5.123755 -4.033002
      ESP Fit Center  509 is at  -3.517985  5.955139 -4.033002
      ESP Fit Center  510 is at  -6.434658  6.163532 -3.098285
      ESP Fit Center  511 is at  -7.137427  5.460763 -3.098285
      ESP Fit Center  512 is at  -7.394658  4.500763 -3.098285
      ESP Fit Center  513 is at  -7.137427  3.540763 -3.098285
      ESP Fit Center  514 is at  -4.960834  6.082150 -4.058285
      ESP Fit Center  515 is at  -5.988482  6.082150 -4.058285
      ESP Fit Center  516 is at  -6.819866  5.478114 -4.058285
      ESP Fit Center  517 is at  -7.137427  4.500763 -4.058285
      ESP Fit Center  518 is at  -6.819866  3.523412 -4.058285
      ESP Fit Center  519 is at  -5.988482  2.919376 -4.058285
      ESP Fit Center  520 is at  -4.514658  4.500763 -4.761054
      ESP Fit Center  521 is at  -4.994658  5.332147 -4.761054
      ESP Fit Center  522 is at  -5.954658  5.332147 -4.761054
      ESP Fit Center  523 is at  -6.434658  4.500763 -4.761054
      ESP Fit Center  524 is at  -5.954658  3.669379 -4.761054
      ESP Fit Center  525 is at  -4.994658  3.669379 -4.761054
      ESP Fit Center  526 is at  -5.474658  4.500763 -5.018285
      ESP Fit Center  527 is at  -3.921275  0.797736 -1.321642
      ESP Fit Center  528 is at  -2.333824  4.094112 -2.389742
      ESP Fit Center  529 is at  -6.242323  2.550257 -3.352068
      ESP Fit Center  530 is at  -6.658856  3.435192 -0.697935
      ESP Fit Center  531 is at  -6.976417  2.457841 -0.697935
      ESP Fit Center  532 is at  -6.658856  1.480490 -0.697935
      ESP Fit Center  533 is at  -5.827472  0.876454 -0.697935
      ESP Fit Center  534 is at  -4.799824  0.876454 -0.697935
      ESP Fit Center  535 is at  -6.976417  3.417841 -1.657935
      ESP Fit Center  536 is at  -7.233648  2.457841 -1.657935
      ESP Fit Center  537 is at  -6.976417  1.497841 -1.657935
      ESP Fit Center  538 is at  -6.273648  0.795072 -1.657935
      ESP Fit Center  539 is at  -5.313648  0.537841 -1.657935
      ESP Fit Center  540 is at  -6.976417  2.457841 -2.617935
      ESP Fit Center  541 is at  -6.658856  1.480490 -2.617935
      ESP Fit Center  542 is at  -5.827472  0.876454 -2.617935
      ESP Fit Center  543 is at  -6.273648  2.457841 -3.320704
      ESP Fit Center  544 is at  -5.793648  1.626457 -3.320704
      ESP Fit Center  545 is at  -1.994596  2.643572 -2.694904
      ESP Fit Center  546 is at  -2.251827  3.603572 -2.694904
      ESP Fit Center  547 is at  -3.914596  0.723572 -2.694904
      ESP Fit Center  548 is at  -2.954596  0.980803 -2.694904
      ESP Fit Center  549 is at  -2.251827  1.683572 -2.694904
      ESP Fit Center  550 is at  -2.251827  2.643572 -3.654904
      ESP Fit Center  551 is at  -2.569388  3.620923 -3.654904
      ESP Fit Center  552 is at  -5.259804  1.666221 -3.654904
      ESP Fit Center  553 is at  -4.428420  1.062185 -3.654904
      ESP Fit Center  554 is at  -3.400772  1.062185 -3.654904
      ESP Fit Center  555 is at  -2.569388  1.666221 -3.654904
      ESP Fit Center  556 is at  -2.954596  2.643572 -4.357673
      ESP Fit Center  557 is at  -3.434596  3.474956 -4.357673
      ESP Fit Center  558 is at  -4.394596  3.474956 -4.357673
      ESP Fit Center  559 is at  -4.874596  2.643572 -4.357673
      ESP Fit Center  560 is at  -4.394596  1.812188 -4.357673
      ESP Fit Center  561 is at  -3.434596  1.812188 -4.357673
      ESP Fit Center  562 is at  -3.914596  2.643572 -4.614904
      ESP Fit Center  563 is at  -2.313156  4.807199 -0.276073
      ESP Fit Center  564 is at  -1.620025  4.024815 -1.272967
      ESP Fit Center  565 is at  -2.313156  4.807199 -1.272967
      ESP Fit Center  566 is at  -1.802415  3.009935 -2.171137
      ESP Fit Center  567 is at  -2.136884  4.039325 -2.171137
      ESP Fit Center  568 is at  -2.136884  1.980545 -2.171137
      ESP Fit Center  569 is at  -5.899603  3.742728  1.990106
      ESP Fit Center  570 is at  -6.207326  4.229299  1.027780
      ESP Fit Center  571 is at  -2.640357  5.043436 -0.040320
      ESP Fit Center  572 is at  -5.988011  2.659731  2.269481
      ESP Fit Center  573 is at  -5.508011  1.828347  2.269481
      ESP Fit Center  574 is at  -6.373219  3.637082  1.566712
      ESP Fit Center  575 is at  -6.690780  2.659731  1.566712
      ESP Fit Center  576 is at  -6.373219  1.682380  1.566712
      ESP Fit Center  577 is at  -5.541835  1.078344  1.566712
      ESP Fit Center  578 is at  -6.690780  3.619731  0.606712
      ESP Fit Center  579 is at  -6.948011  2.659731  0.606712
      ESP Fit Center  580 is at  -6.690780  1.699731  0.606712
      ESP Fit Center  581 is at  -5.988011  0.996962  0.606712
      ESP Fit Center  582 is at  -5.028011  0.739731  0.606712
      ESP Fit Center  583 is at  -3.831433  5.099474  2.326070
      ESP Fit Center  584 is at  -4.791433  5.099474  2.326070
      ESP Fit Center  585 is at  -5.271433  4.268090  2.326070
      ESP Fit Center  586 is at  -2.966225  5.245441  1.623301
      ESP Fit Center  587 is at  -3.797609  5.849477  1.623301
      ESP Fit Center  588 is at  -4.825257  5.849477  1.623301
      ESP Fit Center  589 is at  -5.656641  5.245441  1.623301
      ESP Fit Center  590 is at  -5.974202  4.268090  1.623301
      ESP Fit Center  591 is at  -2.648664  5.228090  0.663301
      ESP Fit Center  592 is at  -3.351433  5.930859  0.663301
      ESP Fit Center  593 is at  -4.311433  6.188090  0.663301
      ESP Fit Center  594 is at  -5.271433  5.930859  0.663301
      ESP Fit Center  595 is at  -5.974202  5.228090  0.663301
      ESP Fit Center  596 is at  -2.966225  5.245441 -0.296699
      ESP Fit Center  597 is at  -3.797609  5.849477 -0.296699
      ESP Fit Center  598 is at  -2.584747  5.018831  2.063580
      ESP Fit Center  599 is at  -1.181258  3.193962  2.990826
      ESP Fit Center  600 is at  -1.661258  4.025346  2.990826
      ESP Fit Center  601 is at  -0.478489  3.193962  2.288057
      ESP Fit Center  602 is at  -0.796050  4.171313  2.288057
      ESP Fit Center  603 is at  -1.627434  4.775349  2.288057
      ESP Fit Center  604 is at  -0.221258  3.193962  1.328057
      ESP Fit Center  605 is at  -0.478489  4.153962  1.328057
      ESP Fit Center  606 is at  -1.181258  4.856731  1.328057
      ESP Fit Center  607 is at  -2.141258  5.113962  1.328057
      ESP Fit Center  608 is at  -0.478489  3.193962  0.368057
      ESP Fit Center  609 is at  -0.796050  4.171313  0.368057
      ESP Fit Center  610 is at  -1.627434  4.775349  0.368057
      ESP Fit Center  611 is at  -3.430200  3.063263  4.434869
      ESP Fit Center  612 is at  -2.470200  3.063263  4.177638
      ESP Fit Center  613 is at  -2.950200  3.894647  4.177638
      ESP Fit Center  614 is at  -3.910200  3.894647  4.177638
      ESP Fit Center  615 is at  -4.390200  3.063263  4.177638
      ESP Fit Center  616 is at  -3.910200  2.231879  4.177638
      ESP Fit Center  617 is at  -2.950200  2.231879  4.177638
      ESP Fit Center  618 is at  -2.084992  4.040614  3.474869
      ESP Fit Center  619 is at  -2.916376  4.644650  3.474869
      ESP Fit Center  620 is at  -3.944024  4.644650  3.474869
      ESP Fit Center  621 is at  -4.775408  4.040614  3.474869
      ESP Fit Center  622 is at  -5.092969  3.063263  3.474869
      ESP Fit Center  623 is at  -4.775408  2.085912  3.474869
      ESP Fit Center  624 is at  -3.430200  4.983263  2.514869
      ESP Fit Center  625 is at  -3.021765  1.341047  3.753769
      ESP Fit Center  626 is at  -3.993665  1.341047  3.531939
      ESP Fit Center  627 is at  -3.507715  0.499357  3.531939
      ESP Fit Center  628 is at  -4.773068  1.341047  2.910386
      ESP Fit Center  629 is at  -4.438599  0.311657  2.910386
      ESP Fit Center  630 is at  -3.562947 -0.324541  2.910386
      ESP Fit Center  631 is at  -5.142145  0.818420  2.012216
      ESP Fit Center  632 is at  -4.656392 -0.107106  2.012216
      ESP Fit Center  633 is at  -3.796165 -0.700877  2.012216
      ESP Fit Center  634 is at  -4.656392 -0.107106  1.015322
      ESP Fit Center  635 is at  -3.796165 -0.700877  1.015322
      ESP Fit Center  636 is at  -4.438599  0.311657  0.117152
      ESP Fit Center  637 is at  -1.746070  0.770662  3.868300
      ESP Fit Center  638 is at  -2.266730  1.672472  3.630625
      ESP Fit Center  639 is at  -0.167546 -0.243794  2.964676
      ESP Fit Center  640 is at  -1.823440 -0.216469  3.825560
      ESP Fit Center  641 is at  -0.863440 -0.216469  3.568329
      ESP Fit Center  642 is at  -2.783440 -0.216469  3.568329
      ESP Fit Center  643 is at  -2.303440 -1.047853  3.568329
      ESP Fit Center  644 is at  -1.343440 -1.047853  3.568329
      ESP Fit Center  645 is at  -3.168648 -1.193820  2.865560
      ESP Fit Center  646 is at  -2.337264 -1.797856  2.865560
      ESP Fit Center  647 is at  -1.309616 -1.797856  2.865560
      ESP Fit Center  648 is at  -0.478232 -1.193820  2.865560
      ESP Fit Center  649 is at  -3.486209 -1.176469  1.905560
      ESP Fit Center  650 is at  -2.783440 -1.879238  1.905560
      ESP Fit Center  651 is at  -1.823440 -2.136469  1.905560
      ESP Fit Center  652 is at  -0.863440 -1.879238  1.905560
      ESP Fit Center  653 is at  -0.160671 -1.176469  1.905560
      ESP Fit Center  654 is at  -3.168648 -1.193820  0.945560
      ESP Fit Center  655 is at  -2.337264 -1.797856  0.945560
      ESP Fit Center  656 is at  -1.309616 -1.797856  0.945560
      ESP Fit Center  657 is at  -1.043310  1.340211  3.992028
      ESP Fit Center  658 is at  -0.083310  1.340211  3.734797
      ESP Fit Center  659 is at  -0.563310  2.171595  3.734797
      ESP Fit Center  660 is at  -1.523310  2.171595  3.734797
      ESP Fit Center  661 is at  -0.563310  0.508827  3.734797
      ESP Fit Center  662 is at   0.619459  1.340211  3.032028
      ESP Fit Center  663 is at   0.301898  2.317562  3.032028
      ESP Fit Center  664 is at  -0.529486  2.921598  3.032028
      ESP Fit Center  665 is at   0.301898  0.362860  3.032028
      ESP Fit Center  666 is at  -0.083310  3.002980  2.072028
      ESP Fit Center  667 is at  -1.770085 -1.640879  0.567253
      ESP Fit Center  668 is at  -0.728765 -0.261526 -2.129122
      ESP Fit Center  669 is at  -1.249425  0.640284 -2.366797
      ESP Fit Center  670 is at  -0.245395  3.270843 -0.453912
      ESP Fit Center  671 is at  -1.205395  3.528074 -0.453912
      ESP Fit Center  672 is at  -0.691571  3.189461 -1.413912
      ESP Fit Center  673 is at  -0.725395  2.439458 -2.116681
      ESP Fit Center  674 is at  -1.685395  2.439458 -2.116681
      ESP Fit Center  675 is at  -2.165395  1.608074 -2.116681
      ESP Fit Center  676 is at  -1.205395  1.608074 -2.373912
      ESP Fit Center  677 is at  -3.291701 -0.949062  0.436006
      ESP Fit Center  678 is at  -2.460317 -1.553098  0.436006
      ESP Fit Center  679 is at  -3.866493  0.028289 -0.523994
      ESP Fit Center  680 is at  -3.609262 -0.931711 -0.523994
      ESP Fit Center  681 is at  -2.906493 -1.634480 -0.523994
      ESP Fit Center  682 is at  -1.946493 -1.891711 -0.523994
      ESP Fit Center  683 is at  -3.609262  0.028289 -1.483994
      ESP Fit Center  684 is at  -3.291701 -0.949062 -1.483994
      ESP Fit Center  685 is at  -2.460317 -1.553098 -1.483994
      ESP Fit Center  686 is at  -1.432669 -1.553098 -1.483994
      ESP Fit Center  687 is at  -2.426493  0.859673 -2.186763
      ESP Fit Center  688 is at  -2.906493  0.028289 -2.186763
      ESP Fit Center  689 is at  -2.426493 -0.803095 -2.186763
      ESP Fit Center  690 is at  -1.466493 -0.803095 -2.186763
      ESP Fit Center  691 is at  -1.946493  0.028289 -2.443994
      ESP Fit Center  692 is at   0.485950 -0.841690  2.018170
      ESP Fit Center  693 is at  -0.541182 -1.665588  1.396617
      ESP Fit Center  694 is at   0.596675 -0.060531  2.162325
      ESP Fit Center  695 is at   1.120437  1.470378  2.809757
      ESP Fit Center  696 is at   2.080437  1.470378  2.552526
      ESP Fit Center  697 is at   1.600437  2.301762  2.552526
      ESP Fit Center  698 is at   0.640437  2.301762  2.552526
      ESP Fit Center  699 is at   1.600437  0.638994  2.552526
      ESP Fit Center  700 is at   2.465645  2.447729  1.849757
      ESP Fit Center  701 is at   1.634261  3.051765  1.849757
      ESP Fit Center  702 is at   0.606613  3.051765  1.849757
      ESP Fit Center  703 is at   2.783206  2.430378  0.889757
      ESP Fit Center  704 is at   2.080437  3.133147  0.889757
      ESP Fit Center  705 is at   1.120437  3.390378  0.889757
      ESP Fit Center  706 is at   0.160437  3.133147  0.889757
      ESP Fit Center  707 is at   2.761263  2.453262 -0.868925
      ESP Fit Center  708 is at   2.058494  3.156031 -0.868925
      ESP Fit Center  709 is at   1.098494  3.413262 -0.868925
      ESP Fit Center  710 is at   0.138494  3.156031 -0.868925
      ESP Fit Center  711 is at   2.443702  2.470613 -1.828925
      ESP Fit Center  712 is at   1.612318  3.074649 -1.828925
      ESP Fit Center  713 is at   0.584670  3.074649 -1.828925
      ESP Fit Center  714 is at   1.578494  2.324646 -2.531694
      ESP Fit Center  715 is at   0.618494  2.324646 -2.531694
      ESP Fit Center  716 is at   0.138494  1.493262 -2.531694
      ESP Fit Center  717 is at   0.618494  0.661878 -2.531694
      ESP Fit Center  718 is at   1.098494  1.493262 -2.788925
      ESP Fit Center  719 is at   2.901760  0.901810  2.162325
      ESP Fit Center  720 is at   2.366155 -0.694507  2.750000
      ESP Fit Center  721 is at   3.326155 -0.694507  2.492769
      ESP Fit Center  722 is at   2.846155  0.136877  2.492769
      ESP Fit Center  723 is at   1.886155  0.136877  2.492769
      ESP Fit Center  724 is at   1.406155 -0.694507  2.492769
      ESP Fit Center  725 is at   1.886155 -1.525891  2.492769
      ESP Fit Center  726 is at   2.846155 -1.525891  2.492769
      ESP Fit Center  727 is at   4.028924 -0.694507  1.790000
      ESP Fit Center  728 is at   3.711363 -1.671858  1.790000
      ESP Fit Center  729 is at   4.193382  0.653909  1.811138
      ESP Fit Center  730 is at   3.713382  1.485293  1.811138
      ESP Fit Center  731 is at   4.896151  0.653909  1.108369
      ESP Fit Center  732 is at   4.578590  1.631260  1.108369
      ESP Fit Center  733 is at   3.747206  2.235296  1.108369
      ESP Fit Center  734 is at   4.578590 -0.323442  1.108369
      ESP Fit Center  735 is at   5.153382  0.653909  0.148369
      ESP Fit Center  736 is at   4.896151  1.613909  0.148369
      ESP Fit Center  737 is at   4.193382  2.316678  0.148369
      ESP Fit Center  738 is at   3.233382  2.573909  0.148369
      ESP Fit Center  739 is at   4.578590  1.631260 -0.811631
      ESP Fit Center  740 is at   3.747206  2.235296 -0.811631
      ESP Fit Center  741 is at   4.749067 -0.875038  0.437137
      ESP Fit Center  742 is at   5.356031 -0.875038 -0.471248
      ESP Fit Center  743 is at   5.132385  0.177134 -0.471248
      ESP Fit Center  744 is at   5.132385 -1.927210 -0.471248
      ESP Fit Center  745 is at   5.569168 -0.875038 -1.542762
      ESP Fit Center  746 is at   5.380090  0.136439 -1.542762
      ESP Fit Center  747 is at   4.838393  1.011310 -1.542762
      ESP Fit Center  748 is at   4.017235  1.631419 -1.542762
      ESP Fit Center  749 is at   3.027519  1.913018 -1.542762
      ESP Fit Center  750 is at   5.380090 -1.886515 -1.542762
      ESP Fit Center  751 is at   5.356031 -0.875038 -2.614276
      ESP Fit Center  752 is at   5.132385  0.177134 -2.614276
      ESP Fit Center  753 is at   4.500117  1.047376 -2.614276
      ESP Fit Center  754 is at   3.568553  1.585215 -2.614276
      ESP Fit Center  755 is at   2.498767  1.697654 -2.614276
      ESP Fit Center  756 is at   0.676352  0.645482 -2.614276
      ESP Fit Center  757 is at   4.500117 -2.797452 -2.614276
      ESP Fit Center  758 is at   5.132385 -1.927210 -2.614276
      ESP Fit Center  759 is at   4.749067 -0.875038 -3.522661
      ESP Fit Center  760 is at   4.483811  0.114911 -3.522661
      ESP Fit Center  761 is at   3.759117  0.839605 -3.522661
      ESP Fit Center  762 is at   2.769168  1.104861 -3.522661
      ESP Fit Center  763 is at   1.779219  0.839605 -3.522661
      ESP Fit Center  764 is at   1.054525  0.114911 -3.522661
      ESP Fit Center  765 is at   3.759117 -2.589681 -3.522661
      ESP Fit Center  766 is at   4.483811 -1.864987 -3.522661
      ESP Fit Center  767 is at   3.840682 -0.875038 -4.129625
      ESP Fit Center  768 is at   3.304925  0.052920 -4.129625
      ESP Fit Center  769 is at   2.233411  0.052920 -4.129625
      ESP Fit Center  770 is at   1.697654 -0.875038 -4.129625
      ESP Fit Center  771 is at   3.304925 -1.802996 -4.129625
      ESP Fit Center  772 is at   2.769168 -0.875038 -4.342762
      ESP Fit Center  773 is at   0.996391 -1.288694 -3.827086
      ESP Fit Center  774 is at   0.475730 -2.190504 -3.827086
      ESP Fit Center  775 is at  -1.110673 -1.744859 -0.894216
      ESP Fit Center  776 is at  -1.367904 -1.744859 -1.854216
      ESP Fit Center  777 is at  -1.110673 -2.704859 -1.854216
      ESP Fit Center  778 is at   0.038272 -0.163472 -2.814216
      ESP Fit Center  779 is at  -0.793112 -0.767508 -2.814216
      ESP Fit Center  780 is at  -1.110673 -1.744859 -2.814216
      ESP Fit Center  781 is at  -0.793112 -2.722210 -2.814216
      ESP Fit Center  782 is at   0.072096 -0.913475 -3.516985
      ESP Fit Center  783 is at  -0.407904 -1.744859 -3.516985
      ESP Fit Center  784 is at   3.475325 -2.745266 -3.507221
      ESP Fit Center  785 is at   0.467348 -3.722617 -3.507221
      ESP Fit Center  786 is at   1.298732 -4.326653 -3.507221
      ESP Fit Center  787 is at   2.326380 -4.326653 -3.507221
      ESP Fit Center  788 is at   3.157764 -3.722617 -3.507221
      ESP Fit Center  789 is at   2.772556 -2.745266 -4.209990
      ESP Fit Center  790 is at   2.292556 -1.913882 -4.209990
      ESP Fit Center  791 is at   1.332556 -1.913882 -4.209990
      ESP Fit Center  792 is at   0.852556 -2.745266 -4.209990
      ESP Fit Center  793 is at   1.332556 -3.576650 -4.209990
      ESP Fit Center  794 is at   2.292556 -3.576650 -4.209990
      ESP Fit Center  795 is at   1.812556 -2.745266 -4.467221
      ESP Fit Center  796 is at  -0.959640 -3.138860  0.057179
      ESP Fit Center  797 is at  -1.035282 -3.873972  0.220606
      ESP Fit Center  798 is at  -0.717721 -4.851323  0.220606
      ESP Fit Center  799 is at  -1.035282 -2.913972 -0.739394
      ESP Fit Center  800 is at  -1.292513 -3.873972 -0.739394
      ESP Fit Center  801 is at  -1.035282 -4.833972 -0.739394
      ESP Fit Center  802 is at  -1.035282 -3.873972 -1.699394
      ESP Fit Center  803 is at  -0.717721 -4.851323 -1.699394
      ESP Fit Center  804 is at  -0.332513 -3.873972 -2.402163
      ESP Fit Center  805 is at   0.147487 -4.705356 -2.402163
      ESP Fit Center  806 is at   1.107487 -4.705356 -2.402163
      ESP Fit Center  807 is at   1.020148 -2.602729  2.310704
      ESP Fit Center  808 is at   0.540148 -1.771345  2.053473
      ESP Fit Center  809 is at   0.060148 -2.602729  2.053473
      ESP Fit Center  810 is at  -0.642621 -2.602729  1.350704
      ESP Fit Center  811 is at  -0.325060 -3.580080  1.350704
      ESP Fit Center  812 is at  -0.899852 -2.602729  0.390704
      ESP Fit Center  813 is at   4.003785 -4.001559  2.515105
      ESP Fit Center  814 is at   3.468028 -3.073601  2.515105
      ESP Fit Center  815 is at   2.396514 -3.073601  2.515105
      ESP Fit Center  816 is at   4.912170 -4.001559  1.908141
      ESP Fit Center  817 is at   4.646914 -3.011610  1.908141
      ESP Fit Center  818 is at   3.922220 -2.286916  1.908141
      ESP Fit Center  819 is at   5.519134 -4.001559  0.999756
      ESP Fit Center  820 is at   5.295488 -2.949387  0.999756
      ESP Fit Center  821 is at   4.663220 -2.079145  0.999756
      ESP Fit Center  822 is at   5.295488 -5.053731  0.999756
      ESP Fit Center  823 is at   5.732271 -4.001559 -0.071758
      ESP Fit Center  824 is at   5.543193 -2.990082 -0.071758
      ESP Fit Center  825 is at   5.001496 -2.115211 -0.071758
      ESP Fit Center  826 is at   5.543193 -5.013036 -0.071758
      ESP Fit Center  827 is at   5.519134 -4.001559 -1.143272
      ESP Fit Center  828 is at   5.295488 -2.949387 -1.143272
      ESP Fit Center  829 is at   5.295488 -5.053731 -1.143272
      ESP Fit Center  830 is at   4.912170 -4.001559 -2.051657
      ESP Fit Center  831 is at   4.646914 -3.011610 -2.051657
      ESP Fit Center  832 is at   4.646914 -4.991508 -2.051657
      ESP Fit Center  833 is at   4.003785 -4.001559 -2.658621
      ESP Fit Center  834 is at   2.396514 -4.929517 -2.658621
      ESP Fit Center  835 is at   3.468028 -4.929517 -2.658621
      ESP Fit Center  836 is at   2.293460 -5.257627  3.475933
      ESP Fit Center  837 is at   2.814120 -4.355817  3.238258
      ESP Fit Center  838 is at   1.772800 -6.159437  3.238258
      ESP Fit Center  839 is at   1.560246 -4.787642  3.643807
      ESP Fit Center  840 is at   2.040246 -3.956258  3.386576
      ESP Fit Center  841 is at   1.080246 -3.956258  3.386576
      ESP Fit Center  842 is at   0.600246 -4.787642  3.386576
      ESP Fit Center  843 is at   1.080246 -5.619026  3.386576
      ESP Fit Center  844 is at   2.074070 -3.206255  2.683807
      ESP Fit Center  845 is at   1.046422 -3.206255  2.683807
      ESP Fit Center  846 is at   0.215038 -3.810291  2.683807
      ESP Fit Center  847 is at  -0.102523 -4.787642  2.683807
      ESP Fit Center  848 is at   0.215038 -5.764993  2.683807
      ESP Fit Center  849 is at  -0.102523 -3.827642  1.723807
      ESP Fit Center  850 is at  -0.359754 -4.787642  1.723807
      ESP Fit Center  851 is at   3.129179 -5.538184  3.623979
      ESP Fit Center  852 is at   4.089179 -5.538184  3.366748
      ESP Fit Center  853 is at   3.609179 -4.706800  3.366748
      ESP Fit Center  854 is at   2.649179 -6.369568  3.366748
      ESP Fit Center  855 is at   3.609179 -6.369568  3.366748
      ESP Fit Center  856 is at   4.791948 -5.538184  2.663979
      ESP Fit Center  857 is at   4.474387 -4.560833  2.663979
      ESP Fit Center  858 is at   3.643003 -3.956797  2.663979
      ESP Fit Center  859 is at   5.049179 -5.538184  1.703979
      ESP Fit Center  860 is at  -0.433363 -5.483492  0.961044
      ESP Fit Center  861 is at  -0.433363 -7.513918 -0.107056
      ESP Fit Center  862 is at   1.111456 -7.050869  3.090765
      ESP Fit Center  863 is at   2.071456 -7.050869  2.833534
      ESP Fit Center  864 is at   0.631456 -6.219485  2.833534
      ESP Fit Center  865 is at   0.151456 -7.050869  2.833534
      ESP Fit Center  866 is at  -0.233752 -6.073518  2.130765
      ESP Fit Center  867 is at  -0.551313 -7.050869  2.130765
      ESP Fit Center  868 is at  -0.233752 -8.028220  2.130765
      ESP Fit Center  869 is at  -0.808544 -7.050869  1.170765
      ESP Fit Center  870 is at  -0.551313 -8.010869  1.170765
      ESP Fit Center  871 is at  -0.233752 -8.028220  0.210765
      ESP Fit Center  872 is at  -0.373260 -5.235995  0.614940
      ESP Fit Center  873 is at  -0.690821 -5.253346 -0.345060
      ESP Fit Center  874 is at  -0.948052 -6.213346 -0.345060
      ESP Fit Center  875 is at  -0.690821 -7.173346 -0.345060
      ESP Fit Center  876 is at  -0.690821 -6.213346 -1.305060
      ESP Fit Center  877 is at  -0.373260 -7.190697 -1.305060
      ESP Fit Center  878 is at   1.451948 -5.381962 -2.007829
      ESP Fit Center  879 is at   0.491948 -5.381962 -2.007829
      ESP Fit Center  880 is at   0.011948 -6.213346 -2.007829
      ESP Fit Center  881 is at   0.491948 -7.044730 -2.007829
      ESP Fit Center  882 is at   0.971948 -6.213346 -2.265060
      ESP Fit Center  883 is at   5.215998 -6.574083  0.695034
      ESP Fit Center  884 is at   5.652781 -7.626255 -0.376480
      ESP Fit Center  885 is at   5.463703 -6.614778 -0.376480
      ESP Fit Center  886 is at   0.100456 -8.140754 -0.376480
      ESP Fit Center  887 is at   0.472173 -9.100265 -0.376480
      ESP Fit Center  888 is at   5.439644 -7.626255 -1.447994
      ESP Fit Center  889 is at   5.215998 -6.574083 -1.447994
      ESP Fit Center  890 is at   0.322447 -8.164094 -1.447994
      ESP Fit Center  891 is at   0.759965 -9.146775 -1.447994
      ESP Fit Center  892 is at   1.559350 -9.866544 -1.447994
      ESP Fit Center  893 is at   2.582380-10.198947 -1.447994
      ESP Fit Center  894 is at   3.652166-10.086508 -1.447994
      ESP Fit Center  895 is at   4.583730 -9.548669 -1.447994
      ESP Fit Center  896 is at   5.215998 -8.678427 -1.447994
      ESP Fit Center  897 is at   4.832680 -7.626255 -2.356379
      ESP Fit Center  898 is at   4.567424 -6.636306 -2.356379
      ESP Fit Center  899 is at   3.842730 -5.911612 -2.356379
      ESP Fit Center  900 is at   2.852781 -5.646356 -2.356379
      ESP Fit Center  901 is at   1.862832 -5.911612 -2.356379
      ESP Fit Center  902 is at   1.138138 -6.636306 -2.356379
      ESP Fit Center  903 is at   0.872882 -7.626255 -2.356379
      ESP Fit Center  904 is at   1.138138 -8.616204 -2.356379
      ESP Fit Center  905 is at   1.862832 -9.340898 -2.356379
      ESP Fit Center  906 is at   2.852781 -9.606154 -2.356379
      ESP Fit Center  907 is at   3.842730 -9.340898 -2.356379
      ESP Fit Center  908 is at   4.567424 -8.616204 -2.356379
      ESP Fit Center  909 is at   3.924295 -7.626255 -2.963343
      ESP Fit Center  910 is at   3.388538 -6.698297 -2.963343
      ESP Fit Center  911 is at   2.317024 -6.698297 -2.963343
      ESP Fit Center  912 is at   1.781267 -7.626255 -2.963343
      ESP Fit Center  913 is at   2.317024 -8.554213 -2.963343
      ESP Fit Center  914 is at   3.388538 -8.554213 -2.963343
      ESP Fit Center  915 is at   2.852781 -7.626255 -3.176480
      ESP Fit Center  916 is at   5.086860 -9.578320  2.535746
      ESP Fit Center  917 is at   6.077871 -9.024247  1.625574
      ESP Fit Center  918 is at   4.928926-10.605634  1.625574
      ESP Fit Center  919 is at   5.760310-10.001598  1.625574
      ESP Fit Center  920 is at   6.335102 -9.024247  0.665574
      ESP Fit Center  921 is at   6.077871 -8.064247  0.665574
      ESP Fit Center  922 is at   4.415102-10.944247  0.665574
      ESP Fit Center  923 is at   5.375102-10.687016  0.665574
      ESP Fit Center  924 is at   6.077871 -9.984247  0.665574
      ESP Fit Center  925 is at   6.077871 -9.024247 -0.294426
      ESP Fit Center  926 is at   5.760310 -8.046896 -0.294426
      ESP Fit Center  927 is at   3.901278-10.605634 -0.294426
      ESP Fit Center  928 is at   4.928926-10.605634 -0.294426
      ESP Fit Center  929 is at   5.760310-10.001598 -0.294426
      ESP Fit Center  930 is at   5.375102 -9.024247 -0.997195
      ESP Fit Center  931 is at   4.895102 -9.855631 -0.997195
      ESP Fit Center  932 is at   3.810547 -7.873682  3.738540
      ESP Fit Center  933 is at   4.770547 -7.873682  3.481309
      ESP Fit Center  934 is at   4.290547 -7.042298  3.481309
      ESP Fit Center  935 is at   3.330547 -7.042298  3.481309
      ESP Fit Center  936 is at   2.850547 -7.873682  3.481309
      ESP Fit Center  937 is at   4.290547 -8.705066  3.481309
      ESP Fit Center  938 is at   5.473316 -7.873682  2.778540
      ESP Fit Center  939 is at   5.155755 -6.896331  2.778540
      ESP Fit Center  940 is at   5.155755 -8.851033  2.778540
      ESP Fit Center  941 is at   5.730547 -7.873682  1.818540
      ESP Fit Center  942 is at   5.473316 -6.913682  1.818540
      ESP Fit Center  943 is at   3.091817 -8.731520  3.755681
      ESP Fit Center  944 is at   2.304118 -7.776033  3.089732
      ESP Fit Center  945 is at   1.342379-11.051415  3.089732
      ESP Fit Center  946 is at   1.112299-11.462680  2.127406
      ESP Fit Center  947 is at   2.050497-11.914493  2.127406
      ESP Fit Center  948 is at   4.030015-11.462680  1.059306
      ESP Fit Center  949 is at   1.652109 -9.205054  3.898391
      ESP Fit Center  950 is at   2.132109 -8.373670  3.641160
      ESP Fit Center  951 is at   1.172109 -8.373670  3.641160
      ESP Fit Center  952 is at   0.692109 -9.205054  3.641160
      ESP Fit Center  953 is at   1.172109-10.036438  3.641160
      ESP Fit Center  954 is at   2.165933 -7.623667  2.938391
      ESP Fit Center  955 is at   0.306901 -8.227703  2.938391
      ESP Fit Center  956 is at  -0.010660 -9.205054  2.938391
      ESP Fit Center  957 is at   0.306901-10.182405  2.938391
      ESP Fit Center  958 is at  -0.267891 -9.205054  1.978391
      ESP Fit Center  959 is at  -0.010660-10.165054  1.978391
      ESP Fit Center  960 is at  -0.010660 -9.205054  1.018391
      ESP Fit Center  961 is at   1.794778-11.932763  1.785333
      ESP Fit Center  962 is at   0.388602-10.351376  0.825333
      ESP Fit Center  963 is at   0.645833-11.311376  0.825333
      ESP Fit Center  964 is at   1.348602-12.014145  0.825333
      ESP Fit Center  965 is at   2.308602-12.271376  0.825333
      ESP Fit Center  966 is at   3.268602-12.014145  0.825333
      ESP Fit Center  967 is at   0.645833-10.351376 -0.134667
      ESP Fit Center  968 is at   0.963394-11.328727 -0.134667
      ESP Fit Center  969 is at   1.794778-11.932763 -0.134667
      ESP Fit Center  970 is at   2.822426-11.932763 -0.134667
      ESP Fit Center  971 is at   3.653810-11.328727 -0.134667
      ESP Fit Center  972 is at   1.348602-10.351376 -0.837436
      ESP Fit Center  973 is at   1.828602-11.182760 -0.837436
      ESP Fit Center  974 is at   2.788602-11.182760 -0.837436
      ESP Fit Center  975 is at   2.308602-10.351376 -1.094667
      ESP Fit Center  976 is at   3.053286-10.165316  4.328989
      ESP Fit Center  977 is at   4.013286-10.165316  4.071758
      ESP Fit Center  978 is at   3.533286 -9.333932  4.071758
      ESP Fit Center  979 is at   2.573286 -9.333932  4.071758
      ESP Fit Center  980 is at   2.093286-10.165316  4.071758
      ESP Fit Center  981 is at   2.573286-10.996700  4.071758
      ESP Fit Center  982 is at   3.533286-10.996700  4.071758
      ESP Fit Center  983 is at   4.716055-10.165316  3.368989
      ESP Fit Center  984 is at   4.398494 -9.187965  3.368989
      ESP Fit Center  985 is at   1.708078-11.142667  3.368989
      ESP Fit Center  986 is at   2.539462-11.746703  3.368989
      ESP Fit Center  987 is at   3.567110-11.746703  3.368989
      ESP Fit Center  988 is at   4.398494-11.142667  3.368989
      ESP Fit Center  989 is at   4.973286-10.165316  2.408989
      ESP Fit Center  990 is at   3.053286-12.085316  2.408989
      ESP Fit Center  991 is at   4.013286-11.828085  2.408989
      ESP Fit Center  992 is at   4.716055-11.125316  2.408989
      ESP Fit Center  993 is at  -4.075633  6.237070 -0.288001
      ESP Fit Center  994 is at  -4.313665  6.932344 -1.163944
      ESP Fit Center  995 is at  -4.868738  7.200411 -2.197189
      ESP Fit Center  996 is at  -5.901983  6.994886 -2.197189
      ESP Fit Center  997 is at  -7.568738  4.500411 -2.197189
      ESP Fit Center  998 is at  -7.363213  3.467166 -2.197189
      ESP Fit Center  999 is at  -5.423811  6.932344 -3.230434
      ESP Fit Center 1000 is at  -6.424018  6.450670 -3.230434
      ESP Fit Center 1001 is at  -5.140444  6.390167 -4.106377
      ESP Fit Center 1002 is at  -3.835493  4.500411 -4.691664
      ESP Fit Center 1003 is at  -5.997277  5.885363  0.466314
      ESP Fit Center 1004 is at  -6.537277  4.950056  0.466314
      ESP Fit Center 1005 is at  -4.680195  6.651627 -0.324301
      ESP Fit Center 1006 is at  -5.723493  6.801631 -0.324301
      ESP Fit Center 1007 is at  -6.682269  6.363772 -0.324301
      ESP Fit Center 1008 is at  -7.252119  5.477069 -0.324301
      ESP Fit Center 1009 is at  -7.252119  4.423043 -0.324301
      ESP Fit Center 1010 is at  -5.196918  7.094307 -1.404301
      ESP Fit Center 1011 is at  -6.223224  6.969691 -1.404301
      ESP Fit Center 1012 is at  -7.074060  6.382401 -1.404301
      ESP Fit Center 1013 is at  -7.554511  5.466978 -1.404301
      ESP Fit Center 1014 is at  -7.554511  4.433134 -1.404301
      ESP Fit Center 1015 is at  -3.457985  6.059062 -0.499618
      ESP Fit Center 1016 is at  -2.127370  5.123755 -1.290233
      ESP Fit Center 1017 is at  -2.424324  6.135086 -1.290233
      ESP Fit Center 1018 is at  -3.220903  6.825326 -1.290233
      ESP Fit Center 1019 is at  -4.264201  6.975330 -1.290233
      ESP Fit Center 1020 is at  -1.837985  5.123755 -2.370233
      ESP Fit Center 1021 is at  -2.085400  6.127557 -2.370233
      ESP Fit Center 1022 is at  -2.770965  6.901400 -2.370233
      ESP Fit Center 1023 is at  -3.737626  7.268006 -2.370233
      ESP Fit Center 1024 is at  -2.127370  5.123755 -3.450233
      ESP Fit Center 1025 is at  -2.424324  6.135086 -3.450233
      ESP Fit Center 1026 is at  -3.220903  6.825326 -3.450233
      ESP Fit Center 1027 is at  -4.264201  6.975330 -3.450233
      ESP Fit Center 1028 is at  -2.424324  4.112424 -3.450233
      ESP Fit Center 1029 is at  -2.917985  5.123755 -4.240848
      ESP Fit Center 1030 is at  -3.457985  6.059062 -4.240848
      ESP Fit Center 1031 is at  -7.091441  5.933108 -3.098285
      ESP Fit Center 1032 is at  -7.571892  5.017685 -3.098285
      ESP Fit Center 1033 is at  -7.571892  3.983841 -3.098285
      ESP Fit Center 1034 is at  -7.091441  3.068418 -3.098285
      ESP Fit Center 1035 is at  -5.740874  6.352338 -4.178285
      ESP Fit Center 1036 is at  -6.699650  5.914479 -4.178285
      ESP Fit Center 1037 is at  -7.269500  5.027776 -4.178285
      ESP Fit Center 1038 is at  -7.269500  3.973750 -4.178285
      ESP Fit Center 1039 is at  -6.699650  3.087047 -4.178285
      ESP Fit Center 1040 is at  -4.394658  4.500763 -4.968900
      ESP Fit Center 1041 is at  -4.934658  5.436070 -4.968900
      ESP Fit Center 1042 is at  -6.014658  5.436070 -4.968900
      ESP Fit Center 1043 is at  -6.554658  4.500763 -4.968900
      ESP Fit Center 1044 is at  -6.014658  3.565456 -4.968900
      ESP Fit Center 1045 is at  -4.934658  3.565456 -4.968900
      ESP Fit Center 1046 is at  -5.474658  4.500763 -5.258285
      ESP Fit Center 1047 is at  -4.441935  0.378899 -1.855692
      ESP Fit Center 1048 is at  -4.997008  0.646966 -2.888937
[...]
 1261 Fit      -0.012099
 1262 Fit      -0.022231
 1263 Fit      -0.027558
 1264 Fit      -0.028396
 1265 Fit      -0.023725
 1266 Fit      -0.023222
 1267 Fit      -0.022619
 1268 Fit      -0.022343
 1269 Fit      -0.020987
 1270 Fit      -0.016992
 1271 Fit      -0.010137
 1272 Fit      -0.015880
 1273 Fit      -0.021971
 1274 Fit      -0.020619
 1275 Fit      -0.022432
 1276 Fit      -0.020773
 1277 Fit      -0.014170
 1278 Fit      -0.008996
 1279 Fit      -0.014528
 1280 Fit      -0.017447
 1281 Fit       0.005062
 1282 Fit       0.001254
 1283 Fit      -0.008416
 1284 Fit      -0.002218
 1285 Fit      -0.000810
 1286 Fit       0.003130
 1287 Fit      -0.004360
 1288 Fit       0.000504
 1289 Fit       0.002742
 1290 Fit       0.004032
 1291 Fit      -0.005586
 1292 Fit      -0.000507
 1293 Fit       0.000990
 1294 Fit      -0.004518
 1295 Fit      -0.012170
 1296 Fit      -0.015404
 1297 Fit      -0.008026
 1298 Fit      -0.005812
 1299 Fit      -0.001427
 1300 Fit      -0.001639
 1301 Fit      -0.005580
 1302 Fit      -0.003838
 1303 Fit       0.004206
 1304 Fit       0.010262
 1305 Fit       0.005766
 1306 Fit       0.009166
 1307 Fit       0.012892
 1308 Fit       0.006810
 1309 Fit       0.008387
 1310 Fit       0.010178
 1311 Fit       0.006527
 1312 Fit       0.005539
 1313 Fit      -0.000978
 1314 Fit       0.008273
 1315 Fit       0.003112
 1316 Fit       0.007421
 1317 Fit      -0.000114
 1318 Fit       0.006720
 1319 Fit      -0.008836
 1320 Fit      -0.000194
 1321 Fit      -0.011232
 1322 Fit      -0.017939
 1323 Fit      -0.016082
 1324 Fit       0.003381
 1325 Fit      -0.018010
 1326 Fit      -0.024038
 1327 Fit      -0.025036
 1328 Fit      -0.009544
 1329 Fit      -0.024192
 1330 Fit      -0.029044
 1331 Fit      -0.032379
 1332 Fit      -0.019831
 1333 Fit      -0.029689
 1334 Fit      -0.033664
 1335 Fit      -0.028802
 1336 Fit      -0.033634
 1337 Fit      -0.037118
 1338 Fit      -0.035362
 1339 Fit      -0.033942
 1340 Fit      -0.037124
 1341 Fit      -0.028024
 1342 Fit      -0.018186
 1343 Fit      -0.029879
 1344 Fit       0.009329
 1345 Fit       0.004838
 1346 Fit       0.012914
 1347 Fit       0.009568
 1348 Fit       0.005941
 1349 Fit       0.009716
 1350 Fit       0.011728
 1351 Fit       0.012645
 1352 Fit       0.008062
 1353 Fit       0.011068
 1354 Fit       0.012302
 1355 Fit       0.013536
 1356 Fit       0.012647
 1357 Fit       0.014108
 1358 Fit       0.009332
 1359 Fit       0.007916
 1360 Fit       0.003989
 1361 Fit       0.013708
 1362 Fit       0.013429
 1363 Fit       0.004241
 1364 Fit      -0.001995
 1365 Fit      -0.003350
 1366 Fit       0.013952
 1367 Fit       0.009300
 1368 Fit       0.015377
 1369 Fit       0.014195
 1370 Fit       0.012638
 1371 Fit       0.011944
 1372 Fit       0.010359
 1373 Fit       0.008492
 1374 Fit       0.007087
 1375 Fit       0.011277
 1376 Fit       0.007301
 1377 Fit       0.002367
 1378 Fit       0.010446
 1379 Fit       0.005147
 1380 Fit      -0.002906
 1381 Fit       0.004018
 1382 Fit      -0.003758
 1383 Fit      -0.019019
 1384 Fit      -0.002794
 1385 Fit      -0.017466
 1386 Fit      -0.028050
 1387 Fit      -0.010646
 1388 Fit      -0.015411
 1389 Fit      -0.023117
 1390 Fit      -0.032606
 1391 Fit      -0.007324
 1392 Fit      -0.016383
 1393 Fit      -0.020567
 1394 Fit      -0.019260
 1395 Fit      -0.014961
 1396 Fit      -0.011034
 1397 Fit      -0.010223
 1398 Fit      -0.014648
 1399 Fit      -0.025720
 1400 Fit      -0.032351
 1401 Fit      -0.035770
 1402 Fit      -0.029200
 1403 Fit      -0.014402
 1404 Fit      -0.009001
 1405 Fit      -0.013978
 1406 Fit      -0.020403
 1407 Fit      -0.022503
 1408 Fit      -0.020376
 1409 Fit      -0.018156
 1410 Fit      -0.019839
 1411 Fit      -0.025562
 1412 Fit      -0.026850
 1413 Fit      -0.020132
 1414 Fit      -0.019335
 1415 Fit      -0.022627
 1416 Fit      -0.022721
 1417 Fit      -0.023259
 1418 Fit       0.007588
 1419 Fit       0.003548
 1420 Fit      -0.003866
 1421 Fit       0.003608
 1422 Fit       0.006745
 1423 Fit       0.005630
 1424 Fit       0.001563
 1425 Fit      -0.002959
 1426 Fit       0.004827
 1427 Fit       0.005182
 1428 Fit       0.004197
 1429 Fit      -0.001546
 1430 Fit      -0.009650
 1431 Fit       0.001936
 1432 Fit       0.002783
 1433 Fit       0.002010
 1434 Fit      -0.002119
 1435 Fit       0.010584
 1436 Fit       0.008427
 1437 Fit       0.010868
 1438 Fit       0.013661
 1439 Fit       0.012274
 1440 Fit       0.009170
 1441 Fit       0.005245
 1442 Fit       0.006191
 1443 Fit      -0.000166
 1444 Fit       0.008540
 1445 Fit       0.007936
 1446 Fit       0.013446
 1447 Fit       0.003012
 1448 Fit       0.001550
 1449 Fit       0.001883
 1450 Fit       0.001088
 1451 Fit       0.000705
 1452 Fit       0.001986
 1453 Fit      -0.002562
 1454 Fit       0.002653
 1455 Fit       0.006704
 1456 Fit       0.010744
 1457 Fit       0.007924
 1458 Fit       0.004745
 1459 Fit       0.010602
 1460 Fit       0.006647
 1461 Fit       0.003680
 1462 Fit       0.009731
 1463 Fit       0.005076
 1464 Fit       0.002160
 1465 Fit       0.000182
 1466 Fit      -0.000828
 1467 Fit       0.000489
 1468 Fit       0.001287
 1469 Fit       0.001455
 1470 Fit       0.001626
 1471 Fit      -0.010476
 1472 Fit      -0.003865
 1473 Fit      -0.000729
 1474 Fit       0.000530
 1475 Fit       0.000719
 1476 Fit       0.001362
 1477 Fit      -0.013227
 1478 Fit      -0.004654
 1479 Fit      -0.003456
 1480 Fit       0.006568
 1481 Fit       0.007410
 1482 Fit       0.007882
 1483 Fit       0.006759
 1484 Fit       0.005103
 1485 Fit       0.005326
 1486 Fit       0.006584
 1487 Fit       0.007374
 1488 Fit       0.008647
 1489 Fit       0.003244
 1490 Fit       0.004317
 1491 Fit       0.005581
 1492 Fit       0.006607
 1493 Fit       0.007514
 1494 Fit       0.002935
 1495 Fit       0.004341
 1496 Fit       0.005887
 1497 Fit       0.006152
 1498 Fit       0.004895
 1499 Fit       0.005507
 1500 Fit       0.008826
 1501 Fit       0.004237
 1502 Fit       0.004319
 1503 Fit       0.005088
 1504 Fit       0.006031
 1505 Fit       0.003964
 1506 Fit       0.004840
 1507 Fit       0.004381
 1508 Fit       0.004039
 1509 Fit       0.005313
 1510 Fit       0.009691
 1511 Fit       0.009817
 1512 Fit       0.010234
 1513 Fit       0.010694
 1514 Fit       0.011561
 1515 Fit       0.006486
 1516 Fit       0.007314
 1517 Fit       0.008027
 1518 Fit       0.008543
 1519 Fit       0.009069
 1520 Fit       0.010239
 1521 Fit       0.006193
 1522 Fit       0.006851
 1523 Fit       0.002970
 1524 Fit       0.005214
 1525 Fit      -0.002279
 1526 Fit       0.002818
 1527 Fit       0.004665
 1528 Fit       0.004987
 1529 Fit       0.001183
 1530 Fit       0.003625
 1531 Fit       0.004698
 1532 Fit       0.004709
 1533 Fit       0.004208
 1534 Fit       0.003116
 1535 Fit       0.004107
 1536 Fit       0.004411
 1537 Fit       0.004052
 1538 Fit       0.004026
 1539 Fit       0.004063
 1540 Fit       0.005767
 1541 Fit       0.006812
 1542 Fit       0.007780
 1543 Fit       0.008851
 1544 Fit       0.010308
 1545 Fit       0.005251
 1546 Fit       0.006473
 1547 Fit       0.007570
 1548 Fit       0.008448
 1549 Fit       0.009219
 1550 Fit       0.010020
 1551 Fit       0.006044
 1552 Fit       0.005573
 1553 Fit       0.006654
 1554 Fit       0.007837
 1555 Fit       0.008382
 1556 Fit       0.007884
 1557 Fit       0.007085
 1558 Fit      -0.000042
 1559 Fit       0.008336
 1560 Fit       0.009436
 1561 Fit       0.007616
 1562 Fit       0.004839
 1563 Fit       0.000738
 1564 Fit      -0.004911
 1565 Fit       0.009309
 1566 Fit       0.007926
 1567 Fit       0.005955
 1568 Fit       0.003429
 1569 Fit       0.009021
 1570 Fit       0.007184
 1571 Fit       0.005329
 1572 Fit      -0.001971
 1573 Fit      -0.001081
 1574 Fit       0.003271
 1575 Fit       0.001696
 1576 Fit      -0.000117
 1577 Fit      -0.001663
 1578 Fit       0.002144
 1579 Fit       0.003378
 1580 Fit       0.007064
 1581 Fit       0.005041
 1582 Fit       0.003548
 1583 Fit       0.002304
 1584 Fit       0.004967
 1585 Fit       0.006258
 1586 Fit       0.009170
 1587 Fit       0.007052
 1588 Fit       0.005405
 1589 Fit       0.007065
 1590 Fit      -0.002176
 1591 Fit      -0.003472
 1592 Fit      -0.006690
 1593 Fit       0.013725
 1594 Fit       0.011374
 1595 Fit       0.002313
 1596 Fit       0.007149
 1597 Fit       0.009229
 1598 Fit       0.005604
 1599 Fit      -0.001116
 1600 Fit       0.010683
 1601 Fit       0.008546
 1602 Fit       0.005386
 1603 Fit      -0.000464
 1604 Fit       0.011998
 1605 Fit       0.010001
 1606 Fit       0.007322
 1607 Fit       0.002365
 1608 Fit      -0.006744
 1609 Fit       0.013986
 1610 Fit       0.012942
 1611 Fit       0.012412
 1612 Fit       0.012390
 1613 Fit       0.012400
 1614 Fit       0.010629
 1615 Fit       0.010701
 1616 Fit       0.011393
 1617 Fit       0.012158
 1618 Fit       0.012460
 1619 Fit       0.006529
 1620 Fit       0.008418
 1621 Fit       0.011172
 1622 Fit       0.012603
 1623 Fit       0.003054
 1624 Fit       0.013444
 1625 Fit       0.013044
 1626 Fit       0.012343
 1627 Fit       0.013631
 1628 Fit       0.011768
 1629 Fit       0.011777
 1630 Fit       0.011886
 1631 Fit       0.009431
 1632 Fit       0.008781
 1633 Fit       0.005728
 1634 Fit       0.001865
 1635 Fit       0.006865
 1636 Fit       0.007808
 1637 Fit       0.009382
 1638 Fit       0.009232
 1639 Fit       0.006599
 1640 Fit       0.002505
 1641 Fit       0.003653
 1642 Fit       0.010778
 1643 Fit       0.011148
 1644 Fit       0.011470
 1645 Fit       0.011005
 1646 Fit       0.008911
 1647 Fit       0.004351
 1648 Fit      -0.002968
 1649 Fit       0.013134
 1650 Fit       0.013790
 1651 Fit       0.013825
 1652 Fit       0.012440
 1653 Fit       0.008976
 1654 Fit      -0.002804
 1655 Fit      -0.006168
 1656 Fit      -0.008764
 1657 Fit      -0.007242
 1658 Fit      -0.012894
 1659 Fit      -0.011880
 1660 Fit      -0.010485
 1661 Fit      -0.015135
 1662 Fit      -0.012969
 1663 Fit      -0.014664
 1664 Fit      -0.014318
 1665 Fit      -0.013716
 1666 Fit      -0.011622
 1667 Fit      -0.011896
 1668 Fit       0.002630
 1669 Fit       0.002560
 1670 Fit      -0.003599
 1671 Fit      -0.000100
 1672 Fit       0.003844
 1673 Fit       0.005917
 1674 Fit       0.005930
 1675 Fit       0.001964
 1676 Fit       0.001419
 1677 Fit       0.004257
 1678 Fit      -0.008439
 1679 Fit      -0.000318
 1680 Fit       0.003983
 1681 Fit       0.005533
 1682 Fit       0.005200
 1683 Fit      -0.009094
 1684 Fit      -0.000473
 1685 Fit       0.003862
 1686 Fit       0.005652
 1687 Fit       0.004697
 1688 Fit      -0.000917
 1689 Fit       0.002951
 1690 Fit       0.003024
 1691 Fit       0.006298
 1692 Fit       0.008599
 1693 Fit       0.009594
 1694 Fit       0.007771
 1695 Fit       0.006089
 1696 Fit       0.010818
 1697 Fit       0.012250
 1698 Fit       0.012519
 1699 Fit       0.007921
 1700 Fit       0.015300
 1701 Fit       0.001384
 1702 Fit      -0.007858
 1703 Fit      -0.003602
 1704 Fit      -0.000351
 1705 Fit      -0.000204
 1706 Fit      -0.002030
 1707 Fit      -0.003332
 1708 Fit      -0.007556
 1709 Fit      -0.000808
 1710 Fit       0.001495
 1711 Fit      -0.007143
 1712 Fit      -0.002006
 1713 Fit       0.001045
 1714 Fit       0.002191
 1715 Fit      -0.000169
 1716 Fit       0.001636
 1717 Fit       0.002172
 1718 Fit       0.000032
 1719 Fit       0.000946
 1720 Fit      -0.001274
 1721 Fit       0.002765
 1722 Fit       0.010930
 1723 Fit       0.008367
 1724 Fit       0.011861
 1725 Fit       0.010375
 1726 Fit       0.012074
 1727 Fit       0.009380
 1728 Fit       0.011233
 1729 Fit       0.012075
 1730 Fit       0.014261
 1731 Fit       0.011485
 1732 Fit       0.011818
 1733 Fit       0.013963
 1734 Fit       0.008861
 1735 Fit       0.004386
 1736 Fit       0.005131
 1737 Fit       0.004761
 1738 Fit       0.000345
 1739 Fit       0.001610
 1740 Fit       0.000387
 1741 Fit      -0.006067
 1742 Fit      -0.002936
 1743 Fit      -0.005564
 1744 Fit       0.007907
 1745 Fit      -0.000220
 1746 Fit       0.010265
 1747 Fit      -0.013538
 1748 Fit       0.004793
 1749 Fit       0.001101
 1750 Fit       0.005852
 1751 Fit       0.008306
 1752 Fit       0.005966
 1753 Fit       0.004427
 1754 Fit      -0.000160
 1755 Fit      -0.004043
 1756 Fit       0.003082
 1757 Fit       0.007701
 1758 Fit       0.000089
 1759 Fit       0.004867
 1760 Fit       0.008653
 1761 Fit      -0.003124
 1762 Fit       0.002367
 1763 Fit       0.006149
 1764 Fit       0.009418
 1765 Fit      -0.000415
 1766 Fit       0.003745
 1767 Fit       0.007027
 1768 Fit      -0.018100
 1769 Fit      -0.021475
 1770 Fit      -0.012376
 1771 Fit      -0.030350
 1772 Fit      -0.023206
 1773 Fit      -0.016793
 1774 Fit      -0.010458
 1775 Fit      -0.005054
 1776 Fit      -0.001127
 1777 Fit      -0.029153
 1778 Fit      -0.023296
 1779 Fit      -0.018741
 1780 Fit      -0.014337
 1781 Fit      -0.010936
 1782 Fit      -0.008630
 1783 Fit      -0.006480
 1784 Fit      -0.030139
 1785 Fit      -0.027132
 1786 Fit      -0.022065
 1787 Fit      -0.019612
 1788 Fit      -0.017217
 1789 Fit      -0.015601
 1790 Fit      -0.014536
 1791 Fit      -0.013468
 1792 Fit      -0.012384
 1793 Fit      -0.009988
 1794 Fit      -0.018866
 1795 Fit      -0.022887
 1796 Fit      -0.023445
 1797 Fit      -0.020003
 1798 Fit      -0.019555
 1799 Fit      -0.018802
 1800 Fit      -0.018057
 1801 Fit      -0.016604
 1802 Fit      -0.013586
 1803 Fit      -0.008984
 1804 Fit      -0.014649
 1805 Fit      -0.018838
 1806 Fit      -0.017542
 1807 Fit      -0.018320
 1808 Fit      -0.016618
 1809 Fit      -0.012134
 1810 Fit      -0.009315
 1811 Fit      -0.013482
 1812 Fit      -0.014911
 1813 Fit       0.003379
 1814 Fit       0.002677
 1815 Fit       0.000097
 1816 Fit      -0.002958
 1817 Fit       0.003747
 1818 Fit       0.001959
 1819 Fit       0.003636
 1820 Fit      -0.004167
 1821 Fit      -0.000239
 1822 Fit       0.001561
 1823 Fit      -0.005765
 1824 Fit      -0.001417
 1825 Fit       0.002497
 1826 Fit      -0.004847
 1827 Fit       0.000265
 1828 Fit      -0.000709
 1829 Fit      -0.005192
 1830 Fit      -0.010929
 1831 Fit      -0.013734
 1832 Fit      -0.008611
 1833 Fit      -0.006144
 1834 Fit      -0.002480
 1835 Fit      -0.002945
 1836 Fit      -0.006364
 1837 Fit      -0.004933
 1838 Fit       0.007315
 1839 Fit       0.000737
 1840 Fit       0.002494
 1841 Fit       0.009806
 1842 Fit       0.006528
 1843 Fit       0.009623
 1844 Fit       0.006373
 1845 Fit       0.008380
 1846 Fit       0.006407
 1847 Fit       0.006842
 1848 Fit       0.003453
 1849 Fit       0.007513
 1850 Fit       0.004296
 1851 Fit       0.007334
 1852 Fit       0.007273
 1853 Fit       0.001855
 1854 Fit      -0.004952
 1855 Fit       0.001304
 1856 Fit      -0.007503
 1857 Fit      -0.012187
 1858 Fit      -0.010412
 1859 Fit       0.003335
 1860 Fit      -0.013193
 1861 Fit      -0.017653
 1862 Fit      -0.017702
 1863 Fit      -0.005855
 1864 Fit      -0.018585
 1865 Fit      -0.022280
 1866 Fit      -0.023831
 1867 Fit      -0.014299
 1868 Fit      -0.023495
 1869 Fit      -0.026434
 1870 Fit      -0.029909
 1871 Fit      -0.021663
 1872 Fit      -0.027598
 1873 Fit      -0.030543
 1874 Fit      -0.027682
 1875 Fit      -0.029975
 1876 Fit      -0.031494
 1877 Fit      -0.029105
 1878 Fit      -0.003149
 1879 Fit      -0.031250
 1880 Fit      -0.023441
 1881 Fit      -0.015056
 1882 Fit      -0.024360
 1883 Fit       0.008510
 1884 Fit       0.004859
 1885 Fit       0.011418
 1886 Fit       0.008638
 1887 Fit       0.005731
 1888 Fit       0.008451
 1889 Fit       0.010209
 1890 Fit       0.011171
 1891 Fit       0.006918
 1892 Fit       0.009419
 1893 Fit       0.010615
 1894 Fit       0.011810
 1895 Fit       0.010446
 1896 Fit       0.011573
 1897 Fit       0.012482
 1898 Fit       0.008317
 1899 Fit       0.006837
 1900 Fit       0.004020
 1901 Fit       0.011939
 1902 Fit       0.011200
 1903 Fit       0.004065
 1904 Fit      -0.000713
 1905 Fit      -0.001188
 1906 Fit       0.012501
 1907 Fit       0.009968
 1908 Fit       0.001469
 1909 Fit       0.013726
 1910 Fit       0.012783
 1911 Fit       0.011807
 1912 Fit       0.011179
 1913 Fit       0.009319
 1914 Fit       0.008442
 1915 Fit       0.004762
 1916 Fit       0.001559
 1917 Fit       0.008653
 1918 Fit       0.007398
 1919 Fit       0.003423
 1920 Fit       0.007704
 1921 Fit       0.003014
 1922 Fit       0.001536
 1923 Fit      -0.011811
 1924 Fit      -0.011820
 1925 Fit      -0.019516
 1926 Fit      -0.006177
 1927 Fit      -0.017309
 1928 Fit      -0.025421
 1929 Fit      -0.006015
 1930 Fit      -0.011608
 1931 Fit      -0.013521
 1932 Fit      -0.011586
 1933 Fit      -0.005862
 1934 Fit      -0.004097
 1935 Fit      -0.004938
 1936 Fit      -0.009885
 1937 Fit      -0.020872
 1938 Fit      -0.028032
 1939 Fit      -0.007370
 1940 Fit      -0.013507
 1941 Fit      -0.016598
 1942 Fit      -0.016179
 1943 Fit      -0.013765
 1944 Fit      -0.011563
 1945 Fit      -0.011491
 1946 Fit      -0.014805
 1947 Fit      -0.022318
 1948 Fit      -0.027139
 1949 Fit      -0.029292
 1950 Fit      -0.023770
 1951 Fit      -0.013511
 1952 Fit      -0.009628
 1953 Fit      -0.012489
 1954 Fit      -0.016625
 1955 Fit      -0.018271
 1956 Fit      -0.017385
 1957 Fit      -0.016486
 1958 Fit      -0.018053
 1959 Fit      -0.021866
 1960 Fit      -0.022824
 1961 Fit      -0.017823
 1962 Fit      -0.016700
 1963 Fit      -0.018848
 1964 Fit      -0.019478
 1965 Fit      -0.019883
 1966 Fit       0.003551
 1967 Fit       0.005126
 1968 Fit      -0.001660
 1969 Fit      -0.007443
 1970 Fit       0.003448
 1971 Fit       0.005035
 1972 Fit       0.001410
 1973 Fit      -0.001509
 1974 Fit       0.004514
 1975 Fit       0.003449
 1976 Fit      -0.000955
 1977 Fit      -0.005861
 1978 Fit       0.002980
 1979 Fit       0.002942
 1980 Fit       0.001771
 1981 Fit      -0.004259
 1982 Fit      -0.000766
 1983 Fit       0.000253
 1984 Fit      -0.000641
 1985 Fit       0.009360
 1986 Fit       0.007592
 1987 Fit       0.009317
 1988 Fit       0.011617
 1989 Fit       0.008314
 1990 Fit       0.005181
 1991 Fit       0.005836
 1992 Fit       0.002238
 1993 Fit       0.001372
 1994 Fit       0.007788
 1995 Fit       0.007440
 1996 Fit       0.005619
 1997 Fit       0.011480
 1998 Fit       0.003414
 1999 Fit       0.002621
 2000 Fit       0.002071
 2001 Fit       0.001570
 2002 Fit       0.001097
 2003 Fit       0.001243
 2004 Fit       0.001769
 2005 Fit      -0.000057
 2006 Fit       0.001717
 2007 Fit       0.003434
 2008 Fit      -0.004382
 2009 Fit       0.002027
 2010 Fit       0.009375
 2011 Fit       0.007113
 2012 Fit       0.012651
 2013 Fit       0.009200
 2014 Fit       0.006128
 2015 Fit       0.003866
 2016 Fit       0.007072
 2017 Fit       0.004165
 2018 Fit       0.004746
 2019 Fit       0.001822
 2020 Fit       0.000771
 2021 Fit       0.001069
 2022 Fit       0.001266
 2023 Fit      -0.001250
 2024 Fit      -0.000009
 2025 Fit       0.000632
 2026 Fit       0.000839
 2027 Fit       0.001188
 2028 Fit      -0.005520
 2029 Fit      -0.002332
 2030 Fit      -0.001029
 2031 Fit      -0.000752
 2032 Fit      -0.000465
 2033 Fit      -0.006443
 2034 Fit      -0.005385
 2035 Fit       0.005935
 2036 Fit       0.006450
 2037 Fit       0.007075
 2038 Fit       0.006500
 2039 Fit       0.005110
 2040 Fit       0.004928
 2041 Fit       0.005715
 2042 Fit       0.006453
 2043 Fit       0.007600
 2044 Fit       0.003505
 2045 Fit       0.004153
 2046 Fit       0.005028
 2047 Fit       0.005793
 2048 Fit       0.006279
 2049 Fit       0.002617
 2050 Fit       0.003498
 2051 Fit       0.004448
 2052 Fit       0.005388
 2053 Fit       0.003353
 2054 Fit       0.005170
 Job cpu time:       0 days  0 hours  5 minutes  3.7 seconds.
 Normal termination of Gaussian 16 at Sat Jul  8 22:23:05 2023.
