 Copyright (c) 1988-2019, Gaussian, Inc.  All Rights Reserved.
  
 This is part of the Gaussian(R) 16 program.  It is based on
 the Gaussian(R) 09 system (copyright 2009, Gaussian, Inc.),
 the Gaussian(R) 03 system (copyright 2003, Gaussian, Inc.),
 the Gaussian(R) 98 system (copyright 1998, Gaussian, Inc.),
 the Gaussian(R) 94 system (copyright 1995, Gaussian, Inc.),
 the Gaussian 92(TM) system (copyright 1992, Gaussian, Inc.),
 the Gaussian 90(TM) system (copyright 1990, Gaussian, Inc.),
 the Gaussian 88(TM) system (copyright 1988, Gaussian, Inc.),
 the Gaussian 86(TM) system (copyright 1986, Carnegie Mellon
 University), and the Gaussian 82(TM) system (copyright 1983,
 Carnegie Mellon University). Gaussian is a federally registered
 trademark of Gaussian, Inc.
 Cite this work as:
 Gaussian 16, Revision C.01,
 M. J. Frisch, G. W. Trucks, H. B. Schlegel, G. E. Scuseria, 
 M. A. Robb, J. R. Cheeseman, G. Scalmani, V. Barone, 
 G. A. Petersson, H. Nakatsuji, X. Li, M. Caricato, A. V. Marenich, 
 J. Bloino, B. G. Janesko, R. Gomperts, B. Mennucci, H. P. Hratchian, 
 J. V. Ortiz, A. F. Izmaylov, J. L. Sonnenberg, D. Williams-Young, 
 F. Ding, F. Lipparini, F. Egidi, J. Goings, B. Peng, A. Petrone, 
 T. Henderson, D. Ranasinghe, V. G. Zakrzewski, J. Gao, N. Rega, 
 G. Zheng, W. Liang, M. Hada, M. Ehara, K. Toyota, R. Fukuda, 
 J. Hasegawa, M. Ishida, T. Nakajima, Y. Honda, O. Kitao, H. Nakai, 
 T. Vreven, K. Throssell, J. A. Montgomery, Jr., J. E. Peralta, 
 F. Ogliaro, M. J. Bearpark, J. J. Heyd, E. N. Brothers, K. N. Kudin, 
 V. N. Staroverov, T. A. Keith, R. Kobayashi, J. Normand, 
 K. Raghavachari, A. P. Rendell, J. C. Burant, S. S. Iyengar, 
 J. Tomasi, M. Cossi, J. M. Millam, M. Klene, C. Adamo, R. Cammi, 
 J. W. Ochterski, R. L. Martin, K. Morokuma, O. Farkas, 
 J. B. Foresman, and D. J. Fox, Gaussian, Inc., Wallingford CT, 2019.
 
 ******************************************
 Gaussian 16:  EM64L-G16RevC.01  3-Jul-2019
                 8-Jul-2023 
 ******************************************
 ----------------------------------------------------------------------
 #P HF/6-31G(d) SCF(Conver=8,XQC,MaxConventionalCycles=64,MaxCycle=128)
  NoSymm Test Pop=mk IOp(6/33=2) GFInput GFPrint
 ----------------------------------------------------------------------
 1/38=1,172=1/1;
 2/12=2,15=1,17=6,18=5,40=1/2;
 3/5=1,6=6,7=1,11=9,24=110,25=1,30=1/1,2,3;
 4//1;
 5/5=2,6=8,7=128,8=3,13=1,38=5,85=64/2,8;
 6/7=2,8=2,9=2,10=2,15=8,20=1,28=1,33=2/1,2;
 99/5=1,9=1/99;
 -------------------------------------------------
 MEP step - Input generated by PyRED DVE-DMDS-OPLS
 -------------------------------------------------
 Symbolic Z-matrix:
 Charge =  0 Multiplicity = 1
 C                    -6.12623   3.2796   -2.28504 
 H                    -5.86782   2.2844   -2.62901 
 H                    -6.51179   3.20222  -1.27463 
 H                    -6.9104    3.67259  -2.92443 
 C                    -4.90987   4.18356  -2.32011 
 H                    -4.52723   4.2693   -3.33588 
 H                    -5.17134   5.18687  -1.98547 
 O                    -3.92724   3.64314  -1.48431 
 C                    -2.7465    4.38356  -1.41764 
 H                    -2.93944   5.36343  -0.97897 
 H                    -2.33344   4.53588  -2.4124 
 C                    -1.73332   3.64575  -0.56687 
 H                    -0.88469   4.29862  -0.39438 
 H                    -2.17448   3.41062   0.39778 
 O                    -1.2462    2.49807  -1.19993 
 C                    -1.88162   1.27929  -0.90559 
 H                    -1.78464   0.65791  -1.78713 
 H                    -2.93691   1.43651  -0.71718 
 C                    -1.25437   0.55455   0.27387 
 H                    -1.89277  -0.28013   0.54152 
 H                    -1.19494   1.21556   1.13759 
 O                     0.        0.        0. 
 C                     1.09604   0.87077   0. 
 H                     1.07624   1.49934   0.88852 
 H                     1.0816    1.51833  -0.86656 
 C                     2.34367   0.        0. 
 H                     2.35877  -0.60381  -0.89885 
 H                     2.31357  -0.65973   0.85652 
 S                     3.83093   1.04721   0.04742 
 C                     5.14323  -0.17592  -0.24924 
 H                     4.89405  -0.76717  -1.12122 
 H                     6.01699   0.41278  -0.49679 
 C                     5.42928  -1.0779    0.94868 
 H                     4.54482  -1.64295   1.21306 
 H                     5.70017  -0.48601   1.81358 
 S                     6.703    -2.34673   0.66284 
 C                     8.26015  -1.39365   0.69238 
 H                     8.97753  -2.00541   1.22263 
 H                     8.11145  -0.5001    1.28372 
 C                     8.80631  -1.06533  -0.69751 
 H                     8.9237   -1.98108  -1.26135 
 H                     8.12444  -0.4381   -1.25664 
 S                     10.44746  -0.26889  -0.66634 
 C                     10.05776   1.49822  -0.86301 
 H                     11.0183   1.95753  -1.06462 
 H                     9.4562    1.62351  -1.75588 
 C                     9.39948   2.17673   0.33397 
 H                     9.29502   3.24126   0.14439 
 H                     8.40752   1.78211   0.52461 
 H                     9.99322   2.04611   1.23123 
 
 ITRead=  0  0  0  0  0  0  0  0  0  0  0  0  0  0  0  0  0  0  0  0
 ITRead=  0  0  0  0  0  0  0  0  0  0  0  0  0  0  0  0  0  0  0  0
 ITRead=  0  0  0  0  0  0  0  0  0  0
 MicOpt= -1 -1 -1 -1 -1 -1 -1 -1 -1 -1 -1 -1 -1 -1 -1 -1 -1 -1 -1 -1
 MicOpt= -1 -1 -1 -1 -1 -1 -1 -1 -1 -1 -1 -1 -1 -1 -1 -1 -1 -1 -1 -1
 MicOpt= -1 -1 -1 -1 -1 -1 -1 -1 -1 -1
 NAtoms=     50 NQM=       50 NQMF=       0 NMMI=      0 NMMIF=      0
                NMic=       0 NMicF=      0.
                          Input orientation:                          
 ---------------------------------------------------------------------
 Center     Atomic      Atomic             Coordinates (Angstroms)
 Number     Number       Type             X           Y           Z
 ---------------------------------------------------------------------
      1          6           0       -6.126228    3.279602   -2.285035
      2          1           0       -5.867822    2.284396   -2.629010
      3          1           0       -6.511793    3.202219   -1.274628
      4          1           0       -6.910397    3.672591   -2.924427
      5          6           0       -4.909871    4.183556   -2.320110
      6          1           0       -4.527234    4.269299   -3.335875
      7          1           0       -5.171339    5.186874   -1.985468
      8          8           0       -3.927235    3.643142   -1.484311
      9          6           0       -2.746504    4.383557   -1.417643
     10          1           0       -2.939442    5.363426   -0.978968
     11          1           0       -2.333438    4.535878   -2.412398
     12          6           0       -1.733322    3.645749   -0.566873
     13          1           0       -0.884692    4.298620   -0.394375
     14          1           0       -2.174479    3.410623    0.397777
     15          8           0       -1.246197    2.498067   -1.199927
     16          6           0       -1.881620    1.279292   -0.905586
     17          1           0       -1.784642    0.657912   -1.787133
     18          1           0       -2.936913    1.436509   -0.717182
     19          6           0       -1.254365    0.554548    0.273866
     20          1           0       -1.892770   -0.280127    0.541517
     21          1           0       -1.194939    1.215561    1.137593
     22          8           0        0.000000    0.000000    0.000000
     23          6           0        1.096035    0.870765    0.000000
     24          1           0        1.076235    1.499335    0.888518
     25          1           0        1.081601    1.518330   -0.866555
     26          6           0        2.343666    0.000000    0.000000
     27          1           0        2.358774   -0.603808   -0.898849
     28          1           0        2.313569   -0.659725    0.856523
     29         16           0        3.830934    1.047212    0.047422
     30          6           0        5.143229   -0.175924   -0.249237
     31          1           0        4.894052   -0.767171   -1.121215
     32          1           0        6.016987    0.412782   -0.496789
     33          6           0        5.429275   -1.077900    0.948684
     34          1           0        4.544819   -1.642946    1.213057
     35          1           0        5.700170   -0.486011    1.813576
     36         16           0        6.703002   -2.346726    0.662838
     37          6           0        8.260149   -1.393654    0.692381
     38          1           0        8.977527   -2.005412    1.222632
     39          1           0        8.111451   -0.500104    1.283717
     40          6           0        8.806313   -1.065328   -0.697512
     41          1           0        8.923701   -1.981075   -1.261352
     42          1           0        8.124437   -0.438104   -1.256644
     43         16           0       10.447463   -0.268894   -0.666336
     44          6           0       10.057762    1.498221   -0.863010
     45          1           0       11.018298    1.957534   -1.064623
     46          1           0        9.456199    1.623510   -1.755884
     47          6           0        9.399482    2.176730    0.333970
     48          1           0        9.295021    3.241259    0.144392
     49          1           0        8.407524    1.782113    0.524605
     50          1           0        9.993221    2.046107    1.231232
 ---------------------------------------------------------------------
 Stoichiometry    C14H30O3S3
 Framework group  C1[X(C14H30O3S3)]
 Standard basis: 6-31G(d) (6D, 7F)
   372 basis functions,   752 primitive gaussians,   372 cartesian basis functions
    93 alpha electrons       93 beta electrons
 Requested convergence on RMS density matrix=1.00D-08 within  64 cycles.
 Requested convergence on MAX density matrix=1.00D-06.
 Requested convergence on             energy=1.00D-06.
 SCF Done:  E(RHF) =  -1964.69215273     A.U. after   13 cycles
            NFock= 13  Conv=0.50D-08     -V/T= 2.0006
 Mulliken charges:
     1  C   -0.490960
     2  H    0.174065
     3  H    0.172692
     4  H    0.159645
     5  C    0.024006
     6  H    0.143493
     7  H    0.138139
     8  O   -0.628473
     9  C    0.017614
    10  H    0.134495
    11  H    0.154735
    12  C   -0.007005
    13  H    0.169545
    14  H    0.152687
    15  O   -0.636210
    16  C   -0.019491
    17  H    0.179522
    18  H    0.177019
    19  C   -0.003226
    20  H    0.169375
    21  H    0.141145
    22  O   -0.636131
    23  C    0.018064
    24  H    0.145377
    25  H    0.190895
    26  C   -0.477939
    27  H    0.200099
    28  H    0.197829
    29  S    0.108544
    30  C   -0.475099
    31  H    0.209630
    32  H    0.194784
    33  C   -0.472869
    34  H    0.208278
    35  H    0.206291
    36  S    0.115529
    37  C   -0.475770
    38  H    0.217392
    39  H    0.199682
    40  C   -0.473508
    41  H    0.216116
    42  H    0.194257
    43  S    0.111556
    44  C   -0.471868
    45  H    0.200905
    46  H    0.190643
    47  C   -0.475630
    48  H    0.171329
    49  H    0.157708
    50  H    0.181092
 Sum of Mulliken charges =  -0.00000
 Dipole moment (field-independent basis, Debye):
    X=             -3.3337    Y=              3.5245    Z=              0.0053  Tot=              4.8514
 Quadrupole moment (field-independent basis, Debye-Ang):
   XX=           -161.7453   YY=           -141.5850   ZZ=           -148.6130
   XY=              8.3836   XZ=              3.5985   YZ=             -1.9064
 Traceless Quadrupole moment (field-independent basis, Debye-Ang):
   XX=            -11.0976   YY=              9.0628   ZZ=              2.0348
   XY=              8.3836   XZ=              3.5985   YZ=             -1.9064
 Octapole moment (field-independent basis, Debye-Ang**2):
  XXX=          -1721.3822  YYY=           -322.7824  ZZZ=            176.4955  XYY=           -516.9180
  XXY=             63.5199  XXZ=             51.4414  XZZ=           -489.5068  YZZ=           -124.8477
  YYZ=             34.6078  XYZ=             17.4753
 Hexadecapole moment (field-independent basis, Debye-Ang**3):
 XXXX=         -37468.7182 YYYY=          -4165.6582 ZZZZ=          -1134.5466 XXXY=           3394.2529
 XXXZ=           -210.8549 YYYX=           1778.8407 YYYZ=            667.1067 ZZZX=           -592.8538
 ZZZY=            737.5081 XXYY=          -6055.3512 XXZZ=          -5826.4742 YYZZ=           -896.5408
 XXYZ=             59.0202 YYXZ=           -168.3752 ZZXY=            590.9878
 Merz-Kollman atomic radii used.
 Atom Element Radius
    1     6    1.50
    2     1    1.20
    3     1    1.20
    4     1    1.20
    5     6    1.50
    6     1    1.20
    7     1    1.20
    8     8    1.40
    9     6    1.50
   10     1    1.20
   11     1    1.20
   12     6    1.50
   13     1    1.20
   14     1    1.20
   15     8    1.40
   16     6    1.50
   17     1    1.20
   18     1    1.20
   19     6    1.50
   20     1    1.20
   21     1    1.20
   22     8    1.40
   23     6    1.50
   24     1    1.20
   25     1    1.20
   26     6    1.50
   27     1    1.20
   28     1    1.20
   29    16    1.75
   30     6    1.50
   31     1    1.20
   32     1    1.20
   33     6    1.50
   34     1    1.20
   35     1    1.20
   36    16    1.75
   37     6    1.50
   38     1    1.20
   39     1    1.20
   40     6    1.50
   41     1    1.20
   42     1    1.20
   43    16    1.75
   44     6    1.50
   45     1    1.20
   46     1    1.20
   47     6    1.50
   48     1    1.20
   49     1    1.20
   50     1    1.20
 Generate VDW surfaces: Layer= 4 Dens= 1 Start= 1.400 Inc= 0.200
            Electrostatic Properties Using The SCF Density.


       Atomic Center    1 is at  -6.126228  3.279602 -2.285035
       Atomic Center    2 is at  -5.867822  2.284396 -2.629010
       Atomic Center    3 is at  -6.511793  3.202219 -1.274628
       Atomic Center    4 is at  -6.910397  3.672591 -2.924427
       Atomic Center    5 is at  -4.909871  4.183556 -2.320110
       Atomic Center    6 is at  -4.527234  4.269299 -3.335875
       Atomic Center    7 is at  -5.171339  5.186874 -1.985468
       Atomic Center    8 is at  -3.927235  3.643142 -1.484311
       Atomic Center    9 is at  -2.746504  4.383557 -1.417643
       Atomic Center   10 is at  -2.939442  5.363426 -0.978968
       Atomic Center   11 is at  -2.333438  4.535878 -2.412398
       Atomic Center   12 is at  -1.733322  3.645749 -0.566873
       Atomic Center   13 is at  -0.884692  4.298620 -0.394375
       Atomic Center   14 is at  -2.174479  3.410623  0.397777
       Atomic Center   15 is at  -1.246197  2.498067 -1.199927
       Atomic Center   16 is at  -1.881620  1.279292 -0.905586
       Atomic Center   17 is at  -1.784642  0.657912 -1.787133
       Atomic Center   18 is at  -2.936913  1.436509 -0.717182
       Atomic Center   19 is at  -1.254365  0.554548  0.273866
       Atomic Center   20 is at  -1.892770 -0.280127  0.541517
       Atomic Center   21 is at  -1.194939  1.215561  1.137593
       Atomic Center   22 is at   0.000000  0.000000  0.000000
       Atomic Center   23 is at   1.096035  0.870765  0.000000
       Atomic Center   24 is at   1.076235  1.499335  0.888518
       Atomic Center   25 is at   1.081601  1.518330 -0.866555
       Atomic Center   26 is at   2.343666  0.000000  0.000000
       Atomic Center   27 is at   2.358774 -0.603808 -0.898849
       Atomic Center   28 is at   2.313569 -0.659725  0.856523
       Atomic Center   29 is at   3.830934  1.047212  0.047422
       Atomic Center   30 is at   5.143229 -0.175924 -0.249237
       Atomic Center   31 is at   4.894052 -0.767171 -1.121215
       Atomic Center   32 is at   6.016987  0.412782 -0.496789
       Atomic Center   33 is at   5.429275 -1.077900  0.948684
       Atomic Center   34 is at   4.544819 -1.642946  1.213057
       Atomic Center   35 is at   5.700170 -0.486011  1.813576
       Atomic Center   36 is at   6.703002 -2.346726  0.662838
       Atomic Center   37 is at   8.260149 -1.393654  0.692381
       Atomic Center   38 is at   8.977527 -2.005412  1.222632
       Atomic Center   39 is at   8.111451 -0.500104  1.283717
       Atomic Center   40 is at   8.806313 -1.065328 -0.697512
       Atomic Center   41 is at   8.923701 -1.981075 -1.261352
       Atomic Center   42 is at   8.124437 -0.438104 -1.256644
       Atomic Center   43 is at  10.447463 -0.268894 -0.666336
       Atomic Center   44 is at  10.057762  1.498221 -0.863010
       Atomic Center   45 is at  11.018298  1.957534 -1.064623
       Atomic Center   46 is at   9.456199  1.623510 -1.755884
       Atomic Center   47 is at   9.399482  2.176730  0.333970
       Atomic Center   48 is at   9.295021  3.241259  0.144392
       Atomic Center   49 is at   8.407524  1.782113  0.524605
       Atomic Center   50 is at   9.993221  2.046107  1.231232
      ESP Fit Center   51 is at  -6.385049  1.479460 -1.235035
      ESP Fit Center   52 is at  -6.870898  5.243136 -2.285035
      ESP Fit Center   53 is at  -7.698101  1.887044 -2.285035
      ESP Fit Center   54 is at  -6.126228  3.279602 -4.385035
      ESP Fit Center   55 is at  -5.562674  1.345247 -1.269861
      ESP Fit Center   56 is at  -6.666709  0.900682 -2.109861
      ESP Fit Center   57 is at  -5.590371  0.710895 -2.109861
      ESP Fit Center   58 is at  -4.643855  1.257366 -2.109861
      ESP Fit Center   59 is at  -4.270047  2.284396 -3.148159
      ESP Fit Center   60 is at  -7.369239  1.737925 -3.148159
      ESP Fit Center   61 is at  -6.666709  0.900682 -3.148159
      ESP Fit Center   62 is at  -5.590371  0.710895 -3.148159
      ESP Fit Center   63 is at  -4.643855  1.257366 -3.148159
      ESP Fit Center   64 is at  -4.880343  2.284396 -3.988159
      ESP Fit Center   65 is at  -6.666709  1.703970 -3.988159
      ESP Fit Center   66 is at  -5.562674  1.345247 -3.988159
      ESP Fit Center   67 is at  -5.867822  2.284396 -4.309010
      ESP Fit Center   68 is at  -6.511793  3.202219  0.405372
      ESP Fit Center   69 is at  -5.524314  3.202219  0.084521
      ESP Fit Center   70 is at  -6.206645  4.141368  0.084521
      ESP Fit Center   71 is at  -7.310680  3.782645  0.084521
      ESP Fit Center   72 is at  -7.310680  2.621793  0.084521
      ESP Fit Center   73 is at  -6.206645  2.263070  0.084521
      ESP Fit Center   74 is at  -7.310680  4.585933 -0.755479
      ESP Fit Center   75 is at  -8.013210  3.748690 -0.755479
      ESP Fit Center   76 is at  -8.013210  2.655748 -0.755479
      ESP Fit Center   77 is at  -7.310680  1.818505 -0.755479
      ESP Fit Center   78 is at  -6.234342  1.628718 -0.755479
      ESP Fit Center   79 is at  -7.709284  5.056305 -2.405278
      ESP Fit Center   80 is at  -8.411814  4.219062 -2.405278
      ESP Fit Center   81 is at  -8.411814  3.126120 -2.405278
      ESP Fit Center   82 is at  -6.632946  5.246092 -3.443576
      ESP Fit Center   83 is at  -7.709284  5.056305 -3.443576
      ESP Fit Center   84 is at  -8.411814  4.219062 -3.443576
      ESP Fit Center   85 is at  -8.411814  3.126120 -3.443576
      ESP Fit Center   86 is at  -7.709284  2.288877 -3.443576
      ESP Fit Center   87 is at  -6.605249  4.611740 -4.283576
      ESP Fit Center   88 is at  -7.709284  4.253017 -4.283576
      ESP Fit Center   89 is at  -7.709284  3.092165 -4.283576
      ESP Fit Center   90 is at  -6.605249  2.733442 -4.283576
      ESP Fit Center   91 is at  -6.910397  3.672591 -4.604427
      ESP Fit Center   92 is at  -6.100836  5.558002 -3.370110
      ESP Fit Center   93 is at  -4.154375  2.529251 -3.370110
      ESP Fit Center   94 is at  -3.303267  5.296329 -3.855024
      ESP Fit Center   95 is at  -4.249783  5.842800 -3.855024
      ESP Fit Center   96 is at  -5.326121  5.653013 -3.855024
      ESP Fit Center   97 is at  -4.249783  2.695798 -3.855024
      ESP Fit Center   98 is at  -3.303267  3.242269 -3.855024
      ESP Fit Center   99 is at  -3.539755  4.269299 -4.695024
      ESP Fit Center  100 is at  -4.222086  5.208448 -4.695024
      ESP Fit Center  101 is at  -5.326121  4.849725 -4.695024
      ESP Fit Center  102 is at  -5.326121  3.688873 -4.695024
      ESP Fit Center  103 is at  -4.222086  3.330150 -4.695024
      ESP Fit Center  104 is at  -4.527234  4.269299 -5.015875
      ESP Fit Center  105 is at  -5.171339  5.186874 -0.305468
      ESP Fit Center  106 is at  -4.866191  6.126023 -0.626319
      ESP Fit Center  107 is at  -5.970226  5.767300 -0.626319
      ESP Fit Center  108 is at  -4.893888  6.760375 -1.466319
      ESP Fit Center  109 is at  -5.970226  6.570588 -1.466319
      ESP Fit Center  110 is at  -6.672756  5.733345 -1.466319
      ESP Fit Center  111 is at  -3.947372  6.213904 -2.504617
      ESP Fit Center  112 is at  -4.893888  6.760375 -2.504617
      ESP Fit Center  113 is at  -5.970226  6.570588 -2.504617
      ESP Fit Center  114 is at  -6.672756  5.733345 -2.504617
      ESP Fit Center  115 is at  -4.866191  6.126023 -3.344617
      ESP Fit Center  116 is at  -5.970226  5.767300 -3.344617
      ESP Fit Center  117 is at  -3.927235  3.643142  0.475689
      ESP Fit Center  118 is at  -4.417235  4.491847  0.213099
      ESP Fit Center  119 is at  -4.907235  3.643142  0.213099
      ESP Fit Center  120 is at  -4.417235  2.794437  0.213099
      ESP Fit Center  121 is at  -3.402707  2.028809 -2.464311
      ESP Fit Center  122 is at  -3.437235  2.794437 -3.181721
      ESP Fit Center  123 is at  -3.796504  4.383557  0.401010
      ESP Fit Center  124 is at  -3.005325  6.183699 -2.467643
      ESP Fit Center  125 is at  -2.939442  5.363426  0.701032
      ESP Fit Center  126 is at  -2.634294  6.302575  0.380181
      ESP Fit Center  127 is at  -3.738329  5.943852  0.380181
      ESP Fit Center  128 is at  -1.715475  6.390456 -0.459819
      ESP Fit Center  129 is at  -2.661991  6.936927 -0.459819
      ESP Fit Center  130 is at  -3.738329  6.747140 -0.459819
      ESP Fit Center  131 is at  -4.440859  5.909897 -0.459819
      ESP Fit Center  132 is at  -1.715475  6.390456 -1.498117
      ESP Fit Center  133 is at  -2.661991  6.936927 -1.498117
      ESP Fit Center  134 is at  -3.738329  6.747140 -1.498117
      ESP Fit Center  135 is at  -2.634294  6.302575 -2.338117
      ESP Fit Center  136 is at  -0.735663  4.535878 -2.931547
      ESP Fit Center  137 is at  -1.109471  5.562908 -2.931547
      ESP Fit Center  138 is at  -2.055987  6.109379 -2.931547
      ESP Fit Center  139 is at  -3.132325  5.919592 -2.931547
      ESP Fit Center  140 is at  -2.055987  2.962377 -2.931547
      ESP Fit Center  141 is at  -1.109471  3.508848 -2.931547
      ESP Fit Center  142 is at  -1.345959  4.535878 -3.771547
      ESP Fit Center  143 is at  -2.028290  5.475027 -3.771547
      ESP Fit Center  144 is at  -3.132325  5.116304 -3.771547
      ESP Fit Center  145 is at  -2.028290  3.596729 -3.771547
      ESP Fit Center  146 is at  -2.333438  4.535878 -4.092398
      ESP Fit Center  147 is at  -0.683322  3.645749  1.251780
      ESP Fit Center  148 is at  -1.208322  4.555076  1.251780
      ESP Fit Center  149 is at  -1.992143  5.445891  0.483127
      ESP Fit Center  150 is at  -0.203373  2.662511  0.483127
      ESP Fit Center  151 is at  -0.884692  4.298620  1.285625
      ESP Fit Center  152 is at   0.102787  4.298620  0.964774
      ESP Fit Center  153 is at  -0.579544  5.237769  0.964774
      ESP Fit Center  154 is at   0.713083  4.298620  0.124774
      ESP Fit Center  155 is at   0.339275  5.325650  0.124774
      ESP Fit Center  156 is at  -0.607241  5.872121  0.124774
      ESP Fit Center  157 is at  -1.683579  5.682334  0.124774
      ESP Fit Center  158 is at   0.339275  3.271590  0.124774
      ESP Fit Center  159 is at   0.713083  4.298620 -0.913524
      ESP Fit Center  160 is at   0.339275  5.325650 -0.913524
      ESP Fit Center  161 is at  -0.607241  5.872121 -0.913524
      ESP Fit Center  162 is at   0.102787  4.298620 -1.753524
      ESP Fit Center  163 is at  -0.579544  5.237769 -1.753524
      ESP Fit Center  164 is at  -2.174479  3.410623  2.077777
      ESP Fit Center  165 is at  -1.187000  3.410623  1.756926
      ESP Fit Center  166 is at  -1.869331  4.349772  1.756926
      ESP Fit Center  167 is at  -2.973366  3.991049  1.756926
      ESP Fit Center  168 is at  -2.973366  2.830197  1.756926
      ESP Fit Center  169 is at  -2.973366  4.794337  0.916926
      ESP Fit Center  170 is at  -3.675896  3.957094  0.916926
      ESP Fit Center  171 is at  -3.675896  2.864152  0.916926
      ESP Fit Center  172 is at  -2.973366  2.026909  0.916926
      ESP Fit Center  173 is at  -0.266197  2.498067  0.497483
      ESP Fit Center  174 is at   0.451213  3.478067 -1.199927
      ESP Fit Center  175 is at   0.451213  2.498067 -2.179927
      ESP Fit Center  176 is at   0.127036  3.495779 -2.179927
      ESP Fit Center  177 is at  -0.266197  2.498067 -2.897337
      ESP Fit Center  178 is at  -0.756197  3.346772 -2.897337
      ESP Fit Center  179 is at  -2.226197  2.498067 -2.897337
      ESP Fit Center  180 is at  -0.756197  1.649362 -2.897337
      ESP Fit Center  181 is at  -1.246197  2.498067 -3.159927
      ESP Fit Center  182 is at  -2.583529 -0.725802 -1.267984
      ESP Fit Center  183 is at  -1.507191 -0.915589 -1.267984
      ESP Fit Center  184 is at  -0.186867  0.657912 -2.306282
      ESP Fit Center  185 is at  -3.286059  0.111441 -2.306282
      ESP Fit Center  186 is at  -2.583529 -0.725802 -2.306282
      ESP Fit Center  187 is at  -1.507191 -0.915589 -2.306282
      ESP Fit Center  188 is at  -0.560675 -0.369118 -2.306282
      ESP Fit Center  189 is at  -0.797163  0.657912 -3.146282
      ESP Fit Center  190 is at  -1.479494  1.597061 -3.146282
      ESP Fit Center  191 is at  -2.583529  1.238338 -3.146282
      ESP Fit Center  192 is at  -2.583529  0.077486 -3.146282
      ESP Fit Center  193 is at  -1.479494 -0.281237 -3.146282
      ESP Fit Center  194 is at  -1.784642  0.657912 -3.467133
      ESP Fit Center  195 is at  -3.735800  2.016935  0.641967
      ESP Fit Center  196 is at  -3.735800  0.856083  0.641967
      ESP Fit Center  197 is at  -4.438330  1.982980 -0.198033
      ESP Fit Center  198 is at  -4.438330  0.890038 -0.198033
      ESP Fit Center  199 is at  -3.735800  0.052795 -0.198033
      ESP Fit Center  200 is at  -4.438330  0.890038 -1.236331
      ESP Fit Center  201 is at  -3.735800  0.052795 -1.236331
      ESP Fit Center  202 is at  -3.735800  0.856083 -2.076331
      ESP Fit Center  203 is at  -0.729365 -0.354779  2.092519
      ESP Fit Center  204 is at  -2.999350  1.066922  1.323866
      ESP Fit Center  205 is at  -1.892770 -0.280127  2.221517
      ESP Fit Center  206 is at  -2.691657  0.300299  1.900666
      ESP Fit Center  207 is at  -2.691657 -0.860553  1.900666
      ESP Fit Center  208 is at  -1.587622 -1.219276  1.900666
      ESP Fit Center  209 is at  -3.394187  0.266344  1.060666
      ESP Fit Center  210 is at  -3.394187 -0.826598  1.060666
      ESP Fit Center  211 is at  -2.691657 -1.663841  1.060666
      ESP Fit Center  212 is at  -1.615319 -1.853628  1.060666
      ESP Fit Center  213 is at  -3.394187 -0.826598  0.022368
      ESP Fit Center  214 is at  -2.691657 -1.663841  0.022368
      ESP Fit Center  215 is at  -1.615319 -1.853628  0.022368
      ESP Fit Center  216 is at  -2.691657 -0.860553 -0.817632
      ESP Fit Center  217 is at  -1.587622 -1.219276 -0.817632
      ESP Fit Center  218 is at  -1.194939  1.215561  2.817593
      ESP Fit Center  219 is at  -0.207460  1.215561  2.496742
      ESP Fit Center  220 is at  -0.889791  2.154710  2.496742
      ESP Fit Center  221 is at  -1.993826  1.795987  2.496742
      ESP Fit Center  222 is at  -1.993826  0.635135  2.496742
      ESP Fit Center  223 is at  -0.889791  0.276412  2.496742
      ESP Fit Center  224 is at  -0.917488  2.789062  1.656742
      ESP Fit Center  225 is at  -2.696356  1.762032  1.656742
      ESP Fit Center  226 is at   0.000000  0.000000  1.960000
      ESP Fit Center  227 is at  -0.490000 -0.848705  1.697410
      ESP Fit Center  228 is at   0.490000 -0.848705  1.697410
      ESP Fit Center  229 is at  -0.524528 -1.614333  0.980000
      ESP Fit Center  230 is at   0.524528 -1.614333  0.980000
      ESP Fit Center  231 is at  -0.980000 -1.697410  0.000000
      ESP Fit Center  232 is at  -0.000000 -1.960000  0.000000
      ESP Fit Center  233 is at   0.980000 -1.697410  0.000000
      ESP Fit Center  234 is at  -0.524528 -1.614333 -0.980000
      ESP Fit Center  235 is at   0.524528 -1.614333 -0.980000
      ESP Fit Center  236 is at  -0.490000 -0.848705 -1.697410
      ESP Fit Center  237 is at   0.490000 -0.848705 -1.697410
      ESP Fit Center  238 is at   0.000000  0.000000 -1.960000
      ESP Fit Center  239 is at   1.349162  2.955454  0.000000
      ESP Fit Center  240 is at   0.351365  2.834299  0.000000
      ESP Fit Center  241 is at   1.076235  1.499335  2.568518
      ESP Fit Center  242 is at   2.063714  1.499335  2.247667
      ESP Fit Center  243 is at   1.381383  2.438484  2.247667
      ESP Fit Center  244 is at   0.277348  2.079761  2.247667
      ESP Fit Center  245 is at   0.277348  0.918909  2.247667
      ESP Fit Center  246 is at   1.381383  0.560186  2.247667
      ESP Fit Center  247 is at   2.300202  2.526365  1.407667
      ESP Fit Center  248 is at   1.353686  3.072836  1.407667
      ESP Fit Center  249 is at   0.277348  2.883049  1.407667
      ESP Fit Center  250 is at   1.353686  3.072836  0.369369
      ESP Fit Center  251 is at   0.277348  2.883049  0.369369
      ESP Fit Center  252 is at   1.359052  3.091831 -0.347406
      ESP Fit Center  253 is at   2.305568  2.545360 -1.385704
      ESP Fit Center  254 is at   1.359052  3.091831 -1.385704
      ESP Fit Center  255 is at   2.069080  1.518330 -2.225704
      ESP Fit Center  256 is at   1.386749  2.457479 -2.225704
      ESP Fit Center  257 is at   0.282714  0.937904 -2.225704
      ESP Fit Center  258 is at   1.386749  0.579181 -2.225704
      ESP Fit Center  259 is at   1.081601  1.518330 -2.546555
      ESP Fit Center  260 is at   1.598996 -1.963534  0.000000
      ESP Fit Center  261 is at   2.596793 -2.084689  0.000000
      ESP Fit Center  262 is at   1.559887 -1.987522 -0.379700
      ESP Fit Center  263 is at   2.636225 -2.177309 -0.379700
      ESP Fit Center  264 is at   0.857357 -1.150279 -1.417998
      ESP Fit Center  265 is at   1.559887 -1.987522 -1.417998
      ESP Fit Center  266 is at   2.636225 -2.177309 -1.417998
      ESP Fit Center  267 is at   3.346253 -0.603808 -2.257998
      ESP Fit Center  268 is at   2.663922  0.335341 -2.257998
      ESP Fit Center  269 is at   1.559887 -0.023382 -2.257998
      ESP Fit Center  270 is at   1.559887 -1.184234 -2.257998
      ESP Fit Center  271 is at   2.663922 -1.542957 -2.257998
      ESP Fit Center  272 is at   2.358774 -0.603808 -2.578849
      ESP Fit Center  273 is at   2.313569 -0.659725  2.536523
      ESP Fit Center  274 is at   3.301048 -0.659725  2.215672
      ESP Fit Center  275 is at   2.618717  0.279424  2.215672
      ESP Fit Center  276 is at   1.514682 -0.079299  2.215672
      ESP Fit Center  277 is at   1.514682 -1.240151  2.215672
      ESP Fit Center  278 is at   2.618717 -1.598874  2.215672
      ESP Fit Center  279 is at   0.812152 -1.206196  1.375672
      ESP Fit Center  280 is at   1.514682 -2.043439  1.375672
      ESP Fit Center  281 is at   2.591020 -2.233226  1.375672
      ESP Fit Center  282 is at   1.514682 -2.043439  0.337374
      ESP Fit Center  283 is at   2.591020 -2.233226  0.337374
      ESP Fit Center  284 is at   3.830934  1.047212  2.497422
      ESP Fit Center  285 is at   4.893949  1.047212  2.254796
      ESP Fit Center  286 is at   4.362442  1.967810  2.254796
      ESP Fit Center  287 is at   3.299426  1.967810  2.254796
      ESP Fit Center  288 is at   2.767919  1.047212  2.254796
      ESP Fit Center  289 is at   3.299426  0.126614  2.254796
      ESP Fit Center  290 is at   5.442344  2.082803  1.574972
      ESP Fit Center  291 is at   4.626656  2.789600  1.574972
      ESP Fit Center  292 is at   3.558332  2.943202  1.574972
      ESP Fit Center  293 is at   2.576557  2.494841  1.574972
      ESP Fit Center  294 is at   5.982964  2.083575  0.592598
      ESP Fit Center  295 is at   5.320185  2.914674  0.592598
      ESP Fit Center  296 is at   4.362442  3.375899  0.592598
      ESP Fit Center  297 is at   3.299426  3.375899  0.592598
      ESP Fit Center  298 is at   2.341683  2.914674  0.592598
      ESP Fit Center  299 is at   5.320185  2.914674 -0.497754
      ESP Fit Center  300 is at   4.362442  3.375899 -0.497754
      ESP Fit Center  301 is at   3.299426  3.375899 -0.497754
      ESP Fit Center  302 is at   2.341683  2.914674 -0.497754
      ESP Fit Center  303 is at   5.442344  2.082803 -1.480128
      ESP Fit Center  304 is at   4.626656  2.789600 -1.480128
      ESP Fit Center  305 is at   3.558332  2.943202 -1.480128
      ESP Fit Center  306 is at   2.576557  2.494841 -1.480128
      ESP Fit Center  307 is at   4.893949  1.047212 -2.159952
      ESP Fit Center  308 is at   4.362442  1.967810 -2.159952
      ESP Fit Center  309 is at   3.299426  1.967810 -2.159952
      ESP Fit Center  310 is at   2.767919  1.047212 -2.159952
      ESP Fit Center  311 is at   3.299426  0.126614 -2.159952
      ESP Fit Center  312 is at   3.830934  1.047212 -2.402578
      ESP Fit Center  313 is at   6.193229 -0.175924 -2.067890
      ESP Fit Center  314 is at   4.095165 -2.150885 -0.602066
      ESP Fit Center  315 is at   4.095165 -2.150885 -1.640364
      ESP Fit Center  316 is at   5.171503 -2.340672 -1.640364
      ESP Fit Center  317 is at   5.881531 -0.767171 -2.480364
      ESP Fit Center  318 is at   5.199200  0.171978 -2.480364
      ESP Fit Center  319 is at   4.095165 -0.186745 -2.480364
      ESP Fit Center  320 is at   4.095165 -1.347597 -2.480364
      ESP Fit Center  321 is at   5.199200 -1.706320 -2.480364
      ESP Fit Center  322 is at   4.894052 -0.767171 -2.801215
      ESP Fit Center  323 is at   6.322135  1.351931  0.862360
      ESP Fit Center  324 is at   6.294438  1.986283  0.022360
      ESP Fit Center  325 is at   7.240954  1.439812 -1.015938
      ESP Fit Center  326 is at   6.294438  1.986283 -1.015938
      ESP Fit Center  327 is at   6.322135  1.351931 -1.855938
      ESP Fit Center  328 is at   6.016987  0.412782 -2.176789
      ESP Fit Center  329 is at   4.544819 -1.642946  2.893057
      ESP Fit Center  330 is at   3.745932 -1.062520  2.572206
      ESP Fit Center  331 is at   3.745932 -2.223372  2.572206
      ESP Fit Center  332 is at   4.849967 -2.582095  2.572206
      ESP Fit Center  333 is at   3.043402 -2.189417  1.732206
      ESP Fit Center  334 is at   3.745932 -3.026660  1.732206
      ESP Fit Center  335 is at   3.043402 -2.189417  0.693908
      ESP Fit Center  336 is at   3.745932 -3.026660  0.693908
      ESP Fit Center  337 is at   3.745932 -2.223372 -0.146092
      ESP Fit Center  338 is at   5.700170 -0.486011  3.493576
      ESP Fit Center  339 is at   6.687649 -0.486011  3.172725
      ESP Fit Center  340 is at   6.005318  0.453138  3.172725
      ESP Fit Center  341 is at   4.901283  0.094415  3.172725
      ESP Fit Center  342 is at   4.901283 -1.066437  3.172725
      ESP Fit Center  343 is at   6.005318 -1.425160  3.172725
      ESP Fit Center  344 is at   6.924137  0.541019  2.332725
      ESP Fit Center  345 is at   5.977621  1.087490  2.332725
      ESP Fit Center  346 is at   4.901283  0.897703  2.332725
      ESP Fit Center  347 is at   4.198753  0.060460  2.332725
      ESP Fit Center  348 is at   5.977621  1.087490  1.294427
      ESP Fit Center  349 is at   6.703002 -2.346726  3.112838
      ESP Fit Center  350 is at   7.766017 -2.346726  2.870212
      ESP Fit Center  351 is at   7.234510 -1.426128  2.870212
      ESP Fit Center  352 is at   5.639987 -2.346726  2.870212
      ESP Fit Center  353 is at   6.171494 -3.267324  2.870212
      ESP Fit Center  354 is at   7.234510 -3.267324  2.870212
      ESP Fit Center  355 is at   5.448625 -3.794355  2.190388
      ESP Fit Center  356 is at   6.430400 -4.242716  2.190388
      ESP Fit Center  357 is at   7.498724 -4.089114  2.190388
      ESP Fit Center  358 is at   8.314412 -3.382317  2.190388
      ESP Fit Center  359 is at   4.550972 -3.383089  1.208014
      ESP Fit Center  360 is at   5.213751 -4.214188  1.208014
      ESP Fit Center  361 is at   6.171494 -4.675413  1.208014
      ESP Fit Center  362 is at   7.234510 -4.675413  1.208014
      ESP Fit Center  363 is at   8.192253 -4.214188  1.208014
      ESP Fit Center  364 is at   4.550972 -3.383089  0.117662
      ESP Fit Center  365 is at   5.213751 -4.214188  0.117662
      ESP Fit Center  366 is at   6.171494 -4.675413  0.117662
      ESP Fit Center  367 is at   7.234510 -4.675413  0.117662
      ESP Fit Center  368 is at   8.192253 -4.214188  0.117662
      ESP Fit Center  369 is at   8.855032 -3.383089  0.117662
      ESP Fit Center  370 is at   4.865106 -2.886381 -0.864712
      ESP Fit Center  371 is at   5.448625 -3.794355 -0.864712
      ESP Fit Center  372 is at   6.430400 -4.242716 -0.864712
      ESP Fit Center  373 is at   7.498724 -4.089114 -0.864712
      ESP Fit Center  374 is at   5.639987 -2.346726 -1.544536
      ESP Fit Center  375 is at   6.171494 -3.267324 -1.544536
      ESP Fit Center  376 is at   7.234510 -3.267324 -1.544536
      ESP Fit Center  377 is at   6.703002 -2.346726 -1.787162
      ESP Fit Center  378 is at   8.260149 -1.393654  2.792381
      ESP Fit Center  379 is at   9.790098 -0.410416  1.742381
      ESP Fit Center  380 is at   8.977527 -2.005412  2.902632
      ESP Fit Center  381 is at   9.965006 -2.005412  2.581781
      ESP Fit Center  382 is at   9.282675 -1.066263  2.581781
      ESP Fit Center  383 is at   9.282675 -2.944561  2.581781
      ESP Fit Center  384 is at  10.575302 -2.005412  1.741781
      ESP Fit Center  385 is at  10.201494 -0.978382  1.741781
      ESP Fit Center  386 is at   9.254978 -3.578913  1.741781
      ESP Fit Center  387 is at  10.201494 -3.032442  1.741781
      ESP Fit Center  388 is at   9.254978 -3.578913  0.703483
      ESP Fit Center  389 is at  10.201494 -3.032442  0.703483
      ESP Fit Center  390 is at   8.111451 -0.500104  2.963717
      ESP Fit Center  391 is at   9.098930 -0.500104  2.642866
      ESP Fit Center  392 is at   8.416599  0.439045  2.642866
      ESP Fit Center  393 is at   7.312564  0.080322  2.642866
      ESP Fit Center  394 is at   9.335418  0.526926  1.802866
      ESP Fit Center  395 is at   7.312564  0.883610  1.802866
      ESP Fit Center  396 is at   8.806313 -1.065328 -2.797512
      ESP Fit Center  397 is at   9.201152 -3.554576 -0.742203
      ESP Fit Center  398 is at  10.147668 -3.008105 -0.742203
      ESP Fit Center  399 is at   7.422284 -2.527546 -1.780501
      ESP Fit Center  400 is at   8.124814 -3.364789 -1.780501
      ESP Fit Center  401 is at   9.201152 -3.554576 -1.780501
      ESP Fit Center  402 is at  10.147668 -3.008105 -1.780501
      ESP Fit Center  403 is at   9.911180 -1.981075 -2.620501
      ESP Fit Center  404 is at   8.124814 -2.561501 -2.620501
      ESP Fit Center  405 is at   9.228849 -2.920224 -2.620501
      ESP Fit Center  406 is at   8.923701 -1.981075 -2.941352
      ESP Fit Center  407 is at   7.325550  0.945610 -1.775793
      ESP Fit Center  408 is at   6.623020 -0.984575 -1.775793
      ESP Fit Center  409 is at   8.429585  0.501045 -2.615793
      ESP Fit Center  410 is at   7.325550  0.142322 -2.615793
      ESP Fit Center  411 is at   7.325550 -1.018530 -2.615793
      ESP Fit Center  412 is at   8.124437 -0.438104 -2.936644
      ESP Fit Center  413 is at  10.447463 -0.268894  1.783664
      ESP Fit Center  414 is at  11.510478 -0.268894  1.541038
      ESP Fit Center  415 is at  10.978971  0.651704  1.541038
      ESP Fit Center  416 is at  10.978971 -1.189492  1.541038
      ESP Fit Center  417 is at  12.362950 -0.268894  0.861214
      ESP Fit Center  418 is at  12.058873  0.766697  0.861214
      ESP Fit Center  419 is at  11.243185 -2.011282  0.861214
      ESP Fit Center  420 is at  12.058873 -1.304485  0.861214
      ESP Fit Center  421 is at  12.836036 -0.268894 -0.121160
      ESP Fit Center  422 is at  12.599493  0.767469 -0.121160
      ESP Fit Center  423 is at  10.978971 -2.597581 -0.121160
      ESP Fit Center  424 is at  11.936714 -2.136356 -0.121160
      ESP Fit Center  425 is at  12.599493 -1.305257 -0.121160
      ESP Fit Center  426 is at  12.836036 -0.268894 -1.211512
      ESP Fit Center  427 is at  12.599493  0.767469 -1.211512
      ESP Fit Center  428 is at  10.978971 -2.597581 -1.211512
      ESP Fit Center  429 is at  11.936714 -2.136356 -1.211512
      ESP Fit Center  430 is at  12.599493 -1.305257 -1.211512
      ESP Fit Center  431 is at  12.362950 -0.268894 -2.193886
      ESP Fit Center  432 is at  12.058873  0.766697 -2.193886
      ESP Fit Center  433 is at  11.243185 -2.011282 -2.193886
      ESP Fit Center  434 is at  12.058873 -1.304485 -2.193886
      ESP Fit Center  435 is at  11.510478 -0.268894 -2.873710
      ESP Fit Center  436 is at  10.978971  0.651704 -2.873710
      ESP Fit Center  437 is at   9.384448 -0.268894 -2.873710
      ESP Fit Center  438 is at   9.915955 -1.189492 -2.873710
      ESP Fit Center  439 is at  10.978971 -1.189492 -2.873710
      ESP Fit Center  440 is at  10.447463 -0.268894 -3.116336
      ESP Fit Center  441 is at   9.798941  3.298363 -1.913010
      ESP Fit Center  442 is at  11.107762  1.498221 -2.681663
      ESP Fit Center  443 is at  12.005777  1.957534  0.294526
      ESP Fit Center  444 is at  12.616073  1.957534 -0.545474
      ESP Fit Center  445 is at  12.242265  2.984564 -0.545474
      ESP Fit Center  446 is at  11.295749  3.531035 -0.545474
      ESP Fit Center  447 is at  12.616073  1.957534 -1.583772
      ESP Fit Center  448 is at  12.242265  2.984564 -1.583772
      ESP Fit Center  449 is at  11.295749  3.531035 -1.583772
      ESP Fit Center  450 is at  12.005777  1.957534 -2.423772
      ESP Fit Center  451 is at  11.323446  2.896683 -2.423772
      ESP Fit Center  452 is at  11.018298  1.957534 -2.744623
      ESP Fit Center  453 is at   7.954782  2.169981 -1.236735
      ESP Fit Center  454 is at   9.733650  3.197011 -2.275033
      ESP Fit Center  455 is at   8.657312  3.007224 -2.275033
      ESP Fit Center  456 is at   7.954782  2.169981 -2.275033
      ESP Fit Center  457 is at   7.954782  1.077039 -2.275033
      ESP Fit Center  458 is at  10.443678  1.623510 -3.115033
      ESP Fit Center  459 is at   9.761347  2.562659 -3.115033
      ESP Fit Center  460 is at   8.657312  2.203936 -3.115033
      ESP Fit Center  461 is at   8.657312  1.043084 -3.115033
      ESP Fit Center  462 is at   9.761347  0.684361 -3.115033
      ESP Fit Center  463 is at   9.456199  1.623510 -3.435884
      ESP Fit Center  464 is at   8.874482  3.086057  2.152623
      ESP Fit Center  465 is at  11.258940  3.152649  0.333970
      ESP Fit Center  466 is at   7.654497  2.689104 -0.716030
      ESP Fit Center  467 is at   9.600169  4.180408  1.503541
      ESP Fit Center  468 is at   8.496134  3.821685  1.503541
      ESP Fit Center  469 is at  10.518988  4.268289  0.663541
      ESP Fit Center  470 is at   9.572472  4.814760  0.663541
      ESP Fit Center  471 is at   8.496134  4.624973  0.663541
      ESP Fit Center  472 is at   7.793604  3.787730  0.663541
      ESP Fit Center  473 is at  10.518988  4.268289 -0.374757
      ESP Fit Center  474 is at   9.572472  4.814760 -0.374757
      ESP Fit Center  475 is at   8.496134  4.624973 -0.374757
      ESP Fit Center  476 is at   7.793604  3.787730 -0.374757
      ESP Fit Center  477 is at   9.600169  4.180408 -1.214757
      ESP Fit Center  478 is at   8.496134  3.821685 -1.214757
      ESP Fit Center  479 is at   8.407524  1.782113  2.204605
      ESP Fit Center  480 is at   7.608637  2.362539  1.883754
      ESP Fit Center  481 is at   7.608637  1.201687  1.883754
      ESP Fit Center  482 is at   7.608637  3.165827  1.043754
      ESP Fit Center  483 is at   6.906107  2.328584  1.043754
      ESP Fit Center  484 is at   6.906107  1.235642  1.043754
      ESP Fit Center  485 is at   6.906107  2.328584  0.005456
      ESP Fit Center  486 is at   7.608637  2.362539 -0.834544
      ESP Fit Center  487 is at   7.608637  1.201687 -0.834544
      ESP Fit Center  488 is at   9.993221  2.046107  2.911232
      ESP Fit Center  489 is at  10.980700  2.046107  2.590381
      ESP Fit Center  490 is at  10.298369  2.985256  2.590381
      ESP Fit Center  491 is at   9.194334  2.626533  2.590381
      ESP Fit Center  492 is at   9.194334  1.465681  2.590381
      ESP Fit Center  493 is at  10.298369  1.106958  2.590381
      ESP Fit Center  494 is at  11.590996  2.046107  1.750381
      ESP Fit Center  495 is at  11.217188  3.073137  1.750381
      ESP Fit Center  496 is at  10.270672  3.619608  1.750381
      ESP Fit Center  497 is at  10.270672  0.472606  1.750381
      ESP Fit Center  498 is at  11.217188  1.019077  1.750381
      ESP Fit Center  499 is at  11.590996  2.046107  0.712083
      ESP Fit Center  500 is at  -5.346745  1.572773 -0.788659
      ESP Fit Center  501 is at  -7.585086  5.108952 -1.750985
      ESP Fit Center  502 is at  -8.466055  3.279602 -1.750985
      ESP Fit Center  503 is at  -8.234339  2.264389 -1.750985
      ESP Fit Center  504 is at  -7.585086  1.450252 -1.750985
      ESP Fit Center  505 is at  -8.234339  2.264389 -2.819085
      ESP Fit Center  506 is at  -7.355006  1.861517 -3.781411
      ESP Fit Center  507 is at  -6.646888  2.377792 -4.447360
      ESP Fit Center  508 is at  -6.126228  3.279602 -4.685035
      ESP Fit Center  509 is at  -6.381646  0.703009 -1.669010
      ESP Fit Center  510 is at  -5.353998  0.703009 -1.669010
      ESP Fit Center  511 is at  -7.530591  1.324396 -2.629010
      ESP Fit Center  512 is at  -6.827822  0.621627 -2.629010
      ESP Fit Center  513 is at  -5.867822  0.364396 -2.629010
      ESP Fit Center  514 is at  -4.907822  0.621627 -2.629010
      ESP Fit Center  515 is at  -4.205053  1.324396 -2.629010
      ESP Fit Center  516 is at  -7.213030  1.307045 -3.589010
      ESP Fit Center  517 is at  -6.381646  0.703009 -3.589010
      ESP Fit Center  518 is at  -5.353998  0.703009 -3.589010
      ESP Fit Center  519 is at  -4.522614  1.307045 -3.589010
      ESP Fit Center  520 is at  -4.907822  2.284396 -4.291779
      ESP Fit Center  521 is at  -6.347822  1.453012 -4.291779
      ESP Fit Center  522 is at  -5.387822  1.453012 -4.291779
      ESP Fit Center  523 is at  -5.867822  2.284396 -4.549010
      ESP Fit Center  524 is at  -6.511793  3.202219  0.645372
      ESP Fit Center  525 is at  -5.551793  3.202219  0.388141
      ESP Fit Center  526 is at  -6.031793  4.033603  0.388141
      ESP Fit Center  527 is at  -6.991793  4.033603  0.388141
      ESP Fit Center  528 is at  -7.471793  3.202219  0.388141
      ESP Fit Center  529 is at  -6.991793  2.370835  0.388141
      ESP Fit Center  530 is at  -6.031793  2.370835  0.388141
      ESP Fit Center  531 is at  -7.025617  4.783606 -0.314628
      ESP Fit Center  532 is at  -7.857001  4.179570 -0.314628
      ESP Fit Center  533 is at  -8.174562  3.202219 -0.314628
      ESP Fit Center  534 is at  -7.857001  2.224868 -0.314628
      ESP Fit Center  535 is at  -7.025617  1.620832 -0.314628
      ESP Fit Center  536 is at  -5.997969  1.620832 -0.314628
      ESP Fit Center  537 is at  -8.174562  4.162219 -1.274628
      ESP Fit Center  538 is at  -8.431793  3.202219 -1.274628
      ESP Fit Center  539 is at  -8.174562  2.242219 -1.274628
      ESP Fit Center  540 is at  -7.471793  1.539450 -1.274628
      ESP Fit Center  541 is at  -8.255605  4.649942 -1.964427
      ESP Fit Center  542 is at  -8.573166  3.672591 -1.964427
      ESP Fit Center  543 is at  -6.910397  5.592591 -2.924427
      ESP Fit Center  544 is at  -7.870397  5.335360 -2.924427
      ESP Fit Center  545 is at  -8.573166  4.632591 -2.924427
      ESP Fit Center  546 is at  -8.830397  3.672591 -2.924427
      ESP Fit Center  547 is at  -8.573166  2.712591 -2.924427
      ESP Fit Center  548 is at  -6.396573  5.253978 -3.884427
      ESP Fit Center  549 is at  -7.424221  5.253978 -3.884427
      ESP Fit Center  550 is at  -8.255605  4.649942 -3.884427
      ESP Fit Center  551 is at  -8.573166  3.672591 -3.884427
      ESP Fit Center  552 is at  -8.255605  2.695240 -3.884427
      ESP Fit Center  553 is at  -6.430397  4.503975 -4.587196
      ESP Fit Center  554 is at  -7.390397  4.503975 -4.587196
      ESP Fit Center  555 is at  -7.870397  3.672591 -4.587196
      ESP Fit Center  556 is at  -7.390397  2.841207 -4.587196
      ESP Fit Center  557 is at  -6.910397  3.672591 -4.844427
      ESP Fit Center  558 is at  -5.176910  6.040853 -3.816486
      ESP Fit Center  559 is at  -6.138649  5.601641 -3.816486
      ESP Fit Center  560 is at  -3.567234  5.932068 -3.335875
      ESP Fit Center  561 is at  -2.864465  4.269299 -4.295875
      ESP Fit Center  562 is at  -3.182026  5.246650 -4.295875
      ESP Fit Center  563 is at  -4.013410  5.850686 -4.295875
      ESP Fit Center  564 is at  -5.041058  5.850686 -4.295875
      ESP Fit Center  565 is at  -5.872442  5.246650 -4.295875
      ESP Fit Center  566 is at  -4.013410  2.687912 -4.295875
      ESP Fit Center  567 is at  -3.182026  3.291948 -4.295875
      ESP Fit Center  568 is at  -3.567234  4.269299 -4.998644
      ESP Fit Center  569 is at  -4.047234  5.100683 -4.998644
      ESP Fit Center  570 is at  -5.007234  5.100683 -4.998644
      ESP Fit Center  571 is at  -5.487234  4.269299 -4.998644
      ESP Fit Center  572 is at  -5.007234  3.437915 -4.998644
      ESP Fit Center  573 is at  -4.047234  3.437915 -4.998644
      ESP Fit Center  574 is at  -4.527234  4.269299 -5.255875
      ESP Fit Center  575 is at  -5.171339  5.186874 -0.065468
      ESP Fit Center  576 is at  -4.691339  6.018258 -0.322699
      ESP Fit Center  577 is at  -5.651339  6.018258 -0.322699
      ESP Fit Center  578 is at  -6.131339  5.186874 -0.322699
      ESP Fit Center  579 is at  -4.657515  6.768261 -1.025468
      ESP Fit Center  580 is at  -5.685163  6.768261 -1.025468
      ESP Fit Center  581 is at  -6.516547  6.164225 -1.025468
      ESP Fit Center  582 is at  -4.211339  6.849643 -1.985468
      ESP Fit Center  583 is at  -5.171339  7.106874 -1.985468
      ESP Fit Center  584 is at  -6.131339  6.849643 -1.985468
      ESP Fit Center  585 is at  -6.834108  6.146874 -1.985468
      ESP Fit Center  586 is at  -4.657515  6.768261 -2.945468
      ESP Fit Center  587 is at  -5.685163  6.768261 -2.945468
      ESP Fit Center  588 is at  -6.516547  6.164225 -2.945468
      ESP Fit Center  589 is at  -4.413185  4.484832  0.533859
      ESP Fit Center  590 is at  -4.899135  3.643142  0.533859
      ESP Fit Center  591 is at  -4.413185  2.801452  0.533859
      ESP Fit Center  592 is at  -3.386053  1.977554 -2.880928
      ESP Fit Center  593 is at  -0.638393  5.398770 -1.951693
      ESP Fit Center  594 is at  -1.287646  6.212907 -1.951693
      ESP Fit Center  595 is at  -2.939442  5.363426  0.941032
      ESP Fit Center  596 is at  -2.459442  6.194810  0.683801
      ESP Fit Center  597 is at  -3.419442  6.194810  0.683801
      ESP Fit Center  598 is at  -3.899442  5.363426  0.683801
      ESP Fit Center  599 is at  -1.594234  6.340777 -0.018968
      ESP Fit Center  600 is at  -2.425618  6.944813 -0.018968
      ESP Fit Center  601 is at  -3.453266  6.944813 -0.018968
      ESP Fit Center  602 is at  -4.284650  6.340777 -0.018968
      ESP Fit Center  603 is at  -4.602211  5.363426 -0.018968
      ESP Fit Center  604 is at  -1.276673  6.323426 -0.978968
      ESP Fit Center  605 is at  -1.979442  7.026195 -0.978968
      ESP Fit Center  606 is at  -2.939442  7.283426 -0.978968
      ESP Fit Center  607 is at  -3.899442  7.026195 -0.978968
      ESP Fit Center  608 is at  -2.425618  6.944813 -1.938968
      ESP Fit Center  609 is at  -3.453266  6.944813 -1.938968
      ESP Fit Center  610 is at  -0.413438  4.535878 -2.412398
      ESP Fit Center  611 is at  -0.670669  5.495878 -2.412398
      ESP Fit Center  612 is at  -1.373438  6.198647 -2.412398
      ESP Fit Center  613 is at  -0.670669  4.535878 -3.372398
      ESP Fit Center  614 is at  -0.988230  5.513229 -3.372398
      ESP Fit Center  615 is at  -1.819614  6.117265 -3.372398
      ESP Fit Center  616 is at  -2.847262  6.117265 -3.372398
      ESP Fit Center  617 is at  -2.847262  2.954491 -3.372398
      ESP Fit Center  618 is at  -1.819614  2.954491 -3.372398
      ESP Fit Center  619 is at  -0.988230  3.558527 -3.372398
      ESP Fit Center  620 is at  -1.373438  4.535878 -4.075167
      ESP Fit Center  621 is at  -1.853438  5.367262 -4.075167
      ESP Fit Center  622 is at  -2.813438  5.367262 -4.075167
      ESP Fit Center  623 is at  -2.813438  3.704494 -4.075167
      ESP Fit Center  624 is at  -1.853438  3.704494 -4.075167
      ESP Fit Center  625 is at  -2.333438  4.535878 -4.332398
      ESP Fit Center  626 is at  -0.692001  3.645749  1.595452
      ESP Fit Center  627 is at  -2.000361  5.503046  0.929503
      ESP Fit Center  628 is at   0.075308  4.298620  1.268394
      ESP Fit Center  629 is at  -0.404692  5.130004  1.268394
      ESP Fit Center  630 is at   0.778077  4.298620  0.565625
      ESP Fit Center  631 is at   0.460516  5.275971  0.565625
      ESP Fit Center  632 is at  -0.370868  5.880007  0.565625
      ESP Fit Center  633 is at  -1.398516  5.880007  0.565625
      ESP Fit Center  634 is at   0.460516  3.321269  0.565625
      ESP Fit Center  635 is at   1.035308  4.298620 -0.394375
      ESP Fit Center  636 is at   0.778077  5.258620 -0.394375
      ESP Fit Center  637 is at   0.075308  5.961389 -0.394375
      ESP Fit Center  638 is at  -0.884692  6.218620 -0.394375
      ESP Fit Center  639 is at   0.778077  4.298620 -1.354375
      ESP Fit Center  640 is at   0.460516  5.275971 -1.354375
      ESP Fit Center  641 is at  -0.370868  5.880007 -1.354375
      ESP Fit Center  642 is at   0.075308  4.298620 -2.057144
      ESP Fit Center  643 is at  -0.404692  5.130004 -2.057144
      ESP Fit Center  644 is at  -2.174479  3.410623  2.317777
      ESP Fit Center  645 is at  -1.214479  3.410623  2.060546
      ESP Fit Center  646 is at  -1.694479  4.242007  2.060546
      ESP Fit Center  647 is at  -2.654479  4.242007  2.060546
      ESP Fit Center  648 is at  -3.134479  3.410623  2.060546
      ESP Fit Center  649 is at  -2.654479  2.579239  2.060546
      ESP Fit Center  650 is at  -2.688303  4.992010  1.357777
      ESP Fit Center  651 is at  -3.519687  4.387974  1.357777
      ESP Fit Center  652 is at  -3.837248  3.410623  1.357777
      ESP Fit Center  653 is at  -3.519687  2.433272  1.357777
      ESP Fit Center  654 is at   0.687496  3.512947 -1.698374
      ESP Fit Center  655 is at   0.505106  2.498067 -2.596544
      ESP Fit Center  656 is at   0.170637  3.527457 -2.596544
      ESP Fit Center  657 is at   0.170637  1.468677 -2.596544
      ESP Fit Center  658 is at  -0.274297  2.498067 -3.218097
      ESP Fit Center  659 is at  -0.760247  3.339757 -3.218097
      ESP Fit Center  660 is at  -2.218097  2.498067 -3.218097
      ESP Fit Center  661 is at  -0.760247  1.656377 -3.218097
      ESP Fit Center  662 is at  -1.246197  2.498067 -3.439927
      ESP Fit Center  663 is at  -3.340478 -0.550058 -1.439636
      ESP Fit Center  664 is at  -3.682008  0.750650 -2.401962
      ESP Fit Center  665 is at  -2.744642 -1.004857 -1.787133
      ESP Fit Center  666 is at  -1.784642 -1.262088 -1.787133
      ESP Fit Center  667 is at  -0.121873  0.657912 -2.747133
      ESP Fit Center  668 is at  -3.447411  0.657912 -2.747133
      ESP Fit Center  669 is at  -3.129850 -0.319439 -2.747133
      ESP Fit Center  670 is at  -2.298466 -0.923475 -2.747133
      ESP Fit Center  671 is at  -1.270818 -0.923475 -2.747133
      ESP Fit Center  672 is at  -0.439434 -0.319439 -2.747133
      ESP Fit Center  673 is at  -0.824642  0.657912 -3.449902
      ESP Fit Center  674 is at  -1.304642  1.489296 -3.449902
      ESP Fit Center  675 is at  -2.264642  1.489296 -3.449902
      ESP Fit Center  676 is at  -2.744642  0.657912 -3.449902
      ESP Fit Center  677 is at  -2.264642 -0.173472 -3.449902
      ESP Fit Center  678 is at  -1.304642 -0.173472 -3.449902
      ESP Fit Center  679 is at  -1.784642  0.657912 -3.707133
      ESP Fit Center  680 is at  -3.896913  1.436509  0.945587
      ESP Fit Center  681 is at  -4.599682  1.436509  0.242818
      ESP Fit Center  682 is at  -4.282121  0.459158  0.242818
      ESP Fit Center  683 is at  -4.856913  1.436509 -0.717182
      ESP Fit Center  684 is at  -4.599682  0.476509 -0.717182
      ESP Fit Center  685 is at  -3.896913 -0.226260 -0.717182
      ESP Fit Center  686 is at  -4.282121  0.459158 -1.677182
      ESP Fit Center  687 is at  -3.896913  1.436509 -2.379951
      ESP Fit Center  688 is at  -0.733705 -0.347262  2.436191
      ESP Fit Center  689 is at  -3.054753  1.083190  1.770242
      ESP Fit Center  690 is at  -1.521404 -1.302749 -1.222510
      ESP Fit Center  691 is at  -1.892770 -0.280127  2.461517
      ESP Fit Center  692 is at  -2.852770 -0.280127  2.204286
      ESP Fit Center  693 is at  -2.372770 -1.111511  2.204286
      ESP Fit Center  694 is at  -1.412770 -1.111511  2.204286
      ESP Fit Center  695 is at  -3.555539 -0.280127  1.501517
      ESP Fit Center  696 is at  -3.237978 -1.257478  1.501517
      ESP Fit Center  697 is at  -2.406594 -1.861514  1.501517
      ESP Fit Center  698 is at  -1.378946 -1.861514  1.501517
      ESP Fit Center  699 is at  -3.812770 -0.280127  0.541517
      ESP Fit Center  700 is at  -3.555539 -1.240127  0.541517
      ESP Fit Center  701 is at  -2.852770 -1.942896  0.541517
      ESP Fit Center  702 is at  -1.892770 -2.200127  0.541517
      ESP Fit Center  703 is at  -3.237978 -1.257478 -0.418483
      ESP Fit Center  704 is at  -2.406594 -1.861514 -0.418483
      ESP Fit Center  705 is at  -1.378946 -1.861514 -0.418483
      ESP Fit Center  706 is at  -2.372770 -1.111511 -1.121252
      ESP Fit Center  707 is at  -1.194939  1.215561  3.057593
      ESP Fit Center  708 is at  -0.234939  1.215561  2.800362
      ESP Fit Center  709 is at  -0.714939  2.046945  2.800362
      ESP Fit Center  710 is at  -1.674939  2.046945  2.800362
      ESP Fit Center  711 is at  -2.154939  1.215561  2.800362
      ESP Fit Center  712 is at  -1.674939  0.384177  2.800362
      ESP Fit Center  713 is at  -0.714939  0.384177  2.800362
      ESP Fit Center  714 is at  -0.681115  2.796948  2.097593
      ESP Fit Center  715 is at  -2.540147  2.192912  2.097593
      ESP Fit Center  716 is at  -2.857708  1.215561  2.097593
      ESP Fit Center  717 is at   0.485950 -0.841690  2.018170
      ESP Fit Center  718 is at  -0.541182 -1.665588  1.396617
      ESP Fit Center  719 is at   0.541182 -1.665588  1.396617
      ESP Fit Center  720 is at  -0.774400 -2.041924  0.498447
      ESP Fit Center  721 is at   0.263233 -2.167916  0.498447
      ESP Fit Center  722 is at  -0.774400 -2.041924 -0.498447
      ESP Fit Center  723 is at   0.263233 -2.167916 -0.498447
      ESP Fit Center  724 is at  -0.541182 -1.665588 -1.396617
      ESP Fit Center  725 is at   0.541182 -1.665588 -1.396617
      ESP Fit Center  726 is at  -0.485950 -0.841690 -2.018170
      ESP Fit Center  727 is at   0.485950 -0.841690 -2.018170
      ESP Fit Center  728 is at   0.000000  0.000000 -2.240000
      ESP Fit Center  729 is at   1.076235  1.499335  2.808518
      ESP Fit Center  730 is at   2.036235  1.499335  2.551287
      ESP Fit Center  731 is at   1.556235  2.330719  2.551287
      ESP Fit Center  732 is at   0.596235  2.330719  2.551287
      ESP Fit Center  733 is at   0.116235  1.499335  2.551287
      ESP Fit Center  734 is at   0.596235  0.667951  2.551287
      ESP Fit Center  735 is at   1.556235  0.667951  2.551287
      ESP Fit Center  736 is at   1.590059  3.080722  1.848518
      ESP Fit Center  737 is at   0.562411  3.080722  1.848518
      ESP Fit Center  738 is at   2.036235  3.162104  0.888518
      ESP Fit Center  739 is at   1.076235  3.419335  0.888518
      ESP Fit Center  740 is at   0.116235  3.162104  0.888518
      ESP Fit Center  741 is at   2.041601  3.181099 -0.866555
      ESP Fit Center  742 is at   1.081601  3.438330 -0.866555
      ESP Fit Center  743 is at   1.595425  3.099717 -1.826555
      ESP Fit Center  744 is at   2.041601  1.518330 -2.529324
      ESP Fit Center  745 is at   1.561601  2.349714 -2.529324
      ESP Fit Center  746 is at   0.601601  2.349714 -2.529324
      ESP Fit Center  747 is at   0.601601  0.686946 -2.529324
      ESP Fit Center  748 is at   1.561601  0.686946 -2.529324
      ESP Fit Center  749 is at   1.081601  1.518330 -2.786555
      ESP Fit Center  750 is at   1.398774 -2.266577 -0.898849
      ESP Fit Center  751 is at   2.358774 -2.523808 -0.898849
      ESP Fit Center  752 is at   3.318774 -2.266577 -0.898849
      ESP Fit Center  753 is at   1.013566 -1.581159 -1.858849
      ESP Fit Center  754 is at   1.844950 -2.185195 -1.858849
      ESP Fit Center  755 is at   2.872598 -2.185195 -1.858849
      ESP Fit Center  756 is at   3.318774 -0.603808 -2.561618
      ESP Fit Center  757 is at   2.838774  0.227576 -2.561618
      ESP Fit Center  758 is at   1.878774  0.227576 -2.561618
      ESP Fit Center  759 is at   1.398774 -0.603808 -2.561618
      ESP Fit Center  760 is at   1.878774 -1.435192 -2.561618
      ESP Fit Center  761 is at   2.838774 -1.435192 -2.561618
      ESP Fit Center  762 is at   2.358774 -0.603808 -2.818849
      ESP Fit Center  763 is at   2.313569 -0.659725  2.776523
      ESP Fit Center  764 is at   3.273569 -0.659725  2.519292
      ESP Fit Center  765 is at   2.793569  0.171659  2.519292
      ESP Fit Center  766 is at   1.833569  0.171659  2.519292
      ESP Fit Center  767 is at   1.353569 -0.659725  2.519292
      ESP Fit Center  768 is at   1.833569 -1.491109  2.519292
      ESP Fit Center  769 is at   2.793569 -1.491109  2.519292
      ESP Fit Center  770 is at   0.968361 -1.637076  1.816523
      ESP Fit Center  771 is at   1.799745 -2.241112  1.816523
      ESP Fit Center  772 is at   1.353569 -2.322494  0.856523
      ESP Fit Center  773 is at   2.313569 -2.579725  0.856523
      ESP Fit Center  774 is at   3.830934  1.047212  2.847422
      ESP Fit Center  775 is at   4.366691  1.975170  2.634285
      ESP Fit Center  776 is at   3.295177  1.975170  2.634285
      ESP Fit Center  777 is at   2.759420  1.047212  2.634285
      ESP Fit Center  778 is at   3.295177  0.119254  2.634285
      ESP Fit Center  779 is at   5.545577  2.037161  2.027321
      ESP Fit Center  780 is at   4.820883  2.761855  2.027321
      ESP Fit Center  781 is at   3.830934  3.027111  2.027321
      ESP Fit Center  782 is at   2.840985  2.761855  2.027321
      ESP Fit Center  783 is at   6.194151  2.099384  1.118936
      ESP Fit Center  784 is at   5.561883  2.969626  1.118936
      ESP Fit Center  785 is at   4.630319  3.507465  1.118936
      ESP Fit Center  786 is at   3.560533  3.619904  1.118936
      ESP Fit Center  787 is at   2.537503  3.287501  1.118936
      ESP Fit Center  788 is at   5.900159  2.933560  0.047422
      ESP Fit Center  789 is at   5.079001  3.553669  0.047422
      ESP Fit Center  790 is at   4.089285  3.835268  0.047422
      ESP Fit Center  791 is at   3.064678  3.740324  0.047422
      ESP Fit Center  792 is at   2.143557  3.281660  0.047422
      ESP Fit Center  793 is at   5.561883  2.969626 -1.024092
      ESP Fit Center  794 is at   4.630319  3.507465 -1.024092
      ESP Fit Center  795 is at   3.560533  3.619904 -1.024092
      ESP Fit Center  796 is at   2.537503  3.287501 -1.024092
      ESP Fit Center  797 is at   5.545577  2.037161 -1.932477
      ESP Fit Center  798 is at   4.820883  2.761855 -1.932477
      ESP Fit Center  799 is at   3.830934  3.027111 -1.932477
      ESP Fit Center  800 is at   2.840985  2.761855 -1.932477
      ESP Fit Center  801 is at   4.902448  1.047212 -2.539441
      ESP Fit Center  802 is at   4.366691  1.975170 -2.539441
      ESP Fit Center  803 is at   3.295177  1.975170 -2.539441
      ESP Fit Center  804 is at   2.759420  1.047212 -2.539441
      ESP Fit Center  805 is at   3.295177  0.119254 -2.539441
      ESP Fit Center  806 is at   3.830934  1.047212 -2.752578
      ESP Fit Center  807 is at   5.663889  0.725886 -2.411562
      ESP Fit Center  808 is at   3.934052 -2.429940 -1.121215
      ESP Fit Center  809 is at   3.548844 -1.744522 -2.081215
      ESP Fit Center  810 is at   4.380228 -2.348558 -2.081215
      ESP Fit Center  811 is at   5.407876 -2.348558 -2.081215
      ESP Fit Center  812 is at   6.239260 -1.744522 -2.081215
      ESP Fit Center  813 is at   5.854052 -0.767171 -2.783984
      ESP Fit Center  814 is at   5.374052  0.064213 -2.783984
      ESP Fit Center  815 is at   4.414052  0.064213 -2.783984
      ESP Fit Center  816 is at   3.934052 -0.767171 -2.783984
      ESP Fit Center  817 is at   4.414052 -1.598555 -2.783984
      ESP Fit Center  818 is at   5.374052 -1.598555 -2.783984
      ESP Fit Center  819 is at   4.894052 -0.767171 -3.041215
      ESP Fit Center  820 is at   6.496987  1.244166  1.165980
      ESP Fit Center  821 is at   7.362195  1.390133 -1.456789
      ESP Fit Center  822 is at   6.530811  1.994169 -1.456789
      ESP Fit Center  823 is at   6.496987  1.244166 -2.159558
      ESP Fit Center  824 is at   6.016987  0.412782 -2.416789
      ESP Fit Center  825 is at   4.387954 -1.077900  3.111009
      ESP Fit Center  826 is at   4.908615 -1.979710  3.111009
      ESP Fit Center  827 is at   4.544819 -1.642946  3.133057
      ESP Fit Center  828 is at   3.584819 -1.642946  2.875826
      ESP Fit Center  829 is at   4.064819 -2.474330  2.875826
      ESP Fit Center  830 is at   3.199611 -2.620297  2.173057
      ESP Fit Center  831 is at   4.030995 -3.224333  2.173057
      ESP Fit Center  832 is at   2.882050 -2.602946  1.213057
      ESP Fit Center  833 is at   3.584819 -3.305715  1.213057
      ESP Fit Center  834 is at   3.199611 -2.620297  0.253057
      ESP Fit Center  835 is at   4.030995 -3.224333  0.253057
      ESP Fit Center  836 is at   4.064819 -2.474330 -0.449712
      ESP Fit Center  837 is at   5.700170 -0.486011  3.733576
      ESP Fit Center  838 is at   6.660170 -0.486011  3.476345
      ESP Fit Center  839 is at   6.180170  0.345373  3.476345
      ESP Fit Center  840 is at   5.220170  0.345373  3.476345
      ESP Fit Center  841 is at   4.740170 -0.486011  3.476345
      ESP Fit Center  842 is at   5.220170 -1.317395  3.476345
      ESP Fit Center  843 is at   6.180170 -1.317395  3.476345
      ESP Fit Center  844 is at   7.045378  0.491340  2.773576
      ESP Fit Center  845 is at   6.213994  1.095376  2.773576
      ESP Fit Center  846 is at   5.186346  1.095376  2.773576
      ESP Fit Center  847 is at   4.354962  0.491340  2.773576
      ESP Fit Center  848 is at   6.660170  1.176758  1.813576
      ESP Fit Center  849 is at   6.703002 -2.346726  3.462838
      ESP Fit Center  850 is at   7.774516 -2.346726  3.249701
      ESP Fit Center  851 is at   7.238759 -1.418768  3.249701
      ESP Fit Center  852 is at   5.631488 -2.346726  3.249701
      ESP Fit Center  853 is at   6.167245 -3.274684  3.249701
      ESP Fit Center  854 is at   7.238759 -3.274684  3.249701
      ESP Fit Center  855 is at   4.988359 -3.336675  2.642737
      ESP Fit Center  856 is at   5.713053 -4.061369  2.642737
      ESP Fit Center  857 is at   6.703002 -4.326625  2.642737
      ESP Fit Center  858 is at   7.692951 -4.061369  2.642737
      ESP Fit Center  859 is at   8.417645 -3.336675  2.642737
      ESP Fit Center  860 is at   4.610186 -3.867246  1.734352
      ESP Fit Center  861 is at   5.409571 -4.587015  1.734352
      ESP Fit Center  862 is at   6.432601 -4.919418  1.734352
      ESP Fit Center  863 is at   7.502387 -4.806979  1.734352
      ESP Fit Center  864 is at   8.433951 -4.269140  1.734352
      ESP Fit Center  865 is at   4.322394 -3.820736  0.662838
      ESP Fit Center  866 is at   5.015625 -4.581174  0.662838
      ESP Fit Center  867 is at   5.936746 -5.039838  0.662838
      ESP Fit Center  868 is at   6.961353 -5.134782  0.662838
      ESP Fit Center  869 is at   7.951069 -4.853183  0.662838
      ESP Fit Center  870 is at   8.772227 -4.233074  0.662838
      ESP Fit Center  871 is at   4.172668 -2.884565 -0.408676
      ESP Fit Center  872 is at   4.610186 -3.867246 -0.408676
      ESP Fit Center  873 is at   5.409571 -4.587015 -0.408676
      ESP Fit Center  874 is at   6.432601 -4.919418 -0.408676
      ESP Fit Center  875 is at   7.502387 -4.806979 -0.408676
      ESP Fit Center  876 is at   8.433951 -4.269140 -0.408676
      ESP Fit Center  877 is at   4.988359 -3.336675 -1.317061
      ESP Fit Center  878 is at   5.713053 -4.061369 -1.317061
      ESP Fit Center  879 is at   6.703002 -4.326625 -1.317061
      ESP Fit Center  880 is at   7.692951 -4.061369 -1.317061
      ESP Fit Center  881 is at   6.167245 -3.274684 -1.924025
      ESP Fit Center  882 is at   7.238759 -3.274684 -1.924025
      ESP Fit Center  883 is at   6.703002 -2.346726 -2.137162
      ESP Fit Center  884 is at   8.260149 -1.393654  3.092381
      ESP Fit Center  885 is at   9.838673 -0.379198  2.188757
      ESP Fit Center  886 is at   8.977527 -2.005412  3.142632
      ESP Fit Center  887 is at   9.937527 -2.005412  2.885401
      ESP Fit Center  888 is at   9.457527 -1.174028  2.885401
      ESP Fit Center  889 is at   8.497527 -2.836796  2.885401
      ESP Fit Center  890 is at   9.457527 -2.836796  2.885401
      ESP Fit Center  891 is at  10.640296 -2.005412  2.182632
      ESP Fit Center  892 is at  10.322735 -1.028061  2.182632
      ESP Fit Center  893 is at   9.491351 -3.586799  2.182632
      ESP Fit Center  894 is at  10.322735 -2.982763  2.182632
      ESP Fit Center  895 is at   8.977527 -3.925412  1.222632
      ESP Fit Center  896 is at   9.937527 -3.668181  1.222632
      ESP Fit Center  897 is at  10.640296 -2.965412  1.222632
      ESP Fit Center  898 is at   9.491351 -3.586799  0.262632
      ESP Fit Center  899 is at  10.322735 -2.982763  0.262632
      ESP Fit Center  900 is at   8.111451 -0.500104  3.203717
      ESP Fit Center  901 is at   9.071451 -0.500104  2.946486
      ESP Fit Center  902 is at   8.591451  0.331280  2.946486
      ESP Fit Center  903 is at   7.631451  0.331280  2.946486
      ESP Fit Center  904 is at   9.456659  0.477247  2.243717
      ESP Fit Center  905 is at   7.597627  1.081283  2.243717
      ESP Fit Center  906 is at   8.806313 -1.065328 -3.097512
      ESP Fit Center  907 is at   9.437525 -3.562462 -0.301352
      ESP Fit Center  908 is at   8.923701 -3.901075 -1.261352
      ESP Fit Center  909 is at   9.883701 -3.643844 -1.261352
      ESP Fit Center  910 is at   7.578493 -2.958426 -2.221352
      ESP Fit Center  911 is at   8.409877 -3.562462 -2.221352
      ESP Fit Center  912 is at   9.437525 -3.562462 -2.221352
      ESP Fit Center  913 is at  10.268909 -2.958426 -2.221352
      ESP Fit Center  914 is at   9.883701 -1.981075 -2.924121
      ESP Fit Center  915 is at   7.963701 -1.981075 -2.924121
      ESP Fit Center  916 is at   8.443701 -2.812459 -2.924121
      ESP Fit Center  917 is at   9.403701 -2.812459 -2.924121
      ESP Fit Center  918 is at   8.923701 -1.981075 -3.181352
      ESP Fit Center  919 is at   7.610613  1.143283 -2.216644
      ESP Fit Center  920 is at   6.779229 -1.415455 -2.216644
      ESP Fit Center  921 is at   7.644437  0.393280 -2.919413
      ESP Fit Center  922 is at   7.164437 -0.438104 -2.919413
      ESP Fit Center  923 is at   7.644437 -1.269488 -2.919413
      ESP Fit Center  924 is at   8.124437 -0.438104 -3.176644
      ESP Fit Center  925 is at  10.447463 -0.268894  2.133664
      ESP Fit Center  926 is at  11.518977 -0.268894  1.920527
      ESP Fit Center  927 is at  10.983220 -1.196852  1.920527
      ESP Fit Center  928 is at  12.427362 -0.268894  1.313563
      ESP Fit Center  929 is at  12.162106  0.721055  1.313563
      ESP Fit Center  930 is at  11.437412 -1.983537  1.313563
      ESP Fit Center  931 is at  12.162106 -1.258843  1.313563
      ESP Fit Center  932 is at  13.034326 -0.268894  0.405178
      ESP Fit Center  933 is at  12.810680  0.783278  0.405178
      ESP Fit Center  934 is at  11.246848 -2.729147  0.405178
      ESP Fit Center  935 is at  12.178412 -2.191308  0.405178
      ESP Fit Center  936 is at  12.810680 -1.321066  0.405178
      ESP Fit Center  937 is at  13.247463 -0.268894 -0.666336
      ESP Fit Center  938 is at  13.058385  0.742583 -0.666336
      ESP Fit Center  939 is at  10.705814 -3.056950 -0.666336
      ESP Fit Center  940 is at  11.695530 -2.775351 -0.666336
      ESP Fit Center  941 is at  12.516688 -2.155242 -0.666336
      ESP Fit Center  942 is at  13.058385 -1.280371 -0.666336
      ESP Fit Center  943 is at  13.034326 -0.268894 -1.737850
      ESP Fit Center  944 is at  12.810680  0.783278 -1.737850
      ESP Fit Center  945 is at  11.246848 -2.729147 -1.737850
      ESP Fit Center  946 is at  12.178412 -2.191308 -1.737850
      ESP Fit Center  947 is at  12.810680 -1.321066 -1.737850
      ESP Fit Center  948 is at  12.427362 -0.268894 -2.646235
      ESP Fit Center  949 is at  12.162106  0.721055 -2.646235
      ESP Fit Center  950 is at  10.447463 -2.248793 -2.646235
      ESP Fit Center  951 is at  11.437412 -1.983537 -2.646235
      ESP Fit Center  952 is at  12.162106 -1.258843 -2.646235
      ESP Fit Center  953 is at  11.518977 -0.268894 -3.253199
      ESP Fit Center  954 is at  10.983220  0.659064 -3.253199
      ESP Fit Center  955 is at   9.375949 -0.268894 -3.253199
      ESP Fit Center  956 is at   9.911706 -1.196852 -3.253199
      ESP Fit Center  957 is at  10.983220 -1.196852 -3.253199
      ESP Fit Center  958 is at  10.447463 -0.268894 -3.466336
      ESP Fit Center  959 is at  11.099083  1.498221 -3.025335
      ESP Fit Center  960 is at  11.978298  1.957534  0.598146
      ESP Fit Center  961 is at  12.681067  1.957534 -0.104623
      ESP Fit Center  962 is at  12.363506  2.934885 -0.104623
      ESP Fit Center  963 is at  11.532122  3.538921 -0.104623
      ESP Fit Center  964 is at  12.938298  1.957534 -1.064623
      ESP Fit Center  965 is at  12.681067  2.917534 -1.064623
      ESP Fit Center  966 is at  11.978298  3.620303 -1.064623
      ESP Fit Center  967 is at  11.018298  3.877534 -1.064623
      ESP Fit Center  968 is at  12.681067  1.957534 -2.024623
      ESP Fit Center  969 is at  12.363506  2.934885 -2.024623
      ESP Fit Center  970 is at  11.532122  3.538921 -2.024623
      ESP Fit Center  971 is at  11.978298  1.957534 -2.727392
      ESP Fit Center  972 is at  11.498298  2.788918 -2.727392
      ESP Fit Center  973 is at   8.496199  3.286279 -1.755884
      ESP Fit Center  974 is at   7.793430  2.583510 -1.755884
      ESP Fit Center  975 is at   7.536199  1.623510 -1.755884
      ESP Fit Center  976 is at   9.970023  3.204897 -2.715884
      ESP Fit Center  977 is at   8.942375  3.204897 -2.715884
      ESP Fit Center  978 is at   8.110991  2.600861 -2.715884
      ESP Fit Center  979 is at   7.793430  1.623510 -2.715884
      ESP Fit Center  980 is at  10.416199  1.623510 -3.418653
      ESP Fit Center  981 is at   9.936199  2.454894 -3.418653
      ESP Fit Center  982 is at   8.976199  2.454894 -3.418653
      ESP Fit Center  983 is at   8.496199  1.623510 -3.418653
      ESP Fit Center  984 is at   8.976199  0.792126 -3.418653
      ESP Fit Center  985 is at   9.936199  0.792126 -3.418653
      ESP Fit Center  986 is at   9.456199  1.623510 -3.675884
      ESP Fit Center  987 is at   8.878822  3.078540  2.496295
      ESP Fit Center  988 is at   8.358161  2.176730  2.496295
      ESP Fit Center  989 is at  10.178965  3.883559  1.830346
      ESP Fit Center  990 is at   8.170704  3.594815  1.830346
      ESP Fit Center  991 is at  11.507593  3.191943  0.868020
      ESP Fit Center  992 is at   7.291371  3.191943 -0.200080
      ESP Fit Center  993 is at   7.599094  2.705372 -1.162406
      ESP Fit Center  994 is at   9.775021  4.072643  1.807161
      ESP Fit Center  995 is at   8.815021  4.072643  1.807161
      ESP Fit Center  996 is at  10.640229  4.218610  1.104392
      ESP Fit Center  997 is at   9.808845  4.822646  1.104392
      ESP Fit Center  998 is at   8.781197  4.822646  1.104392
      ESP Fit Center  999 is at   7.949813  4.218610  1.104392
      ESP Fit Center 1000 is at  10.957790  4.201259  0.144392
      ESP Fit Center 1001 is at  10.255021  4.904028  0.144392
      ESP Fit Center 1002 is at   9.295021  5.161259  0.144392
      ESP Fit Center 1003 is at   8.335021  4.904028  0.144392
      ESP Fit Center 1004 is at   7.632252  4.201259  0.144392
      ESP Fit Center 1005 is at  10.640229  4.218610 -0.815608
      ESP Fit Center 1006 is at   9.808845  4.822646 -0.815608
      ESP Fit Center 1007 is at   8.781197  4.822646 -0.815608
      ESP Fit Center 1008 is at   7.949813  4.218610 -0.815608
      ESP Fit Center 1009 is at   9.775021  4.072643 -1.518377
      ESP Fit Center 1010 is at   8.815021  4.072643 -1.518377
      ESP Fit Center 1011 is at   7.927524  2.613497  2.187374
      ESP Fit Center 1012 is at   7.447524  1.782113  2.187374
      ESP Fit Center 1013 is at   7.062316  2.759464  1.484605
      ESP Fit Center 1014 is at   6.744755  1.782113  1.484605
      ESP Fit Center 1015 is at   6.744755  2.742113  0.524605
      ESP Fit Center 1016 is at   7.062316  2.759464 -0.435395
      ESP Fit Center 1017 is at   7.447524  1.782113 -1.138164
      ESP Fit Center 1018 is at   9.993221  2.046107  3.151232
      ESP Fit Center 1019 is at  10.953221  2.046107  2.894001
      ESP Fit Center 1020 is at  10.473221  2.877491  2.894001
      ESP Fit Center 1021 is at   9.513221  2.877491  2.894001
      ESP Fit Center 1022 is at   9.033221  2.046107  2.894001
      ESP Fit Center 1023 is at   9.513221  1.214723  2.894001
      ESP Fit Center 1024 is at  10.473221  1.214723  2.894001
      ESP Fit Center 1025 is at  11.655990  2.046107  2.191232
      ESP Fit Center 1026 is at  11.338429  3.023458  2.191232
      ESP Fit Center 1027 is at  10.507045  3.627494  2.191232
      ESP Fit Center 1028 is at  10.507045  0.464720  2.191232
      ESP Fit Center 1029 is at  11.338429  1.068756  2.191232
      ESP Fit Center 1030 is at  11.913221  2.046107  1.231232
      ESP Fit Center 1031 is at  11.655990  3.006107  1.231232
      ESP Fit Center 1032 is at  -5.333123  1.542943 -0.375847
      ESP Fit Center 1033 is at  -7.681508  5.229861 -1.251790
      ESP Fit Center 1034 is at  -8.373672  4.361914 -1.251790
      ESP Fit Center 1035 is at  -7.681508  1.329343 -1.251790
      ESP Fit Center 1036 is at  -8.620703  2.246357 -2.285035
      ESP Fit Center 1037 is at  -8.035416  1.370414 -2.285035
      ESP Fit Center 1038 is at  -7.681508  1.329343 -3.318280
      ESP Fit Center 1039 is at  -7.376480  1.836734 -4.194223
      ESP Fit Center 1040 is at  -6.642851  2.384785 -4.779510
      ESP Fit Center 1041 is at  -5.609605  2.384785 -4.779510
      ESP Fit Center 1042 is at  -6.126228  3.279602 -4.985035
      ESP Fit Center 1043 is at  -6.134038  0.432821 -1.549010
      ESP Fit Center 1044 is at  -5.090740  0.582825 -1.549010
      ESP Fit Center 1045 is at  -7.484605  0.852051 -2.629010
      ESP Fit Center 1046 is at  -6.633769  0.264761 -2.629010
      ESP Fit Center 1047 is at  -5.607463  0.140145 -2.629010
      ESP Fit Center 1048 is at  -4.640802  0.506751 -2.629010
[...]
 1321 Fit      -0.010472
 1322 Fit      -0.002603
 1323 Fit      -0.010267
 1324 Fit       0.003443
 1325 Fit       0.002421
 1326 Fit       0.006071
 1327 Fit      -0.000117
 1328 Fit       0.005065
 1329 Fit       0.003703
 1330 Fit      -0.000665
 1331 Fit       0.004521
 1332 Fit       0.004573
 1333 Fit       0.002150
 1334 Fit       0.004089
 1335 Fit       0.012410
 1336 Fit       0.010905
 1337 Fit       0.002221
 1338 Fit      -0.001188
 1339 Fit       0.001333
 1340 Fit       0.004808
 1341 Fit       0.001936
 1342 Fit       0.004595
 1343 Fit       0.005865
 1344 Fit       0.002111
 1345 Fit       0.005436
 1346 Fit       0.003513
 1347 Fit       0.005727
 1348 Fit       0.006429
 1349 Fit       0.001825
 1350 Fit       0.001667
 1351 Fit       0.000492
 1352 Fit      -0.001427
 1353 Fit       0.008073
 1354 Fit      -0.002005
 1355 Fit      -0.010806
 1356 Fit      -0.008845
 1357 Fit      -0.002205
 1358 Fit      -0.007887
 1359 Fit      -0.015657
 1360 Fit      -0.015889
 1361 Fit      -0.008934
 1362 Fit      -0.016637
 1363 Fit      -0.019489
 1364 Fit      -0.016377
 1365 Fit      -0.008926
 1366 Fit      -0.010397
 1367 Fit      -0.017053
 1368 Fit      -0.018989
 1369 Fit      -0.015926
 1370 Fit      -0.008692
 1371 Fit      -0.006277
 1372 Fit      -0.013843
 1373 Fit      -0.017351
 1374 Fit      -0.016256
 1375 Fit      -0.010972
 1376 Fit      -0.002631
 1377 Fit       0.002584
 1378 Fit      -0.007021
 1379 Fit      -0.013685
 1380 Fit      -0.016534
 1381 Fit      -0.014929
 1382 Fit      -0.009312
 1383 Fit      -0.001038
 1384 Fit      -0.002905
 1385 Fit      -0.011190
 1386 Fit      -0.015919
 1387 Fit      -0.016186
 1388 Fit      -0.011740
 1389 Fit      -0.003104
 1390 Fit      -0.009418
 1391 Fit      -0.015615
 1392 Fit      -0.016027
 1393 Fit      -0.010157
 1394 Fit      -0.013922
 1395 Fit      -0.010795
 1396 Fit      -0.008238
 1397 Fit       0.000075
 1398 Fit      -0.003592
 1399 Fit      -0.000913
 1400 Fit      -0.000780
 1401 Fit      -0.000016
 1402 Fit      -0.000733
 1403 Fit      -0.005354
 1404 Fit       0.000010
 1405 Fit      -0.000215
 1406 Fit      -0.000380
 1407 Fit       0.001563
 1408 Fit      -0.001805
 1409 Fit       0.004673
 1410 Fit       0.005270
 1411 Fit       0.002110
 1412 Fit       0.006833
 1413 Fit       0.010869
 1414 Fit      -0.000387
 1415 Fit       0.005053
 1416 Fit       0.000737
 1417 Fit       0.001357
 1418 Fit      -0.006198
 1419 Fit      -0.000724
 1420 Fit       0.000531
 1421 Fit      -0.004147
 1422 Fit       0.000308
 1423 Fit      -0.000347
 1424 Fit      -0.000842
 1425 Fit      -0.000944
 1426 Fit       0.011383
 1427 Fit       0.007438
 1428 Fit       0.002552
 1429 Fit       0.005253
 1430 Fit      -0.009518
 1431 Fit      -0.015082
 1432 Fit      -0.012387
 1433 Fit      -0.016388
 1434 Fit      -0.010318
 1435 Fit      -0.012009
 1436 Fit      -0.017371
 1437 Fit      -0.015059
 1438 Fit      -0.008783
 1439 Fit      -0.000542
 1440 Fit      -0.008274
 1441 Fit      -0.015264
 1442 Fit      -0.017559
 1443 Fit      -0.013574
 1444 Fit      -0.006453
 1445 Fit      -0.002594
 1446 Fit      -0.010842
 1447 Fit      -0.016069
 1448 Fit      -0.017060
 1449 Fit      -0.013698
 1450 Fit      -0.005846
 1451 Fit      -0.004100
 1452 Fit      -0.012176
 1453 Fit      -0.017081
 1454 Fit      -0.017677
 1455 Fit      -0.015485
 1456 Fit      -0.007580
 1457 Fit      -0.012544
 1458 Fit      -0.018208
 1459 Fit      -0.019317
 1460 Fit      -0.017272
 1461 Fit      -0.009909
 1462 Fit      -0.009842
 1463 Fit      -0.017245
 1464 Fit      -0.020178
 1465 Fit      -0.016649
 1466 Fit      -0.008899
 1467 Fit      -0.003454
 1468 Fit      -0.009874
 1469 Fit      -0.016889
 1470 Fit      -0.011956
 1471 Fit       0.009490
 1472 Fit       0.010286
 1473 Fit      -0.001614
 1474 Fit       0.003394
 1475 Fit       0.007039
 1476 Fit       0.008716
 1477 Fit       0.003731
 1478 Fit       0.007115
 1479 Fit       0.008741
 1480 Fit       0.009900
 1481 Fit       0.002867
 1482 Fit       0.006566
 1483 Fit       0.008006
 1484 Fit       0.008802
 1485 Fit       0.001545
 1486 Fit       0.005468
 1487 Fit       0.010612
 1488 Fit       0.014685
 1489 Fit       0.008670
 1490 Fit       0.009543
 1491 Fit       0.011260
 1492 Fit       0.014523
 1493 Fit       0.001091
 1494 Fit       0.005772
 1495 Fit       0.008079
 1496 Fit       0.009040
 1497 Fit       0.005576
 1498 Fit       0.005184
 1499 Fit       0.003762
 1500 Fit       0.005298
 1501 Fit       0.003517
 1502 Fit       0.003243
 1503 Fit       0.004690
 1504 Fit       0.007324
 1505 Fit       0.006289
 1506 Fit       0.011599
 1507 Fit       0.005656
 1508 Fit       0.005658
 1509 Fit       0.004489
 1510 Fit       0.007776
 1511 Fit       0.007504
 1512 Fit       0.007558
 1513 Fit       0.006807
 1514 Fit       0.005105
 1515 Fit       0.003989
 1516 Fit       0.010169
 1517 Fit       0.008911
 1518 Fit       0.008289
 1519 Fit       0.007005
 1520 Fit       0.006287
 1521 Fit       0.010010
 1522 Fit       0.009132
 1523 Fit       0.009440
 1524 Fit       0.003680
 1525 Fit       0.006073
 1526 Fit       0.003853
 1527 Fit       0.003954
 1528 Fit       0.003012
 1529 Fit       0.004232
 1530 Fit       0.004036
 1531 Fit       0.004783
 1532 Fit       0.003861
 1533 Fit       0.000891
 1534 Fit       0.001659
 1535 Fit       0.004017
 1536 Fit       0.004095
 1537 Fit      -0.004464
 1538 Fit       0.001974
 1539 Fit       0.004980
 1540 Fit      -0.003543
 1541 Fit       0.006893
 1542 Fit       0.001707
 1543 Fit       0.000674
 1544 Fit      -0.000730
 1545 Fit       0.007472
 1546 Fit       0.004510
 1547 Fit       0.003378
 1548 Fit       0.002467
 1549 Fit       0.001907
 1550 Fit       0.002838
 1551 Fit       0.002432
 1552 Fit       0.003370
 1553 Fit       0.003640
 1554 Fit       0.004391
 1555 Fit       0.004447
 1556 Fit       0.006337
 1557 Fit       0.001081
 1558 Fit       0.002187
 1559 Fit       0.002489
 1560 Fit       0.002226
 1561 Fit       0.002923
 1562 Fit       0.003212
 1563 Fit       0.002764
 1564 Fit       0.000666
 1565 Fit       0.003305
 1566 Fit       0.003419
 1567 Fit       0.002595
 1568 Fit       0.000413
 1569 Fit       0.003566
 1570 Fit       0.003190
 1571 Fit       0.002356
 1572 Fit      -0.003963
 1573 Fit       0.000888
 1574 Fit       0.004184
 1575 Fit       0.004303
 1576 Fit       0.003052
 1577 Fit       0.000021
 1578 Fit       0.005273
 1579 Fit       0.005243
 1580 Fit       0.004805
 1581 Fit       0.004191
 1582 Fit       0.003224
 1583 Fit       0.001713
 1584 Fit      -0.001242
 1585 Fit       0.004696
 1586 Fit       0.003995
 1587 Fit       0.003272
 1588 Fit       0.002382
 1589 Fit       0.007499
 1590 Fit       0.006192
 1591 Fit       0.005002
 1592 Fit       0.010095
 1593 Fit       0.008432
 1594 Fit       0.007274
 1595 Fit       0.006071
 1596 Fit       0.004680
 1597 Fit       0.009982
 1598 Fit       0.008603
 1599 Fit       0.007399
 1600 Fit       0.005962
 1601 Fit       0.004413
 1602 Fit       0.009412
 1603 Fit       0.008361
 1604 Fit       0.006887
 1605 Fit       0.005260
 1606 Fit       0.006983
 1607 Fit       0.001816
 1608 Fit       0.009802
 1609 Fit       0.010052
 1610 Fit       0.010641
 1611 Fit      -0.007003
 1612 Fit       0.010592
 1613 Fit       0.004631
 1614 Fit       0.007557
 1615 Fit       0.008529
 1616 Fit       0.009170
 1617 Fit       0.010063
 1618 Fit       0.003988
 1619 Fit       0.001394
 1620 Fit       0.001119
 1621 Fit       0.005725
 1622 Fit       0.007581
 1623 Fit       0.008444
 1624 Fit       0.008094
 1625 Fit       0.006173
 1626 Fit       0.004683
 1627 Fit       0.006917
 1628 Fit       0.006733
 1629 Fit       0.009162
 1630 Fit       0.008132
 1631 Fit       0.007180
 1632 Fit       0.010606
 1633 Fit       0.009632
 1634 Fit       0.009098
 1635 Fit       0.008564
 1636 Fit       0.010195
 1637 Fit       0.009801
 1638 Fit       0.009737
 1639 Fit       0.009957
 1640 Fit       0.009963
 1641 Fit       0.010504
 1642 Fit       0.000642
 1643 Fit      -0.003922
 1644 Fit      -0.002687
 1645 Fit       0.003181
 1646 Fit       0.009690
 1647 Fit       0.010502
 1648 Fit       0.009403
 1649 Fit       0.010200
 1650 Fit       0.011873
 1651 Fit       0.009659
 1652 Fit       0.006794
 1653 Fit       0.011516
 1654 Fit       0.010436
 1655 Fit       0.009262
 1656 Fit       0.006456
 1657 Fit       0.011725
 1658 Fit       0.010842
 1659 Fit       0.010534
 1660 Fit       0.010455
 1661 Fit       0.010907
 1662 Fit       0.010456
 1663 Fit       0.010662
 1664 Fit       0.010576
 1665 Fit      -0.004223
 1666 Fit       0.004086
 1667 Fit       0.007666
 1668 Fit       0.009220
 1669 Fit      -0.001862
 1670 Fit       0.004023
 1671 Fit       0.007042
 1672 Fit       0.008789
 1673 Fit      -0.007990
 1674 Fit      -0.010286
 1675 Fit       0.001318
 1676 Fit       0.005621
 1677 Fit      -0.001808
 1678 Fit       0.004517
 1679 Fit       0.007709
 1680 Fit       0.011504
 1681 Fit       0.007565
 1682 Fit       0.009176
 1683 Fit       0.004203
 1684 Fit       0.006627
 1685 Fit       0.009389
 1686 Fit       0.011924
 1687 Fit      -0.000033
 1688 Fit       0.004093
 1689 Fit       0.007745
 1690 Fit       0.010744
 1691 Fit      -0.003819
 1692 Fit       0.002250
 1693 Fit       0.006891
 1694 Fit       0.010713
 1695 Fit      -0.006661
 1696 Fit       0.001918
 1697 Fit       0.007968
 1698 Fit       0.010384
 1699 Fit       0.010568
 1700 Fit       0.010039
 1701 Fit       0.009577
 1702 Fit       0.008881
 1703 Fit       0.011156
 1704 Fit       0.011059
 1705 Fit       0.008592
 1706 Fit       0.005329
 1707 Fit       0.005433
 1708 Fit       0.010052
 1709 Fit      -0.013971
 1710 Fit      -0.017916
 1711 Fit      -0.015334
 1712 Fit      -0.017440
 1713 Fit      -0.011576
 1714 Fit      -0.014713
 1715 Fit      -0.014575
 1716 Fit       0.004414
 1717 Fit       0.001914
 1718 Fit       0.001825
 1719 Fit      -0.002114
 1720 Fit       0.002195
 1721 Fit      -0.000784
 1722 Fit      -0.007204
 1723 Fit      -0.011336
 1724 Fit      -0.000050
 1725 Fit       0.000798
 1726 Fit      -0.001025
 1727 Fit      -0.004694
 1728 Fit      -0.007936
 1729 Fit      -0.007715
 1730 Fit      -0.011932
 1731 Fit      -0.007982
 1732 Fit      -0.002579
 1733 Fit      -0.001142
 1734 Fit      -0.003490
 1735 Fit      -0.004552
 1736 Fit       0.007447
 1737 Fit      -0.002021
 1738 Fit       0.004206
 1739 Fit       0.002897
 1740 Fit       0.006672
 1741 Fit       0.001066
 1742 Fit       0.004144
 1743 Fit       0.002757
 1744 Fit      -0.000314
 1745 Fit      -0.006361
 1746 Fit       0.008549
 1747 Fit      -0.009034
 1748 Fit       0.005766
 1749 Fit       0.002996
 1750 Fit       0.007958
 1751 Fit       0.006321
 1752 Fit       0.004139
 1753 Fit       0.000394
 1754 Fit      -0.005640
 1755 Fit       0.007721
 1756 Fit       0.006295
 1757 Fit       0.004016
 1758 Fit       0.000135
 1759 Fit      -0.006611
 1760 Fit       0.006272
 1761 Fit       0.003601
 1762 Fit      -0.000974
 1763 Fit      -0.009517
 1764 Fit       0.003391
 1765 Fit      -0.002844
 1766 Fit       0.005842
 1767 Fit       0.004665
 1768 Fit       0.007446
 1769 Fit       0.008611
 1770 Fit       0.007180
 1771 Fit       0.004380
 1772 Fit       0.002332
 1773 Fit       0.009179
 1774 Fit       0.009398
 1775 Fit      -0.005977
 1776 Fit      -0.011595
 1777 Fit      -0.014497
 1778 Fit      -0.014613
 1779 Fit      -0.016718
 1780 Fit      -0.011563
 1781 Fit      -0.016778
 1782 Fit      -0.014676
 1783 Fit      -0.011912
 1784 Fit      -0.015558
 1785 Fit      -0.011816
 1786 Fit      -0.001409
 1787 Fit      -0.010568
 1788 Fit       0.002402
 1789 Fit       0.000911
 1790 Fit       0.005314
 1791 Fit       0.001596
 1792 Fit       0.000433
 1793 Fit      -0.000419
 1794 Fit       0.005066
 1795 Fit       0.000808
 1796 Fit      -0.008881
 1797 Fit      -0.012223
 1798 Fit      -0.010251
 1799 Fit      -0.012378
 1800 Fit      -0.011144
 1801 Fit      -0.006916
 1802 Fit      -0.011852
 1803 Fit      -0.006800
 1804 Fit      -0.011698
 1805 Fit      -0.003187
 1806 Fit       0.001635
 1807 Fit      -0.006264
 1808 Fit      -0.000640
 1809 Fit       0.003498
 1810 Fit       0.002441
 1811 Fit      -0.005088
 1812 Fit      -0.004963
 1813 Fit      -0.001411
 1814 Fit       0.002497
 1815 Fit      -0.000904
 1816 Fit       0.001503
 1817 Fit       0.000304
 1818 Fit      -0.000384
 1819 Fit       0.001307
 1820 Fit       0.004516
 1821 Fit      -0.003536
 1822 Fit       0.002021
 1823 Fit      -0.009660
 1824 Fit      -0.001164
 1825 Fit      -0.003761
 1826 Fit      -0.006906
 1827 Fit      -0.008837
 1828 Fit      -0.008532
 1829 Fit      -0.005166
 1830 Fit      -0.002936
 1831 Fit      -0.003529
 1832 Fit      -0.008859
 1833 Fit      -0.009997
 1834 Fit      -0.007101
 1835 Fit       0.004014
 1836 Fit      -0.004129
 1837 Fit      -0.008649
 1838 Fit      -0.009421
 1839 Fit      -0.006375
 1840 Fit       0.001489
 1841 Fit      -0.005174
 1842 Fit      -0.008640
 1843 Fit      -0.008603
 1844 Fit      -0.005141
 1845 Fit      -0.002380
 1846 Fit      -0.007424
 1847 Fit      -0.009429
 1848 Fit      -0.008317
 1849 Fit      -0.004816
 1850 Fit       0.003281
 1851 Fit      -0.004899
 1852 Fit      -0.009686
 1853 Fit      -0.010985
 1854 Fit      -0.009544
 1855 Fit      -0.002809
 1856 Fit      -0.009591
 1857 Fit      -0.012741
 1858 Fit      -0.012897
 1859 Fit      -0.002572
 1860 Fit      -0.009496
 1861 Fit      -0.013399
 1862 Fit      -0.013926
 1863 Fit      -0.003674
 1864 Fit      -0.009802
 1865 Fit      -0.012224
 1866 Fit      -0.008666
 1867 Fit      -0.002811
 1868 Fit      -0.007593
 1869 Fit       0.006090
 1870 Fit       0.002506
 1871 Fit       0.003905
 1872 Fit      -0.000387
 1873 Fit       0.003864
 1874 Fit       0.002710
 1875 Fit       0.002660
 1876 Fit       0.002941
 1877 Fit       0.001559
 1878 Fit       0.002746
 1879 Fit       0.010180
 1880 Fit       0.008731
 1881 Fit       0.001199
 1882 Fit      -0.001730
 1883 Fit       0.000541
 1884 Fit       0.002947
 1885 Fit       0.000457
 1886 Fit       0.005214
 1887 Fit       0.002402
 1888 Fit       0.002606
 1889 Fit       0.002588
 1890 Fit       0.003724
 1891 Fit       0.002259
 1892 Fit       0.003782
 1893 Fit       0.004534
 1894 Fit       0.001329
 1895 Fit       0.001046
 1896 Fit      -0.000112
 1897 Fit       0.009582
 1898 Fit       0.005861
 1899 Fit      -0.001057
 1900 Fit      -0.008007
 1901 Fit      -0.006947
 1902 Fit      -0.002075
 1903 Fit      -0.001460
 1904 Fit      -0.006225
 1905 Fit      -0.011680
 1906 Fit      -0.011884
 1907 Fit      -0.007629
 1908 Fit      -0.012979
 1909 Fit      -0.015007
 1910 Fit      -0.012946
 1911 Fit      -0.007977
 1912 Fit      -0.009084
 1913 Fit      -0.013904
 1914 Fit      -0.015380
 1915 Fit      -0.013322
 1916 Fit      -0.008324
 1917 Fit      -0.001133
 1918 Fit      -0.008399
 1919 Fit      -0.013004
 1920 Fit      -0.014714
 1921 Fit      -0.013351
 1922 Fit      -0.009294
 1923 Fit      -0.003177
 1924 Fit       0.000010
 1925 Fit      -0.006645
 1926 Fit      -0.011305
 1927 Fit      -0.013683
 1928 Fit      -0.013463
 1929 Fit      -0.010748
 1930 Fit      -0.006098
 1931 Fit      -0.000281
 1932 Fit      -0.002971
 1933 Fit      -0.008817
 1934 Fit      -0.012507
 1935 Fit      -0.013475
 1936 Fit      -0.011511
 1937 Fit      -0.007003
 1938 Fit      -0.000713
 1939 Fit      -0.003032
 1940 Fit      -0.009440
 1941 Fit      -0.012863
 1942 Fit      -0.012985
 1943 Fit      -0.009649
 1944 Fit      -0.007091
 1945 Fit      -0.011827
 1946 Fit      -0.012170
 1947 Fit      -0.007878
 1948 Fit      -0.009727
 1949 Fit      -0.007661
 1950 Fit      -0.005173
 1951 Fit      -0.000625
 1952 Fit      -0.002053
 1953 Fit      -0.001667
 1954 Fit      -0.001469
 1955 Fit      -0.002003
 1956 Fit      -0.004558
 1957 Fit      -0.001753
 1958 Fit      -0.001454
 1959 Fit      -0.002100
 1960 Fit      -0.000586
 1961 Fit      -0.003353
 1962 Fit       0.000381
 1963 Fit       0.003842
 1964 Fit       0.001669
 1965 Fit       0.005309
 1966 Fit       0.008220
 1967 Fit      -0.001001
 1968 Fit       0.000262
 1969 Fit       0.000372
 1970 Fit      -0.004187
 1971 Fit      -0.000649
 1972 Fit      -0.001396
 1973 Fit      -0.004801
 1974 Fit      -0.001692
 1975 Fit      -0.001215
 1976 Fit      -0.000097
 1977 Fit      -0.001179
 1978 Fit      -0.002114
 1979 Fit      -0.001717
 1980 Fit       0.011544
 1981 Fit       0.008660
 1982 Fit       0.005666
 1983 Fit       0.003850
 1984 Fit      -0.006144
 1985 Fit      -0.010619
 1986 Fit      -0.008828
 1987 Fit      -0.012442
 1988 Fit      -0.007840
 1989 Fit      -0.009237
 1990 Fit      -0.013169
 1991 Fit      -0.012291
 1992 Fit      -0.007673
 1993 Fit      -0.001266
 1994 Fit      -0.006959
 1995 Fit      -0.012315
 1996 Fit      -0.014058
 1997 Fit      -0.011439
 1998 Fit      -0.006518
 1999 Fit       0.000008
 2000 Fit      -0.004176
 2001 Fit      -0.009952
 2002 Fit      -0.013382
 2003 Fit      -0.013900
 2004 Fit      -0.011056
 2005 Fit      -0.005958
 2006 Fit      -0.001379
 2007 Fit      -0.007205
 2008 Fit      -0.011696
 2009 Fit      -0.014089
 2010 Fit      -0.013887
 2011 Fit      -0.011643
 2012 Fit      -0.005916
 2013 Fit      -0.006444
 2014 Fit      -0.011733
 2015 Fit      -0.014690
 2016 Fit      -0.014698
 2017 Fit      -0.012813
 2018 Fit      -0.007072
 2019 Fit      -0.011052
 2020 Fit      -0.014974
 2021 Fit      -0.015649
 2022 Fit      -0.013478
 2023 Fit      -0.008234
 2024 Fit      -0.008681
 2025 Fit      -0.013650
 2026 Fit      -0.015584
 2027 Fit      -0.012384
 2028 Fit      -0.006772
 2029 Fit      -0.001827
 2030 Fit      -0.002885
 2031 Fit      -0.007728
 2032 Fit      -0.012652
 2033 Fit      -0.008779
 2034 Fit       0.008054
 2035 Fit       0.005486
 2036 Fit      -0.001777
 2037 Fit       0.005323
 2038 Fit       0.002027
 2039 Fit       0.005290
 2040 Fit       0.007073
 2041 Fit       0.008410
 2042 Fit       0.001853
 2043 Fit       0.005134
 2044 Fit       0.006846
 2045 Fit       0.007927
 2046 Fit       0.001046
 2047 Fit       0.004622
 2048 Fit       0.006233
 2049 Fit       0.000359
 2050 Fit       0.004077
 2051 Fit       0.008690
 2052 Fit       0.008412
 2053 Fit       0.009415
 2054 Fit       0.013972
 2055 Fit       0.006110
 2056 Fit       0.007116
 2057 Fit       0.007723
 2058 Fit       0.008760
 2059 Fit       0.010544
 2060 Fit       0.000677
 2061 Fit       0.004582
 2062 Fit       0.006382
 2063 Fit       0.006864
 2064 Fit       0.003900
 2065 Fit       0.003871
 2066 Fit       0.003450
 2067 Fit       0.004667
 2068 Fit       0.003148
 2069 Fit       0.002912
 2070 Fit       0.004181
 2071 Fit       0.003991
 2072 Fit       0.002438
 2073 Fit       0.005303
 2074 Fit       0.005339
 2075 Fit       0.002118
 2076 Fit       0.007983
 2077 Fit       0.003120
 2078 Fit       0.005604
 2079 Fit       0.008434
 2080 Fit       0.008729
 2081 Fit       0.004498
 2082 Fit       0.004393
 2083 Fit       0.003522
 2084 Fit       0.005794
 2085 Fit       0.005886
 2086 Fit       0.005464
 2087 Fit       0.004272
 2088 Fit       0.002794
 2089 Fit       0.007265
 2090 Fit       0.006974
 2091 Fit       0.006399
 2092 Fit       0.005163
 2093 Fit       0.003757
 2094 Fit       0.008007
 2095 Fit       0.007303
 2096 Fit       0.006355
 2097 Fit       0.006283
 2098 Fit       0.008410
 2099 Fit       0.007907
 2100 Fit       0.004435
 2101 Fit       0.003123
 2102 Fit       0.002186
 2103 Fit       0.003389
 2104 Fit       0.003511
 2105 Fit       0.004129
 2106 Fit       0.003221
 2107 Fit       0.000779
 2108 Fit       0.001033
 2109 Fit       0.003137
 2110 Fit       0.003562
 2111 Fit      -0.003227
 2112 Fit       0.000423
 2113 Fit       0.003372
 2114 Fit       0.004053
 Job cpu time:       0 days  0 hours  4 minutes 51.2 seconds.
 Normal termination of Gaussian 16 at Sat Jul  8 22:07:00 2023.
