 Copyright (c) 1988-2019, Gaussian, Inc.  All Rights Reserved.
  
 This is part of the Gaussian(R) 16 program.  It is based on
 the Gaussian(R) 09 system (copyright 2009, Gaussian, Inc.),
 the Gaussian(R) 03 system (copyright 2003, Gaussian, Inc.),
 the Gaussian(R) 98 system (copyright 1998, Gaussian, Inc.),
 the Gaussian(R) 94 system (copyright 1995, Gaussian, Inc.),
 the Gaussian 92(TM) system (copyright 1992, Gaussian, Inc.),
 the Gaussian 90(TM) system (copyright 1990, Gaussian, Inc.),
 the Gaussian 88(TM) system (copyright 1988, Gaussian, Inc.),
 the Gaussian 86(TM) system (copyright 1986, Carnegie Mellon
 University), and the Gaussian 82(TM) system (copyright 1983,
 Carnegie Mellon University). Gaussian is a federally registered
 trademark of Gaussian, Inc.
 Cite this work as:
 Gaussian 16, Revision C.01,
 M. J. Frisch, G. W. Trucks, H. B. Schlegel, G. E. Scuseria, 
 M. A. Robb, J. R. Cheeseman, G. Scalmani, V. Barone, 
 G. A. Petersson, H. Nakatsuji, X. Li, M. Caricato, A. V. Marenich, 
 J. Bloino, B. G. Janesko, R. Gomperts, B. Mennucci, H. P. Hratchian, 
 J. V. Ortiz, A. F. Izmaylov, J. L. Sonnenberg, D. Williams-Young, 
 F. Ding, F. Lipparini, F. Egidi, J. Goings, B. Peng, A. Petrone, 
 T. Henderson, D. Ranasinghe, V. G. Zakrzewski, J. Gao, N. Rega, 
 G. Zheng, W. Liang, M. Hada, M. Ehara, K. Toyota, R. Fukuda, 
 J. Hasegawa, M. Ishida, T. Nakajima, Y. Honda, O. Kitao, H. Nakai, 
 T. Vreven, K. Throssell, J. A. Montgomery, Jr., J. E. Peralta, 
 F. Ogliaro, M. J. Bearpark, J. J. Heyd, E. N. Brothers, K. N. Kudin, 
 V. N. Staroverov, T. A. Keith, R. Kobayashi, J. Normand, 
 K. Raghavachari, A. P. Rendell, J. C. Burant, S. S. Iyengar, 
 J. Tomasi, M. Cossi, J. M. Millam, M. Klene, C. Adamo, R. Cammi, 
 J. W. Ochterski, R. L. Martin, K. Morokuma, O. Farkas, 
 J. B. Foresman, and D. J. Fox, Gaussian, Inc., Wallingford CT, 2019.
 
 ******************************************
 Gaussian 16:  EM64L-G16RevC.01  3-Jul-2019
                 8-Jul-2023 
 ******************************************
 ----------------------------------------------------------------------
 #P HF/6-31G(d) SCF(Conver=8,XQC,MaxConventionalCycles=64,MaxCycle=128)
  NoSymm Test Pop=mk IOp(6/33=2) GFInput GFPrint
 ----------------------------------------------------------------------
 1/38=1,172=1/1;
 2/12=2,15=1,17=6,18=5,40=1/2;
 3/5=1,6=6,7=1,11=9,24=110,25=1,30=1/1,2,3;
 4//1;
 5/5=2,6=8,7=128,8=3,13=1,38=5,85=64/2,8;
 6/7=2,8=2,9=2,10=2,15=8,20=1,28=1,33=2/1,2;
 99/5=1,9=1/99;
 -------------------------------------------------
 MEP step - Input generated by PyRED DVE-DMDS-OPLS
 -------------------------------------------------
 Symbolic Z-matrix:
 Charge =  0 Multiplicity = 1
 C                    -7.01062   0.27117   2.19719 
 H                    -7.7497    0.223     1.4043 
 H                    -6.6312   -0.73024   2.37023 
 H                    -7.5152    0.60664   3.09829 
 C                    -5.86762   1.21796   1.85569 
 H                    -6.24911   2.21799   1.65794 
 H                    -5.18742   1.28812   2.6949 
 O                    -5.09003   0.78317   0.77452 
 C                    -5.65725   0.91551  -0.49373 
 H                    -6.12321   1.89165  -0.60671 
 H                    -6.41797   0.15573  -0.6633 
 C                    -4.56598   0.76139  -1.52953 
 H                    -4.01624  -0.15272  -1.32806 
 H                    -5.01677   0.67033  -2.51487 
 O                    -3.72243   1.87762  -1.51377 
 C                    -2.34444   1.64551  -1.4683 
 H                    -1.86183   2.51009  -1.90556 
 H                    -2.07505   0.78197  -2.07203 
 C                    -1.85877   1.47883  -0.0332 
 H                    -2.35841   0.64882   0.45391 
 H                    -2.0999    2.37454   0.52399 
 O                    -0.46391   1.31946   0. 
 C                     0.        0.        0. 
 H                    -0.34603  -0.5254   -0.88976 
 H                    -0.37697  -0.53229   0.86893 
 C                     1.51817   0.        0. 
 H                     1.89059   0.58641  -0.83 
 H                     1.86528  -1.01661  -0.14837 
 S                     2.3261    0.51336   1.54276 
 C                     2.01276   2.30223   1.66476 
 H                     0.96256   2.46599   1.85422 
 H                     2.56616   2.60028   2.54722 
 C                     2.42435   3.16751   0.47687 
 H                     2.20514   4.19653   0.73939 
 H                     1.82756   2.92073  -0.3907 
 S                     4.1944    3.02557   0.07176 
 C                     4.35868   4.42514  -1.07593 
 H                     3.48789   4.44022  -1.72381 
 H                     5.20982   4.19558  -1.70398 
 C                     4.53137   5.8011   -0.42699 
 H                     4.36845   6.57287  -1.17077 
 H                     3.78822   5.95301   0.34506 
 S                     6.13682   6.0869    0.37648 
 C                     7.20208   6.50412  -1.03937 
 H                     8.21201   6.38488  -0.66557 
 H                     7.07119   5.76213  -1.81854 
 C                     7.01458   7.9137   -1.59336 
 H                     6.01222   8.06647  -1.97839 
 H                     7.19393   8.65691  -0.82533 
 H                     7.71072   8.08937  -2.40899 
 
 ITRead=  0  0  0  0  0  0  0  0  0  0  0  0  0  0  0  0  0  0  0  0
 ITRead=  0  0  0  0  0  0  0  0  0  0  0  0  0  0  0  0  0  0  0  0
 ITRead=  0  0  0  0  0  0  0  0  0  0
 MicOpt= -1 -1 -1 -1 -1 -1 -1 -1 -1 -1 -1 -1 -1 -1 -1 -1 -1 -1 -1 -1
 MicOpt= -1 -1 -1 -1 -1 -1 -1 -1 -1 -1 -1 -1 -1 -1 -1 -1 -1 -1 -1 -1
 MicOpt= -1 -1 -1 -1 -1 -1 -1 -1 -1 -1
 NAtoms=     50 NQM=       50 NQMF=       0 NMMI=      0 NMMIF=      0
                NMic=       0 NMicF=      0.
                          Input orientation:                          
 ---------------------------------------------------------------------
 Center     Atomic      Atomic             Coordinates (Angstroms)
 Number     Number       Type             X           Y           Z
 ---------------------------------------------------------------------
      1          6           0       -7.010619    0.271165    2.197189
      2          1           0       -7.749700    0.223002    1.404301
      3          1           0       -6.631203   -0.730240    2.370233
      4          1           0       -7.515197    0.606636    3.098285
      5          6           0       -5.867624    1.217958    1.855692
      6          1           0       -6.249106    2.217992    1.657935
      7          1           0       -5.187422    1.288116    2.694904
      8          8           0       -5.090034    0.783170    0.774520
      9          6           0       -5.657247    0.915511   -0.493730
     10          1           0       -6.123209    1.891651   -0.606712
     11          1           0       -6.417968    0.155730   -0.663301
     12          6           0       -4.565976    0.761385   -1.529530
     13          1           0       -4.016245   -0.152718   -1.328057
     14          1           0       -5.016766    0.670332   -2.514869
     15          8           0       -3.722428    1.877617   -1.513769
     16          6           0       -2.344436    1.645507   -1.468300
     17          1           0       -1.861833    2.510093   -1.905560
     18          1           0       -2.075051    0.781974   -2.072028
     19          6           0       -1.858770    1.478827   -0.033203
     20          1           0       -2.358407    0.648816    0.453912
     21          1           0       -2.099895    2.374538    0.523994
     22          8           0       -0.463911    1.319460    0.000000
     23          6           0        0.000000    0.000000    0.000000
     24          1           0       -0.346026   -0.525396   -0.889757
     25          1           0       -0.376972   -0.532286    0.868925
     26          6           0        1.518174    0.000000    0.000000
     27          1           0        1.890587    0.586406   -0.830000
     28          1           0        1.865278   -1.016613   -0.148369
     29         16           0        2.326104    0.513359    1.542762
     30          6           0        2.012762    2.302231    1.664761
     31          1           0        0.962561    2.465985    1.854216
     32          1           0        2.566163    2.600278    2.547221
     33          6           0        2.424354    3.167508    0.476871
     34          1           0        2.205142    4.196533    0.739394
     35          1           0        1.827558    2.920731   -0.390704
     36         16           0        4.194402    3.025570    0.071758
     37          6           0        4.358676    4.425141   -1.075933
     38          1           0        3.487893    4.440216   -1.723807
     39          1           0        5.209816    4.195579   -1.703979
     40          6           0        4.531374    5.801097   -0.426994
     41          1           0        4.368452    6.572874   -1.170765
     42          1           0        3.788218    5.953005    0.345060
     43         16           0        6.136816    6.086903    0.376480
     44          6           0        7.202082    6.504122   -1.039370
     45          1           0        8.212012    6.384882   -0.665574
     46          1           0        7.071194    5.762132   -1.818540
     47          6           0        7.014584    7.913700   -1.593356
     48          1           0        6.012222    8.066472   -1.978391
     49          1           0        7.193925    8.656910   -0.825333
     50          1           0        7.710715    8.089371   -2.408989
 ---------------------------------------------------------------------
 Stoichiometry    C14H30O3S3
 Framework group  C1[X(C14H30O3S3)]
 Standard basis: 6-31G(d) (6D, 7F)
   372 basis functions,   752 primitive gaussians,   372 cartesian basis functions
    93 alpha electrons       93 beta electrons
 Requested convergence on RMS density matrix=1.00D-08 within  64 cycles.
 Requested convergence on MAX density matrix=1.00D-06.
 Requested convergence on             energy=1.00D-06.
 SCF Done:  E(RHF) =  -1964.68614902     A.U. after   13 cycles
            NFock= 13  Conv=0.47D-08     -V/T= 2.0006
 Mulliken charges:
     1  C   -0.507335
     2  H    0.162075
     3  H    0.174223
     4  H    0.162695
     5  C    0.015177
     6  H    0.144902
     7  H    0.172901
     8  O   -0.628230
     9  C    0.012419
    10  H    0.155570
    11  H    0.140125
    12  C    0.006430
    13  H    0.154548
    14  H    0.155716
    15  O   -0.633012
    16  C   -0.004553
    17  H    0.176149
    18  H    0.141311
    19  C   -0.012655
    20  H    0.171975
    21  H    0.178819
    22  O   -0.642903
    23  C    0.029433
    24  H    0.139771
    25  H    0.163999
    26  C   -0.500846
    27  H    0.210916
    28  H    0.199645
    29  S    0.120888
    30  C   -0.473878
    31  H    0.221410
    32  H    0.205841
    33  C   -0.470329
    34  H    0.186082
    35  H    0.205585
    36  S    0.156533
    37  C   -0.480837
    38  H    0.189080
    39  H    0.202942
    40  C   -0.472981
    41  H    0.192109
    42  H    0.203355
    43  S    0.132952
    44  C   -0.478713
    45  H    0.201040
    46  H    0.185795
    47  C   -0.472079
    48  H    0.161065
    49  H    0.180005
    50  H    0.164868
 Sum of Mulliken charges =  -0.00000
 Dipole moment (field-independent basis, Debye):
    X=             -4.6314    Y=              0.2395    Z=             -3.2108  Tot=              5.6406
 Quadrupole moment (field-independent basis, Debye-Ang):
   XX=           -144.2701   YY=           -140.4822   ZZ=           -146.3875
   XY=              2.9539   XZ=            -19.7931   YZ=             -8.1913
 Traceless Quadrupole moment (field-independent basis, Debye-Ang):
   XX=             -0.5568   YY=              3.2311   ZZ=             -2.6742
   XY=              2.9539   XZ=            -19.7931   YZ=             -8.1913
 Octapole moment (field-independent basis, Debye-Ang**2):
  XXX=           -531.4587  YYY=          -1140.6442  ZZZ=            -30.9777  XYY=            -82.4615
  XXY=           -364.1243  XXZ=            -94.3890  XZZ=           -141.3646  YZZ=           -381.6331
  YYZ=            -77.6947  XYZ=            -97.8483
 Hexadecapole moment (field-independent basis, Debye-Ang**3):
 XXXX=         -17317.4399 YYYY=         -11496.0258 ZZZZ=          -1427.3859 XXXY=          -4417.1995
 XXXZ=           -197.3932 YYYX=          -4422.8951 YYYZ=            -60.8005 ZZZX=            433.4472
 ZZZY=            416.3582 XXYY=          -4759.0256 XXZZ=          -3221.6743 YYZZ=          -2150.7293
 XXYZ=           -303.6257 YYXZ=           -365.7765 ZZXY=          -1525.0020
 Merz-Kollman atomic radii used.
 Atom Element Radius
    1     6    1.50
    2     1    1.20
    3     1    1.20
    4     1    1.20
    5     6    1.50
    6     1    1.20
    7     1    1.20
    8     8    1.40
    9     6    1.50
   10     1    1.20
   11     1    1.20
   12     6    1.50
   13     1    1.20
   14     1    1.20
   15     8    1.40
   16     6    1.50
   17     1    1.20
   18     1    1.20
   19     6    1.50
   20     1    1.20
   21     1    1.20
   22     8    1.40
   23     6    1.50
   24     1    1.20
   25     1    1.20
   26     6    1.50
   27     1    1.20
   28     1    1.20
   29    16    1.75
   30     6    1.50
   31     1    1.20
   32     1    1.20
   33     6    1.50
   34     1    1.20
   35     1    1.20
   36    16    1.75
   37     6    1.50
   38     1    1.20
   39     1    1.20
   40     6    1.50
   41     1    1.20
   42     1    1.20
   43    16    1.75
   44     6    1.50
   45     1    1.20
   46     1    1.20
   47     6    1.50
   48     1    1.20
   49     1    1.20
   50     1    1.20
 Generate VDW surfaces: Layer= 4 Dens= 1 Start= 1.400 Inc= 0.200
            Electrostatic Properties Using The SCF Density.


       Atomic Center    1 is at  -7.010619  0.271165  2.197189
       Atomic Center    2 is at  -7.749700  0.223002  1.404301
       Atomic Center    3 is at  -6.631203 -0.730240  2.370233
       Atomic Center    4 is at  -7.515197  0.606636  3.098285
       Atomic Center    5 is at  -5.867624  1.217958  1.855692
       Atomic Center    6 is at  -6.249106  2.217992  1.657935
       Atomic Center    7 is at  -5.187422  1.288116  2.694904
       Atomic Center    8 is at  -5.090034  0.783170  0.774520
       Atomic Center    9 is at  -5.657247  0.915511 -0.493730
       Atomic Center   10 is at  -6.123209  1.891651 -0.606712
       Atomic Center   11 is at  -6.417968  0.155730 -0.663301
       Atomic Center   12 is at  -4.565976  0.761385 -1.529530
       Atomic Center   13 is at  -4.016245 -0.152718 -1.328057
       Atomic Center   14 is at  -5.016766  0.670332 -2.514869
       Atomic Center   15 is at  -3.722428  1.877617 -1.513769
       Atomic Center   16 is at  -2.344436  1.645507 -1.468300
       Atomic Center   17 is at  -1.861833  2.510093 -1.905560
       Atomic Center   18 is at  -2.075051  0.781974 -2.072028
       Atomic Center   19 is at  -1.858770  1.478827 -0.033203
       Atomic Center   20 is at  -2.358407  0.648816  0.453912
       Atomic Center   21 is at  -2.099895  2.374538  0.523994
       Atomic Center   22 is at  -0.463911  1.319460  0.000000
       Atomic Center   23 is at   0.000000  0.000000  0.000000
       Atomic Center   24 is at  -0.346026 -0.525396 -0.889757
       Atomic Center   25 is at  -0.376972 -0.532286  0.868925
       Atomic Center   26 is at   1.518174  0.000000  0.000000
       Atomic Center   27 is at   1.890587  0.586406 -0.830000
       Atomic Center   28 is at   1.865278 -1.016613 -0.148369
       Atomic Center   29 is at   2.326104  0.513359  1.542762
       Atomic Center   30 is at   2.012762  2.302231  1.664761
       Atomic Center   31 is at   0.962561  2.465985  1.854216
       Atomic Center   32 is at   2.566163  2.600278  2.547221
       Atomic Center   33 is at   2.424354  3.167508  0.476871
       Atomic Center   34 is at   2.205142  4.196533  0.739394
       Atomic Center   35 is at   1.827558  2.920731 -0.390704
       Atomic Center   36 is at   4.194402  3.025570  0.071758
       Atomic Center   37 is at   4.358676  4.425141 -1.075933
       Atomic Center   38 is at   3.487893  4.440216 -1.723807
       Atomic Center   39 is at   5.209816  4.195579 -1.703979
       Atomic Center   40 is at   4.531374  5.801097 -0.426994
       Atomic Center   41 is at   4.368452  6.572874 -1.170765
       Atomic Center   42 is at   3.788218  5.953005  0.345060
       Atomic Center   43 is at   6.136816  6.086903  0.376480
       Atomic Center   44 is at   7.202082  6.504122 -1.039370
       Atomic Center   45 is at   8.212012  6.384882 -0.665574
       Atomic Center   46 is at   7.071194  5.762132 -1.818540
       Atomic Center   47 is at   7.014584  7.913700 -1.593356
       Atomic Center   48 is at   6.012222  8.066472 -1.978391
       Atomic Center   49 is at   7.193925  8.656910 -0.825333
       Atomic Center   50 is at   7.710715  8.089371 -2.408989
      ESP Fit Center   51 is at  -5.960619  0.271165  4.015842
      ESP Fit Center   52 is at  -8.201584 -1.103281  3.247189
      ESP Fit Center   53 is at  -8.582492  1.663723  2.197189
      ESP Fit Center   54 is at  -8.582492 -1.121393  2.197189
      ESP Fit Center   55 is at  -9.251117  0.769473  1.923450
      ESP Fit Center   56 is at  -9.251117 -0.323469  1.923450
      ESP Fit Center   57 is at  -8.548587 -1.160712  1.923450
      ESP Fit Center   58 is at  -8.548587  1.606716  0.885152
      ESP Fit Center   59 is at  -9.251117  0.769473  0.885152
      ESP Fit Center   60 is at  -9.251117 -0.323469  0.885152
      ESP Fit Center   61 is at  -8.548587 -1.160712  0.885152
      ESP Fit Center   62 is at  -7.472249 -1.350499  0.885152
      ESP Fit Center   63 is at  -8.548587  0.803428  0.045152
      ESP Fit Center   64 is at  -8.548587 -0.357424  0.045152
      ESP Fit Center   65 is at  -6.631203 -0.730240  4.050233
      ESP Fit Center   66 is at  -5.643724 -0.730240  3.729382
      ESP Fit Center   67 is at  -7.430090 -1.310666  3.729382
      ESP Fit Center   68 is at  -6.326055 -1.669389  3.729382
      ESP Fit Center   69 is at  -5.033428 -0.730240  2.889382
      ESP Fit Center   70 is at  -7.430090 -2.113954  2.889382
      ESP Fit Center   71 is at  -6.353752 -2.303741  2.889382
      ESP Fit Center   72 is at  -5.407236 -1.757270  2.889382
      ESP Fit Center   73 is at  -7.430090 -2.113954  1.851084
      ESP Fit Center   74 is at  -6.353752 -2.303741  1.851084
      ESP Fit Center   75 is at  -5.407236 -1.757270  1.851084
      ESP Fit Center   76 is at  -6.326055 -1.669389  1.011084
      ESP Fit Center   77 is at  -7.515197  0.606636  4.778285
      ESP Fit Center   78 is at  -6.527718  0.606636  4.457434
      ESP Fit Center   79 is at  -7.210049  1.545785  4.457434
      ESP Fit Center   80 is at  -8.314084  1.187062  4.457434
      ESP Fit Center   81 is at  -8.314084  0.026210  4.457434
      ESP Fit Center   82 is at  -7.210049 -0.332513  4.457434
      ESP Fit Center   83 is at  -7.237746  2.180137  3.617434
      ESP Fit Center   84 is at  -8.314084  1.990350  3.617434
      ESP Fit Center   85 is at  -9.016614  1.153107  3.617434
      ESP Fit Center   86 is at  -9.016614  0.060165  3.617434
      ESP Fit Center   87 is at  -8.314084 -0.777078  3.617434
      ESP Fit Center   88 is at  -8.314084  1.990350  2.579136
      ESP Fit Center   89 is at  -9.016614  1.153107  2.579136
      ESP Fit Center   90 is at  -6.392624  2.127285  3.674345
      ESP Fit Center   91 is at  -4.008166  2.193877  1.855692
      ESP Fit Center   92 is at  -4.674688  2.946224  1.855692
      ESP Fit Center   93 is at  -5.943958  3.157141  3.017084
      ESP Fit Center   94 is at  -7.047993  2.798418  3.017084
      ESP Fit Center   95 is at  -5.025139  3.245022  2.177084
      ESP Fit Center   96 is at  -5.971655  3.791493  2.177084
      ESP Fit Center   97 is at  -7.047993  3.601706  2.177084
      ESP Fit Center   98 is at  -7.750523  2.764463  2.177084
      ESP Fit Center   99 is at  -5.025139  3.245022  1.138786
      ESP Fit Center  100 is at  -5.971655  3.791493  1.138786
      ESP Fit Center  101 is at  -7.047993  3.601706  1.138786
      ESP Fit Center  102 is at  -7.750523  2.764463  1.138786
      ESP Fit Center  103 is at  -5.187422  1.288116  4.374904
      ESP Fit Center  104 is at  -4.199943  1.288116  4.054053
      ESP Fit Center  105 is at  -4.882274  2.227265  4.054053
      ESP Fit Center  106 is at  -5.986309  1.868542  4.054053
      ESP Fit Center  107 is at  -5.986309  0.707690  4.054053
      ESP Fit Center  108 is at  -4.882274  0.348967  4.054053
      ESP Fit Center  109 is at  -3.589647  1.288116  3.214053
      ESP Fit Center  110 is at  -3.963455  2.315146  3.214053
      ESP Fit Center  111 is at  -4.909971  2.861617  3.214053
      ESP Fit Center  112 is at  -4.909971 -0.285385  3.214053
      ESP Fit Center  113 is at  -3.963455  0.261086  3.214053
      ESP Fit Center  114 is at  -3.589647  1.288116  2.175755
      ESP Fit Center  115 is at  -3.963455  2.315146  2.175755
      ESP Fit Center  116 is at  -3.716801  1.780882  1.754520
      ESP Fit Center  117 is at  -4.565506 -0.831163  1.754520
      ESP Fit Center  118 is at  -3.716801 -0.214542  1.754520
      ESP Fit Center  119 is at  -4.110034  2.480580  0.774520
      ESP Fit Center  120 is at  -5.090034 -1.176830  0.774520
      ESP Fit Center  121 is at  -4.110034 -0.914240  0.774520
      ESP Fit Center  122 is at  -6.707247  0.915511 -2.312383
      ESP Fit Center  123 is at  -4.899242  2.918681 -0.087563
      ESP Fit Center  124 is at  -5.845758  3.465152 -0.087563
      ESP Fit Center  125 is at  -6.922096  3.275365 -0.087563
      ESP Fit Center  126 is at  -7.624626  2.438122 -0.087563
      ESP Fit Center  127 is at  -5.845758  3.465152 -1.125861
      ESP Fit Center  128 is at  -6.922096  3.275365 -1.125861
      ESP Fit Center  129 is at  -7.624626  2.438122 -1.125861
      ESP Fit Center  130 is at  -7.624626  1.345180 -1.125861
      ESP Fit Center  131 is at  -5.818061  2.830800 -1.965861
      ESP Fit Center  132 is at  -6.922096  2.472077 -1.965861
      ESP Fit Center  133 is at  -7.216855 -1.227984 -0.144152
      ESP Fit Center  134 is at  -6.140517 -1.417771 -0.144152
      ESP Fit Center  135 is at  -7.919385  0.702201 -1.182450
      ESP Fit Center  136 is at  -7.919385 -0.390741 -1.182450
      ESP Fit Center  137 is at  -7.216855 -1.227984 -1.182450
      ESP Fit Center  138 is at  -6.140517 -1.417771 -1.182450
      ESP Fit Center  139 is at  -7.216855  0.736156 -2.022450
      ESP Fit Center  140 is at  -7.216855 -0.424696 -2.022450
      ESP Fit Center  141 is at  -6.112820 -0.783419 -2.022450
      ESP Fit Center  142 is at  -4.824797 -1.038757 -2.579530
      ESP Fit Center  143 is at  -3.515976  0.761385 -3.348183
      ESP Fit Center  144 is at  -3.711097 -1.091867  0.031092
      ESP Fit Center  145 is at  -4.815132 -1.536432 -0.808908
      ESP Fit Center  146 is at  -3.738794 -1.726219 -0.808908
      ESP Fit Center  147 is at  -2.792278 -1.179748 -0.808908
      ESP Fit Center  148 is at  -4.815132 -1.536432 -1.847206
      ESP Fit Center  149 is at  -3.738794 -1.726219 -1.847206
      ESP Fit Center  150 is at  -2.792278 -1.179748 -1.847206
      ESP Fit Center  151 is at  -3.711097 -1.091867 -2.687206
      ESP Fit Center  152 is at  -5.815653  2.054046 -3.034018
      ESP Fit Center  153 is at  -6.518183  1.216803 -3.034018
      ESP Fit Center  154 is at  -6.518183  0.123861 -3.034018
      ESP Fit Center  155 is at  -5.815653 -0.713382 -3.034018
      ESP Fit Center  156 is at  -4.739315 -0.903169 -3.034018
      ESP Fit Center  157 is at  -4.029287  0.670332 -3.874018
      ESP Fit Center  158 is at  -4.711618  1.609481 -3.874018
      ESP Fit Center  159 is at  -5.815653  1.250758 -3.874018
      ESP Fit Center  160 is at  -5.815653  0.089906 -3.874018
      ESP Fit Center  161 is at  -4.711618 -0.268817 -3.874018
      ESP Fit Center  162 is at  -5.016766  0.670332 -4.194869
      ESP Fit Center  163 is at  -4.212428  2.726322  0.183641
      ESP Fit Center  164 is at  -3.197900  3.491950 -0.533769
      ESP Fit Center  165 is at  -4.246956  3.491950 -0.533769
      ESP Fit Center  166 is at  -3.722428  3.837617 -1.513769
      ESP Fit Center  167 is at  -4.702428  3.575027 -1.513769
      ESP Fit Center  168 is at  -3.197900  3.491950 -2.493769
      ESP Fit Center  169 is at  -4.246956  3.491950 -2.493769
      ESP Fit Center  170 is at  -5.095661  2.875329 -2.493769
      ESP Fit Center  171 is at  -3.232428  2.726322 -3.211179
      ESP Fit Center  172 is at  -4.212428  2.726322 -3.211179
      ESP Fit Center  173 is at  -3.722428  1.877617 -3.473769
      ESP Fit Center  174 is at  -0.525783  1.645507 -2.518300
      ESP Fit Center  175 is at  -1.294436  1.645507 -3.286953
      ESP Fit Center  176 is at  -2.869436  2.554834 -3.286953
      ESP Fit Center  177 is at  -2.344436  1.645507 -3.568300
      ESP Fit Center  178 is at  -0.637866  3.537123 -1.386411
      ESP Fit Center  179 is at  -1.584382  4.083594 -1.386411
      ESP Fit Center  180 is at  -2.660720  3.893807 -1.386411
      ESP Fit Center  181 is at  -0.264058  2.510093 -2.424709
      ESP Fit Center  182 is at  -0.637866  3.537123 -2.424709
      ESP Fit Center  183 is at  -1.584382  4.083594 -2.424709
      ESP Fit Center  184 is at  -2.660720  3.893807 -2.424709
      ESP Fit Center  185 is at  -0.874354  2.510093 -3.264709
      ESP Fit Center  186 is at  -1.556685  3.449242 -3.264709
      ESP Fit Center  187 is at  -2.660720  3.090519 -3.264709
      ESP Fit Center  188 is at  -1.861833  2.510093 -3.585560
      ESP Fit Center  189 is at  -0.477276  0.781974 -2.591177
      ESP Fit Center  190 is at  -2.873938 -0.601740 -2.591177
      ESP Fit Center  191 is at  -1.797600 -0.791527 -2.591177
      ESP Fit Center  192 is at  -0.851084 -0.245056 -2.591177
      ESP Fit Center  193 is at  -1.087572  0.781974 -3.431177
      ESP Fit Center  194 is at  -2.873938  0.201548 -3.431177
      ESP Fit Center  195 is at  -1.769903 -0.157175 -3.431177
      ESP Fit Center  196 is at  -2.075051  0.781974 -3.752028
      ESP Fit Center  197 is at  -1.858770  1.478827  2.066797
      ESP Fit Center  198 is at  -1.333770  0.569500  1.785450
      ESP Fit Center  199 is at  -2.358407  0.648816  2.133912
      ESP Fit Center  200 is at  -3.157294  1.229242  1.813061
      ESP Fit Center  201 is at  -3.157294  0.068390  1.813061
      ESP Fit Center  202 is at  -2.053259 -0.290333  1.813061
      ESP Fit Center  203 is at  -3.157294 -0.734898  0.973061
      ESP Fit Center  204 is at  -2.080956 -0.924685  0.973061
      ESP Fit Center  205 is at  -2.080956 -0.924685 -0.065237
      ESP Fit Center  206 is at  -2.099895  2.374538  2.203994
      ESP Fit Center  207 is at  -1.112416  2.374538  1.883143
      ESP Fit Center  208 is at  -1.794747  3.313687  1.883143
      ESP Fit Center  209 is at  -2.898782  2.954964  1.883143
      ESP Fit Center  210 is at  -2.898782  1.794112  1.883143
      ESP Fit Center  211 is at  -0.875928  3.401568  1.043143
      ESP Fit Center  212 is at  -1.822444  3.948039  1.043143
      ESP Fit Center  213 is at  -2.898782  3.758252  1.043143
      ESP Fit Center  214 is at  -3.601312  2.921009  1.043143
      ESP Fit Center  215 is at  -0.875928  3.401568  0.004845
      ESP Fit Center  216 is at  -1.822444  3.948039  0.004845
      ESP Fit Center  217 is at  -2.898782  3.758252  0.004845
      ESP Fit Center  218 is at  -0.463911  1.319460  1.960000
      ESP Fit Center  219 is at  -0.463911  3.279460  0.000000
      ESP Fit Center  220 is at   0.060617  2.933793 -0.980000
      ESP Fit Center  221 is at   0.516089  1.319460 -1.697410
      ESP Fit Center  222 is at   0.026089  2.168165 -1.697410
      ESP Fit Center  223 is at  -1.571873 -1.392558  0.000000
      ESP Fit Center  224 is at  -0.744670 -1.963534  0.000000
      ESP Fit Center  225 is at   0.253127 -2.084689  0.000000
      ESP Fit Center  226 is at   0.525000  0.909327 -1.818653
      ESP Fit Center  227 is at  -1.847443 -1.071867 -0.370608
      ESP Fit Center  228 is at  -1.144913 -1.909110 -0.370608
      ESP Fit Center  229 is at  -0.068575 -2.098897 -0.370608
      ESP Fit Center  230 is at  -1.847443 -1.071867 -1.408906
      ESP Fit Center  231 is at  -1.144913 -1.909110 -1.408906
      ESP Fit Center  232 is at  -0.068575 -2.098897 -1.408906
      ESP Fit Center  233 is at   0.877941 -1.552426 -1.408906
      ESP Fit Center  234 is at   0.641453 -0.525396 -2.248906
      ESP Fit Center  235 is at  -0.040878  0.413753 -2.248906
      ESP Fit Center  236 is at  -1.144913 -1.105822 -2.248906
      ESP Fit Center  237 is at  -0.040878 -1.464545 -2.248906
      ESP Fit Center  238 is at  -0.346026 -0.525396 -2.569757
      ESP Fit Center  239 is at  -0.376972 -0.532286  2.548925
      ESP Fit Center  240 is at  -0.071824  0.406863  2.228074
      ESP Fit Center  241 is at  -1.175859  0.048140  2.228074
      ESP Fit Center  242 is at  -1.175859 -1.112712  2.228074
      ESP Fit Center  243 is at  -0.071824 -1.471435  2.228074
      ESP Fit Center  244 is at  -1.878389 -1.078757  1.388074
      ESP Fit Center  245 is at  -1.175859 -1.916000  1.388074
      ESP Fit Center  246 is at  -0.099521 -2.105787  1.388074
      ESP Fit Center  247 is at   0.846995 -1.559316  1.388074
      ESP Fit Center  248 is at  -1.878389 -1.078757  0.349776
      ESP Fit Center  249 is at  -1.175859 -1.916000  0.349776
      ESP Fit Center  250 is at  -0.099521 -2.105787  0.349776
      ESP Fit Center  251 is at   2.043174 -0.909327 -1.818653
      ESP Fit Center  252 is at   3.488362  0.586406 -1.349149
      ESP Fit Center  253 is at   3.114554 -0.440624 -1.349149
      ESP Fit Center  254 is at   2.878066  0.586406 -2.189149
      ESP Fit Center  255 is at   2.195735  1.525555 -2.189149
      ESP Fit Center  256 is at   1.091700  1.166832 -2.189149
      ESP Fit Center  257 is at   1.091700  0.005980 -2.189149
      ESP Fit Center  258 is at   2.195735 -0.352743 -2.189149
      ESP Fit Center  259 is at   1.890587  0.586406 -2.510000
      ESP Fit Center  260 is at   2.170426 -1.955762  1.210780
      ESP Fit Center  261 is at   1.066391 -2.400327  0.370780
      ESP Fit Center  262 is at   2.142729 -2.590114  0.370780
      ESP Fit Center  263 is at   3.089245 -2.043643  0.370780
      ESP Fit Center  264 is at   3.463053 -1.016613 -0.667518
      ESP Fit Center  265 is at   1.066391 -2.400327 -0.667518
      ESP Fit Center  266 is at   2.142729 -2.590114 -0.667518
      ESP Fit Center  267 is at   3.089245 -2.043643 -0.667518
      ESP Fit Center  268 is at   2.852757 -1.016613 -1.507518
      ESP Fit Center  269 is at   1.066391 -1.597039 -1.507518
      ESP Fit Center  270 is at   2.170426 -1.955762 -1.507518
      ESP Fit Center  271 is at   1.865278 -1.016613 -1.828369
      ESP Fit Center  272 is at   2.326104  0.513359  3.992762
      ESP Fit Center  273 is at   3.389119  0.513359  3.750136
      ESP Fit Center  274 is at   2.857612  1.433957  3.750136
      ESP Fit Center  275 is at   1.794596  1.433957  3.750136
      ESP Fit Center  276 is at   1.263089  0.513359  3.750136
      ESP Fit Center  277 is at   1.794596 -0.407239  3.750136
      ESP Fit Center  278 is at   2.857612 -0.407239  3.750136
      ESP Fit Center  279 is at   4.241591  0.513359  3.070312
      ESP Fit Center  280 is at   3.937514  1.548950  3.070312
      ESP Fit Center  281 is at   0.488208  1.053014  3.070312
      ESP Fit Center  282 is at   0.488208 -0.026296  3.070312
      ESP Fit Center  283 is at   1.071727 -0.934270  3.070312
      ESP Fit Center  284 is at   2.053502 -1.382631  3.070312
      ESP Fit Center  285 is at   3.121826 -1.229029  3.070312
      ESP Fit Center  286 is at   3.937514 -0.522232  3.070312
      ESP Fit Center  287 is at   4.714677  0.513359  2.087938
      ESP Fit Center  288 is at   4.478134  1.549722  2.087938
      ESP Fit Center  289 is at   0.836853 -1.354103  2.087938
      ESP Fit Center  290 is at   1.794596 -1.815328  2.087938
      ESP Fit Center  291 is at   2.857612 -1.815328  2.087938
      ESP Fit Center  292 is at   3.815355 -1.354103  2.087938
      ESP Fit Center  293 is at   4.478134 -0.523004  2.087938
      ESP Fit Center  294 is at   4.714677  0.513359  0.997586
      ESP Fit Center  295 is at   2.857612 -1.815328  0.997586
      ESP Fit Center  296 is at   3.815355 -1.354103  0.997586
      ESP Fit Center  297 is at   4.478134 -0.523004  0.997586
      ESP Fit Center  298 is at   4.241591  0.513359  0.015212
      ESP Fit Center  299 is at   3.937514 -0.522232  0.015212
      ESP Fit Center  300 is at   1.753941  4.102373  2.714761
      ESP Fit Center  301 is at   0.962561  2.465985  3.534216
      ESP Fit Center  302 is at   0.163674  3.046411  3.213365
      ESP Fit Center  303 is at   0.163674  1.885559  3.213365
      ESP Fit Center  304 is at   0.163674  3.849699  2.373365
      ESP Fit Center  305 is at  -0.538856  3.012456  2.373365
      ESP Fit Center  306 is at  -0.538856  1.919514  2.373365
      ESP Fit Center  307 is at   0.163674  3.849699  1.335067
      ESP Fit Center  308 is at  -0.538856  3.012456  1.335067
      ESP Fit Center  309 is at   2.566163  2.600278  4.227221
      ESP Fit Center  310 is at   3.553642  2.600278  3.906370
      ESP Fit Center  311 is at   2.871311  3.539427  3.906370
      ESP Fit Center  312 is at   1.767276  3.180704  3.906370
      ESP Fit Center  313 is at   1.767276  2.019852  3.906370
      ESP Fit Center  314 is at   2.871311  1.661129  3.906370
      ESP Fit Center  315 is at   4.163938  2.600278  3.066370
      ESP Fit Center  316 is at   3.790130  3.627308  3.066370
      ESP Fit Center  317 is at   2.843614  4.173779  3.066370
      ESP Fit Center  318 is at   1.767276  3.983992  3.066370
      ESP Fit Center  319 is at   0.385376  3.670071  0.476871
      ESP Fit Center  320 is at   2.510290  5.135682  2.098543
      ESP Fit Center  321 is at   1.406255  4.776959  2.098543
      ESP Fit Center  322 is at   1.406255  5.580247  1.258543
      ESP Fit Center  323 is at   0.703725  4.743004  1.258543
      ESP Fit Center  324 is at   1.406255  5.580247  0.220245
      ESP Fit Center  325 is at   0.703725  4.743004  0.220245
      ESP Fit Center  326 is at   1.406255  4.776959 -0.619755
      ESP Fit Center  327 is at   0.326141  3.467202  0.128445
      ESP Fit Center  328 is at   1.028671  4.304445 -0.909853
      ESP Fit Center  329 is at   0.326141  3.467202 -0.909853
      ESP Fit Center  330 is at   1.028671  3.501157 -1.749853
      ESP Fit Center  331 is at   1.028671  2.340305 -1.749853
      ESP Fit Center  332 is at   2.132706  1.981582 -1.749853
      ESP Fit Center  333 is at   1.827558  2.920731 -2.070704
      ESP Fit Center  334 is at   4.194402  3.025570  2.521758
      ESP Fit Center  335 is at   5.257417  3.025570  2.279132
      ESP Fit Center  336 is at   4.725910  3.946168  2.279132
      ESP Fit Center  337 is at   3.662894  3.946168  2.279132
      ESP Fit Center  338 is at   4.725910  2.104972  2.279132
      ESP Fit Center  339 is at   6.109889  3.025570  1.599308
      ESP Fit Center  340 is at   4.990124  1.283182  1.599308
      ESP Fit Center  341 is at   5.805812  1.989979  1.599308
      ESP Fit Center  342 is at   6.582975  3.025570  0.616934
      ESP Fit Center  343 is at   4.725910  0.696883  0.616934
      ESP Fit Center  344 is at   5.683653  1.158108  0.616934
      ESP Fit Center  345 is at   6.346432  1.989207  0.616934
      ESP Fit Center  346 is at   6.582975  3.025570 -0.473418
      ESP Fit Center  347 is at   4.725910  0.696883 -0.473418
      ESP Fit Center  348 is at   5.683653  1.158108 -0.473418
      ESP Fit Center  349 is at   6.346432  1.989207 -0.473418
      ESP Fit Center  350 is at   3.921800  1.129580 -1.455792
      ESP Fit Center  351 is at   4.990124  1.283182 -1.455792
      ESP Fit Center  352 is at   5.805812  1.989979 -1.455792
      ESP Fit Center  353 is at   3.662894  2.104972 -2.135616
      ESP Fit Center  354 is at   4.725910  2.104972 -2.135616
      ESP Fit Center  355 is at   4.358676  4.425141 -3.175933
      ESP Fit Center  356 is at   1.986476  4.986687 -1.204658
      ESP Fit Center  357 is at   2.689006  5.823930 -2.242956
      ESP Fit Center  358 is at   1.986476  4.986687 -2.242956
      ESP Fit Center  359 is at   1.986476  3.893745 -2.242956
      ESP Fit Center  360 is at   2.689006  3.056502 -2.242956
      ESP Fit Center  361 is at   3.793041  5.379365 -3.082956
      ESP Fit Center  362 is at   2.689006  5.020642 -3.082956
      ESP Fit Center  363 is at   2.689006  3.859790 -3.082956
      ESP Fit Center  364 is at   3.793041  3.501067 -3.082956
      ESP Fit Center  365 is at   3.487893  4.440216 -3.403807
      ESP Fit Center  366 is at   6.807591  4.195579 -1.184830
      ESP Fit Center  367 is at   6.433783  3.168549 -1.184830
      ESP Fit Center  368 is at   5.487267  2.622078 -2.223128
      ESP Fit Center  369 is at   6.433783  3.168549 -2.223128
      ESP Fit Center  370 is at   6.197295  4.195579 -3.063128
      ESP Fit Center  371 is at   5.514964  5.134728 -3.063128
      ESP Fit Center  372 is at   4.410929  3.615153 -3.063128
      ESP Fit Center  373 is at   5.514964  3.256430 -3.063128
      ESP Fit Center  374 is at   5.209816  4.195579 -3.383979
      ESP Fit Center  375 is at   4.645903  8.146375 -0.651616
      ESP Fit Center  376 is at   3.569565  7.956588 -0.651616
      ESP Fit Center  377 is at   2.867035  7.119345 -0.651616
      ESP Fit Center  378 is at   3.569565  7.956588 -1.689914
      ESP Fit Center  379 is at   2.867035  7.119345 -1.689914
      ESP Fit Center  380 is at   2.867035  6.026403 -1.689914
      ESP Fit Center  381 is at   5.355931  6.572874 -2.529914
      ESP Fit Center  382 is at   3.569565  7.153300 -2.529914
      ESP Fit Center  383 is at   3.569565  5.992448 -2.529914
      ESP Fit Center  384 is at   4.368452  6.572874 -2.850765
      ESP Fit Center  385 is at   3.788218  5.953005  2.025060
      ESP Fit Center  386 is at   4.093366  6.892154  1.704209
      ESP Fit Center  387 is at   2.989331  6.533431  1.704209
      ESP Fit Center  388 is at   2.989331  5.372579  1.704209
      ESP Fit Center  389 is at   4.093366  5.013856  1.704209
      ESP Fit Center  390 is at   4.065669  7.526506  0.864209
      ESP Fit Center  391 is at   2.989331  7.336719  0.864209
      ESP Fit Center  392 is at   2.286801  6.499476  0.864209
      ESP Fit Center  393 is at   2.989331  7.336719 -0.174089
      ESP Fit Center  394 is at   2.286801  6.499476 -0.174089
      ESP Fit Center  395 is at   6.136816  6.086903  2.826480
      ESP Fit Center  396 is at   7.199831  6.086903  2.583854
      ESP Fit Center  397 is at   6.668324  7.007501  2.583854
      ESP Fit Center  398 is at   5.605308  7.007501  2.583854
      ESP Fit Center  399 is at   5.073801  6.086903  2.583854
      ESP Fit Center  400 is at   5.605308  5.166305  2.583854
      ESP Fit Center  401 is at   6.668324  5.166305  2.583854
      ESP Fit Center  402 is at   8.052303  6.086903  1.904030
      ESP Fit Center  403 is at   7.748226  7.122494  1.904030
      ESP Fit Center  404 is at   6.932538  7.829291  1.904030
      ESP Fit Center  405 is at   5.864214  7.982893  1.904030
      ESP Fit Center  406 is at   4.882439  7.534532  1.904030
      ESP Fit Center  407 is at   4.298920  6.626558  1.904030
      ESP Fit Center  408 is at   4.298920  5.547248  1.904030
      ESP Fit Center  409 is at   4.882439  4.639274  1.904030
      ESP Fit Center  410 is at   5.864214  4.190913  1.904030
      ESP Fit Center  411 is at   6.932538  4.344515  1.904030
      ESP Fit Center  412 is at   7.748226  5.051312  1.904030
      ESP Fit Center  413 is at   8.288846  7.123266  0.921656
      ESP Fit Center  414 is at   7.626067  7.954365  0.921656
      ESP Fit Center  415 is at   6.668324  8.415590  0.921656
      ESP Fit Center  416 is at   5.605308  8.415590  0.921656
      ESP Fit Center  417 is at   4.647565  7.954365  0.921656
      ESP Fit Center  418 is at   6.668324  3.758216  0.921656
      ESP Fit Center  419 is at   7.626067  4.219441  0.921656
      ESP Fit Center  420 is at   8.288846  5.050540  0.921656
      ESP Fit Center  421 is at   4.647565  7.954365 -0.168696
      ESP Fit Center  422 is at   6.668324  3.758216 -0.168696
      ESP Fit Center  423 is at   7.626067  4.219441 -0.168696
      ESP Fit Center  424 is at   8.732031  5.520884 -2.089370
      ESP Fit Center  425 is at   8.252082  6.504122 -2.858023
      ESP Fit Center  426 is at   9.199491  6.384882  0.693575
      ESP Fit Center  427 is at   8.517160  7.324031  0.693575
      ESP Fit Center  428 is at   8.517160  5.445733  0.693575
      ESP Fit Center  429 is at   9.809787  6.384882 -0.146425
      ESP Fit Center  430 is at   9.435979  7.411912 -0.146425
      ESP Fit Center  431 is at   8.489463  4.811381 -0.146425
      ESP Fit Center  432 is at   9.435979  5.357852 -0.146425
      ESP Fit Center  433 is at   9.809787  6.384882 -1.184723
      ESP Fit Center  434 is at   9.435979  7.411912 -1.184723
      ESP Fit Center  435 is at   8.489463  4.811381 -1.184723
      ESP Fit Center  436 is at   9.435979  5.357852 -1.184723
      ESP Fit Center  437 is at   9.199491  6.384882 -2.024723
      ESP Fit Center  438 is at   7.348645  4.188631 -1.299391
      ESP Fit Center  439 is at   7.348645  4.188631 -2.337689
      ESP Fit Center  440 is at   8.295161  4.735102 -2.337689
      ESP Fit Center  441 is at   8.058673  5.762132 -3.177689
      ESP Fit Center  442 is at   6.272307  6.342558 -3.177689
      ESP Fit Center  443 is at   6.272307  5.181706 -3.177689
      ESP Fit Center  444 is at   7.376342  4.822983 -3.177689
      ESP Fit Center  445 is at   7.071194  5.762132 -3.498540
      ESP Fit Center  446 is at   6.269914  9.877234 -1.593356
      ESP Fit Center  447 is at   6.755763  9.713842 -2.643356
      ESP Fit Center  448 is at   6.489584  8.823027 -3.412009
      ESP Fit Center  449 is at   6.489584  7.004373 -3.412009
      ESP Fit Center  450 is at   5.213335  8.646898 -0.619242
      ESP Fit Center  451 is at   5.213335  9.450186 -1.459242
      ESP Fit Center  452 is at   4.510805  8.612943 -1.459242
      ESP Fit Center  453 is at   5.213335  9.450186 -2.497540
      ESP Fit Center  454 is at   4.510805  8.612943 -2.497540
      ESP Fit Center  455 is at   6.317370  9.005621 -3.337540
      ESP Fit Center  456 is at   5.213335  8.646898 -3.337540
      ESP Fit Center  457 is at   5.213335  7.486046 -3.337540
      ESP Fit Center  458 is at   6.012222  8.066472 -3.658391
      ESP Fit Center  459 is at   7.193925  8.656910  0.854667
      ESP Fit Center  460 is at   8.181404  8.656910  0.533816
      ESP Fit Center  461 is at   7.499073  9.596059  0.533816
      ESP Fit Center  462 is at   6.395038  9.237336  0.533816
      ESP Fit Center  463 is at   8.791700  8.656910 -0.306184
      ESP Fit Center  464 is at   8.417892  9.683940 -0.306184
      ESP Fit Center  465 is at   7.471376 10.230411 -0.306184
      ESP Fit Center  466 is at   6.395038 10.040624 -0.306184
      ESP Fit Center  467 is at   5.692508  9.203381 -0.306184
      ESP Fit Center  468 is at   8.417892  9.683940 -1.344482
      ESP Fit Center  469 is at   7.471376 10.230411 -1.344482
      ESP Fit Center  470 is at   6.395038 10.040624 -1.344482
      ESP Fit Center  471 is at   9.308490  8.089371 -1.889840
      ESP Fit Center  472 is at   8.934682  9.116401 -1.889840
      ESP Fit Center  473 is at   9.308490  8.089371 -2.928138
      ESP Fit Center  474 is at   8.934682  9.116401 -2.928138
      ESP Fit Center  475 is at   7.988166  9.662872 -2.928138
      ESP Fit Center  476 is at   8.934682  7.062341 -2.928138
      ESP Fit Center  477 is at   8.698194  8.089371 -3.768138
      ESP Fit Center  478 is at   8.015863  9.028520 -3.768138
      ESP Fit Center  479 is at   6.911828  8.669797 -3.768138
      ESP Fit Center  480 is at   6.911828  7.508945 -3.768138
      ESP Fit Center  481 is at   8.015863  7.150222 -3.768138
      ESP Fit Center  482 is at   7.710715  8.089371 -4.088989
      ESP Fit Center  483 is at  -5.969298  0.271165  4.359514
      ESP Fit Center  484 is at  -6.489959 -0.630645  4.359514
      ESP Fit Center  485 is at  -8.239397 -1.146920  3.693565
      ESP Fit Center  486 is at  -9.118730 -0.744048  2.731239
      ESP Fit Center  487 is at  -8.469477 -1.558185  2.731239
      ESP Fit Center  488 is at  -8.469477  2.100515  1.663139
      ESP Fit Center  489 is at  -8.469477 -1.558185  1.663139
      ESP Fit Center  490 is at  -7.277658 -1.586132  0.700813
      ESP Fit Center  491 is at  -9.412469  0.223002  2.364301
      ESP Fit Center  492 is at  -8.709700  1.885771  1.404301
      ESP Fit Center  493 is at  -9.412469  1.183002  1.404301
      ESP Fit Center  494 is at  -9.669700  0.223002  1.404301
      ESP Fit Center  495 is at  -9.412469 -0.736998  1.404301
      ESP Fit Center  496 is at  -8.709700 -1.439767  1.404301
      ESP Fit Center  497 is at  -8.263524  1.804389  0.444301
      ESP Fit Center  498 is at  -9.094908  1.200353  0.444301
      ESP Fit Center  499 is at  -9.412469  0.223002  0.444301
      ESP Fit Center  500 is at  -9.094908 -0.754349  0.444301
      ESP Fit Center  501 is at  -8.263524 -1.358385  0.444301
      ESP Fit Center  502 is at  -7.235876 -1.358385  0.444301
      ESP Fit Center  503 is at  -8.229700  1.054386 -0.258468
      ESP Fit Center  504 is at  -8.709700  0.223002 -0.258468
      ESP Fit Center  505 is at  -8.229700 -0.608382 -0.258468
      ESP Fit Center  506 is at  -5.671203 -0.730240  4.033002
      ESP Fit Center  507 is at  -7.111203 -1.561624  4.033002
      ESP Fit Center  508 is at  -6.151203 -1.561624  4.033002
      ESP Fit Center  509 is at  -4.968434 -0.730240  3.330233
      ESP Fit Center  510 is at  -7.976411 -1.707591  3.330233
      ESP Fit Center  511 is at  -7.145027 -2.311627  3.330233
      ESP Fit Center  512 is at  -6.117379 -2.311627  3.330233
      ESP Fit Center  513 is at  -5.285995 -1.707591  3.330233
      ESP Fit Center  514 is at  -7.591203 -2.393009  2.370233
      ESP Fit Center  515 is at  -6.631203 -2.650240  2.370233
      ESP Fit Center  516 is at  -5.671203 -2.393009  2.370233
      ESP Fit Center  517 is at  -4.968434 -1.690240  2.370233
      ESP Fit Center  518 is at  -7.145027 -2.311627  1.410233
      ESP Fit Center  519 is at  -6.117379 -2.311627  1.410233
      ESP Fit Center  520 is at  -5.285995 -1.707591  1.410233
      ESP Fit Center  521 is at  -6.151203 -1.561624  0.707464
      ESP Fit Center  522 is at  -7.515197  0.606636  5.018285
      ESP Fit Center  523 is at  -6.555197  0.606636  4.761054
      ESP Fit Center  524 is at  -7.035197  1.438020  4.761054
      ESP Fit Center  525 is at  -7.995197  1.438020  4.761054
      ESP Fit Center  526 is at  -8.475197  0.606636  4.761054
      ESP Fit Center  527 is at  -7.995197 -0.224748  4.761054
      ESP Fit Center  528 is at  -7.035197 -0.224748  4.761054
      ESP Fit Center  529 is at  -7.001373  2.188023  4.058285
      ESP Fit Center  530 is at  -8.029021  2.188023  4.058285
      ESP Fit Center  531 is at  -8.860405  1.583987  4.058285
      ESP Fit Center  532 is at  -9.177966  0.606636  4.058285
      ESP Fit Center  533 is at  -8.860405 -0.370715  4.058285
      ESP Fit Center  534 is at  -8.029021 -0.974751  4.058285
      ESP Fit Center  535 is at  -7.515197  2.526636  3.098285
      ESP Fit Center  536 is at  -8.475197  2.269405  3.098285
      ESP Fit Center  537 is at  -9.177966  1.566636  3.098285
      ESP Fit Center  538 is at  -9.435197  0.606636  3.098285
      ESP Fit Center  539 is at  -9.177966 -0.353364  3.098285
      ESP Fit Center  540 is at  -6.388284  2.119768  4.018017
      ESP Fit Center  541 is at  -7.096402  2.636043  3.352068
      ESP Fit Center  542 is at  -4.408766  3.047308  2.389742
      ESP Fit Center  543 is at  -4.408766 -0.611392  2.389742
      ESP Fit Center  544 is at  -4.408766  3.047308  1.321642
      ESP Fit Center  545 is at  -6.729106  3.049376  3.320704
      ESP Fit Center  546 is at  -5.735282  3.799379  2.617935
      ESP Fit Center  547 is at  -6.762930  3.799379  2.617935
      ESP Fit Center  548 is at  -7.594314  3.195343  2.617935
      ESP Fit Center  549 is at  -5.289106  3.880761  1.657935
      ESP Fit Center  550 is at  -6.249106  4.137992  1.657935
      ESP Fit Center  551 is at  -7.209106  3.880761  1.657935
      ESP Fit Center  552 is at  -7.911875  3.177992  1.657935
      ESP Fit Center  553 is at  -4.903898  3.195343  0.697935
      ESP Fit Center  554 is at  -5.735282  3.799379  0.697935
      ESP Fit Center  555 is at  -6.762930  3.799379  0.697935
      ESP Fit Center  556 is at  -7.594314  3.195343  0.697935
      ESP Fit Center  557 is at  -7.911875  2.217992  0.697935
      ESP Fit Center  558 is at  -5.187422  1.288116  4.614904
      ESP Fit Center  559 is at  -4.227422  1.288116  4.357673
      ESP Fit Center  560 is at  -4.707422  2.119500  4.357673
      ESP Fit Center  561 is at  -5.667422  2.119500  4.357673
      ESP Fit Center  562 is at  -6.147422  1.288116  4.357673
      ESP Fit Center  563 is at  -5.667422  0.456732  4.357673
      ESP Fit Center  564 is at  -4.707422  0.456732  4.357673
      ESP Fit Center  565 is at  -3.524653  1.288116  3.654904
      ESP Fit Center  566 is at  -3.842214  2.265467  3.654904
      ESP Fit Center  567 is at  -4.673598  2.869503  3.654904
      ESP Fit Center  568 is at  -5.701246  2.869503  3.654904
      ESP Fit Center  569 is at  -4.673598 -0.293271  3.654904
      ESP Fit Center  570 is at  -3.842214  0.310765  3.654904
      ESP Fit Center  571 is at  -3.267422  1.288116  2.694904
      ESP Fit Center  572 is at  -3.524653  2.248116  2.694904
      ESP Fit Center  573 is at  -4.227422  2.950885  2.694904
      ESP Fit Center  574 is at  -4.227422 -0.374653  2.694904
      ESP Fit Center  575 is at  -3.524653  0.328116  2.694904
      ESP Fit Center  576 is at  -3.338731  0.783170  2.171137
      ESP Fit Center  577 is at  -4.548852 -0.882418  2.171137
      ESP Fit Center  578 is at  -3.673200 -0.246220  2.171137
      ESP Fit Center  579 is at  -4.826801 -1.384746  1.272967
      ESP Fit Center  580 is at  -3.849472 -1.014094  1.272967
      ESP Fit Center  581 is at  -4.826801 -1.384746  0.276073
      ESP Fit Center  582 is at  -5.136587 -1.365652  0.040320
      ESP Fit Center  583 is at  -7.457635  1.444153 -1.990106
      ESP Fit Center  584 is at  -5.609385  3.473038  0.353288
      ESP Fit Center  585 is at  -7.785978  1.891651  0.353288
      ESP Fit Center  586 is at  -5.163209  3.554420 -0.606712
      ESP Fit Center  587 is at  -6.123209  3.811651 -0.606712
      ESP Fit Center  588 is at  -7.083209  3.554420 -0.606712
      ESP Fit Center  589 is at  -7.785978  2.851651 -0.606712
      ESP Fit Center  590 is at  -8.043209  1.891651 -0.606712
      ESP Fit Center  591 is at  -5.609385  3.473038 -1.566712
      ESP Fit Center  592 is at  -6.637033  3.473038 -1.566712
      ESP Fit Center  593 is at  -7.468417  2.869002 -1.566712
      ESP Fit Center  594 is at  -7.785978  1.891651 -1.566712
      ESP Fit Center  595 is at  -6.603209  2.723035 -2.269481
      ESP Fit Center  596 is at  -7.083209  1.891651 -2.269481
      ESP Fit Center  597 is at  -6.931792 -1.425657  0.296699
      ESP Fit Center  598 is at  -5.904144 -1.425657  0.296699
      ESP Fit Center  599 is at  -8.080737  1.115730 -0.663301
      ESP Fit Center  600 is at  -8.337968  0.155730 -0.663301
      ESP Fit Center  601 is at  -8.080737 -0.804270 -0.663301
      ESP Fit Center  602 is at  -7.377968 -1.507039 -0.663301
      ESP Fit Center  603 is at  -6.417968 -1.764270 -0.663301
      ESP Fit Center  604 is at  -5.457968 -1.507039 -0.663301
      ESP Fit Center  605 is at  -8.080737  0.155730 -1.623301
      ESP Fit Center  606 is at  -7.763176 -0.821621 -1.623301
      ESP Fit Center  607 is at  -6.931792 -1.425657 -1.623301
      ESP Fit Center  608 is at  -5.904144 -1.425657 -1.623301
      ESP Fit Center  609 is at  -7.377968  0.155730 -2.326070
      ESP Fit Center  610 is at  -6.897968 -0.675654 -2.326070
      ESP Fit Center  611 is at  -3.536245 -0.984102  0.334712
      ESP Fit Center  612 is at  -4.530069 -1.734105 -0.368057
      ESP Fit Center  613 is at  -3.502421 -1.734105 -0.368057
      ESP Fit Center  614 is at  -2.671037 -1.130069 -0.368057
      ESP Fit Center  615 is at  -4.976245 -1.815487 -1.328057
      ESP Fit Center  616 is at  -4.016245 -2.072718 -1.328057
      ESP Fit Center  617 is at  -3.056245 -1.815487 -1.328057
      ESP Fit Center  618 is at  -2.353476 -1.112718 -1.328057
      ESP Fit Center  619 is at  -4.530069 -1.734105 -2.288057
      ESP Fit Center  620 is at  -3.502421 -1.734105 -2.288057
      ESP Fit Center  621 is at  -2.671037 -1.130069 -2.288057
      ESP Fit Center  622 is at  -3.536245 -0.984102 -2.990826
      ESP Fit Center  623 is at  -6.936766  0.670332 -2.514869
      ESP Fit Center  624 is at  -6.679535 -0.289668 -2.514869
      ESP Fit Center  625 is at  -5.976766 -0.992437 -2.514869
      ESP Fit Center  626 is at  -5.530590  2.251719 -3.474869
      ESP Fit Center  627 is at  -6.361974  1.647683 -3.474869
      ESP Fit Center  628 is at  -6.679535  0.670332 -3.474869
      ESP Fit Center  629 is at  -6.361974 -0.307019 -3.474869
      ESP Fit Center  630 is at  -5.530590 -0.911055 -3.474869
      ESP Fit Center  631 is at  -4.502942 -0.911055 -3.474869
      ESP Fit Center  632 is at  -4.056766  0.670332 -4.177638
      ESP Fit Center  633 is at  -4.536766  1.501716 -4.177638
      ESP Fit Center  634 is at  -5.496766  1.501716 -4.177638
      ESP Fit Center  635 is at  -5.976766  0.670332 -4.177638
      ESP Fit Center  636 is at  -5.496766 -0.161052 -4.177638
      ESP Fit Center  637 is at  -4.536766 -0.161052 -4.177638
      ESP Fit Center  638 is at  -5.016766  0.670332 -4.434869
      ESP Fit Center  639 is at  -4.263610  3.543205 -0.117152
      ESP Fit Center  640 is at  -3.459195  4.045533 -1.015322
      ESP Fit Center  641 is at  -4.496828  3.919541 -1.015322
      ESP Fit Center  642 is at  -3.459195  4.045533 -2.012216
      ESP Fit Center  643 is at  -4.496828  3.919541 -2.012216
      ESP Fit Center  644 is at  -5.357055  3.325770 -2.012216
      ESP Fit Center  645 is at  -3.181246  3.543205 -2.910386
      ESP Fit Center  646 is at  -4.263610  3.543205 -2.910386
      ESP Fit Center  647 is at  -5.139262  2.907007 -2.910386
      ESP Fit Center  648 is at  -3.236478  2.719307 -3.531939
      ESP Fit Center  649 is at  -4.208378  2.719307 -3.531939
      ESP Fit Center  650 is at  -3.722428  1.877617 -3.753769
      ESP Fit Center  651 is at  -2.865096  3.926670 -0.934250
      ESP Fit Center  652 is at  -0.468040  1.645507 -2.964676
      ESP Fit Center  653 is at  -1.303115  1.645507 -3.630625
      ESP Fit Center  654 is at  -2.865096  2.547317 -3.630625
      ESP Fit Center  655 is at  -2.344436  1.645507 -3.868300
      ESP Fit Center  656 is at  -0.516625  3.487444 -0.945560
      ESP Fit Center  657 is at  -1.348009  4.091480 -0.945560
      ESP Fit Center  658 is at  -2.375657  4.091480 -0.945560
      ESP Fit Center  659 is at   0.058167  2.510093 -1.905560
      ESP Fit Center  660 is at  -0.199064  3.470093 -1.905560
      ESP Fit Center  661 is at  -0.901833  4.172862 -1.905560
      ESP Fit Center  662 is at  -1.861833  4.430093 -1.905560
      ESP Fit Center  663 is at  -2.821833  4.172862 -1.905560
      ESP Fit Center  664 is at  -0.199064  2.510093 -2.865560
      ESP Fit Center  665 is at  -0.516625  3.487444 -2.865560
      ESP Fit Center  666 is at  -1.348009  4.091480 -2.865560
      ESP Fit Center  667 is at  -2.375657  4.091480 -2.865560
      ESP Fit Center  668 is at  -0.901833  2.510093 -3.568329
      ESP Fit Center  669 is at  -1.381833  3.341477 -3.568329
      ESP Fit Center  670 is at  -2.341833  3.341477 -3.568329
      ESP Fit Center  671 is at  -1.861833  2.510093 -3.825560
      ESP Fit Center  672 is at  -2.075051 -1.138026 -2.072028
      ESP Fit Center  673 is at  -0.412282  0.781974 -3.032028
      ESP Fit Center  674 is at  -2.588875 -0.799413 -3.032028
      ESP Fit Center  675 is at  -1.561227 -0.799413 -3.032028
      ESP Fit Center  676 is at  -0.729843 -0.195377 -3.032028
      ESP Fit Center  677 is at  -1.115051  0.781974 -3.734797
      ESP Fit Center  678 is at  -3.035051  0.781974 -3.734797
      ESP Fit Center  679 is at  -2.555051 -0.049410 -3.734797
      ESP Fit Center  680 is at  -1.595051 -0.049410 -3.734797
      ESP Fit Center  681 is at  -2.075051  0.781974 -3.992028
      ESP Fit Center  682 is at  -1.858770  1.478827  2.366797
      ESP Fit Center  683 is at  -2.900091  1.478827  2.129122
      ESP Fit Center  684 is at  -1.338110  0.577017  2.129122
      ESP Fit Center  685 is at  -2.358407  0.648816  2.373912
      ESP Fit Center  686 is at  -2.838407 -0.182568  2.116681
      ESP Fit Center  687 is at  -1.878407 -0.182568  2.116681
      ESP Fit Center  688 is at  -2.872231 -0.932571  1.413912
      ESP Fit Center  689 is at  -3.318407 -1.013953  0.453912
      ESP Fit Center  690 is at  -2.358407 -1.271184  0.453912
      ESP Fit Center  691 is at  -2.099895  2.374538  2.443994
      ESP Fit Center  692 is at  -1.139895  2.374538  2.186763
      ESP Fit Center  693 is at  -1.619895  3.205922  2.186763
      ESP Fit Center  694 is at  -2.579895  3.205922  2.186763
      ESP Fit Center  695 is at  -3.059895  2.374538  2.186763
      ESP Fit Center  696 is at  -0.754687  3.351889  1.483994
      ESP Fit Center  697 is at  -1.586071  3.955925  1.483994
      ESP Fit Center  698 is at  -2.613719  3.955925  1.483994
      ESP Fit Center  699 is at  -3.445103  3.351889  1.483994
      ESP Fit Center  700 is at  -1.139895  4.037307  0.523994
      ESP Fit Center  701 is at  -2.099895  4.294538  0.523994
      ESP Fit Center  702 is at  -3.059895  4.037307  0.523994
      ESP Fit Center  703 is at  -3.762664  3.334538  0.523994
      ESP Fit Center  704 is at  -1.586071  3.955925 -0.436006
      ESP Fit Center  705 is at  -2.613719  3.955925 -0.436006
      ESP Fit Center  706 is at  -0.200678  3.487376  0.498447
      ESP Fit Center  707 is at  -0.200678  3.487376 -0.498447
      ESP Fit Center  708 is at   0.077271  2.985048 -1.396617
      ESP Fit Center  709 is at   0.507989  1.319460 -2.018170
      ESP Fit Center  710 is at   0.520660 -2.281163  0.534050
      ESP Fit Center  711 is at   0.520660  0.901810 -2.162325
      ESP Fit Center  712 is at  -2.008795 -1.485396 -0.889757
      ESP Fit Center  713 is at  -1.306026 -2.188165 -0.889757
      ESP Fit Center  714 is at  -0.346026 -2.445396 -0.889757
      ESP Fit Center  715 is at  -1.691234 -1.502747 -1.849757
      ESP Fit Center  716 is at  -0.859850 -2.106783 -1.849757
      ESP Fit Center  717 is at   0.167798 -2.106783 -1.849757
      ESP Fit Center  718 is at   0.999182 -1.502747 -1.849757
      ESP Fit Center  719 is at   0.613974 -0.525396 -2.552526
      ESP Fit Center  720 is at   0.133974  0.305988 -2.552526
      ESP Fit Center  721 is at  -0.826026 -1.356780 -2.552526
      ESP Fit Center  722 is at   0.133974 -1.356780 -2.552526
      ESP Fit Center  723 is at  -0.346026 -0.525396 -2.809757
      ESP Fit Center  724 is at  -0.376972 -0.532286  2.788925
      ESP Fit Center  725 is at  -0.856972  0.299098  2.531694
      ESP Fit Center  726 is at  -1.336972 -0.532286  2.531694
      ESP Fit Center  727 is at  -0.856972 -1.363670  2.531694
      ESP Fit Center  728 is at   0.103028 -1.363670  2.531694
      ESP Fit Center  729 is at  -1.722180 -1.509637  1.828925
      ESP Fit Center  730 is at  -0.890796 -2.113673  1.828925
      ESP Fit Center  731 is at   0.136852 -2.113673  1.828925
      ESP Fit Center  732 is at  -2.039741 -1.492286  0.868925
      ESP Fit Center  733 is at  -1.336972 -2.195055  0.868925
      ESP Fit Center  734 is at  -0.376972 -2.452286  0.868925
      ESP Fit Center  735 is at   0.583028 -2.195055  0.868925
      ESP Fit Center  736 is at   2.038834 -0.901810 -2.162325
      ESP Fit Center  737 is at   3.553356  0.586406 -1.790000
      ESP Fit Center  738 is at   3.235795 -0.390945 -1.790000
      ESP Fit Center  739 is at   2.850587  0.586406 -2.492769
      ESP Fit Center  740 is at   2.370587  1.417790 -2.492769
      ESP Fit Center  741 is at   1.410587  1.417790 -2.492769
      ESP Fit Center  742 is at   0.930587  0.586406 -2.492769
      ESP Fit Center  743 is at   1.410587 -0.244978 -2.492769
      ESP Fit Center  744 is at   2.370587 -0.244978 -2.492769
      ESP Fit Center  745 is at   1.890587  0.586406 -2.750000
      ESP Fit Center  746 is at   1.351454 -2.598000  0.811631
      ESP Fit Center  747 is at   2.379102 -2.598000  0.811631
      ESP Fit Center  748 is at   0.905278 -2.679382 -0.148369
      ESP Fit Center  749 is at   1.865278 -2.936613 -0.148369
      ESP Fit Center  750 is at   2.825278 -2.679382 -0.148369
      ESP Fit Center  751 is at   3.528047 -1.976613 -0.148369
      ESP Fit Center  752 is at   3.528047 -1.016613 -1.108369
      ESP Fit Center  753 is at   1.351454 -2.598000 -1.108369
      ESP Fit Center  754 is at   2.379102 -2.598000 -1.108369
      ESP Fit Center  755 is at   3.210486 -1.993964 -1.108369
      ESP Fit Center  756 is at   2.825278 -1.016613 -1.811138
      ESP Fit Center  757 is at   1.385278 -1.847997 -1.811138
      ESP Fit Center  758 is at   2.345278 -1.847997 -1.811138
      ESP Fit Center  759 is at   2.326104  0.513359  4.342762
      ESP Fit Center  760 is at   3.397618  0.513359  4.129625
      ESP Fit Center  761 is at   2.861861  1.441317  4.129625
      ESP Fit Center  762 is at   1.790347  1.441317  4.129625
      ESP Fit Center  763 is at   1.254590  0.513359  4.129625
      ESP Fit Center  764 is at   1.790347 -0.414599  4.129625
      ESP Fit Center  765 is at   2.861861 -0.414599  4.129625
      ESP Fit Center  766 is at   4.306003  0.513359  3.522661
      ESP Fit Center  767 is at   4.040747  1.503308  3.522661
      ESP Fit Center  768 is at   0.611461  1.503308  3.522661
      ESP Fit Center  769 is at   0.346205  0.513359  3.522661
      ESP Fit Center  770 is at   0.611461 -0.476590  3.522661
      ESP Fit Center  771 is at   1.336155 -1.201284  3.522661
      ESP Fit Center  772 is at   2.326104 -1.466540  3.522661
      ESP Fit Center  773 is at   3.316053 -1.201284  3.522661
      ESP Fit Center  774 is at   4.040747 -0.476590  3.522661
      ESP Fit Center  775 is at   4.912967  0.513359  2.614276
      ESP Fit Center  776 is at   4.689321  1.565531  2.614276
      ESP Fit Center  777 is at  -0.204230  1.051198  2.614276
      ESP Fit Center  778 is at   1.032673 -1.726930  2.614276
      ESP Fit Center  779 is at   2.055703 -2.059333  2.614276
      ESP Fit Center  780 is at   3.125489 -1.946894  2.614276
      ESP Fit Center  781 is at   4.057053 -1.409055  2.614276
      ESP Fit Center  782 is at   4.689321 -0.538813  2.614276
      ESP Fit Center  783 is at   5.126104  0.513359  1.542762
      ESP Fit Center  784 is at   1.559848 -2.179753  1.542762
      ESP Fit Center  785 is at   2.584455 -2.274697  1.542762
      ESP Fit Center  786 is at   3.574171 -1.993098  1.542762
      ESP Fit Center  787 is at   4.395329 -1.372989  1.542762
      ESP Fit Center  788 is at   4.937026 -0.498118  1.542762
      ESP Fit Center  789 is at   4.057053 -1.409055  0.471248
      ESP Fit Center  790 is at   4.689321 -0.538813  0.471248
      ESP Fit Center  791 is at   4.040747 -0.476590 -0.437137
      ESP Fit Center  792 is at   0.971441  2.302231  3.827086
      ESP Fit Center  793 is at   0.482561  3.297369  3.516985
      ESP Fit Center  794 is at   0.002561  2.465985  3.516985
      ESP Fit Center  795 is at   0.482561  1.634601  3.516985
      ESP Fit Center  796 is at   0.448737  4.047372  2.814216
      ESP Fit Center  797 is at  -0.382647  3.443336  2.814216
      ESP Fit Center  798 is at  -0.700208  2.465985  2.814216
      ESP Fit Center  799 is at  -0.382647  1.488634  2.814216
      ESP Fit Center  800 is at   0.002561  4.128754  1.854216
      ESP Fit Center  801 is at  -0.700208  3.425985  1.854216
      ESP Fit Center  802 is at  -0.382647  3.443336  0.894216
      ESP Fit Center  803 is at   2.566163  2.600278  4.467221
      ESP Fit Center  804 is at   3.526163  2.600278  4.209990
      ESP Fit Center  805 is at   3.046163  3.431662  4.209990
      ESP Fit Center  806 is at   2.086163  3.431662  4.209990
      ESP Fit Center  807 is at   1.606163  2.600278  4.209990
      ESP Fit Center  808 is at   2.086163  1.768894  4.209990
      ESP Fit Center  809 is at   3.046163  1.768894  4.209990
      ESP Fit Center  810 is at   4.228932  2.600278  3.507221
      ESP Fit Center  811 is at   3.911371  3.577629  3.507221
      ESP Fit Center  812 is at   3.079987  4.181665  3.507221
      ESP Fit Center  813 is at   2.052339  4.181665  3.507221
      ESP Fit Center  814 is at   3.526163  4.263047  2.547221
      ESP Fit Center  815 is at   0.316243  4.182721 -0.057179
      ESP Fit Center  816 is at   2.685142  5.027917  2.402163
      ESP Fit Center  817 is at   1.725142  5.027917  2.402163
      ESP Fit Center  818 is at   1.691318  5.777920  1.699394
      ESP Fit Center  819 is at   0.859934  5.173884  1.699394
      ESP Fit Center  820 is at   1.245142  5.859302  0.739394
      ESP Fit Center  821 is at   0.542373  5.156533  0.739394
      ESP Fit Center  822 is at   1.691318  5.777920 -0.220606
      ESP Fit Center  823 is at   0.859934  5.173884 -0.220606
      ESP Fit Center  824 is at   1.725142  5.027917 -0.923375
      ESP Fit Center  825 is at   0.164789  3.880731 -0.390704
      ESP Fit Center  826 is at   1.313734  4.502118 -1.350704
      ESP Fit Center  827 is at   0.482350  3.898082 -1.350704
      ESP Fit Center  828 is at   1.347558  3.752115 -2.053473
      ESP Fit Center  829 is at   0.867558  2.920731 -2.053473
      ESP Fit Center  830 is at   1.347558  2.089347 -2.053473
      ESP Fit Center  831 is at   2.307558  2.089347 -2.053473
      ESP Fit Center  832 is at   1.827558  2.920731 -2.310704
      ESP Fit Center  833 is at   5.265916  3.025570  2.658621
      ESP Fit Center  834 is at   4.730159  3.953528  2.658621
      ESP Fit Center  835 is at   4.730159  2.097612  2.658621
      ESP Fit Center  836 is at   6.174301  3.025570  2.051657
      ESP Fit Center  837 is at   5.184351  1.310927  2.051657
      ESP Fit Center  838 is at   5.909045  2.035621  2.051657
      ESP Fit Center  839 is at   6.781265  3.025570  1.143272
      ESP Fit Center  840 is at   5.925351  1.103156  1.143272
      ESP Fit Center  841 is at   6.557619  1.973398  1.143272
      ESP Fit Center  842 is at   6.994402  3.025570  0.071758
      ESP Fit Center  843 is at   5.442469  0.519113  0.071758
      ESP Fit Center  844 is at   6.263627  1.139222  0.071758
      ESP Fit Center  845 is at   6.805324  2.014093  0.071758
      ESP Fit Center  846 is at   6.781265  3.025570 -0.999756
      ESP Fit Center  847 is at   3.924001  0.452878 -0.999756
      ESP Fit Center  848 is at   4.993787  0.565317 -0.999756
      ESP Fit Center  849 is at   5.925351  1.103156 -0.999756
      ESP Fit Center  850 is at   6.557619  1.973398 -0.999756
      ESP Fit Center  851 is at   4.194402  1.045671 -1.908141
      ESP Fit Center  852 is at   5.184351  1.310927 -1.908141
      ESP Fit Center  853 is at   5.909045  2.035621 -1.908141
      ESP Fit Center  854 is at   3.658645  2.097612 -2.515105
      ESP Fit Center  855 is at   4.730159  2.097612 -2.515105
      ESP Fit Center  856 is at   4.879336  5.326951 -3.238258
      ESP Fit Center  857 is at   4.358676  4.425141 -3.475933
      ESP Fit Center  858 is at   2.142685  5.417567 -0.763807
      ESP Fit Center  859 is at   2.527893  6.102985 -1.723807
      ESP Fit Center  860 is at   1.825124  5.400216 -1.723807
      ESP Fit Center  861 is at   1.567893  4.440216 -1.723807
      ESP Fit Center  862 is at   2.974069  6.021603 -2.683807
      ESP Fit Center  863 is at   2.142685  5.417567 -2.683807
      ESP Fit Center  864 is at   1.825124  4.440216 -2.683807
      ESP Fit Center  865 is at   2.142685  3.462865 -2.683807
      ESP Fit Center  866 is at   2.974069  2.858829 -2.683807
      ESP Fit Center  867 is at   3.967893  5.271600 -3.386576
      ESP Fit Center  868 is at   3.007893  5.271600 -3.386576
      ESP Fit Center  869 is at   2.527893  4.440216 -3.386576
      ESP Fit Center  870 is at   3.007893  3.608832 -3.386576
      ESP Fit Center  871 is at   3.967893  3.608832 -3.386576
      ESP Fit Center  872 is at   3.487893  4.440216 -3.643807
      ESP Fit Center  873 is at   6.872585  3.235579 -1.703979
      ESP Fit Center  874 is at   4.695992  2.614192 -2.663979
      ESP Fit Center  875 is at   5.723640  2.614192 -2.663979
      ESP Fit Center  876 is at   6.555024  3.218228 -2.663979
      ESP Fit Center  877 is at   6.169816  4.195579 -3.366748
      ESP Fit Center  878 is at   5.689816  5.026963 -3.366748
      ESP Fit Center  879 is at   4.729816  3.364195 -3.366748
      ESP Fit Center  880 is at   5.689816  3.364195 -3.366748
      ESP Fit Center  881 is at   5.209816  4.195579 -3.623979
      ESP Fit Center  882 is at   4.010714  8.082260  0.107056
      ESP Fit Center  883 is at   2.423263  6.816310 -0.961044
      ESP Fit Center  884 is at   2.191547  5.801097 -0.961044
      ESP Fit Center  885 is at   3.854628  8.154261 -0.210765
      ESP Fit Center  886 is at   3.408452  8.235643 -1.170765
      ESP Fit Center  887 is at   2.705683  7.532874 -1.170765
      ESP Fit Center  888 is at   3.854628  8.154261 -2.130765
      ESP Fit Center  889 is at   3.023244  7.550225 -2.130765
      ESP Fit Center  890 is at   2.705683  6.572874 -2.130765
      ESP Fit Center  891 is at   3.888452  7.404258 -2.833534
      ESP Fit Center  892 is at   3.408452  6.572874 -2.833534
      ESP Fit Center  893 is at   4.368452  6.572874 -3.090765
      ESP Fit Center  894 is at   3.788218  5.953005  2.265060
      ESP Fit Center  895 is at   3.308218  6.784389  2.007829
      ESP Fit Center  896 is at   2.828218  5.953005  2.007829
      ESP Fit Center  897 is at   3.274394  7.534392  1.305060
      ESP Fit Center  898 is at   2.443010  6.930356  1.305060
      ESP Fit Center  899 is at   2.828218  7.615774  0.345060
      ESP Fit Center  900 is at   2.125449  6.913005  0.345060
      ESP Fit Center  901 is at   2.125449  5.953005 -0.614940
      ESP Fit Center  902 is at   6.136816  6.086903  3.176480
      ESP Fit Center  903 is at   7.208330  6.086903  2.963343
      ESP Fit Center  904 is at   6.672573  7.014861  2.963343
      ESP Fit Center  905 is at   5.601059  7.014861  2.963343
      ESP Fit Center  906 is at   5.065302  6.086903  2.963343
      ESP Fit Center  907 is at   5.601059  5.158945  2.963343
      ESP Fit Center  908 is at   6.672573  5.158945  2.963343
      ESP Fit Center  909 is at   8.116715  6.086903  2.356379
      ESP Fit Center  910 is at   7.851459  7.076852  2.356379
      ESP Fit Center  911 is at   7.126765  7.801546  2.356379
      ESP Fit Center  912 is at   6.136816  8.066802  2.356379
      ESP Fit Center  913 is at   5.146867  7.801546  2.356379
      ESP Fit Center  914 is at   4.422173  7.076852  2.356379
      ESP Fit Center  915 is at   4.156917  6.086903  2.356379
      ESP Fit Center  916 is at   4.422173  5.096954  2.356379
      ESP Fit Center  917 is at   5.146867  4.372260  2.356379
      ESP Fit Center  918 is at   6.136816  4.107004  2.356379
      ESP Fit Center  919 is at   7.126765  4.372260  2.356379
      ESP Fit Center  920 is at   7.851459  5.096954  2.356379
      ESP Fit Center  921 is at   8.723679  6.086903  1.447994
      ESP Fit Center  922 is at   8.500033  7.139075  1.447994
      ESP Fit Center  923 is at   7.867765  8.009317  1.447994
      ESP Fit Center  924 is at   6.936201  8.547156  1.447994
      ESP Fit Center  925 is at   5.866415  8.659595  1.447994
      ESP Fit Center  926 is at   4.843385  8.327192  1.447994
      ESP Fit Center  927 is at   4.044000  7.607423  1.447994
      ESP Fit Center  928 is at   6.936201  3.626650  1.447994
      ESP Fit Center  929 is at   7.867765  4.164489  1.447994
      ESP Fit Center  930 is at   8.500033  5.034731  1.447994
      ESP Fit Center  931 is at   5.370560  8.780015  0.376480
      ESP Fit Center  932 is at   4.449439  8.321351  0.376480
      ESP Fit Center  933 is at   7.384883  3.580446  0.376480
      ESP Fit Center  934 is at   8.206041  4.200555  0.376480
      ESP Fit Center  935 is at   6.936201  3.626650 -0.695034
      ESP Fit Center  936 is at   7.867765  4.164489 -0.695034
      ESP Fit Center  937 is at   8.660940  4.674772 -1.573420
      ESP Fit Center  938 is at   9.078478  6.504122 -2.535746
      ESP Fit Center  939 is at   9.172012  6.384882  0.997195
      ESP Fit Center  940 is at   8.692012  7.216266  0.997195
      ESP Fit Center  941 is at   9.874781  6.384882  0.294426
      ESP Fit Center  942 is at   9.557220  7.362233  0.294426
      ESP Fit Center  943 is at   8.725836  7.966269  0.294426
      ESP Fit Center  944 is at   8.725836  4.803495  0.294426
      ESP Fit Center  945 is at   9.557220  5.407531  0.294426
      ESP Fit Center  946 is at  10.132012  6.384882 -0.665574
      ESP Fit Center  947 is at   9.874781  7.344882 -0.665574
      ESP Fit Center  948 is at   9.172012  4.722113 -0.665574
      ESP Fit Center  949 is at   9.874781  5.424882 -0.665574
      ESP Fit Center  950 is at   9.874781  6.384882 -1.625574
      ESP Fit Center  951 is at   9.557220  7.362233 -1.625574
      ESP Fit Center  952 is at   9.557220  5.407531 -1.625574
      ESP Fit Center  953 is at   8.031194  4.099363 -1.818540
      ESP Fit Center  954 is at   8.733963  4.802132 -1.818540
      ESP Fit Center  955 is at   8.733963  5.762132 -2.778540
      ESP Fit Center  956 is at   7.585018  4.180745 -2.778540
      ESP Fit Center  957 is at   8.416402  4.784781 -2.778540
      ESP Fit Center  958 is at   8.031194  5.762132 -3.481309
      ESP Fit Center  959 is at   6.111194  5.762132 -3.481309
      ESP Fit Center  960 is at   6.591194  4.930748 -3.481309
      ESP Fit Center  961 is at   7.551194  4.930748 -3.481309
      ESP Fit Center  962 is at   7.071194  5.762132 -3.738540
      ESP Fit Center  963 is at   9.354411  7.913700 -1.059306
      ESP Fit Center  964 is at   9.122695  8.928913 -1.059306
      ESP Fit Center  965 is at   5.555726  9.743050 -1.059306
      ESP Fit Center  966 is at   7.535244 10.194863 -2.127406
      ESP Fit Center  967 is at   6.493924 10.194863 -2.127406
      ESP Fit Center  968 is at   6.747545  9.770997 -3.089732
      ESP Fit Center  969 is at   5.785806  6.495615 -3.089732
      ESP Fit Center  970 is at   6.493924  8.815510 -3.755681
      ESP Fit Center  971 is at   6.493924  7.011890 -3.755681
      ESP Fit Center  972 is at   4.667014  9.043823 -1.018391
      ESP Fit Center  973 is at   5.052222  9.729241 -1.978391
      ESP Fit Center  974 is at   4.349453  9.026472 -1.978391
      ESP Fit Center  975 is at   5.498398  9.647859 -2.938391
      ESP Fit Center  976 is at   4.667014  9.043823 -2.938391
      ESP Fit Center  977 is at   4.349453  8.066472 -2.938391
      ESP Fit Center  978 is at   5.498398  6.485085 -2.938391
      ESP Fit Center  979 is at   5.532222  8.897856 -3.641160
      ESP Fit Center  980 is at   5.052222  8.066472 -3.641160
      ESP Fit Center  981 is at   5.532222  7.235088 -3.641160
      ESP Fit Center  982 is at   6.012222  8.066472 -3.898391
      ESP Fit Center  983 is at   7.193925  8.656910  1.094667
      ESP Fit Center  984 is at   8.153925  8.656910  0.837436
      ESP Fit Center  985 is at   7.673925  9.488294  0.837436
      ESP Fit Center  986 is at   6.713925  9.488294  0.837436
      ESP Fit Center  987 is at   8.856694  8.656910  0.134667
      ESP Fit Center  988 is at   8.539133  9.634261  0.134667
      ESP Fit Center  989 is at   7.707749 10.238297  0.134667
      ESP Fit Center  990 is at   6.680101 10.238297  0.134667
      ESP Fit Center  991 is at   5.848717  9.634261  0.134667
      ESP Fit Center  992 is at   8.856694  9.616910 -0.825333
      ESP Fit Center  993 is at   8.153925 10.319679 -0.825333
      ESP Fit Center  994 is at   7.193925 10.576910 -0.825333
      ESP Fit Center  995 is at   6.233925 10.319679 -0.825333
      ESP Fit Center  996 is at   7.707749 10.238297 -1.785333
      ESP Fit Center  997 is at   9.630715  8.089371 -2.408989
      ESP Fit Center  998 is at   9.373484  9.049371 -2.408989
      ESP Fit Center  999 is at   8.670715  9.752140 -2.408989
      ESP Fit Center 1000 is at   9.373484  7.129371 -2.408989
      ESP Fit Center 1001 is at   9.373484  8.089371 -3.368989
      ESP Fit Center 1002 is at   9.055923  9.066722 -3.368989
      ESP Fit Center 1003 is at   8.224539  9.670758 -3.368989
      ESP Fit Center 1004 is at   7.196891  9.670758 -3.368989
      ESP Fit Center 1005 is at   8.224539  6.507984 -3.368989
      ESP Fit Center 1006 is at   9.055923  7.112020 -3.368989
      ESP Fit Center 1007 is at   8.670715  8.089371 -4.071758
      ESP Fit Center 1008 is at   8.190715  8.920755 -4.071758
      ESP Fit Center 1009 is at   7.230715  8.920755 -4.071758
      ESP Fit Center 1010 is at   6.750715  8.089371 -4.071758
      ESP Fit Center 1011 is at   7.230715  7.257987 -4.071758
      ESP Fit Center 1012 is at   8.190715  7.257987 -4.071758
      ESP Fit Center 1013 is at   7.710715  8.089371 -4.328989
      ESP Fit Center 1014 is at  -5.977374  0.271165  4.691664
      ESP Fit Center 1015 is at  -6.493996 -0.623652  4.691664
      ESP Fit Center 1016 is at  -8.260871 -1.171703  4.106377
      ESP Fit Center 1017 is at  -9.258063 -0.811147  3.230434
      ESP Fit Center 1018 is at  -8.565899 -1.679094  3.230434
      ESP Fit Center 1019 is at  -8.919807  2.180353  2.197189
      ESP Fit Center 1020 is at  -9.505094  1.304410  2.197189
      ESP Fit Center 1021 is at  -9.505094 -0.762080  2.197189
      ESP Fit Center 1022 is at  -8.919807 -1.638023  2.197189
      ESP Fit Center 1023 is at  -8.565899  2.221424  1.163944
      ESP Fit Center 1024 is at  -7.282325 -1.618591  0.288001
      ESP Fit Center 1025 is at  -9.366483  1.655347  1.404301
      ESP Fit Center 1026 is at  -9.846934  0.739924  1.404301
      ESP Fit Center 1027 is at  -9.846934 -0.293920  1.404301
      ESP Fit Center 1028 is at  -9.366483 -1.209343  1.404301
      ESP Fit Center 1029 is at  -8.974692  1.636718  0.324301
      ESP Fit Center 1030 is at  -9.544542  0.750015  0.324301
      ESP Fit Center 1031 is at  -9.544542 -0.304011  0.324301
      ESP Fit Center 1032 is at  -8.974692 -1.190714  0.324301
      ESP Fit Center 1033 is at  -8.015916 -1.628573  0.324301
      ESP Fit Center 1034 is at  -8.829700  0.223002 -0.466314
      ESP Fit Center 1035 is at  -5.551203 -0.730240  4.240848
      ESP Fit Center 1036 is at  -7.171203 -1.665547  4.240848
      ESP Fit Center 1037 is at  -6.091203 -1.665547  4.240848
      ESP Fit Center 1038 is at  -4.760588 -0.730240  3.450233
      ESP Fit Center 1039 is at  -7.856195 -2.143956  3.450233
      ESP Fit Center 1040 is at  -6.897419 -2.581815  3.450233
      ESP Fit Center 1041 is at  -5.854121 -2.431811  3.450233
      ESP Fit Center 1042 is at  -5.057542 -1.741571  3.450233
      ESP Fit Center 1043 is at  -8.247986 -2.162585  2.370233
      ESP Fit Center 1044 is at  -7.397150 -2.749875  2.370233
      ESP Fit Center 1045 is at  -6.370844 -2.874491  2.370233
      ESP Fit Center 1046 is at  -5.404183 -2.507885  2.370233
      ESP Fit Center 1047 is at  -4.718618 -1.734042  2.370233
      ESP Fit Center 1048 is at  -7.856195 -2.143956  1.290233
[...]
 1287 Fit      -0.017965
 1288 Fit      -0.020688
 1289 Fit      -0.024509
 1290 Fit      -0.027652
 1291 Fit      -0.036168
 1292 Fit      -0.005041
 1293 Fit      -0.007754
 1294 Fit      -0.011765
 1295 Fit      -0.018031
 1296 Fit      -0.025290
 1297 Fit      -0.031663
 1298 Fit      -0.012360
 1299 Fit      -0.023122
 1300 Fit      -0.032985
 1301 Fit      -0.015705
 1302 Fit      -0.029311
 1303 Fit      -0.018523
 1304 Fit      -0.005068
 1305 Fit       0.006261
 1306 Fit       0.000205
 1307 Fit      -0.002651
 1308 Fit       0.003995
 1309 Fit       0.002700
 1310 Fit       0.000407
 1311 Fit      -0.004536
 1312 Fit       0.005796
 1313 Fit       0.002576
 1314 Fit      -0.001035
 1315 Fit      -0.003838
 1316 Fit      -0.006943
 1317 Fit      -0.003236
 1318 Fit      -0.000875
 1319 Fit      -0.003428
 1320 Fit      -0.008713
 1321 Fit      -0.015380
 1322 Fit      -0.011994
 1323 Fit      -0.004302
 1324 Fit       0.001070
 1325 Fit       0.000982
 1326 Fit       0.003417
 1327 Fit       0.006491
 1328 Fit       0.010121
 1329 Fit       0.008338
 1330 Fit       0.006781
 1331 Fit       0.011909
 1332 Fit       0.008472
 1333 Fit       0.004898
 1334 Fit       0.010131
 1335 Fit       0.006555
 1336 Fit       0.010240
 1337 Fit       0.004352
 1338 Fit       0.008273
 1339 Fit      -0.030220
 1340 Fit      -0.025047
 1341 Fit      -0.024724
 1342 Fit      -0.037709
 1343 Fit      -0.034146
 1344 Fit      -0.038667
 1345 Fit      -0.034606
 1346 Fit      -0.033846
 1347 Fit      -0.031925
 1348 Fit      -0.035610
 1349 Fit      -0.030663
 1350 Fit      -0.028618
 1351 Fit      -0.018678
 1352 Fit      -0.032655
 1353 Fit      -0.030364
 1354 Fit      -0.025783
 1355 Fit      -0.021011
 1356 Fit      -0.022374
 1357 Fit      -0.025391
 1358 Fit      -0.021483
 1359 Fit      -0.014021
 1360 Fit      -0.016835
 1361 Fit      -0.017529
 1362 Fit      -0.009946
 1363 Fit      -0.005960
 1364 Fit      -0.008437
 1365 Fit       0.013145
 1366 Fit       0.009329
 1367 Fit       0.013788
 1368 Fit       0.012325
 1369 Fit       0.013490
 1370 Fit       0.012272
 1371 Fit       0.011022
 1372 Fit       0.007910
 1373 Fit       0.012507
 1374 Fit       0.012228
 1375 Fit       0.010832
 1376 Fit       0.007602
 1377 Fit       0.005629
 1378 Fit       0.009568
 1379 Fit      -0.002079
 1380 Fit      -0.001817
 1381 Fit       0.004421
 1382 Fit       0.011234
 1383 Fit       0.014242
 1384 Fit       0.004272
 1385 Fit       0.005667
 1386 Fit       0.009332
 1387 Fit       0.007638
 1388 Fit       0.007384
 1389 Fit       0.008821
 1390 Fit       0.010946
 1391 Fit       0.011940
 1392 Fit       0.012687
 1393 Fit       0.014498
 1394 Fit       0.014709
 1395 Fit       0.015377
 1396 Fit      -0.003758
 1397 Fit       0.000718
 1398 Fit       0.006616
 1399 Fit      -0.002587
 1400 Fit       0.005312
 1401 Fit       0.010603
 1402 Fit       0.003645
 1403 Fit       0.008160
 1404 Fit       0.012244
 1405 Fit      -0.023259
 1406 Fit      -0.023486
 1407 Fit      -0.022761
 1408 Fit      -0.021142
 1409 Fit      -0.018405
 1410 Fit      -0.024403
 1411 Fit      -0.027039
 1412 Fit      -0.019369
 1413 Fit      -0.018274
 1414 Fit      -0.020738
 1415 Fit      -0.022528
 1416 Fit      -0.019792
 1417 Fit      -0.013120
 1418 Fit      -0.008956
 1419 Fit      -0.015948
 1420 Fit      -0.030759
 1421 Fit      -0.035700
 1422 Fit      -0.031636
 1423 Fit      -0.024880
 1424 Fit      -0.011780
 1425 Fit      -0.010057
 1426 Fit      -0.012765
 1427 Fit      -0.017227
 1428 Fit      -0.020509
 1429 Fit      -0.019203
 1430 Fit      -0.012387
 1431 Fit      -0.037454
 1432 Fit      -0.027908
 1433 Fit      -0.018617
 1434 Fit      -0.002696
 1435 Fit      -0.015568
 1436 Fit      -0.012769
 1437 Fit      -0.004494
 1438 Fit      -0.031250
 1439 Fit      -0.020934
 1440 Fit      -0.009887
 1441 Fit      -0.004911
 1442 Fit      -0.021305
 1443 Fit      -0.012934
 1444 Fit      -0.006350
 1445 Fit       0.007664
 1446 Fit      -0.002837
 1447 Fit       0.002065
 1448 Fit       0.002775
 1449 Fit       0.001906
 1450 Fit      -0.009324
 1451 Fit      -0.001395
 1452 Fit       0.004537
 1453 Fit       0.005210
 1454 Fit      -0.001821
 1455 Fit       0.002284
 1456 Fit       0.005673
 1457 Fit       0.006765
 1458 Fit       0.003675
 1459 Fit       0.001536
 1460 Fit      -0.000053
 1461 Fit       0.006123
 1462 Fit       0.005252
 1463 Fit       0.008502
 1464 Fit       0.013559
 1465 Fit       0.012520
 1466 Fit       0.009099
 1467 Fit       0.010584
 1468 Fit       0.005628
 1469 Fit       0.001474
 1470 Fit       0.000636
 1471 Fit       0.001634
 1472 Fit       0.001736
 1473 Fit       0.003018
 1474 Fit       0.013465
 1475 Fit       0.004780
 1476 Fit       0.008473
 1477 Fit       0.000268
 1478 Fit       0.002668
 1479 Fit       0.005892
 1480 Fit       0.011172
 1481 Fit       0.003748
 1482 Fit       0.006745
 1483 Fit       0.010729
 1484 Fit       0.006361
 1485 Fit       0.009795
 1486 Fit       0.010831
 1487 Fit       0.006704
 1488 Fit      -0.004172
 1489 Fit      -0.003550
 1490 Fit      -0.008043
 1491 Fit       0.001313
 1492 Fit       0.000717
 1493 Fit       0.000513
 1494 Fit      -0.000789
 1495 Fit      -0.003990
 1496 Fit      -0.010761
 1497 Fit       0.001523
 1498 Fit       0.001453
 1499 Fit       0.001176
 1500 Fit       0.000230
 1501 Fit      -0.001097
 1502 Fit       0.005540
 1503 Fit       0.004026
 1504 Fit       0.002656
 1505 Fit       0.007179
 1506 Fit       0.006582
 1507 Fit       0.005547
 1508 Fit       0.004281
 1509 Fit       0.003224
 1510 Fit       0.008584
 1511 Fit       0.007353
 1512 Fit       0.007021
 1513 Fit       0.005872
 1514 Fit       0.004944
 1515 Fit       0.005904
 1516 Fit       0.007670
 1517 Fit       0.007661
 1518 Fit       0.006568
 1519 Fit       0.006618
 1520 Fit       0.004820
 1521 Fit       0.004043
 1522 Fit       0.004410
 1523 Fit       0.004373
 1524 Fit       0.003932
 1525 Fit       0.009014
 1526 Fit       0.006438
 1527 Fit       0.005468
 1528 Fit       0.004592
 1529 Fit       0.004138
 1530 Fit       0.009534
 1531 Fit       0.008165
 1532 Fit       0.005030
 1533 Fit       0.007303
 1534 Fit       0.006661
 1535 Fit       0.005956
 1536 Fit       0.009747
 1537 Fit       0.008878
 1538 Fit       0.008399
 1539 Fit       0.007829
 1540 Fit       0.007060
 1541 Fit       0.011522
 1542 Fit       0.010679
 1543 Fit       0.010222
 1544 Fit       0.009807
 1545 Fit       0.009697
 1546 Fit       0.004050
 1547 Fit       0.004013
 1548 Fit       0.004064
 1549 Fit       0.004414
 1550 Fit       0.004085
 1551 Fit       0.003090
 1552 Fit       0.004375
 1553 Fit       0.004790
 1554 Fit       0.004500
 1555 Fit       0.003021
 1556 Fit       0.000181
 1557 Fit       0.004825
 1558 Fit       0.004990
 1559 Fit       0.004310
 1560 Fit       0.001723
 1561 Fit      -0.005114
 1562 Fit       0.005184
 1563 Fit       0.002852
 1564 Fit       0.007085
 1565 Fit       0.007121
 1566 Fit       0.008346
 1567 Fit       0.008169
 1568 Fit       0.007228
 1569 Fit       0.005946
 1570 Fit       0.005565
 1571 Fit       0.009996
 1572 Fit       0.009197
 1573 Fit       0.008425
 1574 Fit       0.007543
 1575 Fit       0.006439
 1576 Fit       0.005218
 1577 Fit       0.009803
 1578 Fit       0.008492
 1579 Fit       0.007482
 1580 Fit       0.006502
 1581 Fit       0.005424
 1582 Fit       0.009930
 1583 Fit       0.008391
 1584 Fit       0.004905
 1585 Fit      -0.000705
 1586 Fit       0.001314
 1587 Fit       0.005375
 1588 Fit       0.007238
 1589 Fit       0.009071
 1590 Fit       0.001525
 1591 Fit       0.004254
 1592 Fit       0.006629
 1593 Fit       0.008412
 1594 Fit       0.009621
 1595 Fit      -0.002989
 1596 Fit       0.002161
 1597 Fit       0.005823
 1598 Fit       0.008259
 1599 Fit       0.009875
 1600 Fit       0.007065
 1601 Fit       0.005001
 1602 Fit       0.006229
 1603 Fit       0.008276
 1604 Fit       0.005360
 1605 Fit       0.002328
 1606 Fit       0.003589
 1607 Fit       0.005087
 1608 Fit       0.007136
 1609 Fit       0.003326
 1610 Fit       0.002129
 1611 Fit      -0.001334
 1612 Fit       0.000505
 1613 Fit       0.002148
 1614 Fit      -0.001586
 1615 Fit      -0.001963
 1616 Fit      -0.005888
 1617 Fit      -0.006235
 1618 Fit      -0.002822
 1619 Fit      -0.003271
 1620 Fit       0.003312
 1621 Fit       0.012083
 1622 Fit       0.011546
 1623 Fit       0.011452
 1624 Fit       0.013783
 1625 Fit      -0.003322
 1626 Fit       0.004232
 1627 Fit       0.008322
 1628 Fit       0.010606
 1629 Fit      -0.007807
 1630 Fit       0.001774
 1631 Fit       0.006556
 1632 Fit       0.009251
 1633 Fit       0.011345
 1634 Fit      -0.000846
 1635 Fit       0.005734
 1636 Fit       0.009315
 1637 Fit       0.004037
 1638 Fit       0.009728
 1639 Fit       0.007883
 1640 Fit       0.005802
 1641 Fit       0.012435
 1642 Fit       0.011947
 1643 Fit       0.011149
 1644 Fit       0.010575
 1645 Fit       0.010913
 1646 Fit       0.012396
 1647 Fit       0.012390
 1648 Fit       0.012416
 1649 Fit       0.012976
 1650 Fit       0.013909
 1651 Fit       0.014592
 1652 Fit       0.012692
 1653 Fit      -0.003937
 1654 Fit       0.012361
 1655 Fit       0.011172
 1656 Fit       0.001963
 1657 Fit       0.005857
 1658 Fit       0.008779
 1659 Fit       0.009990
 1660 Fit       0.013065
 1661 Fit       0.011560
 1662 Fit       0.012140
 1663 Fit       0.014647
 1664 Fit       0.012334
 1665 Fit       0.013093
 1666 Fit       0.010355
 1667 Fit       0.013042
 1668 Fit       0.013944
 1669 Fit       0.013601
 1670 Fit      -0.002741
 1671 Fit       0.004520
 1672 Fit       0.008999
 1673 Fit       0.011037
 1674 Fit       0.011467
 1675 Fit       0.011135
 1676 Fit       0.010770
 1677 Fit       0.005727
 1678 Fit       0.002030
 1679 Fit       0.004691
 1680 Fit       0.008430
 1681 Fit       0.009547
 1682 Fit       0.008748
 1683 Fit       0.006865
 1684 Fit      -0.013378
 1685 Fit      -0.012185
 1686 Fit      -0.012451
 1687 Fit      -0.015297
 1688 Fit      -0.011679
 1689 Fit      -0.014631
 1690 Fit      -0.014088
 1691 Fit      -0.006800
 1692 Fit      -0.012358
 1693 Fit      -0.012547
 1694 Fit      -0.006170
 1695 Fit      -0.008704
 1696 Fit      -0.002804
 1697 Fit       0.004669
 1698 Fit       0.005867
 1699 Fit       0.004893
 1700 Fit      -0.002940
 1701 Fit      -0.000892
 1702 Fit       0.002630
 1703 Fit       0.003455
 1704 Fit       0.002157
 1705 Fit      -0.003008
 1706 Fit       0.002426
 1707 Fit       0.005333
 1708 Fit       0.005358
 1709 Fit       0.002825
 1710 Fit      -0.002511
 1711 Fit       0.005209
 1712 Fit       0.005523
 1713 Fit       0.003901
 1714 Fit      -0.000486
 1715 Fit      -0.008743
 1716 Fit       0.004634
 1717 Fit       0.003099
 1718 Fit      -0.001568
 1719 Fit       0.001964
 1720 Fit       0.007838
 1721 Fit       0.012516
 1722 Fit       0.012232
 1723 Fit       0.010750
 1724 Fit       0.007248
 1725 Fit       0.009256
 1726 Fit       0.009313
 1727 Fit       0.006298
 1728 Fit      -0.003602
 1729 Fit      -0.005481
 1730 Fit       0.000149
 1731 Fit      -0.003332
 1732 Fit      -0.003925
 1733 Fit      -0.000004
 1734 Fit       0.002574
 1735 Fit      -0.001274
 1736 Fit       0.000685
 1737 Fit       0.000663
 1738 Fit       0.002170
 1739 Fit       0.001603
 1740 Fit      -0.000241
 1741 Fit       0.001651
 1742 Fit       0.002047
 1743 Fit       0.000308
 1744 Fit      -0.003344
 1745 Fit       0.001232
 1746 Fit      -0.002356
 1747 Fit       0.008451
 1748 Fit       0.011347
 1749 Fit       0.006849
 1750 Fit       0.013029
 1751 Fit       0.011560
 1752 Fit       0.011679
 1753 Fit       0.014169
 1754 Fit       0.012038
 1755 Fit       0.011217
 1756 Fit       0.009704
 1757 Fit       0.009244
 1758 Fit       0.013150
 1759 Fit       0.011049
 1760 Fit       0.011861
 1761 Fit      -0.008585
 1762 Fit      -0.003493
 1763 Fit      -0.003752
 1764 Fit       0.000443
 1765 Fit       0.001612
 1766 Fit       0.000266
 1767 Fit       0.005046
 1768 Fit       0.004991
 1769 Fit       0.003997
 1770 Fit       0.008828
 1771 Fit      -0.007522
 1772 Fit       0.010142
 1773 Fit      -0.000389
 1774 Fit       0.005337
 1775 Fit      -0.004243
 1776 Fit      -0.000499
 1777 Fit       0.002409
 1778 Fit       0.005421
 1779 Fit       0.007487
 1780 Fit       0.007556
 1781 Fit       0.003132
 1782 Fit       0.004793
 1783 Fit       0.006011
 1784 Fit       0.002627
 1785 Fit      -0.002130
 1786 Fit       0.008382
 1787 Fit       0.005095
 1788 Fit       0.000909
 1789 Fit      -0.005354
 1790 Fit       0.008549
 1791 Fit       0.004750
 1792 Fit      -0.000067
 1793 Fit       0.009690
 1794 Fit       0.005121
 1795 Fit      -0.014911
 1796 Fit      -0.015713
 1797 Fit      -0.010475
 1798 Fit      -0.010228
 1799 Fit      -0.014885
 1800 Fit      -0.017924
 1801 Fit      -0.018196
 1802 Fit      -0.018516
 1803 Fit      -0.013870
 1804 Fit      -0.009569
 1805 Fit      -0.014057
 1806 Fit      -0.016849
 1807 Fit      -0.018166
 1808 Fit      -0.018886
 1809 Fit      -0.019647
 1810 Fit      -0.019977
 1811 Fit      -0.023459
 1812 Fit      -0.021536
 1813 Fit      -0.011503
 1814 Fit      -0.012944
 1815 Fit      -0.014006
 1816 Fit      -0.015039
 1817 Fit      -0.016297
 1818 Fit      -0.018332
 1819 Fit      -0.020892
 1820 Fit      -0.022946
 1821 Fit      -0.029499
 1822 Fit      -0.008182
 1823 Fit      -0.010343
 1824 Fit      -0.013469
 1825 Fit      -0.017705
 1826 Fit      -0.022314
 1827 Fit      -0.026359
 1828 Fit      -0.001005
 1829 Fit      -0.004882
 1830 Fit      -0.010237
 1831 Fit      -0.016553
 1832 Fit      -0.022975
 1833 Fit      -0.028940
 1834 Fit      -0.010280
 1835 Fit      -0.019478
 1836 Fit      -0.028324
 1837 Fit      -0.012247
 1838 Fit      -0.023908
 1839 Fit      -0.005348
 1840 Fit       0.000068
 1841 Fit       0.003362
 1842 Fit       0.003087
 1843 Fit      -0.000727
 1844 Fit      -0.003298
 1845 Fit       0.001529
 1846 Fit      -0.000316
 1847 Fit      -0.004317
 1848 Fit       0.003059
 1849 Fit       0.002629
 1850 Fit      -0.004933
 1851 Fit      -0.007580
 1852 Fit      -0.004354
 1853 Fit      -0.002134
 1854 Fit      -0.004123
 1855 Fit      -0.013698
 1856 Fit      -0.010796
 1857 Fit      -0.005027
 1858 Fit      -0.000634
 1859 Fit       0.000250
 1860 Fit      -0.001850
 1861 Fit       0.003271
 1862 Fit       0.010426
 1863 Fit       0.005324
 1864 Fit       0.001543
 1865 Fit       0.004597
 1866 Fit       0.006843
 1867 Fit       0.006385
 1868 Fit       0.007753
 1869 Fit       0.005739
 1870 Fit       0.008669
 1871 Fit       0.005482
 1872 Fit       0.009688
 1873 Fit       0.007138
 1874 Fit       0.009611
 1875 Fit       0.005140
 1876 Fit       0.007513
 1877 Fit      -0.024871
 1878 Fit      -0.020451
 1879 Fit      -0.031632
 1880 Fit      -0.029241
 1881 Fit      -0.034033
 1882 Fit      -0.030762
 1883 Fit      -0.030215
 1884 Fit      -0.031711
 1885 Fit      -0.027998
 1886 Fit      -0.027348
 1887 Fit      -0.030045
 1888 Fit      -0.026554
 1889 Fit      -0.023590
 1890 Fit      -0.021696
 1891 Fit      -0.011297
 1892 Fit      -0.023634
 1893 Fit      -0.022884
 1894 Fit      -0.019510
 1895 Fit      -0.015247
 1896 Fit      -0.015267
 1897 Fit      -0.018376
 1898 Fit      -0.015863
 1899 Fit      -0.009890
 1900 Fit       0.002719
 1901 Fit      -0.004052
 1902 Fit      -0.010994
 1903 Fit      -0.011939
 1904 Fit      -0.006546
 1905 Fit      -0.002814
 1906 Fit      -0.004864
 1907 Fit       0.011528
 1908 Fit       0.008510
 1909 Fit       0.011913
 1910 Fit       0.012600
 1911 Fit       0.011202
 1912 Fit       0.010160
 1913 Fit       0.011768
 1914 Fit       0.010586
 1915 Fit       0.009374
 1916 Fit       0.006807
 1917 Fit       0.010722
 1918 Fit       0.009373
 1919 Fit       0.006871
 1920 Fit       0.008638
 1921 Fit       0.000575
 1922 Fit      -0.000591
 1923 Fit       0.004213
 1924 Fit       0.009454
 1925 Fit       0.012109
 1926 Fit       0.004430
 1927 Fit       0.005121
 1928 Fit       0.008317
 1929 Fit      -0.000923
 1930 Fit       0.004246
 1931 Fit       0.009095
 1932 Fit       0.011425
 1933 Fit       0.012606
 1934 Fit       0.002702
 1935 Fit       0.005568
 1936 Fit       0.008640
 1937 Fit       0.009750
 1938 Fit       0.011175
 1939 Fit       0.011850
 1940 Fit       0.012937
 1941 Fit       0.013249
 1942 Fit       0.013726
 1943 Fit      -0.001309
 1944 Fit       0.003593
 1945 Fit       0.003166
 1946 Fit       0.007832
 1947 Fit      -0.000578
 1948 Fit       0.004781
 1949 Fit       0.008520
 1950 Fit       0.009497
 1951 Fit      -0.019883
 1952 Fit      -0.020239
 1953 Fit      -0.019151
 1954 Fit      -0.017783
 1955 Fit      -0.016392
 1956 Fit      -0.021007
 1957 Fit      -0.022970
 1958 Fit      -0.017694
 1959 Fit      -0.016499
 1960 Fit      -0.017554
 1961 Fit      -0.018239
 1962 Fit      -0.016214
 1963 Fit      -0.011961
 1964 Fit      -0.009652
 1965 Fit      -0.014558
 1966 Fit      -0.024933
 1967 Fit      -0.029331
 1968 Fit      -0.026618
 1969 Fit      -0.021713
 1970 Fit      -0.012729
 1971 Fit      -0.011150
 1972 Fit      -0.012503
 1973 Fit      -0.015065
 1974 Fit      -0.016771
 1975 Fit      -0.015522
 1976 Fit      -0.010747
 1977 Fit      -0.003836
 1978 Fit      -0.031842
 1979 Fit      -0.024422
 1980 Fit      -0.017630
 1981 Fit      -0.005706
 1982 Fit      -0.003964
 1983 Fit      -0.005371
 1984 Fit      -0.007731
 1985 Fit      -0.013385
 1986 Fit      -0.012385
 1987 Fit      -0.007548
 1988 Fit      -0.027321
 1989 Fit      -0.019093
 1990 Fit      -0.011419
 1991 Fit      -0.006325
 1992 Fit      -0.019788
 1993 Fit      -0.012120
 1994 Fit      -0.012935
 1995 Fit      -0.002583
 1996 Fit       0.005783
 1997 Fit       0.004122
 1998 Fit      -0.000583
 1999 Fit       0.000248
 2000 Fit      -0.000820
 2001 Fit      -0.004107
 2002 Fit       0.002277
 2003 Fit       0.003054
 2004 Fit       0.002845
 2005 Fit      -0.004053
 2006 Fit       0.000082
 2007 Fit       0.003877
 2008 Fit       0.004658
 2009 Fit      -0.000542
 2010 Fit       0.002145
 2011 Fit       0.005077
 2012 Fit       0.003492
 2013 Fit       0.002239
 2014 Fit       0.001452
 2015 Fit       0.005786
 2016 Fit       0.005190
 2017 Fit       0.007761
 2018 Fit       0.011713
 2019 Fit       0.010569
 2020 Fit       0.008032
 2021 Fit       0.009360
 2022 Fit      -0.005032
 2023 Fit       0.002243
 2024 Fit       0.000024
 2025 Fit       0.001397
 2026 Fit       0.001119
 2027 Fit       0.001242
 2028 Fit       0.002119
 2029 Fit       0.003420
 2030 Fit       0.011492
 2031 Fit       0.004933
 2032 Fit       0.006766
 2033 Fit       0.007834
 2034 Fit       0.002551
 2035 Fit       0.006061
 2036 Fit       0.002742
 2037 Fit       0.004947
 2038 Fit       0.008231
 2039 Fit       0.003915
 2040 Fit       0.006205
 2041 Fit       0.009297
 2042 Fit       0.012739
 2043 Fit       0.005945
 2044 Fit       0.008579
 2045 Fit       0.009582
 2046 Fit      -0.005403
 2047 Fit      -0.009629
 2048 Fit      -0.000487
 2049 Fit      -0.000754
 2050 Fit      -0.001048
 2051 Fit      -0.002391
 2052 Fit      -0.005652
 2053 Fit       0.001005
 2054 Fit       0.000797
 2055 Fit       0.000494
 2056 Fit      -0.000328
 2057 Fit      -0.001746
 2058 Fit       0.001194
 2059 Fit       0.000998
 2060 Fit       0.000646
 2061 Fit       0.004530
 2062 Fit       0.002919
 2063 Fit       0.005100
 2064 Fit       0.004154
 2065 Fit       0.003212
 2066 Fit       0.002388
 2067 Fit       0.006015
 2068 Fit       0.005774
 2069 Fit       0.005004
 2070 Fit       0.004129
 2071 Fit       0.003496
 2072 Fit       0.007550
 2073 Fit       0.006433
 2074 Fit       0.006062
 2075 Fit       0.005236
 2076 Fit       0.004831
 2077 Fit       0.005851
 2078 Fit       0.007050
 2079 Fit       0.006751
 2080 Fit       0.005935
 Job cpu time:       0 days  0 hours  5 minutes  4.2 seconds.
 Normal termination of Gaussian 16 at Sat Jul  8 22:22:26 2023.
