 Copyright (c) 1988-2019, Gaussian, Inc.  All Rights Reserved.
  
 This is part of the Gaussian(R) 16 program.  It is based on
 the Gaussian(R) 09 system (copyright 2009, Gaussian, Inc.),
 the Gaussian(R) 03 system (copyright 2003, Gaussian, Inc.),
 the Gaussian(R) 98 system (copyright 1998, Gaussian, Inc.),
 the Gaussian(R) 94 system (copyright 1995, Gaussian, Inc.),
 the Gaussian 92(TM) system (copyright 1992, Gaussian, Inc.),
 the Gaussian 90(TM) system (copyright 1990, Gaussian, Inc.),
 the Gaussian 88(TM) system (copyright 1988, Gaussian, Inc.),
 the Gaussian 86(TM) system (copyright 1986, Carnegie Mellon
 University), and the Gaussian 82(TM) system (copyright 1983,
 Carnegie Mellon University). Gaussian is a federally registered
 trademark of Gaussian, Inc.
 Cite this work as:
 Gaussian 16, Revision C.01,
 M. J. Frisch, G. W. Trucks, H. B. Schlegel, G. E. Scuseria, 
 M. A. Robb, J. R. Cheeseman, G. Scalmani, V. Barone, 
 G. A. Petersson, H. Nakatsuji, X. Li, M. Caricato, A. V. Marenich, 
 J. Bloino, B. G. Janesko, R. Gomperts, B. Mennucci, H. P. Hratchian, 
 J. V. Ortiz, A. F. Izmaylov, J. L. Sonnenberg, D. Williams-Young, 
 F. Ding, F. Lipparini, F. Egidi, J. Goings, B. Peng, A. Petrone, 
 T. Henderson, D. Ranasinghe, V. G. Zakrzewski, J. Gao, N. Rega, 
 G. Zheng, W. Liang, M. Hada, M. Ehara, K. Toyota, R. Fukuda, 
 J. Hasegawa, M. Ishida, T. Nakajima, Y. Honda, O. Kitao, H. Nakai, 
 T. Vreven, K. Throssell, J. A. Montgomery, Jr., J. E. Peralta, 
 F. Ogliaro, M. J. Bearpark, J. J. Heyd, E. N. Brothers, K. N. Kudin, 
 V. N. Staroverov, T. A. Keith, R. Kobayashi, J. Normand, 
 K. Raghavachari, A. P. Rendell, J. C. Burant, S. S. Iyengar, 
 J. Tomasi, M. Cossi, J. M. Millam, M. Klene, C. Adamo, R. Cammi, 
 J. W. Ochterski, R. L. Martin, K. Morokuma, O. Farkas, 
 J. B. Foresman, and D. J. Fox, Gaussian, Inc., Wallingford CT, 2019.
 
 ******************************************
 Gaussian 16:  EM64L-G16RevC.01  3-Jul-2019
                 8-Jul-2023 
 ******************************************
 ----------------------------------------------------------------------
 #P HF/6-31G(d) SCF(Conver=8,XQC,MaxConventionalCycles=64,MaxCycle=128)
  NoSymm Test Pop=mk IOp(6/33=2) GFInput GFPrint
 ----------------------------------------------------------------------
 1/38=1,172=1/1;
 2/12=2,15=1,17=6,18=5,40=1/2;
 3/5=1,6=6,7=1,11=9,24=110,25=1,30=1/1,2,3;
 4//1;
 5/5=2,6=8,7=128,8=3,13=1,38=5,85=64/2,8;
 6/7=2,8=2,9=2,10=2,15=8,20=1,28=1,33=2/1,2;
 99/5=1,9=1/99;
 -------------------------------------------------
 MEP step - Input generated by PyRED DVE-DMDS-OPLS
 -------------------------------------------------
 Symbolic Z-matrix:
 Charge =  0 Multiplicity = 1
 C                    -5.53714   2.02412  -4.50783 
 H                    -5.72147   3.07511  -4.3168 
 H                    -4.53615   1.92271  -4.91133 
 H                    -6.24781   1.67644  -5.25142 
 C                    -5.67231   1.22405  -3.22699 
 H                    -6.68096   1.31778  -2.82502 
 H                    -5.50162   0.1682   -3.42785 
 O                    -4.74424   1.71532  -2.3046 
 C                    -4.76119   1.12851  -1.03913 
 H                    -5.78568   0.9499   -0.71344 
 H                    -4.31106   1.84146  -0.36099 
 C                    -3.98079  -0.17022  -0.95539 
 H                    -4.14641  -0.61672   0.02564 
 H                    -4.33247  -0.88334  -1.69981 
 O                    -2.62806   0.10241  -1.14159 
 C                    -1.80323  -1.01857  -1.14556 
 H                    -2.02862  -1.65287  -2.00337 
 H                    -1.94702  -1.61053  -0.24378 
 C                    -0.36224  -0.5701   -1.22287 
 H                    -0.25736   0.15063  -2.02946 
 H                     0.26451  -1.43052  -1.45132 
 O                     0.        0.        0. 
 C                     1.13354   0.81504   0. 
 H                     1.06989   1.41308   0.89892 
 H                     1.12183   1.4923   -0.84956 
 C                     2.42581   0.        0. 
 H                     2.52642  -0.5559   -0.92423 
 H                     2.40901  -0.71994   0.80974 
 S                     3.92873   1.01384   0.11404 
 C                     3.96224   1.41858   1.89137 
 H                     3.08363   1.98507   2.16625 
 H                     3.95856   0.49568   2.45778 
 C                     5.21397   2.23754   2.19694 
 H                     5.18207   3.17601   1.65812 
 H                     6.10498   1.71514   1.87261 
 S                     5.37054   2.68759   3.95246 
 C                     6.05323   1.16701   4.68714 
 H                     5.51592   0.3098    4.30324 
 H                     5.8313    1.23      5.74419 
 C                     7.56008   1.01803   4.486 
 H                     7.82189   1.02444   3.43634 
 H                     8.07133   1.8554    4.94228 
 S                     8.25314  -0.46745   5.27653 
 C                     7.82362  -1.78854   4.09908 
 H                     7.9668   -2.70595   4.65739 
 H                     6.76815  -1.73156   3.86097 
 C                     8.66804  -1.81326   2.82836 
 H                     8.37466  -2.65221   2.20365 
 H                     8.54322  -0.90933   2.24248 
 H                     9.72028  -1.91531   3.06617 
 
 ITRead=  0  0  0  0  0  0  0  0  0  0  0  0  0  0  0  0  0  0  0  0
 ITRead=  0  0  0  0  0  0  0  0  0  0  0  0  0  0  0  0  0  0  0  0
 ITRead=  0  0  0  0  0  0  0  0  0  0
 MicOpt= -1 -1 -1 -1 -1 -1 -1 -1 -1 -1 -1 -1 -1 -1 -1 -1 -1 -1 -1 -1
 MicOpt= -1 -1 -1 -1 -1 -1 -1 -1 -1 -1 -1 -1 -1 -1 -1 -1 -1 -1 -1 -1
 MicOpt= -1 -1 -1 -1 -1 -1 -1 -1 -1 -1
 NAtoms=     50 NQM=       50 NQMF=       0 NMMI=      0 NMMIF=      0
                NMic=       0 NMicF=      0.
                          Input orientation:                          
 ---------------------------------------------------------------------
 Center     Atomic      Atomic             Coordinates (Angstroms)
 Number     Number       Type             X           Y           Z
 ---------------------------------------------------------------------
      1          6           0       -5.537136    2.024116   -4.507825
      2          1           0       -5.721467    3.075114   -4.316802
      3          1           0       -4.536155    1.922708   -4.911332
      4          1           0       -6.247806    1.676444   -5.251423
      5          6           0       -5.672310    1.224054   -3.226992
      6          1           0       -6.680959    1.317784   -2.825015
      7          1           0       -5.501620    0.168204   -3.427853
      8          8           0       -4.744236    1.715321   -2.304598
      9          6           0       -4.761189    1.128505   -1.039130
     10          1           0       -5.785676    0.949900   -0.713440
     11          1           0       -4.311060    1.841462   -0.360992
     12          6           0       -3.980788   -0.170215   -0.955388
     13          1           0       -4.146408   -0.616720    0.025641
     14          1           0       -4.332473   -0.883341   -1.699805
     15          8           0       -2.628061    0.102408   -1.141592
     16          6           0       -1.803231   -1.018570   -1.145562
     17          1           0       -2.028620   -1.652865   -2.003368
     18          1           0       -1.947019   -1.610530   -0.243782
     19          6           0       -0.362236   -0.570103   -1.222874
     20          1           0       -0.257362    0.150630   -2.029456
     21          1           0        0.264514   -1.430524   -1.451323
     22          8           0        0.000000    0.000000    0.000000
     23          6           0        1.133541    0.815043    0.000000
     24          1           0        1.069887    1.413079    0.898919
     25          1           0        1.121829    1.492301   -0.849562
     26          6           0        2.425810    0.000000    0.000000
     27          1           0        2.526419   -0.555901   -0.924225
     28          1           0        2.409008   -0.719938    0.809742
     29         16           0        3.928729    1.013835    0.114038
     30          6           0        3.962240    1.418576    1.891372
     31          1           0        3.083627    1.985072    2.166249
     32          1           0        3.958561    0.495679    2.457776
     33          6           0        5.213974    2.237537    2.196936
     34          1           0        5.182066    3.176006    1.658115
     35          1           0        6.104983    1.715142    1.872612
     36         16           0        5.370535    2.687589    3.952459
     37          6           0        6.053226    1.167008    4.687136
     38          1           0        5.515924    0.309803    4.303236
     39          1           0        5.831296    1.229999    5.744192
     40          6           0        7.560080    1.018026    4.485997
     41          1           0        7.821887    1.024437    3.436337
     42          1           0        8.071330    1.855398    4.942278
     43         16           0        8.253143   -0.467453    5.276531
     44          6           0        7.823617   -1.788542    4.099084
     45          1           0        7.966803   -2.705950    4.657385
     46          1           0        6.768147   -1.731558    3.860967
     47          6           0        8.668042   -1.813255    2.828362
     48          1           0        8.374661   -2.652214    2.203652
     49          1           0        8.543220   -0.909329    2.242476
     50          1           0        9.720283   -1.915308    3.066172
 ---------------------------------------------------------------------
 Stoichiometry    C14H30O3S3
 Framework group  C1[X(C14H30O3S3)]
 Standard basis: 6-31G(d) (6D, 7F)
   372 basis functions,   752 primitive gaussians,   372 cartesian basis functions
    93 alpha electrons       93 beta electrons
 Requested convergence on RMS density matrix=1.00D-08 within  64 cycles.
 Requested convergence on MAX density matrix=1.00D-06.
 Requested convergence on             energy=1.00D-06.
 SCF Done:  E(RHF) =  -1964.69235946     A.U. after   13 cycles
            NFock= 13  Conv=0.56D-08     -V/T= 2.0006
 Mulliken charges:
     1  C   -0.487111
     2  H    0.174740
     3  H    0.175650
     4  H    0.153611
     5  C    0.019772
     6  H    0.135407
     7  H    0.134002
     8  O   -0.613765
     9  C    0.003434
    10  H    0.136750
    11  H    0.189517
    12  C    0.006685
    13  H    0.139493
    14  H    0.137459
    15  O   -0.611659
    16  C    0.019835
    17  H    0.137382
    18  H    0.152791
    19  C    0.006349
    20  H    0.162938
    21  H    0.138710
    22  O   -0.625809
    23  C    0.027312
    24  H    0.177638
    25  H    0.163851
    26  C   -0.509779
    27  H    0.200463
    28  H    0.200224
    29  S    0.110375
    30  C   -0.452551
    31  H    0.209550
    32  H    0.188912
    33  C   -0.500707
    34  H    0.220226
    35  H    0.204895
    36  S    0.128612
    37  C   -0.474801
    38  H    0.193662
    39  H    0.219119
    40  C   -0.475164
    41  H    0.196989
    42  H    0.217637
    43  S    0.115336
    44  C   -0.475986
    45  H    0.201631
    46  H    0.185758
    47  C   -0.473266
    48  H    0.168394
    49  H    0.163684
    50  H    0.181803
 Sum of Mulliken charges =  -0.00000
 Dipole moment (field-independent basis, Debye):
    X=             -2.1943    Y=             -3.7624    Z=             -1.7653  Tot=              4.6997
 Quadrupole moment (field-independent basis, Debye-Ang):
   XX=           -150.3906   YY=           -152.3141   ZZ=           -161.4545
   XY=             -3.0014   XZ=             -9.9620   YZ=             -0.1217
 Traceless Quadrupole moment (field-independent basis, Debye-Ang):
   XX=              4.3292   YY=              2.4056   ZZ=             -6.7347
   XY=             -3.0014   XZ=             -9.9620   YZ=             -0.1217
 Octapole moment (field-independent basis, Debye-Ang**2):
  XXX=          -1250.2830  YYY=           -295.1227  ZZZ=           -588.0786  XYY=           -321.1930
  XXY=           -148.4516  XXZ=           -310.1245  XZZ=           -470.8700  YZZ=           -110.1768
  YYZ=           -159.5872  XYZ=            -33.0946
 Hexadecapole moment (field-independent basis, Debye-Ang**3):
 XXXX=         -27011.0019 YYYY=          -2099.0103 ZZZZ=          -9009.5589 XXXY=           -299.3689
 XXXZ=          -7861.2315 YYYX=           -179.7867 YYYZ=           -205.6728 ZZZX=          -7508.5044
 ZZZY=            -83.8253 XXYY=          -4609.7921 XXZZ=          -6734.8320 YYZZ=          -1802.1266
 XXYZ=           -115.2614 YYXZ=          -2263.1388 ZZXY=            -44.3483
 Merz-Kollman atomic radii used.
 Atom Element Radius
    1     6    1.50
    2     1    1.20
    3     1    1.20
    4     1    1.20
    5     6    1.50
    6     1    1.20
    7     1    1.20
    8     8    1.40
    9     6    1.50
   10     1    1.20
   11     1    1.20
   12     6    1.50
   13     1    1.20
   14     1    1.20
   15     8    1.40
   16     6    1.50
   17     1    1.20
   18     1    1.20
   19     6    1.50
   20     1    1.20
   21     1    1.20
   22     8    1.40
   23     6    1.50
   24     1    1.20
   25     1    1.20
   26     6    1.50
   27     1    1.20
   28     1    1.20
   29    16    1.75
   30     6    1.50
   31     1    1.20
   32     1    1.20
   33     6    1.50
   34     1    1.20
   35     1    1.20
   36    16    1.75
   37     6    1.50
   38     1    1.20
   39     1    1.20
   40     6    1.50
   41     1    1.20
   42     1    1.20
   43    16    1.75
   44     6    1.50
   45     1    1.20
   46     1    1.20
   47     6    1.50
   48     1    1.20
   49     1    1.20
   50     1    1.20
 Generate VDW surfaces: Layer= 4 Dens= 1 Start= 1.400 Inc= 0.200
            Electrostatic Properties Using The SCF Density.


       Atomic Center    1 is at  -5.537136  2.024116 -4.507825
       Atomic Center    2 is at  -5.721467  3.075114 -4.316802
       Atomic Center    3 is at  -4.536155  1.922708 -4.911332
       Atomic Center    4 is at  -6.247806  1.676444 -5.251423
       Atomic Center    5 is at  -5.672310  1.224054 -3.226992
       Atomic Center    6 is at  -6.680959  1.317784 -2.825015
       Atomic Center    7 is at  -5.501620  0.168204 -3.427853
       Atomic Center    8 is at  -4.744236  1.715321 -2.304598
       Atomic Center    9 is at  -4.761189  1.128505 -1.039130
       Atomic Center   10 is at  -5.785676  0.949900 -0.713440
       Atomic Center   11 is at  -4.311060  1.841462 -0.360992
       Atomic Center   12 is at  -3.980788 -0.170215 -0.955388
       Atomic Center   13 is at  -4.146408 -0.616720  0.025641
       Atomic Center   14 is at  -4.332473 -0.883341 -1.699805
       Atomic Center   15 is at  -2.628061  0.102408 -1.141592
       Atomic Center   16 is at  -1.803231 -1.018570 -1.145562
       Atomic Center   17 is at  -2.028620 -1.652865 -2.003368
       Atomic Center   18 is at  -1.947019 -1.610530 -0.243782
       Atomic Center   19 is at  -0.362236 -0.570103 -1.222874
       Atomic Center   20 is at  -0.257362  0.150630 -2.029456
       Atomic Center   21 is at   0.264514 -1.430524 -1.451323
       Atomic Center   22 is at   0.000000  0.000000  0.000000
       Atomic Center   23 is at   1.133541  0.815043  0.000000
       Atomic Center   24 is at   1.069887  1.413079  0.898919
       Atomic Center   25 is at   1.121829  1.492301 -0.849562
       Atomic Center   26 is at   2.425810  0.000000  0.000000
       Atomic Center   27 is at   2.526419 -0.555901 -0.924225
       Atomic Center   28 is at   2.409008 -0.719938  0.809742
       Atomic Center   29 is at   3.928729  1.013835  0.114038
       Atomic Center   30 is at   3.962240  1.418576  1.891372
       Atomic Center   31 is at   3.083627  1.985072  2.166249
       Atomic Center   32 is at   3.958561  0.495679  2.457776
       Atomic Center   33 is at   5.213974  2.237537  2.196936
       Atomic Center   34 is at   5.182066  3.176006  1.658115
       Atomic Center   35 is at   6.104983  1.715142  1.872612
       Atomic Center   36 is at   5.370535  2.687589  3.952459
       Atomic Center   37 is at   6.053226  1.167008  4.687136
       Atomic Center   38 is at   5.515924  0.309803  4.303236
       Atomic Center   39 is at   5.831296  1.229999  5.744192
       Atomic Center   40 is at   7.560080  1.018026  4.485997
       Atomic Center   41 is at   7.821887  1.024437  3.436337
       Atomic Center   42 is at   8.071330  1.855398  4.942278
       Atomic Center   43 is at   8.253143 -0.467453  5.276531
       Atomic Center   44 is at   7.823617 -1.788542  4.099084
       Atomic Center   45 is at   7.966803 -2.705950  4.657385
       Atomic Center   46 is at   6.768147 -1.731558  3.860967
       Atomic Center   47 is at   8.668042 -1.813255  2.828362
       Atomic Center   48 is at   8.374661 -2.652214  2.203652
       Atomic Center   49 is at   8.543220 -0.909329  2.242476
       Atomic Center   50 is at   9.720283 -1.915308  3.066172
      ESP Fit Center   51 is at  -7.576114  2.526679 -4.507825
      ESP Fit Center   52 is at  -4.781640  0.369811 -5.557825
      ESP Fit Center   53 is at  -5.012136  2.933443 -6.326478
      ESP Fit Center   54 is at  -5.012136  1.114789 -6.326478
      ESP Fit Center   55 is at  -5.416319  4.014263 -2.957653
      ESP Fit Center   56 is at  -6.520354  3.655540 -2.957653
      ESP Fit Center   57 is at  -4.497500  4.102144 -3.797653
      ESP Fit Center   58 is at  -5.444016  4.648615 -3.797653
      ESP Fit Center   59 is at  -6.520354  4.458828 -3.797653
      ESP Fit Center   60 is at  -7.222884  3.621585 -3.797653
      ESP Fit Center   61 is at  -4.497500  4.102144 -4.835951
      ESP Fit Center   62 is at  -5.444016  4.648615 -4.835951
      ESP Fit Center   63 is at  -6.520354  4.458828 -4.835951
      ESP Fit Center   64 is at  -7.222884  3.621585 -4.835951
      ESP Fit Center   65 is at  -5.416319  4.014263 -5.675951
      ESP Fit Center   66 is at  -6.520354  3.655540 -5.675951
      ESP Fit Center   67 is at  -2.938380  1.922708 -4.392183
      ESP Fit Center   68 is at  -3.312188  2.949738 -4.392183
      ESP Fit Center   69 is at  -3.312188  0.895678 -4.392183
      ESP Fit Center   70 is at  -2.938380  1.922708 -5.430481
      ESP Fit Center   71 is at  -3.312188  2.949738 -5.430481
      ESP Fit Center   72 is at  -4.258704  3.496209 -5.430481
      ESP Fit Center   73 is at  -4.258704  0.349207 -5.430481
      ESP Fit Center   74 is at  -3.312188  0.895678 -5.430481
      ESP Fit Center   75 is at  -3.548676  1.922708 -6.270481
      ESP Fit Center   76 is at  -4.231007  2.861857 -6.270481
      ESP Fit Center   77 is at  -4.231007  0.983559 -6.270481
      ESP Fit Center   78 is at  -4.536155  1.922708 -6.591332
      ESP Fit Center   79 is at  -7.749223  2.222915 -4.732274
      ESP Fit Center   80 is at  -7.749223  1.129973 -4.732274
      ESP Fit Center   81 is at  -7.046693  0.292730 -4.732274
      ESP Fit Center   82 is at  -7.046693  3.060158 -5.770572
      ESP Fit Center   83 is at  -7.749223  2.222915 -5.770572
      ESP Fit Center   84 is at  -7.749223  1.129973 -5.770572
      ESP Fit Center   85 is at  -7.046693  0.292730 -5.770572
      ESP Fit Center   86 is at  -5.970355  0.102943 -5.770572
      ESP Fit Center   87 is at  -5.260327  1.676444 -6.610572
      ESP Fit Center   88 is at  -5.942658  2.615593 -6.610572
      ESP Fit Center   89 is at  -7.046693  2.256870 -6.610572
      ESP Fit Center   90 is at  -7.046693  1.096018 -6.610572
      ESP Fit Center   91 is at  -5.942658  0.737295 -6.610572
      ESP Fit Center   92 is at  -6.247806  1.676444 -6.931423
      ESP Fit Center   93 is at  -3.812852  0.248135 -3.226992
      ESP Fit Center   94 is at  -7.417295  0.711680 -4.276992
      ESP Fit Center   95 is at  -7.479846  1.898210 -1.465866
      ESP Fit Center   96 is at  -7.479846  0.737358 -1.465866
      ESP Fit Center   97 is at  -7.479846  2.701498 -2.305866
      ESP Fit Center   98 is at  -8.182376  1.864255 -2.305866
      ESP Fit Center   99 is at  -8.182376  0.771313 -2.305866
      ESP Fit Center  100 is at  -7.479846 -0.065930 -2.305866
      ESP Fit Center  101 is at  -7.479846  2.701498 -3.344164
      ESP Fit Center  102 is at  -8.182376  1.864255 -3.344164
      ESP Fit Center  103 is at  -8.182376  0.771313 -3.344164
      ESP Fit Center  104 is at  -7.479846 -0.065930 -3.344164
      ESP Fit Center  105 is at  -7.479846  0.737358 -4.184164
      ESP Fit Center  106 is at  -6.300507 -0.412222 -2.068704
      ESP Fit Center  107 is at  -7.003037 -0.378267 -2.908704
      ESP Fit Center  108 is at  -6.300507 -1.215510 -2.908704
      ESP Fit Center  109 is at  -3.903845  0.168204 -3.947002
      ESP Fit Center  110 is at  -7.003037 -0.378267 -3.947002
      ESP Fit Center  111 is at  -6.300507 -1.215510 -3.947002
      ESP Fit Center  112 is at  -5.224169 -1.405297 -3.947002
      ESP Fit Center  113 is at  -4.277653 -0.858826 -3.947002
      ESP Fit Center  114 is at  -4.514141  0.168204 -4.787002
      ESP Fit Center  115 is at  -6.300507 -0.412222 -4.787002
      ESP Fit Center  116 is at  -5.196472 -0.770945 -4.787002
      ESP Fit Center  117 is at  -4.219708  3.329654 -1.324598
      ESP Fit Center  118 is at  -5.268764  3.329654 -1.324598
      ESP Fit Center  119 is at  -6.117469  2.713033 -1.324598
      ESP Fit Center  120 is at  -2.784236  1.715321 -2.304598
      ESP Fit Center  121 is at  -3.046826  2.695321 -2.304598
      ESP Fit Center  122 is at  -3.764236  3.412731 -2.304598
      ESP Fit Center  123 is at  -4.744236  3.675321 -2.304598
      ESP Fit Center  124 is at  -5.724236  3.412731 -2.304598
      ESP Fit Center  125 is at  -3.046826  1.715321 -3.284598
      ESP Fit Center  126 is at  -3.371003  2.713033 -3.284598
      ESP Fit Center  127 is at  -4.219708  3.329654 -3.284598
      ESP Fit Center  128 is at  -3.371003  0.717609 -3.284598
      ESP Fit Center  129 is at  -5.952154  2.502951  0.010870
      ESP Fit Center  130 is at  -5.505859  3.092039 -1.039130
      ESP Fit Center  131 is at  -6.333062  2.521063 -1.039130
      ESP Fit Center  132 is at  -5.785676  0.949900  0.966560
      ESP Fit Center  133 is at  -6.584563  1.530326  0.645709
      ESP Fit Center  134 is at  -6.584563  0.369474  0.645709
      ESP Fit Center  135 is at  -6.584563  2.333614 -0.194291
      ESP Fit Center  136 is at  -7.287093  1.496371 -0.194291
      ESP Fit Center  137 is at  -7.287093  0.403429 -0.194291
      ESP Fit Center  138 is at  -6.584563 -0.433814 -0.194291
      ESP Fit Center  139 is at  -6.584563  2.333614 -1.232589
      ESP Fit Center  140 is at  -7.287093  1.496371 -1.232589
      ESP Fit Center  141 is at  -7.287093  0.403429 -1.232589
      ESP Fit Center  142 is at  -6.584563 -0.433814 -1.232589
      ESP Fit Center  143 is at  -4.311060  1.841462  1.319008
      ESP Fit Center  144 is at  -3.323581  1.841462  0.998157
      ESP Fit Center  145 is at  -4.005912  2.780611  0.998157
      ESP Fit Center  146 is at  -5.109947  2.421888  0.998157
      ESP Fit Center  147 is at  -4.005912  0.902313  0.998157
      ESP Fit Center  148 is at  -2.713285  1.841462  0.158157
      ESP Fit Center  149 is at  -3.087093  2.868492  0.158157
      ESP Fit Center  150 is at  -4.033609  3.414963  0.158157
      ESP Fit Center  151 is at  -5.109947  3.225176  0.158157
      ESP Fit Center  152 is at  -3.087093  2.868492 -0.880141
      ESP Fit Center  153 is at  -4.033609  3.414963 -0.880141
      ESP Fit Center  154 is at  -5.109947  3.225176 -0.880141
      ESP Fit Center  155 is at  -3.455788  0.739112  0.863265
      ESP Fit Center  156 is at  -4.146408 -0.616720  1.705641
      ESP Fit Center  157 is at  -3.158929 -0.616720  1.384790
      ESP Fit Center  158 is at  -3.841260  0.322429  1.384790
      ESP Fit Center  159 is at  -4.945295 -0.036294  1.384790
      ESP Fit Center  160 is at  -4.945295 -1.197146  1.384790
      ESP Fit Center  161 is at  -3.841260 -1.555869  1.384790
      ESP Fit Center  162 is at  -5.647825 -1.163191  0.544790
      ESP Fit Center  163 is at  -4.945295 -2.000434  0.544790
      ESP Fit Center  164 is at  -3.868957 -2.190221  0.544790
      ESP Fit Center  165 is at  -4.945295 -2.000434 -0.493508
      ESP Fit Center  166 is at  -5.833890 -1.429812 -1.180656
      ESP Fit Center  167 is at  -5.131360 -2.267055 -1.180656
      ESP Fit Center  168 is at  -4.055022 -2.456842 -1.180656
      ESP Fit Center  169 is at  -5.833890 -1.429812 -2.218954
      ESP Fit Center  170 is at  -5.131360 -2.267055 -2.218954
      ESP Fit Center  171 is at  -4.055022 -2.456842 -2.218954
      ESP Fit Center  172 is at  -3.344994 -0.883341 -3.058954
      ESP Fit Center  173 is at  -5.131360 -1.463767 -3.058954
      ESP Fit Center  174 is at  -4.027325 -1.822490 -3.058954
      ESP Fit Center  175 is at  -2.628061  0.102408  0.818408
      ESP Fit Center  176 is at  -2.138061  0.951113  0.555818
      ESP Fit Center  177 is at  -2.103533  1.716741 -0.161592
      ESP Fit Center  178 is at  -1.648061  1.799818 -1.141592
      ESP Fit Center  179 is at  -2.628061  2.062408 -1.141592
      ESP Fit Center  180 is at  -2.103533  1.716741 -2.121592
      ESP Fit Center  181 is at  -2.138061  0.951113 -2.839002
      ESP Fit Center  182 is at  -2.628061  0.102408 -3.101592
      ESP Fit Center  183 is at  -3.375104 -2.411128 -1.145562
      ESP Fit Center  184 is at  -1.550104 -3.103259 -1.145562
      ESP Fit Center  185 is at  -2.827507 -3.036579 -1.484219
      ESP Fit Center  186 is at  -1.751169 -3.226366 -1.484219
      ESP Fit Center  187 is at  -3.530037 -2.199336 -2.522517
      ESP Fit Center  188 is at  -2.827507 -3.036579 -2.522517
      ESP Fit Center  189 is at  -1.751169 -3.226366 -2.522517
      ESP Fit Center  190 is at  -0.804653 -2.679895 -2.522517
      ESP Fit Center  191 is at  -1.041141 -1.652865 -3.362517
      ESP Fit Center  192 is at  -1.723472 -0.713716 -3.362517
      ESP Fit Center  193 is at  -2.827507 -1.072439 -3.362517
      ESP Fit Center  194 is at  -2.827507 -2.233291 -3.362517
      ESP Fit Center  195 is at  -1.723472 -2.592014 -3.362517
      ESP Fit Center  196 is at  -2.028620 -1.652865 -3.683368
      ESP Fit Center  197 is at  -1.947019 -1.610530  1.436218
      ESP Fit Center  198 is at  -0.959540 -1.610530  1.115367
      ESP Fit Center  199 is at  -1.641871 -0.671381  1.115367
      ESP Fit Center  200 is at  -2.745906 -1.030104  1.115367
      ESP Fit Center  201 is at  -2.745906 -2.190956  1.115367
      ESP Fit Center  202 is at  -1.641871 -2.549679  1.115367
      ESP Fit Center  203 is at  -3.448436 -2.157001  0.275367
      ESP Fit Center  204 is at  -2.745906 -2.994244  0.275367
      ESP Fit Center  205 is at  -1.669568 -3.184031  0.275367
      ESP Fit Center  206 is at  -0.723052 -2.637560  0.275367
      ESP Fit Center  207 is at  -2.745906 -2.994244 -0.762931
      ESP Fit Center  208 is at  -1.669568 -3.184031 -0.762931
      ESP Fit Center  209 is at  -1.106906  1.393431 -1.222874
      ESP Fit Center  210 is at   1.456417 -0.570103 -2.272874
      ESP Fit Center  211 is at  -1.056249  1.534344 -1.510307
      ESP Fit Center  212 is at   1.340413  0.150630 -2.548605
      ESP Fit Center  213 is at   0.966605  1.177660 -2.548605
      ESP Fit Center  214 is at   0.020089  1.724131 -2.548605
      ESP Fit Center  215 is at  -1.056249  1.534344 -2.548605
      ESP Fit Center  216 is at   0.730117  0.150630 -3.388605
      ESP Fit Center  217 is at   0.047786  1.089779 -3.388605
      ESP Fit Center  218 is at  -1.056249  0.731056 -3.388605
      ESP Fit Center  219 is at  -1.056249 -0.429796 -3.388605
      ESP Fit Center  220 is at   0.047786 -0.788519 -3.388605
      ESP Fit Center  221 is at  -0.257362  0.150630 -3.709456
      ESP Fit Center  222 is at   0.569662 -2.369673 -0.092174
      ESP Fit Center  223 is at  -0.534373 -2.814238 -0.932174
      ESP Fit Center  224 is at   0.541965 -3.004025 -0.932174
      ESP Fit Center  225 is at   1.488481 -2.457554 -0.932174
      ESP Fit Center  226 is at  -0.534373 -2.814238 -1.970472
      ESP Fit Center  227 is at   0.541965 -3.004025 -1.970472
      ESP Fit Center  228 is at   1.488481 -2.457554 -1.970472
      ESP Fit Center  229 is at   1.251993 -1.430524 -2.810472
      ESP Fit Center  230 is at  -0.534373 -2.010950 -2.810472
      ESP Fit Center  231 is at   0.569662 -2.369673 -2.810472
      ESP Fit Center  232 is at   0.264514 -1.430524 -3.131323
      ESP Fit Center  233 is at   0.000000  0.000000  1.960000
      ESP Fit Center  234 is at  -0.490000  0.848705  1.697410
      ESP Fit Center  235 is at  -0.980000  0.000000  1.697410
      ESP Fit Center  236 is at  -0.490000 -0.848705  1.697410
      ESP Fit Center  237 is at   0.490000 -0.848705  1.697410
      ESP Fit Center  238 is at  -1.373233  0.997712  0.980000
      ESP Fit Center  239 is at  -1.697410  0.000000  0.980000
      ESP Fit Center  240 is at  -0.524528 -1.614333  0.980000
      ESP Fit Center  241 is at   0.524528 -1.614333  0.980000
      ESP Fit Center  242 is at  -0.980000  1.697410  0.000000
      ESP Fit Center  243 is at   0.388871  2.778577  0.000000
      ESP Fit Center  244 is at  -0.438332  2.207601  0.000000
      ESP Fit Center  245 is at   1.069887  1.413079  2.578919
      ESP Fit Center  246 is at   1.375035  2.352228  2.258068
      ESP Fit Center  247 is at   0.271000  1.993505  2.258068
      ESP Fit Center  248 is at   0.271000  0.832653  2.258068
      ESP Fit Center  249 is at   1.375035  0.473930  2.258068
      ESP Fit Center  250 is at   1.347338  2.986580  1.418068
      ESP Fit Center  251 is at   0.271000  2.796793  1.418068
      ESP Fit Center  252 is at  -0.431530  1.959550  1.418068
      ESP Fit Center  253 is at   1.347338  2.986580  0.379770
      ESP Fit Center  254 is at   0.271000  2.796793  0.379770
      ESP Fit Center  255 is at   1.399280  3.065802 -0.330413
      ESP Fit Center  256 is at   0.322942  2.876015 -0.330413
      ESP Fit Center  257 is at   2.345796  2.519331 -1.368711
      ESP Fit Center  258 is at   1.399280  3.065802 -1.368711
      ESP Fit Center  259 is at   0.322942  2.876015 -1.368711
      ESP Fit Center  260 is at  -0.379588  2.038772 -1.368711
      ESP Fit Center  261 is at   2.109308  1.492301 -2.208711
      ESP Fit Center  262 is at   1.426977  2.431450 -2.208711
      ESP Fit Center  263 is at   0.322942  2.072727 -2.208711
      ESP Fit Center  264 is at   1.426977  0.553152 -2.208711
      ESP Fit Center  265 is at   1.121829  1.492301 -2.529562
      ESP Fit Center  266 is at   3.618746 -1.728266  0.000000
      ESP Fit Center  267 is at   1.727532 -1.939615 -0.405076
      ESP Fit Center  268 is at   2.803870 -2.129402 -0.405076
      ESP Fit Center  269 is at   3.750386 -1.582931 -0.405076
      ESP Fit Center  270 is at   2.803870 -2.129402 -1.443374
      ESP Fit Center  271 is at   3.750386 -1.582931 -1.443374
      ESP Fit Center  272 is at   3.513898 -0.555901 -2.283374
      ESP Fit Center  273 is at   2.831567  0.383248 -2.283374
      ESP Fit Center  274 is at   1.727532  0.024525 -2.283374
      ESP Fit Center  275 is at   1.727532 -1.136327 -2.283374
      ESP Fit Center  276 is at   2.831567 -1.495050 -2.283374
      ESP Fit Center  277 is at   2.526419 -0.555901 -2.604225
      ESP Fit Center  278 is at   2.409008 -0.719938  2.489742
      ESP Fit Center  279 is at   1.610121 -0.139512  2.168891
      ESP Fit Center  280 is at   1.610121 -1.300364  2.168891
      ESP Fit Center  281 is at   2.714156 -1.659087  2.168891
      ESP Fit Center  282 is at   0.907591 -1.266409  1.328891
      ESP Fit Center  283 is at   1.610121 -2.103652  1.328891
      ESP Fit Center  284 is at   2.686459 -2.293439  1.328891
      ESP Fit Center  285 is at   3.632975 -1.746968  1.328891
      ESP Fit Center  286 is at   1.610121 -2.103652  0.290593
      ESP Fit Center  287 is at   2.686459 -2.293439  0.290593
      ESP Fit Center  288 is at   3.632975 -1.746968  0.290593
      ESP Fit Center  289 is at   5.540139 -0.021756  1.641588
      ESP Fit Center  290 is at   3.397221  3.342522  0.659214
      ESP Fit Center  291 is at   2.439478  2.881297  0.659214
      ESP Fit Center  292 is at   4.460237 -1.314852  0.659214
      ESP Fit Center  293 is at   5.417980 -0.853627  0.659214
      ESP Fit Center  294 is at   6.080759 -0.022528  0.659214
      ESP Fit Center  295 is at   6.317302  1.013835 -0.431138
      ESP Fit Center  296 is at   6.080759  2.050198 -0.431138
      ESP Fit Center  297 is at   5.417980  2.881297 -0.431138
      ESP Fit Center  298 is at   4.460237  3.342522 -0.431138
      ESP Fit Center  299 is at   3.397221  3.342522 -0.431138
      ESP Fit Center  300 is at   2.439478  2.881297 -0.431138
      ESP Fit Center  301 is at   4.460237 -1.314852 -0.431138
      ESP Fit Center  302 is at   5.417980 -0.853627 -0.431138
      ESP Fit Center  303 is at   6.080759 -0.022528 -0.431138
      ESP Fit Center  304 is at   5.844216  1.013835 -1.413512
      ESP Fit Center  305 is at   5.540139  2.049426 -1.413512
      ESP Fit Center  306 is at   4.724451  2.756223 -1.413512
      ESP Fit Center  307 is at   3.656127  2.909825 -1.413512
      ESP Fit Center  308 is at   2.674352  2.461464 -1.413512
      ESP Fit Center  309 is at   4.724451 -0.728553 -1.413512
      ESP Fit Center  310 is at   5.540139 -0.021756 -1.413512
      ESP Fit Center  311 is at   4.991744  1.013835 -2.093336
      ESP Fit Center  312 is at   4.460237  1.934433 -2.093336
      ESP Fit Center  313 is at   3.397221  1.934433 -2.093336
      ESP Fit Center  314 is at   2.865714  1.013835 -2.093336
      ESP Fit Center  315 is at   4.460237  0.093237 -2.093336
      ESP Fit Center  316 is at   3.928729  1.013835 -2.335962
      ESP Fit Center  317 is at   2.284740  2.565498  3.525398
      ESP Fit Center  318 is at   2.284740  1.404646  3.525398
      ESP Fit Center  319 is at   3.361078  3.558573  2.685398
      ESP Fit Center  320 is at   2.284740  3.368786  2.685398
      ESP Fit Center  321 is at   1.582210  2.531543  2.685398
      ESP Fit Center  322 is at   1.582210  1.438601  2.685398
      ESP Fit Center  323 is at   3.361078  3.558573  1.647100
      ESP Fit Center  324 is at   2.284740  3.368786  1.647100
      ESP Fit Center  325 is at   3.159674  1.076105  3.816925
      ESP Fit Center  326 is at   3.159674 -0.084747  3.816925
      ESP Fit Center  327 is at   2.457144 -0.050792  2.976925
      ESP Fit Center  328 is at   3.159674 -0.888035  2.976925
      ESP Fit Center  329 is at   4.236012 -1.077822  2.976925
      ESP Fit Center  330 is at   4.236012 -1.077822  1.938627
      ESP Fit Center  331 is at   5.182528 -0.531351  1.938627
      ESP Fit Center  332 is at   7.073432  3.213456  2.196936
      ESP Fit Center  333 is at   3.642101  3.630095  2.196936
      ESP Fit Center  334 is at   6.406033  4.203036  2.177264
      ESP Fit Center  335 is at   5.459517  4.749507  2.177264
      ESP Fit Center  336 is at   4.383179  4.559720  2.177264
      ESP Fit Center  337 is at   3.680649  3.722477  2.177264
      ESP Fit Center  338 is at   6.779841  3.176006  1.138966
      ESP Fit Center  339 is at   6.406033  4.203036  1.138966
      ESP Fit Center  340 is at   5.459517  4.749507  1.138966
      ESP Fit Center  341 is at   4.383179  4.559720  1.138966
      ESP Fit Center  342 is at   3.680649  3.722477  1.138966
      ESP Fit Center  343 is at   6.169545  3.176006  0.298966
      ESP Fit Center  344 is at   5.487214  4.115155  0.298966
      ESP Fit Center  345 is at   4.383179  3.756432  0.298966
      ESP Fit Center  346 is at   5.182066  3.176006 -0.021885
      ESP Fit Center  347 is at   7.328950  2.742172  2.391761
      ESP Fit Center  348 is at   6.382434  0.141641  2.391761
      ESP Fit Center  349 is at   7.702758  1.715142  1.353463
      ESP Fit Center  350 is at   7.328950  2.742172  1.353463
      ESP Fit Center  351 is at   6.382434  0.141641  1.353463
      ESP Fit Center  352 is at   7.328950  0.688112  1.353463
      ESP Fit Center  353 is at   7.092462  1.715142  0.513463
      ESP Fit Center  354 is at   6.410131  2.654291  0.513463
      ESP Fit Center  355 is at   6.410131  0.775993  0.513463
      ESP Fit Center  356 is at   5.902043  3.608187  6.159833
      ESP Fit Center  357 is at   4.839027  3.608187  6.159833
      ESP Fit Center  358 is at   4.307520  2.687589  6.159833
      ESP Fit Center  359 is at   6.981945  3.723180  5.480009
      ESP Fit Center  360 is at   6.166257  4.429977  5.480009
      ESP Fit Center  361 is at   5.097933  4.583579  5.480009
      ESP Fit Center  362 is at   4.116158  4.135218  5.480009
      ESP Fit Center  363 is at   3.532639  3.227244  5.480009
      ESP Fit Center  364 is at   3.532639  2.147934  5.480009
      ESP Fit Center  365 is at   7.522565  3.723952  4.497635
      ESP Fit Center  366 is at   6.859786  4.555051  4.497635
      ESP Fit Center  367 is at   5.902043  5.016276  4.497635
      ESP Fit Center  368 is at   4.839027  5.016276  4.497635
      ESP Fit Center  369 is at   3.881284  4.555051  4.497635
      ESP Fit Center  370 is at   3.218505  3.723952  4.497635
      ESP Fit Center  371 is at   2.981962  2.687589  4.497635
      ESP Fit Center  372 is at   3.218505  1.651226  4.497635
      ESP Fit Center  373 is at   3.881284  0.820127  4.497635
      ESP Fit Center  374 is at   7.522565  3.723952  3.407283
      ESP Fit Center  375 is at   6.859786  4.555051  3.407283
      ESP Fit Center  376 is at   5.902043  5.016276  3.407283
      ESP Fit Center  377 is at   4.839027  5.016276  3.407283
      ESP Fit Center  378 is at   3.881284  4.555051  3.407283
      ESP Fit Center  379 is at   3.218505  3.723952  3.407283
      ESP Fit Center  380 is at   6.981945  3.723180  2.424909
      ESP Fit Center  381 is at   6.166257  4.429977  2.424909
      ESP Fit Center  382 is at   5.794405 -0.633134  5.737136
      ESP Fit Center  383 is at   4.717037 -0.270623  5.662385
      ESP Fit Center  384 is at   4.014507 -0.236668  4.822385
      ESP Fit Center  385 is at   4.717037 -1.073911  4.822385
      ESP Fit Center  386 is at   4.717037 -1.073911  3.784087
      ESP Fit Center  387 is at   5.821072 -0.629346  2.944087
      ESP Fit Center  388 is at   5.831296  1.229999  7.424192
      ESP Fit Center  389 is at   6.818775  1.229999  7.103341
      ESP Fit Center  390 is at   6.136444  2.169148  7.103341
      ESP Fit Center  391 is at   5.032409  1.810425  7.103341
      ESP Fit Center  392 is at   5.032409  0.649573  7.103341
      ESP Fit Center  393 is at   6.136444  0.290850  7.103341
      ESP Fit Center  394 is at   7.055263  2.257029  6.263341
      ESP Fit Center  395 is at   4.329879  1.776470  6.263341
      ESP Fit Center  396 is at   4.329879  0.683528  6.263341
      ESP Fit Center  397 is at   5.032409 -0.153715  6.263341
      ESP Fit Center  398 is at   8.315576  2.672331  3.435997
      ESP Fit Center  399 is at   9.419662  1.024437  2.917188
      ESP Fit Center  400 is at   9.045854  2.051467  2.917188
      ESP Fit Center  401 is at   8.099338  2.597938  2.917188
      ESP Fit Center  402 is at   8.809366  1.024437  2.077188
      ESP Fit Center  403 is at   8.127035  1.963586  2.077188
      ESP Fit Center  404 is at   7.821887  1.024437  1.756337
      ESP Fit Center  405 is at   8.071330  1.855398  6.622278
      ESP Fit Center  406 is at   9.058809  1.855398  6.301427
      ESP Fit Center  407 is at   8.376478  2.794547  6.301427
      ESP Fit Center  408 is at   7.272443  2.435824  6.301427
      ESP Fit Center  409 is at   9.669105  1.855398  5.461427
      ESP Fit Center  410 is at   9.295297  2.882428  5.461427
      ESP Fit Center  411 is at   8.348781  3.428899  5.461427
      ESP Fit Center  412 is at   7.272443  3.239112  5.461427
      ESP Fit Center  413 is at   9.669105  1.855398  4.423129
      ESP Fit Center  414 is at   9.295297  2.882428  4.423129
      ESP Fit Center  415 is at   8.348781  3.428899  4.423129
      ESP Fit Center  416 is at   8.376478  2.794547  3.583129
      ESP Fit Center  417 is at   8.253143 -0.467453  7.726531
      ESP Fit Center  418 is at   9.316158 -0.467453  7.483905
      ESP Fit Center  419 is at   8.784651  0.453145  7.483905
      ESP Fit Center  420 is at   7.721635  0.453145  7.483905
      ESP Fit Center  421 is at   7.190128 -0.467453  7.483905
      ESP Fit Center  422 is at   7.721635 -1.388051  7.483905
      ESP Fit Center  423 is at   8.784651 -1.388051  7.483905
      ESP Fit Center  424 is at  10.168630 -0.467453  6.804081
      ESP Fit Center  425 is at   9.864553  0.568138  6.804081
      ESP Fit Center  426 is at   9.048865  1.274935  6.804081
      ESP Fit Center  427 is at   7.980541  1.428537  6.804081
      ESP Fit Center  428 is at   6.415247 -1.007108  6.804081
      ESP Fit Center  429 is at   6.998766 -1.915082  6.804081
      ESP Fit Center  430 is at   7.980541 -2.363443  6.804081
      ESP Fit Center  431 is at   9.048865 -2.209841  6.804081
      ESP Fit Center  432 is at   9.864553 -1.503044  6.804081
      ESP Fit Center  433 is at  10.641716 -0.467453  5.821707
      ESP Fit Center  434 is at  10.405173  0.568910  5.821707
      ESP Fit Center  435 is at   9.742394  1.400009  5.821707
      ESP Fit Center  436 is at   6.101113 -1.503816  5.821707
      ESP Fit Center  437 is at   9.742394 -2.334915  5.821707
      ESP Fit Center  438 is at  10.405173 -1.503816  5.821707
      ESP Fit Center  439 is at  10.641716 -0.467453  4.731355
      ESP Fit Center  440 is at  10.405173  0.568910  4.731355
      ESP Fit Center  441 is at   9.742394  1.400009  4.731355
      ESP Fit Center  442 is at  10.405173 -1.503816  4.731355
      ESP Fit Center  443 is at   9.864553  0.568138  3.748981
      ESP Fit Center  444 is at   7.966803 -2.705950  6.337385
      ESP Fit Center  445 is at   8.954282 -2.705950  6.016534
      ESP Fit Center  446 is at   7.167916 -3.286376  6.016534
      ESP Fit Center  447 is at   8.271951 -3.645099  6.016534
      ESP Fit Center  448 is at   9.564578 -2.705950  5.176534
      ESP Fit Center  449 is at   6.465386 -3.252421  5.176534
      ESP Fit Center  450 is at   7.167916 -4.089664  5.176534
      ESP Fit Center  451 is at   8.244254 -4.279451  5.176534
      ESP Fit Center  452 is at   9.190770 -3.732980  5.176534
      ESP Fit Center  453 is at   7.167916 -4.089664  4.138236
      ESP Fit Center  454 is at   8.244254 -4.279451  4.138236
      ESP Fit Center  455 is at   9.190770 -3.732980  4.138236
      ESP Fit Center  456 is at   5.969260 -2.311984  5.220116
      ESP Fit Center  457 is at   5.266730 -2.278029  4.380116
      ESP Fit Center  458 is at   5.969260 -3.115272  4.380116
      ESP Fit Center  459 is at   5.266730 -1.185087  3.341818
      ESP Fit Center  460 is at   5.266730 -2.278029  3.341818
      ESP Fit Center  461 is at   5.969260 -3.115272  3.341818
      ESP Fit Center  462 is at   5.969260 -1.151132  2.501818
      ESP Fit Center  463 is at   5.969260 -2.311984  2.501818
      ESP Fit Center  464 is at   9.423538 -3.467560  3.878362
      ESP Fit Center  465 is at  10.197991 -0.830017  1.778362
      ESP Fit Center  466 is at   6.923057 -1.300881  1.778362
      ESP Fit Center  467 is at   9.718042 -1.813255  1.009709
      ESP Fit Center  468 is at   8.668042 -1.813255  0.728362
      ESP Fit Center  469 is at   6.873244 -3.198685  2.722801
      ESP Fit Center  470 is at   7.575774 -4.035928  2.722801
      ESP Fit Center  471 is at   8.652112 -4.225715  2.722801
      ESP Fit Center  472 is at   6.873244 -2.105743  1.684503
      ESP Fit Center  473 is at   6.873244 -3.198685  1.684503
      ESP Fit Center  474 is at   7.575774 -4.035928  1.684503
      ESP Fit Center  475 is at   8.652112 -4.225715  1.684503
      ESP Fit Center  476 is at   9.598628 -3.679244  1.684503
      ESP Fit Center  477 is at   9.362140 -2.652214  0.844503
      ESP Fit Center  478 is at   7.575774 -2.071788  0.844503
      ESP Fit Center  479 is at   7.575774 -3.232640  0.844503
      ESP Fit Center  480 is at   8.679809 -3.591363  0.844503
      ESP Fit Center  481 is at   8.374661 -2.652214  0.523652
      ESP Fit Center  482 is at   9.767187  0.117701  2.761625
      ESP Fit Center  483 is at   7.041803 -0.362858  2.761625
      ESP Fit Center  484 is at   9.767187  0.117701  1.723327
      ESP Fit Center  485 is at   8.820671  0.664172  1.723327
      ESP Fit Center  486 is at   7.744333  0.474385  1.723327
      ESP Fit Center  487 is at   7.041803 -0.362858  1.723327
      ESP Fit Center  488 is at   9.530699 -0.909329  0.883327
      ESP Fit Center  489 is at   8.848368  0.029820  0.883327
      ESP Fit Center  490 is at   7.744333 -0.328903  0.883327
      ESP Fit Center  491 is at   7.744333 -1.489755  0.883327
      ESP Fit Center  492 is at   8.543220 -0.909329  0.562476
      ESP Fit Center  493 is at  10.707762 -1.915308  4.425321
      ESP Fit Center  494 is at  10.025431 -2.854457  4.425321
      ESP Fit Center  495 is at  11.318058 -1.915308  3.585321
      ESP Fit Center  496 is at  10.944250 -0.888278  3.585321
      ESP Fit Center  497 is at   9.997734 -3.488809  3.585321
      ESP Fit Center  498 is at  10.944250 -2.942338  3.585321
      ESP Fit Center  499 is at  11.318058 -1.915308  2.547023
      ESP Fit Center  500 is at  10.944250 -0.888278  2.547023
      ESP Fit Center  501 is at   9.997734 -3.488809  2.547023
      ESP Fit Center  502 is at  10.944250 -2.942338  2.547023
      ESP Fit Center  503 is at  10.707762 -1.915308  1.707023
      ESP Fit Center  504 is at  -7.645247  3.039329 -3.973775
      ESP Fit Center  505 is at  -4.078278  3.853466 -5.041875
      ESP Fit Center  506 is at  -7.645247  3.039329 -5.041875
      ESP Fit Center  507 is at  -4.757653  3.730945 -6.004201
      ESP Fit Center  508 is at  -6.765914  3.442201 -6.004201
      ESP Fit Center  509 is at  -4.757653  0.317287 -6.004201
      ESP Fit Center  510 is at  -5.016476  2.925926 -6.670150
      ESP Fit Center  511 is at  -5.016476  1.122306 -6.670150
      ESP Fit Center  512 is at  -5.241467  3.906498 -2.654033
      ESP Fit Center  513 is at  -6.201467  3.906498 -2.654033
      ESP Fit Center  514 is at  -4.376259  4.052465 -3.356802
      ESP Fit Center  515 is at  -5.207643  4.656501 -3.356802
      ESP Fit Center  516 is at  -6.235291  4.656501 -3.356802
      ESP Fit Center  517 is at  -7.066675  4.052465 -3.356802
      ESP Fit Center  518 is at  -7.384236  3.075114 -3.356802
      ESP Fit Center  519 is at  -4.058698  4.035114 -4.316802
      ESP Fit Center  520 is at  -4.761467  4.737883 -4.316802
      ESP Fit Center  521 is at  -5.721467  4.995114 -4.316802
      ESP Fit Center  522 is at  -6.681467  4.737883 -4.316802
      ESP Fit Center  523 is at  -7.384236  4.035114 -4.316802
      ESP Fit Center  524 is at  -4.376259  4.052465 -5.276802
      ESP Fit Center  525 is at  -5.207643  4.656501 -5.276802
      ESP Fit Center  526 is at  -6.235291  4.656501 -5.276802
      ESP Fit Center  527 is at  -7.066675  4.052465 -5.276802
      ESP Fit Center  528 is at  -5.241467  3.906498 -5.979571
      ESP Fit Center  529 is at  -6.201467  3.906498 -5.979571
      ESP Fit Center  530 is at  -2.873386  1.922708 -3.951332
      ESP Fit Center  531 is at  -3.190947  2.900059 -3.951332
      ESP Fit Center  532 is at  -3.190947  0.945357 -3.951332
      ESP Fit Center  533 is at  -2.616155  1.922708 -4.911332
      ESP Fit Center  534 is at  -2.873386  2.882708 -4.911332
      ESP Fit Center  535 is at  -3.576155  3.585477 -4.911332
      ESP Fit Center  536 is at  -3.576155  0.259939 -4.911332
      ESP Fit Center  537 is at  -2.873386  0.962708 -4.911332
      ESP Fit Center  538 is at  -2.873386  1.922708 -5.871332
      ESP Fit Center  539 is at  -3.190947  2.900059 -5.871332
      ESP Fit Center  540 is at  -4.022331  3.504095 -5.871332
      ESP Fit Center  541 is at  -4.022331  0.341321 -5.871332
      ESP Fit Center  542 is at  -3.190947  0.945357 -5.871332
      ESP Fit Center  543 is at  -3.576155  1.922708 -6.574101
      ESP Fit Center  544 is at  -4.056155  2.754092 -6.574101
      ESP Fit Center  545 is at  -4.056155  1.091324 -6.574101
      ESP Fit Center  546 is at  -4.536155  1.922708 -6.831332
      ESP Fit Center  547 is at  -7.910575  1.676444 -4.291423
      ESP Fit Center  548 is at  -7.910575  2.636444 -5.251423
      ESP Fit Center  549 is at  -8.167806  1.676444 -5.251423
      ESP Fit Center  550 is at  -7.910575  0.716444 -5.251423
      ESP Fit Center  551 is at  -7.207806  0.013675 -5.251423
      ESP Fit Center  552 is at  -6.247806 -0.243556 -5.251423
      ESP Fit Center  553 is at  -6.761630  3.257831 -6.211423
      ESP Fit Center  554 is at  -7.593014  2.653795 -6.211423
      ESP Fit Center  555 is at  -7.910575  1.676444 -6.211423
      ESP Fit Center  556 is at  -7.593014  0.699093 -6.211423
      ESP Fit Center  557 is at  -6.761630  0.095057 -6.211423
      ESP Fit Center  558 is at  -5.733982  0.095057 -6.211423
      ESP Fit Center  559 is at  -5.287806  1.676444 -6.914192
      ESP Fit Center  560 is at  -5.767806  2.507828 -6.914192
      ESP Fit Center  561 is at  -6.727806  2.507828 -6.914192
      ESP Fit Center  562 is at  -7.207806  1.676444 -6.914192
      ESP Fit Center  563 is at  -6.727806  0.845060 -6.914192
      ESP Fit Center  564 is at  -5.767806  0.845060 -6.914192
      ESP Fit Center  565 is at  -6.247806  1.676444 -7.171423
      ESP Fit Center  566 is at  -7.131168 -0.605296 -2.692942
      ESP Fit Center  567 is at  -3.564199  0.208841 -3.761042
      ESP Fit Center  568 is at  -6.901088 -0.194031 -4.723368
      ESP Fit Center  569 is at  -7.640959  1.317784 -1.162246
      ESP Fit Center  570 is at  -7.194783  2.899171 -1.865015
      ESP Fit Center  571 is at  -8.026167  2.295135 -1.865015
      ESP Fit Center  572 is at  -8.343728  1.317784 -1.865015
      ESP Fit Center  573 is at  -8.026167  0.340433 -1.865015
      ESP Fit Center  574 is at  -7.194783 -0.263603 -1.865015
      ESP Fit Center  575 is at  -7.640959  2.980553 -2.825015
      ESP Fit Center  576 is at  -8.343728  2.277784 -2.825015
      ESP Fit Center  577 is at  -8.600959  1.317784 -2.825015
      ESP Fit Center  578 is at  -8.343728  0.357784 -2.825015
      ESP Fit Center  579 is at  -7.640959 -0.344985 -2.825015
      ESP Fit Center  580 is at  -8.026167  2.295135 -3.785015
      ESP Fit Center  581 is at  -8.343728  1.317784 -3.785015
      ESP Fit Center  582 is at  -8.026167  0.340433 -3.785015
      ESP Fit Center  583 is at  -6.846828 -0.809147 -2.467853
      ESP Fit Center  584 is at  -6.015444 -1.413183 -2.467853
      ESP Fit Center  585 is at  -7.164389 -0.791796 -3.427853
      ESP Fit Center  586 is at  -6.461620 -1.494565 -3.427853
      ESP Fit Center  587 is at  -5.501620 -1.751796 -3.427853
      ESP Fit Center  588 is at  -3.838851  0.168204 -4.387853
      ESP Fit Center  589 is at  -6.846828 -0.809147 -4.387853
      ESP Fit Center  590 is at  -6.015444 -1.413183 -4.387853
      ESP Fit Center  591 is at  -4.987796 -1.413183 -4.387853
      ESP Fit Center  592 is at  -4.156412 -0.809147 -4.387853
      ESP Fit Center  593 is at  -5.981620 -0.663180 -5.090622
      ESP Fit Center  594 is at  -5.021620 -0.663180 -5.090622
      ESP Fit Center  595 is at  -2.810543  2.730201 -1.806151
      ESP Fit Center  596 is at  -3.503674  3.512585 -1.806151
      ESP Fit Center  597 is at  -4.481003  3.883237 -1.806151
      ESP Fit Center  598 is at  -5.518636  3.757245 -1.806151
      ESP Fit Center  599 is at  -6.378863  3.163474 -1.806151
      ESP Fit Center  600 is at  -2.560397  1.715321 -2.803045
      ESP Fit Center  601 is at  -2.810543  2.730201 -2.803045
      ESP Fit Center  602 is at  -3.503674  3.512585 -2.803045
      ESP Fit Center  603 is at  -4.481003  3.883237 -2.803045
      ESP Fit Center  604 is at  -2.992933  1.715321 -3.701215
      ESP Fit Center  605 is at  -3.327402  0.685931 -3.701215
      ESP Fit Center  606 is at  -5.989967  2.546590  0.457246
      ESP Fit Center  607 is at  -6.220047  2.957855 -0.505080
      ESP Fit Center  608 is at  -5.785676  0.949900  1.206560
      ESP Fit Center  609 is at  -6.265676  1.781284  0.949329
      ESP Fit Center  610 is at  -6.745676  0.949900  0.949329
      ESP Fit Center  611 is at  -6.265676  0.118516  0.949329
      ESP Fit Center  612 is at  -6.299500  2.531287  0.246560
      ESP Fit Center  613 is at  -7.130884  1.927251  0.246560
      ESP Fit Center  614 is at  -7.448445  0.949900  0.246560
      ESP Fit Center  615 is at  -7.130884 -0.027451  0.246560
      ESP Fit Center  616 is at  -6.299500 -0.631487  0.246560
      ESP Fit Center  617 is at  -6.745676  2.612669 -0.713440
      ESP Fit Center  618 is at  -7.448445  1.909900 -0.713440
      ESP Fit Center  619 is at  -7.705676  0.949900 -0.713440
      ESP Fit Center  620 is at  -7.448445 -0.010100 -0.713440
      ESP Fit Center  621 is at  -6.745676 -0.712869 -0.713440
      ESP Fit Center  622 is at  -6.299500 -0.631487 -1.673440
      ESP Fit Center  623 is at  -4.311060  1.841462  1.559008
      ESP Fit Center  624 is at  -3.351060  1.841462  1.301777
      ESP Fit Center  625 is at  -3.831060  2.672846  1.301777
      ESP Fit Center  626 is at  -4.791060  2.672846  1.301777
      ESP Fit Center  627 is at  -5.271060  1.841462  1.301777
      ESP Fit Center  628 is at  -3.831060  1.010078  1.301777
      ESP Fit Center  629 is at  -2.648291  1.841462  0.599008
      ESP Fit Center  630 is at  -2.965852  2.818813  0.599008
      ESP Fit Center  631 is at  -3.797236  3.422849  0.599008
      ESP Fit Center  632 is at  -4.824884  3.422849  0.599008
      ESP Fit Center  633 is at  -5.656268  2.818813  0.599008
      ESP Fit Center  634 is at  -2.648291  2.801462 -0.360992
      ESP Fit Center  635 is at  -3.351060  3.504231 -0.360992
      ESP Fit Center  636 is at  -4.311060  3.761462 -0.360992
      ESP Fit Center  637 is at  -5.271060  3.504231 -0.360992
      ESP Fit Center  638 is at  -2.965852  2.818813 -1.320992
      ESP Fit Center  639 is at  -6.088899 -1.185428 -0.421338
      ESP Fit Center  640 is at  -5.439646 -1.999565 -0.421338
      ESP Fit Center  641 is at  -4.501448 -2.451378 -0.421338
      ESP Fit Center  642 is at  -4.146408 -0.616720  1.945641
      ESP Fit Center  643 is at  -3.186408 -0.616720  1.688410
      ESP Fit Center  644 is at  -3.666408  0.214664  1.688410
      ESP Fit Center  645 is at  -4.626408  0.214664  1.688410
      ESP Fit Center  646 is at  -5.106408 -0.616720  1.688410
      ESP Fit Center  647 is at  -4.626408 -1.448104  1.688410
      ESP Fit Center  648 is at  -3.666408 -1.448104  1.688410
      ESP Fit Center  649 is at  -5.809177 -0.616720  0.985641
      ESP Fit Center  650 is at  -5.491616 -1.594071  0.985641
      ESP Fit Center  651 is at  -4.660232 -2.198107  0.985641
      ESP Fit Center  652 is at  -3.632584 -2.198107  0.985641
      ESP Fit Center  653 is at  -5.809177 -1.576720  0.025641
      ESP Fit Center  654 is at  -5.106408 -2.279489  0.025641
      ESP Fit Center  655 is at  -4.146408 -2.536720  0.025641
      ESP Fit Center  656 is at  -5.677681 -1.860692 -0.739805
      ESP Fit Center  657 is at  -4.846297 -2.464728 -0.739805
      ESP Fit Center  658 is at  -6.252473 -0.883341 -1.699805
      ESP Fit Center  659 is at  -5.995242 -1.843341 -1.699805
      ESP Fit Center  660 is at  -5.292473 -2.546110 -1.699805
      ESP Fit Center  661 is at  -4.332473 -2.803341 -1.699805
      ESP Fit Center  662 is at  -5.677681 -1.860692 -2.659805
      ESP Fit Center  663 is at  -4.846297 -2.464728 -2.659805
      ESP Fit Center  664 is at  -3.818649 -2.464728 -2.659805
      ESP Fit Center  665 is at  -3.372473 -0.883341 -3.362574
      ESP Fit Center  666 is at  -4.812473 -1.714725 -3.362574
      ESP Fit Center  667 is at  -3.852473 -1.714725 -3.362574
      ESP Fit Center  668 is at  -2.628061  0.102408  1.098408
      ESP Fit Center  669 is at  -2.142111  0.944098  0.876578
      ESP Fit Center  670 is at  -2.086879  1.767996  0.255025
      ESP Fit Center  671 is at  -1.387499  1.899672 -0.643145
      ESP Fit Center  672 is at  -2.364828  2.270324 -0.643145
      ESP Fit Center  673 is at  -1.387499  1.899672 -1.640039
      ESP Fit Center  674 is at  -2.364828  2.270324 -1.640039
      ESP Fit Center  675 is at  -2.086879  1.767996 -2.538209
      ESP Fit Center  676 is at  -2.142111  0.944098 -3.159762
      ESP Fit Center  677 is at  -2.628061  0.102408 -3.381592
      ESP Fit Center  678 is at  -2.988620 -3.315634 -2.003368
      ESP Fit Center  679 is at  -2.028620 -3.572865 -2.003368
      ESP Fit Center  680 is at  -1.068620 -3.315634 -2.003368
      ESP Fit Center  681 is at  -3.373828 -2.630216 -2.963368
      ESP Fit Center  682 is at  -2.542444 -3.234252 -2.963368
      ESP Fit Center  683 is at  -1.514796 -3.234252 -2.963368
      ESP Fit Center  684 is at  -0.683412 -2.630216 -2.963368
      ESP Fit Center  685 is at  -1.068620 -1.652865 -3.666137
      ESP Fit Center  686 is at  -1.548620 -0.821481 -3.666137
      ESP Fit Center  687 is at  -2.508620 -0.821481 -3.666137
      ESP Fit Center  688 is at  -2.988620 -1.652865 -3.666137
      ESP Fit Center  689 is at  -2.508620 -2.484249 -3.666137
      ESP Fit Center  690 is at  -1.548620 -2.484249 -3.666137
      ESP Fit Center  691 is at  -2.028620 -1.652865 -3.923368
      ESP Fit Center  692 is at  -1.947019 -1.610530  1.676218
      ESP Fit Center  693 is at  -0.987019 -1.610530  1.418987
      ESP Fit Center  694 is at  -2.427019 -0.779146  1.418987
      ESP Fit Center  695 is at  -2.907019 -1.610530  1.418987
      ESP Fit Center  696 is at  -2.427019 -2.441914  1.418987
      ESP Fit Center  697 is at  -1.467019 -2.441914  1.418987
      ESP Fit Center  698 is at  -3.292227 -2.587881  0.716218
      ESP Fit Center  699 is at  -2.460843 -3.191917  0.716218
      ESP Fit Center  700 is at  -1.433195 -3.191917  0.716218
      ESP Fit Center  701 is at  -0.601811 -2.587881  0.716218
      ESP Fit Center  702 is at  -3.609788 -2.570530 -0.243782
      ESP Fit Center  703 is at  -2.907019 -3.273299 -0.243782
      ESP Fit Center  704 is at  -1.947019 -3.530530 -0.243782
      ESP Fit Center  705 is at  -0.987019 -3.273299 -0.243782
      ESP Fit Center  706 is at   0.417247 -2.276932  0.273502
      ESP Fit Center  707 is at   1.514160 -0.570103 -2.719250
      ESP Fit Center  708 is at   0.158424 -1.471913 -3.385199
      ESP Fit Center  709 is at  -1.217362  1.813399 -2.029456
      ESP Fit Center  710 is at   1.405407  0.150630 -2.989456
      ESP Fit Center  711 is at   1.087846  1.127981 -2.989456
      ESP Fit Center  712 is at   0.256462  1.732017 -2.989456
      ESP Fit Center  713 is at  -0.771186  1.732017 -2.989456
      ESP Fit Center  714 is at  -1.602570  1.127981 -2.989456
      ESP Fit Center  715 is at   0.702638  0.150630 -3.692225
      ESP Fit Center  716 is at   0.222638  0.982014 -3.692225
      ESP Fit Center  717 is at  -0.737362  0.982014 -3.692225
      ESP Fit Center  718 is at  -1.217362  0.150630 -3.692225
      ESP Fit Center  719 is at  -0.737362 -0.680754 -3.692225
      ESP Fit Center  720 is at   0.222638 -0.680754 -3.692225
      ESP Fit Center  721 is at  -0.257362  0.150630 -3.949456
      ESP Fit Center  722 is at   0.744514 -2.261908  0.211446
      ESP Fit Center  723 is at  -0.249310 -3.011911 -0.491323
      ESP Fit Center  724 is at   0.778338 -3.011911 -0.491323
      ESP Fit Center  725 is at   1.609722 -2.407875 -0.491323
      ESP Fit Center  726 is at   0.264514 -3.350524 -1.451323
      ESP Fit Center  727 is at   1.224514 -3.093293 -1.451323
      ESP Fit Center  728 is at   1.927283 -2.390524 -1.451323
      ESP Fit Center  729 is at  -0.249310 -3.011911 -2.411323
      ESP Fit Center  730 is at   0.778338 -3.011911 -2.411323
      ESP Fit Center  731 is at   1.609722 -2.407875 -2.411323
      ESP Fit Center  732 is at   1.224514 -1.430524 -3.114092
      ESP Fit Center  733 is at  -0.215486 -2.261908 -3.114092
      ESP Fit Center  734 is at   0.744514 -2.261908 -3.114092
      ESP Fit Center  735 is at   0.000000  0.000000  2.240000
      ESP Fit Center  736 is at  -0.485950  0.841690  2.018170
      ESP Fit Center  737 is at  -0.971900  0.000000  2.018170
      ESP Fit Center  738 is at  -0.485950 -0.841690  2.018170
      ESP Fit Center  739 is at   0.485950 -0.841690  2.018170
      ESP Fit Center  740 is at  -1.416834  1.029390  1.396617
      ESP Fit Center  741 is at  -1.751303  0.000000  1.396617
      ESP Fit Center  742 is at  -0.541182 -1.665588  1.396617
      ESP Fit Center  743 is at   0.541182 -1.665588  1.396617
      ESP Fit Center  744 is at  -1.634627  1.448153  0.498447
      ESP Fit Center  745 is at   0.263233 -2.167916  0.498447
      ESP Fit Center  746 is at   0.612881 -0.086767  2.162325
      ESP Fit Center  747 is at   1.069887  1.413079  2.818919
      ESP Fit Center  748 is at   0.589887  2.244463  2.561688
      ESP Fit Center  749 is at   0.109887  1.413079  2.561688
      ESP Fit Center  750 is at   0.589887  0.581695  2.561688
      ESP Fit Center  751 is at   1.549887  0.581695  2.561688
      ESP Fit Center  752 is at   0.556063  2.994466  1.858919
      ESP Fit Center  753 is at  -0.275321  2.390430  1.858919
      ESP Fit Center  754 is at  -0.592882  1.413079  1.858919
      ESP Fit Center  755 is at   2.029887  3.075848  0.898919
      ESP Fit Center  756 is at   1.069887  3.333079  0.898919
      ESP Fit Center  757 is at   0.109887  3.075848  0.898919
      ESP Fit Center  758 is at  -0.592882  2.373079  0.898919
      ESP Fit Center  759 is at   2.081829  3.155070 -0.849562
      ESP Fit Center  760 is at   1.121829  3.412301 -0.849562
      ESP Fit Center  761 is at   0.161829  3.155070 -0.849562
      ESP Fit Center  762 is at  -0.540940  2.452301 -0.849562
      ESP Fit Center  763 is at   2.467037  2.469652 -1.809562
      ESP Fit Center  764 is at   1.635653  3.073688 -1.809562
      ESP Fit Center  765 is at   0.608005  3.073688 -1.809562
      ESP Fit Center  766 is at  -0.223379  2.469652 -1.809562
      ESP Fit Center  767 is at   2.081829  1.492301 -2.512331
      ESP Fit Center  768 is at   1.601829  2.323685 -2.512331
      ESP Fit Center  769 is at   0.641829  2.323685 -2.512331
      ESP Fit Center  770 is at   1.601829  0.660917 -2.512331
      ESP Fit Center  771 is at   1.121829  1.492301 -2.769562
      ESP Fit Center  772 is at   2.526419 -2.475901 -0.924225
      ESP Fit Center  773 is at   3.486419 -2.218670 -0.924225
      ESP Fit Center  774 is at   2.012595 -2.137288 -1.884225
      ESP Fit Center  775 is at   3.040243 -2.137288 -1.884225
      ESP Fit Center  776 is at   3.871627 -1.533252 -1.884225
      ESP Fit Center  777 is at   3.486419 -0.555901 -2.586994
      ESP Fit Center  778 is at   3.006419  0.275483 -2.586994
      ESP Fit Center  779 is at   2.046419  0.275483 -2.586994
      ESP Fit Center  780 is at   2.046419 -1.387285 -2.586994
      ESP Fit Center  781 is at   3.006419 -1.387285 -2.586994
      ESP Fit Center  782 is at   2.526419 -0.555901 -2.844225
      ESP Fit Center  783 is at   2.409008 -0.719938  2.729742
      ESP Fit Center  784 is at   1.929008  0.111446  2.472511
      ESP Fit Center  785 is at   1.449008 -0.719938  2.472511
      ESP Fit Center  786 is at   1.929008 -1.551322  2.472511
      ESP Fit Center  787 is at   2.889008 -1.551322  2.472511
      ESP Fit Center  788 is at   1.063800 -1.697289  1.769742
      ESP Fit Center  789 is at   1.895184 -2.301325  1.769742
      ESP Fit Center  790 is at   2.922832 -2.301325  1.769742
      ESP Fit Center  791 is at   3.754216 -1.697289  1.769742
      ESP Fit Center  792 is at   1.449008 -2.382707  0.809742
      ESP Fit Center  793 is at   2.409008 -2.639938  0.809742
      ESP Fit Center  794 is at   3.369008 -2.382707  0.809742
      ESP Fit Center  795 is at   4.728114 -1.446418  1.185552
      ESP Fit Center  796 is at   5.659678 -0.908579  1.185552
      ESP Fit Center  797 is at   6.728729  1.013835  0.114038
      ESP Fit Center  798 is at   4.187080  3.801891  0.114038
      ESP Fit Center  799 is at   3.162473  3.706947  0.114038
      ESP Fit Center  800 is at   2.241352  3.248283  0.114038
      ESP Fit Center  801 is at   4.187080 -1.774221  0.114038
      ESP Fit Center  802 is at   5.176796 -1.492622  0.114038
      ESP Fit Center  803 is at   5.997954 -0.872513  0.114038
      ESP Fit Center  804 is at   6.539651  0.002358  0.114038
      ESP Fit Center  805 is at   6.515592  1.013835 -0.957476
      ESP Fit Center  806 is at   6.291946  2.066007 -0.957476
      ESP Fit Center  807 is at   5.659678  2.936249 -0.957476
      ESP Fit Center  808 is at   4.728114  3.474088 -0.957476
      ESP Fit Center  809 is at   3.658328  3.586527 -0.957476
      ESP Fit Center  810 is at   2.635298  3.254124 -0.957476
      ESP Fit Center  811 is at   4.728114 -1.446418 -0.957476
      ESP Fit Center  812 is at   5.659678 -0.908579 -0.957476
      ESP Fit Center  813 is at   6.291946 -0.038337 -0.957476
      ESP Fit Center  814 is at   5.908628  1.013835 -1.865861
      ESP Fit Center  815 is at   5.643372  2.003784 -1.865861
      ESP Fit Center  816 is at   4.918678  2.728478 -1.865861
      ESP Fit Center  817 is at   3.928729  2.993734 -1.865861
      ESP Fit Center  818 is at   2.938780  2.728478 -1.865861
      ESP Fit Center  819 is at   4.918678 -0.700808 -1.865861
      ESP Fit Center  820 is at   5.643372  0.023886 -1.865861
      ESP Fit Center  821 is at   5.000243  1.013835 -2.472825
      ESP Fit Center  822 is at   4.464486  1.941793 -2.472825
      ESP Fit Center  823 is at   3.392972  1.941793 -2.472825
      ESP Fit Center  824 is at   2.857215  1.013835 -2.472825
      ESP Fit Center  825 is at   4.464486  0.085877 -2.472825
      ESP Fit Center  826 is at   3.928729  1.013835 -2.685962
      ESP Fit Center  827 is at   1.854129  0.403363  2.425422
      ESP Fit Center  828 is at   2.123627  1.985072  3.829018
      ESP Fit Center  829 is at   2.569803  3.566459  3.126249
      ESP Fit Center  830 is at   1.738419  2.962423  3.126249
      ESP Fit Center  831 is at   1.420858  1.985072  3.126249
      ESP Fit Center  832 is at   1.738419  1.007721  3.126249
      ESP Fit Center  833 is at   3.083627  3.905072  2.166249
      ESP Fit Center  834 is at   2.123627  3.647841  2.166249
      ESP Fit Center  835 is at   1.420858  2.945072  2.166249
      ESP Fit Center  836 is at   2.569803  3.566459  1.206249
      ESP Fit Center  837 is at   2.998561  0.495679  4.120545
      ESP Fit Center  838 is at   3.478561 -0.335705  4.120545
      ESP Fit Center  839 is at   2.295792  0.495679  3.417776
      ESP Fit Center  840 is at   2.613353 -0.481672  3.417776
      ESP Fit Center  841 is at   3.444737 -1.085708  3.417776
      ESP Fit Center  842 is at   4.472385 -1.085708  3.417776
      ESP Fit Center  843 is at   3.958561 -1.424321  2.457776
      ESP Fit Center  844 is at   4.918561 -1.167090  2.457776
      ESP Fit Center  845 is at   5.621330 -0.464321  2.457776
      ESP Fit Center  846 is at   7.322085  3.252750  1.662886
      ESP Fit Center  847 is at   6.844835  4.136006  1.658115
      ESP Fit Center  848 is at   6.142066  4.838775  1.658115
      ESP Fit Center  849 is at   5.182066  5.096006  1.658115
      ESP Fit Center  850 is at   4.222066  4.838775  1.658115
      ESP Fit Center  851 is at   3.519297  4.136006  1.658115
      ESP Fit Center  852 is at   6.844835  3.176006  0.698115
      ESP Fit Center  853 is at   6.527274  4.153357  0.698115
      ESP Fit Center  854 is at   5.695890  4.757393  0.698115
      ESP Fit Center  855 is at   4.668242  4.757393  0.698115
      ESP Fit Center  856 is at   3.836858  4.153357  0.698115
      ESP Fit Center  857 is at   6.142066  3.176006 -0.004654
      ESP Fit Center  858 is at   5.662066  4.007390 -0.004654
      ESP Fit Center  859 is at   4.702066  4.007390 -0.004654
      ESP Fit Center  860 is at   7.767752  2.675142  1.872612
      ESP Fit Center  861 is at   6.104983 -0.204858  1.872612
      ESP Fit Center  862 is at   7.767752  1.715142  0.912612
      ESP Fit Center  863 is at   7.450191  2.692493  0.912612
      ESP Fit Center  864 is at   6.618807  0.133755  0.912612
      ESP Fit Center  865 is at   7.450191  0.737791  0.912612
      ESP Fit Center  866 is at   7.064983  1.715142  0.209843
      ESP Fit Center  867 is at   6.584983  2.546526  0.209843
      ESP Fit Center  868 is at   5.906292  3.615547  6.539322
      ESP Fit Center  869 is at   4.834778  3.615547  6.539322
      ESP Fit Center  870 is at   4.299021  2.687589  6.539322
      ESP Fit Center  871 is at   7.085178  3.677538  5.932358
      ESP Fit Center  872 is at   6.360484  4.402232  5.932358
      ESP Fit Center  873 is at   5.370535  4.667488  5.932358
      ESP Fit Center  874 is at   4.380586  4.402232  5.932358
      ESP Fit Center  875 is at   3.655892  3.677538  5.932358
      ESP Fit Center  876 is at   3.390636  2.687589  5.932358
      ESP Fit Center  877 is at   3.655892  1.697640  5.932358
      ESP Fit Center  878 is at   7.101484  4.610003  5.023973
      ESP Fit Center  879 is at   6.169920  5.147842  5.023973
      ESP Fit Center  880 is at   5.100134  5.260281  5.023973
      ESP Fit Center  881 is at   4.077104  4.927878  5.023973
      ESP Fit Center  882 is at   3.277719  4.208109  5.023973
      ESP Fit Center  883 is at   2.840201  3.225428  5.023973
      ESP Fit Center  884 is at   2.840201  2.149750  5.023973
      ESP Fit Center  885 is at   3.277719  1.167069  5.023973
      ESP Fit Center  886 is at   7.981457  3.699066  3.952459
      ESP Fit Center  887 is at   7.439760  4.573937  3.952459
      ESP Fit Center  888 is at   6.618602  5.194046  3.952459
      ESP Fit Center  889 is at   5.628886  5.475645  3.952459
      ESP Fit Center  890 is at   4.604279  5.380701  3.952459
      ESP Fit Center  891 is at   3.683158  4.922037  3.952459
      ESP Fit Center  892 is at   2.989927  4.161599  3.952459
      ESP Fit Center  893 is at   2.618210  3.202088  3.952459
      ESP Fit Center  894 is at   7.733752  3.739761  2.880945
      ESP Fit Center  895 is at   7.101484  4.610003  2.880945
      ESP Fit Center  896 is at   6.169920  5.147842  2.880945
      ESP Fit Center  897 is at   5.100134  5.260281  2.880945
      ESP Fit Center  898 is at   4.077104  4.927878  2.880945
      ESP Fit Center  899 is at   3.277719  4.208109  2.880945
      ESP Fit Center  900 is at   3.853155  0.309803  5.263236
      ESP Fit Center  901 is at   4.170716 -0.667548  5.263236
      ESP Fit Center  902 is at   5.002100 -1.271584  5.263236
      ESP Fit Center  903 is at   3.853155 -0.650197  4.303236
      ESP Fit Center  904 is at   4.555924 -1.352966  4.303236
      ESP Fit Center  905 is at   5.831296  1.229999  7.664192
      ESP Fit Center  906 is at   6.791296  1.229999  7.406961
      ESP Fit Center  907 is at   6.311296  2.061383  7.406961
      ESP Fit Center  908 is at   5.351296  2.061383  7.406961
      ESP Fit Center  909 is at   4.871296  1.229999  7.406961
      ESP Fit Center  910 is at   5.351296  0.398615  7.406961
      ESP Fit Center  911 is at   6.311296  0.398615  7.406961
      ESP Fit Center  912 is at   7.176504  2.207350  6.704192
      ESP Fit Center  913 is at   6.345120  2.811386  6.704192
      ESP Fit Center  914 is at   4.486088  2.207350  6.704192
      ESP Fit Center  915 is at   4.168527  1.229999  6.704192
      ESP Fit Center  916 is at   4.486088  0.252648  6.704192
      ESP Fit Center  917 is at   5.317472 -0.351388  6.704192
      ESP Fit Center  918 is at   9.484656  1.024437  2.476337
      ESP Fit Center  919 is at   9.167095  2.001788  2.476337
      ESP Fit Center  920 is at   8.335711  2.605824  2.476337
      ESP Fit Center  921 is at   8.781887  1.024437  1.773568
      ESP Fit Center  922 is at   8.301887  1.855821  1.773568
      ESP Fit Center  923 is at   8.071330  1.855398  6.862278
      ESP Fit Center  924 is at   8.551330  2.686782  6.605047
      ESP Fit Center  925 is at   7.591330  2.686782  6.605047
      ESP Fit Center  926 is at   9.734099  1.855398  5.902278
      ESP Fit Center  927 is at   9.416538  2.832749  5.902278
      ESP Fit Center  928 is at   8.585154  3.436785  5.902278
      ESP Fit Center  929 is at   7.557506  3.436785  5.902278
      ESP Fit Center  930 is at   9.991330  1.855398  4.942278
      ESP Fit Center  931 is at   9.734099  2.815398  4.942278
      ESP Fit Center  932 is at   9.031330  3.518167  4.942278
      ESP Fit Center  933 is at   8.071330  3.775398  4.942278
      ESP Fit Center  934 is at   9.416538  2.832749  3.982278
      ESP Fit Center  935 is at   8.585154  3.436785  3.982278
      ESP Fit Center  936 is at   8.253143 -0.467453  8.076531
      ESP Fit Center  937 is at   9.324657 -0.467453  7.863394
      ESP Fit Center  938 is at   8.788900  0.460505  7.863394
      ESP Fit Center  939 is at   7.717386  0.460505  7.863394
      ESP Fit Center  940 is at   7.181629 -0.467453  7.863394
      ESP Fit Center  941 is at   7.717386 -1.395411  7.863394
      ESP Fit Center  942 is at   8.788900 -1.395411  7.863394
      ESP Fit Center  943 is at  10.233042 -0.467453  7.256430
      ESP Fit Center  944 is at   9.967786  0.522496  7.256430
      ESP Fit Center  945 is at   9.243092  1.247190  7.256430
      ESP Fit Center  946 is at   8.253143  1.512446  7.256430
      ESP Fit Center  947 is at   7.263194  1.247190  7.256430
      ESP Fit Center  948 is at   6.273244 -0.467453  7.256430
      ESP Fit Center  949 is at   6.538500 -1.457402  7.256430
      ESP Fit Center  950 is at   7.263194 -2.182096  7.256430
      ESP Fit Center  951 is at   8.253143 -2.447352  7.256430
      ESP Fit Center  952 is at   9.243092 -2.182096  7.256430
      ESP Fit Center  953 is at   9.967786 -1.457402  7.256430
      ESP Fit Center  954 is at  10.840006 -0.467453  6.348045
      ESP Fit Center  955 is at  10.616360  0.584719  6.348045
      ESP Fit Center  956 is at   9.984092  1.454961  6.348045
      ESP Fit Center  957 is at   5.722809 -1.005292  6.348045
      ESP Fit Center  958 is at   6.160327 -1.987973  6.348045
      ESP Fit Center  959 is at   6.959712 -2.707742  6.348045
      ESP Fit Center  960 is at   9.052528 -2.927706  6.348045
      ESP Fit Center  961 is at   9.984092 -2.389867  6.348045
      ESP Fit Center  962 is at  10.616360 -1.519625  6.348045
      ESP Fit Center  963 is at  11.053143 -0.467453  5.276531
      ESP Fit Center  964 is at  10.864065  0.544024  5.276531
      ESP Fit Center  965 is at  10.322368  1.418895  5.276531
      ESP Fit Center  966 is at  10.322368 -2.353801  5.276531
      ESP Fit Center  967 is at  10.864065 -1.478930  5.276531
      ESP Fit Center  968 is at  10.840006 -0.467453  4.205017
      ESP Fit Center  969 is at  10.616360  0.584719  4.205017
      ESP Fit Center  970 is at   9.984092  1.454961  4.205017
      ESP Fit Center  971 is at   9.967786  0.522496  3.296632
      ESP Fit Center  972 is at   6.023229 -2.317184  5.595460
      ESP Fit Center  973 is at   6.364759 -3.617892  3.565034
      ESP Fit Center  974 is at   7.486803 -3.537334  6.320154
      ESP Fit Center  975 is at   8.446803 -3.537334  6.320154
      ESP Fit Center  976 is at   6.621595 -3.683301  5.617385
      ESP Fit Center  977 is at   7.452979 -4.287337  5.617385
      ESP Fit Center  978 is at   8.480627 -4.287337  5.617385
      ESP Fit Center  979 is at   9.312011 -3.683301  5.617385
      ESP Fit Center  980 is at   6.304034 -3.665950  4.657385
      ESP Fit Center  981 is at   7.006803 -4.368719  4.657385
      ESP Fit Center  982 is at   7.966803 -4.625950  4.657385
      ESP Fit Center  983 is at   8.926803 -4.368719  4.657385
      ESP Fit Center  984 is at   9.629572 -3.665950  4.657385
      ESP Fit Center  985 is at   7.452979 -4.287337  3.697385
      ESP Fit Center  986 is at   8.480627 -4.287337  3.697385
      ESP Fit Center  987 is at   5.105378 -1.731558  4.820967
      ESP Fit Center  988 is at   5.422939 -2.708909  4.820967
      ESP Fit Center  989 is at   4.848147 -1.731558  3.860967
      ESP Fit Center  990 is at   5.105378 -2.691558  3.860967
      ESP Fit Center  991 is at   5.808147 -3.394327  3.860967
      ESP Fit Center  992 is at   5.105378 -1.731558  2.900967
      ESP Fit Center  993 is at   5.422939 -2.708909  2.900967
      ESP Fit Center  994 is at   6.254323 -3.312945  2.900967
      ESP Fit Center  995 is at   6.288147 -0.900174  2.198198
      ESP Fit Center  996 is at   5.808147 -1.731558  2.198198
      ESP Fit Center  997 is at   6.288147 -2.562942  2.198198
      ESP Fit Center  998 is at   9.188702 -4.094418  3.362412
      ESP Fit Center  999 is at  10.126900 -3.642605  2.294312
      ESP Fit Center 1000 is at  10.544438 -1.813255  1.331986
      ESP Fit Center 1001 is at  10.246566 -0.798799  1.331986
      ESP Fit Center 1002 is at   6.867654 -1.284613  1.331986
      ESP Fit Center 1003 is at  10.246566 -2.827711  1.331986
      ESP Fit Center 1004 is at   9.709363 -1.813255  0.666037
      ESP Fit Center 1005 is at   8.668042 -1.813255  0.428362
      ESP Fit Center 1006 is at   7.860837 -4.233601  3.163652
      ESP Fit Center 1007 is at   8.888485 -4.233601  3.163652
      ESP Fit Center 1008 is at   6.454661 -2.652214  2.203652
      ESP Fit Center 1009 is at   6.711892 -3.612214  2.203652
      ESP Fit Center 1010 is at   7.414661 -4.314983  2.203652
      ESP Fit Center 1011 is at   8.374661 -4.572214  2.203652
      ESP Fit Center 1012 is at   9.334661 -4.314983  2.203652
      ESP Fit Center 1013 is at   6.711892 -2.652214  1.243652
      ESP Fit Center 1014 is at   7.029453 -3.629565  1.243652
      ESP Fit Center 1015 is at   7.860837 -4.233601  1.243652
      ESP Fit Center 1016 is at   8.888485 -4.233601  1.243652
      ESP Fit Center 1017 is at   9.719869 -3.629565  1.243652
      ESP Fit Center 1018 is at   9.334661 -2.652214  0.540883
      ESP Fit Center 1019 is at   7.894661 -1.820830  0.540883
      ESP Fit Center 1020 is at   7.414661 -2.652214  0.540883
      ESP Fit Center 1021 is at   7.894661 -3.483598  0.540883
      ESP Fit Center 1022 is at   8.854661 -3.483598  0.540883
      ESP Fit Center 1023 is at   8.374661 -2.652214  0.283652
      ESP Fit Center 1024 is at  10.205989  0.050671  2.242476
      ESP Fit Center 1025 is at   9.503220  0.753440  2.242476
      ESP Fit Center 1026 is at   9.888428  0.068022  1.282476
      ESP Fit Center 1027 is at   9.057044  0.672058  1.282476
      ESP Fit Center 1028 is at   8.029396  0.672058  1.282476
      ESP Fit Center 1029 is at   7.198012  0.068022  1.282476
      ESP Fit Center 1030 is at   6.880451 -0.909329  1.282476
      ESP Fit Center 1031 is at   9.503220 -0.909329  0.579707
      ESP Fit Center 1032 is at   9.023220 -0.077945  0.579707
      ESP Fit Center 1033 is at   8.063220 -0.077945  0.579707
      ESP Fit Center 1034 is at   7.583220 -0.909329  0.579707
      ESP Fit Center 1035 is at   8.543220 -0.909329  0.322476
      ESP Fit Center 1036 is at  10.680283 -1.915308  4.728941
      ESP Fit Center 1037 is at  10.200283 -2.746692  4.728941
      ESP Fit Center 1038 is at  11.383052 -1.915308  4.026172
      ESP Fit Center 1039 is at  11.065491 -0.937957  4.026172
      ESP Fit Center 1040 is at  10.234107 -3.496695  4.026172
      ESP Fit Center 1041 is at  11.065491 -2.892659  4.026172
      ESP Fit Center 1042 is at  11.640283 -1.915308  3.066172
      ESP Fit Center 1043 is at  11.383052 -0.955308  3.066172
      ESP Fit Center 1044 is at  10.680283 -0.252539  3.066172
      ESP Fit Center 1045 is at  10.680283 -3.578077  3.066172
      ESP Fit Center 1046 is at  11.383052 -2.875308  3.066172
      ESP Fit Center 1047 is at  11.383052 -1.915308  2.106172
      ESP Fit Center 1048 is at  11.065491 -0.937957  2.106172
[...]
 1384 Fit       0.001663
 1385 Fit       0.000203
 1386 Fit       0.000851
 1387 Fit      -0.003365
 1388 Fit       0.007231
 1389 Fit       0.017144
 1390 Fit       0.010198
 1391 Fit       0.006368
 1392 Fit       0.005531
 1393 Fit       0.011979
 1394 Fit       0.002649
 1395 Fit      -0.002732
 1396 Fit      -0.006251
 1397 Fit      -0.003577
 1398 Fit      -0.002404
 1399 Fit      -0.008965
 1400 Fit      -0.011548
 1401 Fit      -0.012790
 1402 Fit      -0.013182
 1403 Fit      -0.010819
 1404 Fit      -0.004015
 1405 Fit      -0.011985
 1406 Fit      -0.014904
 1407 Fit      -0.015126
 1408 Fit      -0.015197
 1409 Fit      -0.015963
 1410 Fit      -0.016354
 1411 Fit      -0.014431
 1412 Fit      -0.008913
 1413 Fit      -0.000183
 1414 Fit      -0.014461
 1415 Fit      -0.016745
 1416 Fit      -0.015695
 1417 Fit      -0.014023
 1418 Fit      -0.013429
 1419 Fit      -0.013863
 1420 Fit      -0.013718
 1421 Fit      -0.011327
 1422 Fit      -0.006367
 1423 Fit       0.002272
 1424 Fit      -0.008132
 1425 Fit      -0.013725
 1426 Fit      -0.014280
 1427 Fit      -0.011812
 1428 Fit      -0.008984
 1429 Fit      -0.007481
 1430 Fit      -0.006875
 1431 Fit      -0.004447
 1432 Fit      -0.004387
 1433 Fit      -0.007612
 1434 Fit      -0.005780
 1435 Fit      -0.002008
 1436 Fit       0.000646
 1437 Fit       0.002017
 1438 Fit       0.004988
 1439 Fit       0.007341
 1440 Fit       0.009340
 1441 Fit       0.016780
 1442 Fit       0.001819
 1443 Fit      -0.001517
 1444 Fit       0.003626
 1445 Fit       0.003404
 1446 Fit       0.003180
 1447 Fit       0.000162
 1448 Fit      -0.000037
 1449 Fit       0.002708
 1450 Fit       0.002135
 1451 Fit       0.001110
 1452 Fit       0.006243
 1453 Fit       0.005997
 1454 Fit       0.004675
 1455 Fit       0.012207
 1456 Fit       0.002886
 1457 Fit       0.004639
 1458 Fit       0.001568
 1459 Fit       0.001964
 1460 Fit      -0.000825
 1461 Fit       0.000729
 1462 Fit       0.000785
 1463 Fit      -0.004664
 1464 Fit       0.001034
 1465 Fit      -0.002357
 1466 Fit      -0.016526
 1467 Fit      -0.016142
 1468 Fit      -0.013292
 1469 Fit      -0.012417
 1470 Fit      -0.016141
 1471 Fit      -0.016721
 1472 Fit      -0.015827
 1473 Fit      -0.016575
 1474 Fit      -0.014122
 1475 Fit      -0.008717
 1476 Fit      -0.004456
 1477 Fit      -0.003287
 1478 Fit      -0.006071
 1479 Fit      -0.012659
 1480 Fit      -0.014987
 1481 Fit      -0.012764
 1482 Fit      -0.010324
 1483 Fit      -0.011338
 1484 Fit      -0.014740
 1485 Fit      -0.017819
 1486 Fit      -0.015962
 1487 Fit      -0.009578
 1488 Fit      -0.001246
 1489 Fit      -0.009078
 1490 Fit      -0.007578
 1491 Fit      -0.003204
 1492 Fit      -0.000468
 1493 Fit      -0.003020
 1494 Fit      -0.008778
 1495 Fit      -0.014743
 1496 Fit      -0.018358
 1497 Fit      -0.017206
 1498 Fit      -0.010614
 1499 Fit       0.001427
 1500 Fit       0.002255
 1501 Fit      -0.006332
 1502 Fit      -0.014031
 1503 Fit      -0.016032
 1504 Fit      -0.015790
 1505 Fit      -0.009441
 1506 Fit      -0.009802
 1507 Fit      -0.010408
 1508 Fit      -0.004089
 1509 Fit       0.012112
 1510 Fit       0.003569
 1511 Fit       0.003959
 1512 Fit       0.004755
 1513 Fit       0.007295
 1514 Fit       0.008462
 1515 Fit       0.007979
 1516 Fit       0.005552
 1517 Fit       0.009500
 1518 Fit       0.010078
 1519 Fit       0.010109
 1520 Fit       0.009085
 1521 Fit       0.007179
 1522 Fit       0.011398
 1523 Fit       0.010354
 1524 Fit       0.010912
 1525 Fit       0.008731
 1526 Fit       0.016557
 1527 Fit       0.012550
 1528 Fit       0.016961
 1529 Fit       0.013359
 1530 Fit       0.016641
 1531 Fit       0.013817
 1532 Fit      -0.003380
 1533 Fit       0.005922
 1534 Fit       0.014437
 1535 Fit       0.004100
 1536 Fit       0.002380
 1537 Fit       0.002818
 1538 Fit       0.004319
 1539 Fit       0.003114
 1540 Fit       0.002889
 1541 Fit       0.003502
 1542 Fit       0.003386
 1543 Fit       0.011134
 1544 Fit       0.012733
 1545 Fit       0.011296
 1546 Fit       0.010173
 1547 Fit       0.008408
 1548 Fit       0.005998
 1549 Fit       0.006839
 1550 Fit       0.008913
 1551 Fit       0.009491
 1552 Fit       0.008712
 1553 Fit       0.006819
 1554 Fit       0.004497
 1555 Fit       0.003846
 1556 Fit       0.005460
 1557 Fit       0.007282
 1558 Fit       0.006017
 1559 Fit       0.004703
 1560 Fit       0.005794
 1561 Fit       0.004128
 1562 Fit       0.008514
 1563 Fit       0.014658
 1564 Fit       0.008308
 1565 Fit       0.003688
 1566 Fit       0.006056
 1567 Fit       0.006648
 1568 Fit       0.003158
 1569 Fit       0.003968
 1570 Fit      -0.001786
 1571 Fit      -0.009456
 1572 Fit       0.004961
 1573 Fit       0.002200
 1574 Fit       0.001726
 1575 Fit      -0.001324
 1576 Fit      -0.004773
 1577 Fit       0.004331
 1578 Fit       0.003498
 1579 Fit       0.002689
 1580 Fit       0.001133
 1581 Fit       0.003845
 1582 Fit       0.003550
 1583 Fit      -0.018231
 1584 Fit       0.001034
 1585 Fit       0.003803
 1586 Fit      -0.010020
 1587 Fit       0.000736
 1588 Fit      -0.005450
 1589 Fit      -0.004310
 1590 Fit       0.000403
 1591 Fit       0.005867
 1592 Fit       0.003808
 1593 Fit      -0.003006
 1594 Fit      -0.001914
 1595 Fit      -0.000213
 1596 Fit       0.001937
 1597 Fit      -0.000559
 1598 Fit      -0.001413
 1599 Fit      -0.000162
 1600 Fit       0.000948
 1601 Fit      -0.015007
 1602 Fit      -0.007777
 1603 Fit      -0.003787
 1604 Fit      -0.000726
 1605 Fit      -0.012097
 1606 Fit      -0.006785
 1607 Fit      -0.003390
 1608 Fit      -0.001338
 1609 Fit       0.000119
 1610 Fit      -0.007533
 1611 Fit      -0.004238
 1612 Fit      -0.001932
 1613 Fit      -0.000597
 1614 Fit       0.000211
 1615 Fit      -0.003975
 1616 Fit      -0.001983
 1617 Fit      -0.000820
 1618 Fit      -0.014038
 1619 Fit      -0.015359
 1620 Fit      -0.015453
 1621 Fit      -0.005301
 1622 Fit      -0.011072
 1623 Fit      -0.004752
 1624 Fit      -0.006619
 1625 Fit      -0.007669
 1626 Fit       0.000277
 1627 Fit      -0.002369
 1628 Fit      -0.001326
 1629 Fit      -0.003004
 1630 Fit      -0.004046
 1631 Fit       0.001656
 1632 Fit       0.000382
 1633 Fit      -0.000399
 1634 Fit      -0.001793
 1635 Fit       0.000718
 1636 Fit       0.005671
 1637 Fit       0.007941
 1638 Fit       0.002760
 1639 Fit       0.004980
 1640 Fit       0.006613
 1641 Fit       0.007481
 1642 Fit       0.007497
 1643 Fit       0.001347
 1644 Fit       0.003588
 1645 Fit       0.005282
 1646 Fit       0.005963
 1647 Fit       0.005397
 1648 Fit       0.003509
 1649 Fit       0.001558
 1650 Fit       0.003679
 1651 Fit       0.004243
 1652 Fit       0.002607
 1653 Fit       0.002223
 1654 Fit      -0.005310
 1655 Fit       0.013376
 1656 Fit       0.010574
 1657 Fit       0.009026
 1658 Fit       0.009091
 1659 Fit      -0.004090
 1660 Fit       0.002420
 1661 Fit       0.005978
 1662 Fit       0.008435
 1663 Fit       0.010865
 1664 Fit       0.001710
 1665 Fit       0.004708
 1666 Fit       0.006741
 1667 Fit       0.008210
 1668 Fit       0.009611
 1669 Fit       0.002208
 1670 Fit       0.004716
 1671 Fit       0.006611
 1672 Fit       0.007972
 1673 Fit       0.009177
 1674 Fit       0.007925
 1675 Fit       0.011148
 1676 Fit       0.012824
 1677 Fit       0.009796
 1678 Fit       0.010415
 1679 Fit       0.010708
 1680 Fit       0.009114
 1681 Fit       0.002403
 1682 Fit       0.008879
 1683 Fit       0.008620
 1684 Fit       0.007577
 1685 Fit       0.004340
 1686 Fit       0.007395
 1687 Fit       0.005563
 1688 Fit      -0.021259
 1689 Fit      -0.017743
 1690 Fit      -0.012374
 1691 Fit      -0.034560
 1692 Fit      -0.029503
 1693 Fit      -0.026254
 1694 Fit      -0.022313
 1695 Fit      -0.016656
 1696 Fit      -0.028686
 1697 Fit      -0.026761
 1698 Fit       0.004108
 1699 Fit       0.006313
 1700 Fit       0.002132
 1701 Fit      -0.001854
 1702 Fit      -0.009917
 1703 Fit      -0.004621
 1704 Fit       0.004751
 1705 Fit       0.007323
 1706 Fit       0.009858
 1707 Fit       0.003482
 1708 Fit       0.006433
 1709 Fit       0.008799
 1710 Fit       0.010885
 1711 Fit       0.001528
 1712 Fit       0.005475
 1713 Fit       0.008209
 1714 Fit       0.010128
 1715 Fit       0.012033
 1716 Fit       0.010950
 1717 Fit       0.012780
 1718 Fit       0.000594
 1719 Fit      -0.006099
 1720 Fit      -0.002795
 1721 Fit       0.000418
 1722 Fit      -0.019379
 1723 Fit      -0.010345
 1724 Fit      -0.005561
 1725 Fit      -0.002918
 1726 Fit      -0.000476
 1727 Fit      -0.019839
 1728 Fit      -0.012323
 1729 Fit      -0.009093
 1730 Fit      -0.006981
 1731 Fit      -0.020756
 1732 Fit      -0.018001
 1733 Fit       0.013017
 1734 Fit       0.011747
 1735 Fit       0.011038
 1736 Fit       0.003646
 1737 Fit      -0.002082
 1738 Fit      -0.001203
 1739 Fit       0.004752
 1740 Fit       0.007226
 1741 Fit       0.006858
 1742 Fit       0.004046
 1743 Fit       0.010243
 1744 Fit       0.009941
 1745 Fit       0.009169
 1746 Fit       0.008302
 1747 Fit       0.011840
 1748 Fit       0.010586
 1749 Fit       0.009946
 1750 Fit       0.013292
 1751 Fit       0.011880
 1752 Fit       0.011388
 1753 Fit       0.013045
 1754 Fit       0.012048
 1755 Fit       0.011667
 1756 Fit       0.012428
 1757 Fit       0.011622
 1758 Fit       0.009185
 1759 Fit      -0.026595
 1760 Fit      -0.026858
 1761 Fit      -0.032081
 1762 Fit      -0.024420
 1763 Fit      -0.019559
 1764 Fit      -0.010179
 1765 Fit      -0.016374
 1766 Fit       0.011115
 1767 Fit       0.010982
 1768 Fit       0.011561
 1769 Fit      -0.005969
 1770 Fit       0.011640
 1771 Fit       0.011303
 1772 Fit       0.011575
 1773 Fit       0.011323
 1774 Fit       0.012108
 1775 Fit       0.014152
 1776 Fit       0.010876
 1777 Fit       0.011042
 1778 Fit       0.011889
 1779 Fit       0.013465
 1780 Fit       0.009699
 1781 Fit       0.004361
 1782 Fit       0.000964
 1783 Fit       0.007009
 1784 Fit       0.009463
 1785 Fit       0.010236
 1786 Fit       0.007118
 1787 Fit      -0.004244
 1788 Fit      -0.007789
 1789 Fit       0.002316
 1790 Fit       0.003498
 1791 Fit      -0.000022
 1792 Fit       0.007723
 1793 Fit       0.006749
 1794 Fit       0.004836
 1795 Fit      -0.001189
 1796 Fit       0.009753
 1797 Fit       0.009120
 1798 Fit       0.008784
 1799 Fit       0.007880
 1800 Fit       0.011251
 1801 Fit       0.010666
 1802 Fit      -0.013568
 1803 Fit       0.009455
 1804 Fit       0.005683
 1805 Fit       0.001101
 1806 Fit      -0.006273
 1807 Fit      -0.016444
 1808 Fit       0.006793
 1809 Fit       0.002664
 1810 Fit      -0.002492
 1811 Fit      -0.000749
 1812 Fit       0.007150
 1813 Fit       0.008837
 1814 Fit       0.004211
 1815 Fit       0.008252
 1816 Fit       0.008046
 1817 Fit       0.012060
 1818 Fit       0.010947
 1819 Fit       0.011361
 1820 Fit       0.013436
 1821 Fit       0.012241
 1822 Fit       0.012432
 1823 Fit       0.013370
 1824 Fit       0.012435
 1825 Fit       0.012896
 1826 Fit       0.011807
 1827 Fit       0.012085
 1828 Fit      -0.009441
 1829 Fit      -0.016307
 1830 Fit      -0.013107
 1831 Fit      -0.005877
 1832 Fit      -0.020743
 1833 Fit      -0.018516
 1834 Fit      -0.009986
 1835 Fit      -0.007687
 1836 Fit      -0.020118
 1837 Fit      -0.002995
 1838 Fit      -0.010622
 1839 Fit      -0.013117
 1840 Fit       0.001691
 1841 Fit      -0.002775
 1842 Fit      -0.001247
 1843 Fit       0.002618
 1844 Fit      -0.002312
 1845 Fit      -0.008524
 1846 Fit      -0.000578
 1847 Fit      -0.005467
 1848 Fit      -0.013647
 1849 Fit      -0.004633
 1850 Fit      -0.004578
 1851 Fit      -0.005324
 1852 Fit      -0.005152
 1853 Fit      -0.010031
 1854 Fit      -0.021286
 1855 Fit      -0.004023
 1856 Fit      -0.003436
 1857 Fit      -0.006991
 1858 Fit       0.003652
 1859 Fit       0.000268
 1860 Fit      -0.000494
 1861 Fit       0.009915
 1862 Fit       0.006719
 1863 Fit       0.010306
 1864 Fit       0.006335
 1865 Fit       0.014004
 1866 Fit       0.010142
 1867 Fit       0.005798
 1868 Fit       0.006941
 1869 Fit       0.010648
 1870 Fit       0.010516
 1871 Fit       0.010676
 1872 Fit       0.004989
 1873 Fit       0.008847
 1874 Fit       0.015178
 1875 Fit       0.003414
 1876 Fit       0.009271
 1877 Fit       0.012843
 1878 Fit       0.001971
 1879 Fit       0.007874
 1880 Fit       0.009944
 1881 Fit       0.010116
 1882 Fit       0.008747
 1883 Fit       0.009001
 1884 Fit       0.006776
 1885 Fit       0.004991
 1886 Fit      -0.004804
 1887 Fit      -0.004757
 1888 Fit       0.004616
 1889 Fit       0.000175
 1890 Fit      -0.002453
 1891 Fit      -0.002439
 1892 Fit       0.000537
 1893 Fit      -0.004810
 1894 Fit      -0.003937
 1895 Fit      -0.004110
 1896 Fit      -0.005111
 1897 Fit      -0.007329
 1898 Fit      -0.009552
 1899 Fit      -0.009342
 1900 Fit       0.000685
 1901 Fit      -0.004391
 1902 Fit      -0.006683
 1903 Fit      -0.006316
 1904 Fit      -0.008113
 1905 Fit      -0.008029
 1906 Fit      -0.008781
 1907 Fit      -0.010338
 1908 Fit      -0.011555
 1909 Fit      -0.010255
 1910 Fit      -0.001013
 1911 Fit      -0.006051
 1912 Fit      -0.008023
 1913 Fit      -0.008110
 1914 Fit      -0.009168
 1915 Fit      -0.010234
 1916 Fit      -0.010346
 1917 Fit      -0.007180
 1918 Fit      -0.001445
 1919 Fit      -0.006093
 1920 Fit      -0.005794
 1921 Fit      -0.007361
 1922 Fit      -0.004460
 1923 Fit       0.003018
 1924 Fit       0.005340
 1925 Fit      -0.000798
 1926 Fit      -0.001944
 1927 Fit       0.002067
 1928 Fit      -0.003242
 1929 Fit       0.000545
 1930 Fit       0.002599
 1931 Fit       0.001575
 1932 Fit       0.003919
 1933 Fit       0.002509
 1934 Fit       0.003174
 1935 Fit       0.007060
 1936 Fit       0.011519
 1937 Fit       0.016399
 1938 Fit       0.016149
 1939 Fit       0.019297
 1940 Fit       0.002599
 1941 Fit       0.003675
 1942 Fit       0.001404
 1943 Fit       0.001468
 1944 Fit       0.001056
 1945 Fit       0.001670
 1946 Fit       0.002040
 1947 Fit       0.001897
 1948 Fit       0.001941
 1949 Fit       0.001742
 1950 Fit       0.000973
 1951 Fit      -0.001777
 1952 Fit      -0.001687
 1953 Fit       0.006253
 1954 Fit       0.006545
 1955 Fit       0.004291
 1956 Fit       0.006721
 1957 Fit      -0.002413
 1958 Fit      -0.004907
 1959 Fit      -0.002676
 1960 Fit      -0.001671
 1961 Fit      -0.006578
 1962 Fit      -0.008829
 1963 Fit      -0.009772
 1964 Fit      -0.009675
 1965 Fit      -0.007482
 1966 Fit      -0.002347
 1967 Fit      -0.008155
 1968 Fit      -0.011036
 1969 Fit      -0.011853
 1970 Fit      -0.012190
 1971 Fit      -0.012576
 1972 Fit      -0.012379
 1973 Fit      -0.010453
 1974 Fit      -0.006078
 1975 Fit       0.000235
 1976 Fit      -0.009455
 1977 Fit      -0.012568
 1978 Fit      -0.012992
 1979 Fit      -0.012441
 1980 Fit      -0.012081
 1981 Fit      -0.012203
 1982 Fit      -0.012190
 1983 Fit      -0.011033
 1984 Fit      -0.008091
 1985 Fit      -0.003041
 1986 Fit       0.004246
 1987 Fit      -0.009811
 1988 Fit      -0.012301
 1989 Fit      -0.012293
 1990 Fit      -0.011071
 1991 Fit      -0.009807
 1992 Fit      -0.009123
 1993 Fit      -0.008818
 1994 Fit      -0.007921
 1995 Fit      -0.005367
 1996 Fit      -0.004266
 1997 Fit      -0.008430
 1998 Fit      -0.009282
 1999 Fit      -0.007901
 2000 Fit      -0.005885
 2001 Fit      -0.004420
 2002 Fit      -0.003458
 2003 Fit      -0.001181
 2004 Fit      -0.000957
 2005 Fit      -0.003439
 2006 Fit      -0.002246
 2007 Fit       0.000990
 2008 Fit       0.003982
 2009 Fit       0.002262
 2010 Fit       0.005954
 2011 Fit       0.010273
 2012 Fit       0.012049
 2013 Fit       0.018557
 2014 Fit       0.000197
 2015 Fit       0.001616
 2016 Fit       0.001740
 2017 Fit       0.001587
 2018 Fit      -0.000996
 2019 Fit       0.002278
 2020 Fit      -0.000045
 2021 Fit       0.001631
 2022 Fit       0.000652
 2023 Fit      -0.002370
 2024 Fit       0.001623
 2025 Fit       0.001157
 2026 Fit       0.001878
 2027 Fit       0.005917
 2028 Fit       0.005225
 2029 Fit       0.001076
 2030 Fit       0.002893
 2031 Fit      -0.000035
 2032 Fit       0.000761
 2033 Fit      -0.000572
 2034 Fit      -0.000790
 2035 Fit       0.000188
 2036 Fit      -0.002470
 2037 Fit      -0.000562
 2038 Fit      -0.000705
 2039 Fit      -0.005635
 2040 Fit      -0.002820
 2041 Fit      -0.013086
 2042 Fit      -0.013099
 2043 Fit      -0.011169
 2044 Fit      -0.010270
 2045 Fit      -0.012412
 2046 Fit      -0.013072
 2047 Fit      -0.012850
 2048 Fit      -0.013345
 2049 Fit      -0.011730
 2050 Fit      -0.008231
 2051 Fit      -0.005310
 2052 Fit      -0.004266
 2053 Fit      -0.005884
 2054 Fit      -0.009826
 2055 Fit      -0.011526
 2056 Fit      -0.010488
 2057 Fit      -0.009281
 2058 Fit      -0.010085
 2059 Fit      -0.012248
 2060 Fit      -0.013969
 2061 Fit      -0.012691
 2062 Fit      -0.008534
 2063 Fit      -0.003279
 2064 Fit       0.000649
 2065 Fit      -0.007573
 2066 Fit      -0.006862
 2067 Fit      -0.004400
 2068 Fit      -0.002960
 2069 Fit      -0.004550
 2070 Fit      -0.008246
 2071 Fit      -0.012064
 2072 Fit      -0.014343
 2073 Fit      -0.013585
 2074 Fit      -0.009504
 2075 Fit      -0.003045
 2076 Fit      -0.001228
 2077 Fit      -0.000164
 2078 Fit      -0.001376
 2079 Fit      -0.006923
 2080 Fit      -0.011752
 2081 Fit      -0.013363
 2082 Fit      -0.013288
 2083 Fit      -0.009829
 2084 Fit      -0.003645
 2085 Fit       0.001280
 2086 Fit      -0.004690
 2087 Fit      -0.010093
 2088 Fit      -0.010008
 2089 Fit      -0.010613
 2090 Fit      -0.006940
 2091 Fit      -0.005599
 2092 Fit      -0.001295
 2093 Fit       0.005288
 2094 Fit       0.008758
 2095 Fit       0.010204
 2096 Fit       0.010287
 2097 Fit       0.001225
 2098 Fit       0.001407
 2099 Fit       0.002284
 2100 Fit       0.005052
 2101 Fit       0.006060
 2102 Fit       0.005508
 2103 Fit       0.003064
 2104 Fit       0.007766
 2105 Fit       0.008161
 2106 Fit       0.007901
 2107 Fit       0.006743
 2108 Fit       0.004503
 2109 Fit       0.009516
 2110 Fit       0.009424
 2111 Fit       0.008967
 2112 Fit       0.007828
 2113 Fit       0.007394
 2114 Fit       0.011596
 2115 Fit       0.009633
 2116 Fit       0.019892
 2117 Fit       0.014047
 2118 Fit       0.011453
 2119 Fit       0.014690
 2120 Fit       0.012136
 2121 Fit       0.010436
 2122 Fit       0.008185
 2123 Fit       0.005576
 2124 Fit      -0.000687
 2125 Fit       0.004994
 2126 Fit       0.001500
 2127 Fit       0.008208
 2128 Fit       0.003726
 2129 Fit       0.002281
 2130 Fit       0.002692
 2131 Fit       0.001293
 2132 Fit       0.003016
 2133 Fit       0.002731
 2134 Fit       0.002637
 2135 Fit       0.002963
 2136 Fit       0.010516
 2137 Fit       0.009227
 2138 Fit       0.007502
 2139 Fit       0.009981
 2140 Fit       0.009332
 2141 Fit       0.008372
 2142 Fit       0.006918
 2143 Fit       0.005141
 2144 Fit       0.007056
 2145 Fit       0.007862
 2146 Fit       0.007311
 2147 Fit       0.005897
 2148 Fit       0.004185
 2149 Fit       0.003558
 2150 Fit       0.004376
 2151 Fit       0.005966
 2152 Fit       0.005107
 2153 Fit       0.004028
 2154 Fit       0.004657
 2155 Fit       0.003714
 2156 Fit       0.006612
 2157 Fit       0.010297
 2158 Fit       0.003219
 2159 Fit       0.004573
 2160 Fit       0.004192
 2161 Fit       0.001624
 2162 Fit       0.003073
 2163 Fit      -0.004280
 2164 Fit       0.004073
 2165 Fit       0.000441
 2166 Fit      -0.000304
 2167 Fit      -0.003833
 2168 Fit       0.003502
 2169 Fit       0.001968
 2170 Fit       0.001577
 2171 Fit      -0.000213
 2172 Fit      -0.001701
 2173 Fit       0.003582
 2174 Fit       0.002822
 2175 Fit       0.002165
 2176 Fit       0.001278
 2177 Fit       0.002925
 Job cpu time:       0 days  0 hours  4 minutes 40.3 seconds.
 Normal termination of Gaussian 16 at Sat Jul  8 22:19:18 2023.
