 Copyright (c) 1988-2019, Gaussian, Inc.  All Rights Reserved.
  
 This is part of the Gaussian(R) 16 program.  It is based on
 the Gaussian(R) 09 system (copyright 2009, Gaussian, Inc.),
 the Gaussian(R) 03 system (copyright 2003, Gaussian, Inc.),
 the Gaussian(R) 98 system (copyright 1998, Gaussian, Inc.),
 the Gaussian(R) 94 system (copyright 1995, Gaussian, Inc.),
 the Gaussian 92(TM) system (copyright 1992, Gaussian, Inc.),
 the Gaussian 90(TM) system (copyright 1990, Gaussian, Inc.),
 the Gaussian 88(TM) system (copyright 1988, Gaussian, Inc.),
 the Gaussian 86(TM) system (copyright 1986, Carnegie Mellon
 University), and the Gaussian 82(TM) system (copyright 1983,
 Carnegie Mellon University). Gaussian is a federally registered
 trademark of Gaussian, Inc.
 Cite this work as:
 Gaussian 16, Revision C.01,
 M. J. Frisch, G. W. Trucks, H. B. Schlegel, G. E. Scuseria, 
 M. A. Robb, J. R. Cheeseman, G. Scalmani, V. Barone, 
 G. A. Petersson, H. Nakatsuji, X. Li, M. Caricato, A. V. Marenich, 
 J. Bloino, B. G. Janesko, R. Gomperts, B. Mennucci, H. P. Hratchian, 
 J. V. Ortiz, A. F. Izmaylov, J. L. Sonnenberg, D. Williams-Young, 
 F. Ding, F. Lipparini, F. Egidi, J. Goings, B. Peng, A. Petrone, 
 T. Henderson, D. Ranasinghe, V. G. Zakrzewski, J. Gao, N. Rega, 
 G. Zheng, W. Liang, M. Hada, M. Ehara, K. Toyota, R. Fukuda, 
 J. Hasegawa, M. Ishida, T. Nakajima, Y. Honda, O. Kitao, H. Nakai, 
 T. Vreven, K. Throssell, J. A. Montgomery, Jr., J. E. Peralta, 
 F. Ogliaro, M. J. Bearpark, J. J. Heyd, E. N. Brothers, K. N. Kudin, 
 V. N. Staroverov, T. A. Keith, R. Kobayashi, J. Normand, 
 K. Raghavachari, A. P. Rendell, J. C. Burant, S. S. Iyengar, 
 J. Tomasi, M. Cossi, J. M. Millam, M. Klene, C. Adamo, R. Cammi, 
 J. W. Ochterski, R. L. Martin, K. Morokuma, O. Farkas, 
 J. B. Foresman, and D. J. Fox, Gaussian, Inc., Wallingford CT, 2019.
 
 ******************************************
 Gaussian 16:  EM64L-G16RevC.01  3-Jul-2019
                 8-Jul-2023 
 ******************************************
 ----------------------------------------------------------------------
 #P HF/6-31G(d) SCF(Conver=8,XQC,MaxConventionalCycles=64,MaxCycle=128)
  NoSymm Test Pop=mk IOp(6/33=2) GFInput GFPrint
 ----------------------------------------------------------------------
 1/38=1,172=1/1;
 2/12=2,15=1,17=6,18=5,40=1/2;
 3/5=1,6=6,7=1,11=9,24=110,25=1,30=1/1,2,3;
 4//1;
 5/5=2,6=8,7=128,8=3,13=1,38=5,85=64/2,8;
 6/7=2,8=2,9=2,10=2,15=8,20=1,28=1,33=2/1,2;
 99/5=1,9=1/99;
 -------------------------------------------------
 MEP step - Input generated by PyRED DVE-DMDS-OPLS
 -------------------------------------------------
 Symbolic Z-matrix:
 Charge =  0 Multiplicity = 1
 C                     5.33895  -3.03551   3.77983 
 H                     4.8788   -3.83679   4.34921 
 H                     6.34651  -3.34851   3.52381 
 H                     5.40728  -2.15923   4.41534 
 C                     4.55975  -2.71018   2.51294 
 H                     5.08094  -1.9506    1.94747 
 H                     4.47199  -3.59244   1.88204 
 O                     3.28208  -2.18446   2.76798 
 C                     2.31715  -3.09299   3.20322 
 H                     2.47328  -3.35364   4.2481 
 H                     2.35794  -4.0072    2.61629 
 C                     0.94517  -2.47589   3.05713 
 H                     0.22118  -3.09333   3.58829 
 H                     0.94617  -1.49154   3.51949 
 O                     0.61154  -2.40666   1.70374 
 C                    -0.63554  -1.84022   1.41568 
 H                    -1.35075  -2.08095   2.20122 
 H                    -0.9828   -2.29212   0.49591 
 C                    -0.58453  -0.33381   1.22601 
 H                    -0.05249   0.13025   2.05151 
 H                    -1.60151   0.05125   1.23512 
 O                     0.        0.        0. 
 C                     1.13134   0.82574   0. 
 H                     1.10542   1.50469   0.84757 
 H                     1.08398   1.42735  -0.89841 
 C                     2.413     0.        0. 
 H                     2.45196  -0.5913   -0.9062 
 H                     2.43883  -0.68813   0.83202 
 S                     3.92099   1.01403   0.0072 
 C                     4.04157   1.45487   1.76947 
 H                     3.21209   2.10154   2.03306 
 H                     3.96876   0.55335   2.36316 
 C                     5.33812   2.20041   2.09113 
 H                     5.24247   2.62669   3.0823 
 H                     5.48644   3.02841   1.40913 
 S                     6.84725   1.17957   2.15266 
 C                     7.60098   1.40312   0.50861 
 H                     6.85495   1.26769  -0.26021 
 H                     8.30286   0.5833    0.42266 
 C                     8.31972   2.74099   0.34831 
 H                     7.61643   3.56037   0.42783 
 H                     9.05132   2.87706   1.13312 
 S                     9.10093   2.96333  -1.28047 
 C                     10.58011   1.90758  -1.17319 
 H                     10.29103   0.90612  -0.87851 
 H                     10.93403   1.84002  -2.1951 
 C                     11.68879   2.44191  -0.27122 
 H                     11.3699   2.51071   0.76287 
 H                     12.54786   1.77764  -0.30609 
 H                     12.00586   3.42761  -0.59105 
 
 ITRead=  0  0  0  0  0  0  0  0  0  0  0  0  0  0  0  0  0  0  0  0
 ITRead=  0  0  0  0  0  0  0  0  0  0  0  0  0  0  0  0  0  0  0  0
 ITRead=  0  0  0  0  0  0  0  0  0  0
 MicOpt= -1 -1 -1 -1 -1 -1 -1 -1 -1 -1 -1 -1 -1 -1 -1 -1 -1 -1 -1 -1
 MicOpt= -1 -1 -1 -1 -1 -1 -1 -1 -1 -1 -1 -1 -1 -1 -1 -1 -1 -1 -1 -1
 MicOpt= -1 -1 -1 -1 -1 -1 -1 -1 -1 -1
 NAtoms=     50 NQM=       50 NQMF=       0 NMMI=      0 NMMIF=      0
                NMic=       0 NMicF=      0.
                          Input orientation:                          
 ---------------------------------------------------------------------
 Center     Atomic      Atomic             Coordinates (Angstroms)
 Number     Number       Type             X           Y           Z
 ---------------------------------------------------------------------
      1          6           0        5.338949   -3.035513    3.779828
      2          1           0        4.878804   -3.836789    4.349205
      3          1           0        6.346505   -3.348512    3.523813
      4          1           0        5.407278   -2.159230    4.415342
      5          6           0        4.559748   -2.710175    2.512940
      6          1           0        5.080945   -1.950599    1.947471
      7          1           0        4.471990   -3.592436    1.882038
      8          8           0        3.282084   -2.184458    2.767978
      9          6           0        2.317148   -3.092993    3.203218
     10          1           0        2.473275   -3.353643    4.248104
     11          1           0        2.357936   -4.007199    2.616291
     12          6           0        0.945170   -2.475886    3.057132
     13          1           0        0.221176   -3.093331    3.588292
     14          1           0        0.946173   -1.491541    3.519486
     15          8           0        0.611543   -2.406656    1.703744
     16          6           0       -0.635535   -1.840217    1.415683
     17          1           0       -1.350746   -2.080955    2.201220
     18          1           0       -0.982799   -2.292117    0.495914
     19          6           0       -0.584525   -0.333805    1.226006
     20          1           0       -0.052493    0.130247    2.051505
     21          1           0       -1.601507    0.051253    1.235124
     22          8           0        0.000000    0.000000    0.000000
     23          6           0        1.131341    0.825741    0.000000
     24          1           0        1.105416    1.504690    0.847574
     25          1           0        1.083979    1.427349   -0.898412
     26          6           0        2.413002    0.000000    0.000000
     27          1           0        2.451964   -0.591302   -0.906204
     28          1           0        2.438833   -0.688125    0.832020
     29         16           0        3.920987    1.014031    0.007196
     30          6           0        4.041565    1.454874    1.769473
     31          1           0        3.212094    2.101539    2.033060
     32          1           0        3.968758    0.553350    2.363160
     33          6           0        5.338125    2.200412    2.091128
     34          1           0        5.242465    2.626689    3.082296
     35          1           0        5.486437    3.028415    1.409131
     36         16           0        6.847253    1.179568    2.152655
     37          6           0        7.600982    1.403122    0.508611
     38          1           0        6.854948    1.267693   -0.260205
     39          1           0        8.302864    0.583300    0.422657
     40          6           0        8.319720    2.740989    0.348308
     41          1           0        7.616428    3.560366    0.427829
     42          1           0        9.051320    2.877060    1.133116
     43         16           0        9.100926    2.963327   -1.280467
     44          6           0       10.580110    1.907580   -1.173188
     45          1           0       10.291029    0.906123   -0.878506
     46          1           0       10.934029    1.840022   -2.195101
     47          6           0       11.688786    2.441910   -0.271223
     48          1           0       11.369900    2.510714    0.762866
     49          1           0       12.547863    1.777641   -0.306094
     50          1           0       12.005856    3.427613   -0.591050
 ---------------------------------------------------------------------
 Stoichiometry    C14H30O3S3
 Framework group  C1[X(C14H30O3S3)]
 Standard basis: 6-31G(d) (6D, 7F)
   372 basis functions,   752 primitive gaussians,   372 cartesian basis functions
    93 alpha electrons       93 beta electrons
 Requested convergence on RMS density matrix=1.00D-08 within  64 cycles.
 Requested convergence on MAX density matrix=1.00D-06.
 Requested convergence on             energy=1.00D-06.
 SCF Done:  E(RHF) =  -1964.68897375     A.U. after   13 cycles
            NFock= 13  Conv=0.47D-08     -V/T= 2.0006
 Mulliken charges:
     1  C   -0.504065
     2  H    0.156185
     3  H    0.163975
     4  H    0.175130
     5  C   -0.000970
     6  H    0.200542
     7  H    0.144732
     8  O   -0.630958
     9  C    0.016047
    10  H    0.142824
    11  H    0.157904
    12  C    0.005438
    13  H    0.143042
    14  H    0.148255
    15  O   -0.622305
    16  C    0.000736
    17  H    0.134463
    18  H    0.190007
    19  C    0.006571
    20  H    0.144634
    21  H    0.154127
    22  O   -0.632885
    23  C    0.024315
    24  H    0.140838
    25  H    0.179268
    26  C   -0.522373
    27  H    0.205874
    28  H    0.253762
    29  S    0.089320
    30  C   -0.460180
    31  H    0.184368
    32  H    0.227041
    33  C   -0.494886
    34  H    0.208431
    35  H    0.205789
    36  S    0.109412
    37  C   -0.481948
    38  H    0.242819
    39  H    0.197275
    40  C   -0.475117
    41  H    0.200322
    42  H    0.206778
    43  S    0.115069
    44  C   -0.475924
    45  H    0.189241
    46  H    0.200057
    47  C   -0.475082
    48  H    0.165609
    49  H    0.166314
    50  H    0.180175
 Sum of Mulliken charges =  -0.00000
 Dipole moment (field-independent basis, Debye):
    X=             -0.9560    Y=             -1.5239    Z=              3.6941  Tot=              4.1089
 Quadrupole moment (field-independent basis, Debye-Ang):
   XX=           -139.9942   YY=           -146.4170   ZZ=           -144.2034
   XY=            -10.2455   XZ=              3.4357   YZ=              0.4337
 Traceless Quadrupole moment (field-independent basis, Debye-Ang):
   XX=              3.5440   YY=             -2.8788   ZZ=             -0.6652
   XY=            -10.2455   XZ=              3.4357   YZ=              0.4337
 Octapole moment (field-independent basis, Debye-Ang**2):
  XXX=          -1921.0412  YYY=           -160.2907  ZZZ=           -464.0991  XYY=           -733.0774
  XXY=           -130.7763  XXZ=           -160.6965  XZZ=           -740.5239  YZZ=            -69.4378
  YYZ=           -112.2898  XYZ=             27.1138
 Hexadecapole moment (field-independent basis, Debye-Ang**3):
 XXXX=         -28657.4077 YYYY=          -4071.7615 ZZZZ=          -3221.3265 XXXY=          -3305.8647
 XXXZ=          -1581.0861 YYYX=          -2992.8497 YYYZ=            884.3523 ZZZX=          -1375.1063
 ZZZY=            813.4412 XXYY=          -6368.2105 XXZZ=          -6171.5334 YYZZ=          -1145.5631
 XXYZ=            489.2206 YYXZ=           -204.7604 ZZXY=           -996.5174
 Merz-Kollman atomic radii used.
 Atom Element Radius
    1     6    1.50
    2     1    1.20
    3     1    1.20
    4     1    1.20
    5     6    1.50
    6     1    1.20
    7     1    1.20
    8     8    1.40
    9     6    1.50
   10     1    1.20
   11     1    1.20
   12     6    1.50
   13     1    1.20
   14     1    1.20
   15     8    1.40
   16     6    1.50
   17     1    1.20
   18     1    1.20
   19     6    1.50
   20     1    1.20
   21     1    1.20
   22     8    1.40
   23     6    1.50
   24     1    1.20
   25     1    1.20
   26     6    1.50
   27     1    1.20
   28     1    1.20
   29    16    1.75
   30     6    1.50
   31     1    1.20
   32     1    1.20
   33     6    1.50
   34     1    1.20
   35     1    1.20
   36    16    1.75
   37     6    1.50
   38     1    1.20
   39     1    1.20
   40     6    1.50
   41     1    1.20
   42     1    1.20
   43    16    1.75
   44     6    1.50
   45     1    1.20
   46     1    1.20
   47     6    1.50
   48     1    1.20
   49     1    1.20
   50     1    1.20
 Generate VDW surfaces: Layer= 4 Dens= 1 Start= 1.400 Inc= 0.200
            Electrostatic Properties Using The SCF Density.


       Atomic Center    1 is at   5.338949 -3.035513  3.779828
       Atomic Center    2 is at   4.878804 -3.836789  4.349205
       Atomic Center    3 is at   6.346505 -3.348512  3.523813
       Atomic Center    4 is at   5.407278 -2.159230  4.415342
       Atomic Center    5 is at   4.559748 -2.710175  2.512940
       Atomic Center    6 is at   5.080945 -1.950599  1.947471
       Atomic Center    7 is at   4.471990 -3.592436  1.882038
       Atomic Center    8 is at   3.282084 -2.184458  2.767978
       Atomic Center    9 is at   2.317148 -3.092993  3.203218
       Atomic Center   10 is at   2.473275 -3.353643  4.248104
       Atomic Center   11 is at   2.357936 -4.007199  2.616291
       Atomic Center   12 is at   0.945170 -2.475886  3.057132
       Atomic Center   13 is at   0.221176 -3.093331  3.588292
       Atomic Center   14 is at   0.946173 -1.491541  3.519486
       Atomic Center   15 is at   0.611543 -2.406656  1.703744
       Atomic Center   16 is at  -0.635535 -1.840217  1.415683
       Atomic Center   17 is at  -1.350746 -2.080955  2.201220
       Atomic Center   18 is at  -0.982799 -2.292117  0.495914
       Atomic Center   19 is at  -0.584525 -0.333805  1.226006
       Atomic Center   20 is at  -0.052493  0.130247  2.051505
       Atomic Center   21 is at  -1.601507  0.051253  1.235124
       Atomic Center   22 is at   0.000000  0.000000  0.000000
       Atomic Center   23 is at   1.131341  0.825741  0.000000
       Atomic Center   24 is at   1.105416  1.504690  0.847574
       Atomic Center   25 is at   1.083979  1.427349 -0.898412
       Atomic Center   26 is at   2.413002  0.000000  0.000000
       Atomic Center   27 is at   2.451964 -0.591302 -0.906204
       Atomic Center   28 is at   2.438833 -0.688125  0.832020
       Atomic Center   29 is at   3.920987  1.014031  0.007196
       Atomic Center   30 is at   4.041565  1.454874  1.769473
       Atomic Center   31 is at   3.212094  2.101539  2.033060
       Atomic Center   32 is at   3.968758  0.553350  2.363160
       Atomic Center   33 is at   5.338125  2.200412  2.091128
       Atomic Center   34 is at   5.242465  2.626689  3.082296
       Atomic Center   35 is at   5.486437  3.028415  1.409131
       Atomic Center   36 is at   6.847253  1.179568  2.152655
       Atomic Center   37 is at   7.600982  1.403122  0.508611
       Atomic Center   38 is at   6.854948  1.267693 -0.260205
       Atomic Center   39 is at   8.302864  0.583300  0.422657
       Atomic Center   40 is at   8.319720  2.740989  0.348308
       Atomic Center   41 is at   7.616428  3.560366  0.427829
       Atomic Center   42 is at   9.051320  2.877060  1.133116
       Atomic Center   43 is at   9.100926  2.963327 -1.280467
       Atomic Center   44 is at  10.580110  1.907580 -1.173188
       Atomic Center   45 is at  10.291029  0.906123 -0.878506
       Atomic Center   46 is at  10.934029  1.840022 -2.195101
       Atomic Center   47 is at  11.688786  2.441910 -0.271223
       Atomic Center   48 is at  11.369900  2.510714  0.762866
       Atomic Center   49 is at  12.547863  1.777641 -0.306094
       Atomic Center   50 is at  12.005856  3.427613 -0.591050
      ESP Fit Center   51 is at   5.338949 -3.035513  5.879828
      ESP Fit Center   52 is at   6.388949 -3.035513  5.598481
      ESP Fit Center   53 is at   4.878804 -3.836789  6.029205
      ESP Fit Center   54 is at   5.866283 -3.836789  5.708354
      ESP Fit Center   55 is at   4.079917 -3.256363  5.708354
      ESP Fit Center   56 is at   4.079917 -4.417215  5.708354
      ESP Fit Center   57 is at   5.183952 -4.775938  5.708354
      ESP Fit Center   58 is at   4.079917 -5.220503  4.868354
      ESP Fit Center   59 is at   5.156255 -5.410290  4.868354
      ESP Fit Center   60 is at   6.102771 -4.863819  4.868354
      ESP Fit Center   61 is at   4.079917 -5.220503  3.830056
      ESP Fit Center   62 is at   5.156255 -5.410290  3.830056
      ESP Fit Center   63 is at   7.333984 -3.348512  4.882962
      ESP Fit Center   64 is at   6.651653 -4.287661  4.882962
      ESP Fit Center   65 is at   7.944280 -3.348512  4.042962
      ESP Fit Center   66 is at   7.570472 -2.321482  4.042962
      ESP Fit Center   67 is at   6.623956 -4.922013  4.042962
      ESP Fit Center   68 is at   7.570472 -4.375542  4.042962
      ESP Fit Center   69 is at   7.944280 -3.348512  3.004664
      ESP Fit Center   70 is at   7.570472 -2.321482  3.004664
      ESP Fit Center   71 is at   6.623956 -4.922013  3.004664
      ESP Fit Center   72 is at   7.570472 -4.375542  3.004664
      ESP Fit Center   73 is at   7.333984 -3.348512  2.164664
      ESP Fit Center   74 is at   6.651653 -4.287661  2.164664
      ESP Fit Center   75 is at   5.407278 -2.159230  6.095342
      ESP Fit Center   76 is at   6.394757 -2.159230  5.774491
      ESP Fit Center   77 is at   5.712426 -1.220081  5.774491
      ESP Fit Center   78 is at   4.608391 -1.578804  5.774491
      ESP Fit Center   79 is at   4.608391 -2.739656  5.774491
      ESP Fit Center   80 is at   7.005053 -2.159230  4.934491
      ESP Fit Center   81 is at   6.631245 -1.132200  4.934491
      ESP Fit Center   82 is at   5.684729 -0.585729  4.934491
      ESP Fit Center   83 is at   4.608391 -0.775516  4.934491
      ESP Fit Center   84 is at   3.905861 -1.612759  4.934491
      ESP Fit Center   85 is at   6.631245 -1.132200  3.896193
      ESP Fit Center   86 is at   5.684729 -0.585729  3.896193
      ESP Fit Center   87 is at   4.608391 -0.775516  3.896193
      ESP Fit Center   88 is at   3.509748 -2.710175  0.694287
      ESP Fit Center   89 is at   4.559748 -2.710175  0.412940
      ESP Fit Center   90 is at   6.678720 -1.950599  2.466620
      ESP Fit Center   91 is at   6.678720 -1.950599  1.428322
      ESP Fit Center   92 is at   6.068424 -1.950599  0.588322
      ESP Fit Center   93 is at   5.386093 -1.011450  0.588322
      ESP Fit Center   94 is at   4.282058 -1.370173  0.588322
      ESP Fit Center   95 is at   5.386093 -2.889748  0.588322
      ESP Fit Center   96 is at   5.080945 -1.950599  0.267471
      ESP Fit Center   97 is at   4.749441 -5.165937  2.401187
      ESP Fit Center   98 is at   5.695957 -4.619466  2.401187
      ESP Fit Center   99 is at   3.673103 -4.976150  1.362889
      ESP Fit Center  100 is at   4.749441 -5.165937  1.362889
      ESP Fit Center  101 is at   5.695957 -4.619466  1.362889
      ESP Fit Center  102 is at   5.459469 -3.592436  0.522889
      ESP Fit Center  103 is at   3.673103 -3.012010  0.522889
      ESP Fit Center  104 is at   3.673103 -4.172862  0.522889
      ESP Fit Center  105 is at   4.777138 -4.531585  0.522889
      ESP Fit Center  106 is at   4.471990 -3.592436  0.202038
      ESP Fit Center  107 is at   3.772084 -1.335753  4.465388
      ESP Fit Center  108 is at   2.792084 -1.335753  4.465388
      ESP Fit Center  109 is at   3.806612 -0.570125  3.747978
      ESP Fit Center  110 is at   2.757556 -0.570125  3.747978
      ESP Fit Center  111 is at   2.302084 -0.487048  2.767978
      ESP Fit Center  112 is at   2.792084 -3.033163  1.070568
      ESP Fit Center  113 is at   3.282084 -2.184458  0.807978
      ESP Fit Center  114 is at   1.126183 -4.467439  4.253218
      ESP Fit Center  115 is at   2.473275 -3.353643  5.928104
      ESP Fit Center  116 is at   3.460754 -3.353643  5.607253
      ESP Fit Center  117 is at   2.778423 -2.414494  5.607253
      ESP Fit Center  118 is at   1.674388 -2.773217  5.607253
      ESP Fit Center  119 is at   1.674388 -3.934069  5.607253
      ESP Fit Center  120 is at   2.778423 -4.292792  5.607253
      ESP Fit Center  121 is at   1.674388 -4.737357  4.767253
      ESP Fit Center  122 is at   2.750726 -4.927144  4.767253
      ESP Fit Center  123 is at   1.559049 -5.390913  3.135440
      ESP Fit Center  124 is at   2.635387 -5.580700  3.135440
      ESP Fit Center  125 is at   3.581903 -5.034229  3.135440
      ESP Fit Center  126 is at   0.856519 -4.553670  2.097142
      ESP Fit Center  127 is at   1.559049 -5.390913  2.097142
      ESP Fit Center  128 is at   2.635387 -5.580700  2.097142
      ESP Fit Center  129 is at   3.581903 -5.034229  2.097142
      ESP Fit Center  130 is at   1.559049 -4.587625  1.257142
      ESP Fit Center  131 is at   2.663084 -4.946348  1.257142
      ESP Fit Center  132 is at   2.357936 -4.007199  0.936291
      ESP Fit Center  133 is at   0.945170 -2.475886  5.157132
      ESP Fit Center  134 is at   0.221176 -3.093331  5.268292
      ESP Fit Center  135 is at  -0.577711 -2.512905  4.947441
      ESP Fit Center  136 is at  -0.577711 -3.673757  4.947441
      ESP Fit Center  137 is at   0.526324 -4.032480  4.947441
      ESP Fit Center  138 is at  -1.280241 -2.546860  4.107441
      ESP Fit Center  139 is at  -1.280241 -3.639802  4.107441
      ESP Fit Center  140 is at  -0.577711 -4.477045  4.107441
      ESP Fit Center  141 is at   0.498627 -4.666832  4.107441
      ESP Fit Center  142 is at  -1.280241 -3.639802  3.069143
      ESP Fit Center  143 is at  -0.577711 -4.477045  3.069143
      ESP Fit Center  144 is at   0.498627 -4.666832  3.069143
      ESP Fit Center  145 is at   0.946173 -1.491541  5.199486
      ESP Fit Center  146 is at   1.933652 -1.491541  4.878635
      ESP Fit Center  147 is at   1.251321 -0.552392  4.878635
      ESP Fit Center  148 is at   0.147286 -0.911115  4.878635
      ESP Fit Center  149 is at   2.170140 -0.464511  4.038635
      ESP Fit Center  150 is at   1.223624  0.081960  4.038635
      ESP Fit Center  151 is at   0.147286 -0.107827  4.038635
      ESP Fit Center  152 is at  -0.555244 -0.945070  4.038635
      ESP Fit Center  153 is at   2.170140 -0.464511  3.000337
      ESP Fit Center  154 is at  -0.368457 -4.104066  1.703744
      ESP Fit Center  155 is at   0.611543 -4.366656  1.703744
      ESP Fit Center  156 is at   2.308953 -2.406656  0.723744
      ESP Fit Center  157 is at   0.087015 -4.020989  0.723744
      ESP Fit Center  158 is at   1.136071 -4.020989  0.723744
      ESP Fit Center  159 is at   1.984776 -3.404368  0.723744
      ESP Fit Center  160 is at   1.591543 -2.406656  0.006334
      ESP Fit Center  161 is at   1.101543 -3.255361  0.006334
      ESP Fit Center  162 is at   0.611543 -2.406656 -0.256256
      ESP Fit Center  163 is at  -2.674513 -1.337654  1.415683
      ESP Fit Center  164 is at  -1.380205 -3.803751  1.415683
      ESP Fit Center  165 is at  -2.380520 -1.327843  0.365683
      ESP Fit Center  166 is at  -1.350746 -2.080955  3.881220
      ESP Fit Center  167 is at  -1.045598 -1.141806  3.560369
      ESP Fit Center  168 is at  -2.149633 -1.500529  3.560369
      ESP Fit Center  169 is at  -2.149633 -2.661381  3.560369
      ESP Fit Center  170 is at  -2.149633 -0.697241  2.720369
      ESP Fit Center  171 is at  -2.852163 -1.534484  2.720369
      ESP Fit Center  172 is at  -2.852163 -2.627426  2.720369
      ESP Fit Center  173 is at  -2.149633 -3.464669  2.720369
      ESP Fit Center  174 is at  -2.852163 -1.534484  1.682071
      ESP Fit Center  175 is at  -2.852163 -2.627426  1.682071
      ESP Fit Center  176 is at  -2.149633 -3.464669  1.682071
      ESP Fit Center  177 is at  -2.484216 -2.838588  1.015063
      ESP Fit Center  178 is at  -1.781686 -3.675831  1.015063
      ESP Fit Center  179 is at  -2.484216 -1.745646 -0.023235
      ESP Fit Center  180 is at  -2.484216 -2.838588 -0.023235
      ESP Fit Center  181 is at  -1.781686 -3.675831 -0.023235
      ESP Fit Center  182 is at  -0.705348 -3.865618 -0.023235
      ESP Fit Center  183 is at   0.241168 -3.319147 -0.023235
      ESP Fit Center  184 is at   0.004680 -2.292117 -0.863235
      ESP Fit Center  185 is at  -1.781686 -1.711691 -0.863235
      ESP Fit Center  186 is at  -1.781686 -2.872543 -0.863235
      ESP Fit Center  187 is at  -0.677651 -3.231266 -0.863235
      ESP Fit Center  188 is at  -0.982799 -2.292117 -1.184086
      ESP Fit Center  189 is at  -1.634525 -0.333805  3.044659
      ESP Fit Center  190 is at  -0.052493  0.130247  3.731505
      ESP Fit Center  191 is at   0.252655  1.069396  3.410654
      ESP Fit Center  192 is at  -0.851380  0.710673  3.410654
      ESP Fit Center  193 is at  -0.851380 -0.450179  3.410654
      ESP Fit Center  194 is at   1.545282  0.130247  2.570654
      ESP Fit Center  195 is at   1.171474  1.157277  2.570654
      ESP Fit Center  196 is at   0.224958  1.703748  2.570654
      ESP Fit Center  197 is at  -0.851380  1.513961  2.570654
      ESP Fit Center  198 is at  -2.400394  0.631679  2.594273
      ESP Fit Center  199 is at  -2.400394 -0.529173  2.594273
      ESP Fit Center  200 is at  -1.324056  1.624754  1.754273
      ESP Fit Center  201 is at  -2.400394  1.434967  1.754273
      ESP Fit Center  202 is at  -3.102924  0.597724  1.754273
      ESP Fit Center  203 is at  -3.102924 -0.495218  1.754273
      ESP Fit Center  204 is at  -1.324056  1.624754  0.715975
      ESP Fit Center  205 is at  -2.400394  1.434967  0.715975
      ESP Fit Center  206 is at  -3.102924  0.597724  0.715975
      ESP Fit Center  207 is at  -3.102924 -0.495218  0.715975
      ESP Fit Center  208 is at  -2.400394  0.631679 -0.124025
      ESP Fit Center  209 is at  -2.400394 -0.529173 -0.124025
      ESP Fit Center  210 is at  -0.980000  1.697410  0.000000
      ESP Fit Center  211 is at  -1.373233  0.997712 -0.980000
      ESP Fit Center  212 is at  -1.697410  0.000000 -0.980000
      ESP Fit Center  213 is at  -1.373233 -0.997712 -0.980000
      ESP Fit Center  214 is at  -0.524528 -1.614333 -0.980000
      ESP Fit Center  215 is at   0.524528 -1.614333 -0.980000
      ESP Fit Center  216 is at  -0.490000  0.848705 -1.697410
      ESP Fit Center  217 is at  -0.980000  0.000000 -1.697410
      ESP Fit Center  218 is at  -0.490000 -0.848705 -1.697410
      ESP Fit Center  219 is at   0.490000 -0.848705 -1.697410
      ESP Fit Center  220 is at   0.000000  0.000000 -1.960000
      ESP Fit Center  221 is at   0.386671  2.789275  0.000000
      ESP Fit Center  222 is at  -0.440532  2.218299  0.000000
      ESP Fit Center  223 is at   1.105416  1.504690  2.527574
      ESP Fit Center  224 is at   1.410564  2.443839  2.206723
      ESP Fit Center  225 is at   0.306529  2.085116  2.206723
      ESP Fit Center  226 is at   1.382867  3.078191  1.366723
      ESP Fit Center  227 is at   0.306529  2.888404  1.366723
      ESP Fit Center  228 is at  -0.396001  2.051161  1.366723
      ESP Fit Center  229 is at   1.382867  3.078191  0.328425
      ESP Fit Center  230 is at   0.306529  2.888404  0.328425
      ESP Fit Center  231 is at   1.361430  3.000850 -0.379263
      ESP Fit Center  232 is at   0.285092  2.811063 -0.379263
      ESP Fit Center  233 is at   2.307946  2.454379 -1.417561
      ESP Fit Center  234 is at   1.361430  3.000850 -1.417561
      ESP Fit Center  235 is at   0.285092  2.811063 -1.417561
      ESP Fit Center  236 is at  -0.417438  1.973820 -1.417561
      ESP Fit Center  237 is at   2.071458  1.427349 -2.257561
      ESP Fit Center  238 is at   1.389127  2.366498 -2.257561
      ESP Fit Center  239 is at   0.285092  2.007775 -2.257561
      ESP Fit Center  240 is at   0.285092  0.846923 -2.257561
      ESP Fit Center  241 is at   1.389127  0.488200 -2.257561
      ESP Fit Center  242 is at   1.083979  1.427349 -2.578412
      ESP Fit Center  243 is at   1.668332 -1.963534  0.000000
      ESP Fit Center  244 is at   3.605938 -1.728266  0.000000
      ESP Fit Center  245 is at   1.653077 -1.975016 -0.387055
      ESP Fit Center  246 is at   2.729415 -2.164803 -0.387055
      ESP Fit Center  247 is at   0.950547 -1.137773 -1.425353
      ESP Fit Center  248 is at   1.653077 -1.975016 -1.425353
      ESP Fit Center  249 is at   2.729415 -2.164803 -1.425353
      ESP Fit Center  250 is at   3.675931 -1.618332 -1.425353
      ESP Fit Center  251 is at   3.439443 -0.591302 -2.265353
      ESP Fit Center  252 is at   2.757112  0.347847 -2.265353
      ESP Fit Center  253 is at   1.653077 -0.010876 -2.265353
      ESP Fit Center  254 is at   1.653077 -1.171728 -2.265353
      ESP Fit Center  255 is at   2.757112 -1.530451 -2.265353
      ESP Fit Center  256 is at   2.451964 -0.591302 -2.586204
      ESP Fit Center  257 is at   1.639946 -0.107699  2.191169
      ESP Fit Center  258 is at   2.716284 -2.261626  0.312871
      ESP Fit Center  259 is at   3.662800 -1.715155  0.312871
      ESP Fit Center  260 is at   3.389479  3.342718  0.552372
      ESP Fit Center  261 is at   2.431736  2.881493  0.552372
      ESP Fit Center  262 is at   5.410238 -0.853431  0.552372
      ESP Fit Center  263 is at   5.410238  2.881493 -0.537980
      ESP Fit Center  264 is at   4.452495  3.342718 -0.537980
      ESP Fit Center  265 is at   3.389479  3.342718 -0.537980
      ESP Fit Center  266 is at   2.431736  2.881493 -0.537980
      ESP Fit Center  267 is at   4.452495 -1.314656 -0.537980
      ESP Fit Center  268 is at   5.410238 -0.853431 -0.537980
      ESP Fit Center  269 is at   5.532397  2.049622 -1.520354
      ESP Fit Center  270 is at   4.716709  2.756419 -1.520354
      ESP Fit Center  271 is at   3.648385  2.910021 -1.520354
      ESP Fit Center  272 is at   2.666610  2.461660 -1.520354
      ESP Fit Center  273 is at   4.716709 -0.728357 -1.520354
      ESP Fit Center  274 is at   5.532397 -0.021560 -1.520354
      ESP Fit Center  275 is at   4.984002  1.014031 -2.200178
      ESP Fit Center  276 is at   4.452495  1.934629 -2.200178
      ESP Fit Center  277 is at   3.389479  1.934629 -2.200178
      ESP Fit Center  278 is at   2.857972  1.014031 -2.200178
      ESP Fit Center  279 is at   3.389479  0.093433 -2.200178
      ESP Fit Center  280 is at   4.452495  0.093433 -2.200178
      ESP Fit Center  281 is at   3.920987  1.014031 -2.442804
      ESP Fit Center  282 is at   4.041565  1.454874  3.869473
      ESP Fit Center  283 is at   2.991565  1.454874  3.588126
      ESP Fit Center  284 is at   3.212094  2.101539  3.713060
      ESP Fit Center  285 is at   3.517242  3.040688  3.392209
      ESP Fit Center  286 is at   2.413207  2.681965  3.392209
      ESP Fit Center  287 is at   2.413207  1.521113  3.392209
      ESP Fit Center  288 is at   3.489545  3.675040  2.552209
      ESP Fit Center  289 is at   2.413207  3.485253  2.552209
      ESP Fit Center  290 is at   1.710677  2.648010  2.552209
      ESP Fit Center  291 is at   1.710677  1.555068  2.552209
      ESP Fit Center  292 is at   3.489545  3.675040  1.513911
      ESP Fit Center  293 is at   2.413207  3.485253  1.513911
      ESP Fit Center  294 is at   3.968758  0.553350  4.043160
      ESP Fit Center  295 is at   4.956237  0.553350  3.722309
      ESP Fit Center  296 is at   3.169871  1.133776  3.722309
      ESP Fit Center  297 is at   3.169871 -0.027076  3.722309
      ESP Fit Center  298 is at   4.273906 -0.385799  3.722309
      ESP Fit Center  299 is at   2.467341  0.006879  2.882309
      ESP Fit Center  300 is at   5.192725 -0.473680  2.882309
      ESP Fit Center  301 is at   5.242465  2.626689  4.762296
      ESP Fit Center  302 is at   6.229944  2.626689  4.441445
      ESP Fit Center  303 is at   5.547613  3.565838  4.441445
      ESP Fit Center  304 is at   4.443578  3.207115  4.441445
      ESP Fit Center  305 is at   4.443578  2.046263  4.441445
      ESP Fit Center  306 is at   5.547613  1.687540  4.441445
      ESP Fit Center  307 is at   6.466432  3.653719  3.601445
      ESP Fit Center  308 is at   5.519916  4.200190  3.601445
      ESP Fit Center  309 is at   4.443578  4.010403  3.601445
      ESP Fit Center  310 is at   3.741048  3.173160  3.601445
      ESP Fit Center  311 is at   6.710404  4.055445  1.928280
      ESP Fit Center  312 is at   5.763888  4.601916  1.928280
      ESP Fit Center  313 is at   4.687550  4.412129  1.928280
      ESP Fit Center  314 is at   5.763888  4.601916  0.889982
      ESP Fit Center  315 is at   4.687550  4.412129  0.889982
      ESP Fit Center  316 is at   3.985020  3.574886  0.889982
      ESP Fit Center  317 is at   5.791585  3.967564  0.049982
      ESP Fit Center  318 is at   4.687550  3.608841  0.049982
      ESP Fit Center  319 is at   5.486437  3.028415 -0.270869
      ESP Fit Center  320 is at   6.847253  1.179568  4.602655
      ESP Fit Center  321 is at   7.910268  1.179568  4.360029
      ESP Fit Center  322 is at   7.378761  2.100166  4.360029
      ESP Fit Center  323 is at   6.315745  2.100166  4.360029
      ESP Fit Center  324 is at   5.784238  1.179568  4.360029
      ESP Fit Center  325 is at   6.315745  0.258970  4.360029
      ESP Fit Center  326 is at   7.378761  0.258970  4.360029
      ESP Fit Center  327 is at   8.762740  1.179568  3.680205
      ESP Fit Center  328 is at   8.458663  2.215159  3.680205
      ESP Fit Center  329 is at   7.642975  2.921956  3.680205
      ESP Fit Center  330 is at   5.009357  0.639913  3.680205
      ESP Fit Center  331 is at   5.592876 -0.268061  3.680205
      ESP Fit Center  332 is at   6.574651 -0.716422  3.680205
      ESP Fit Center  333 is at   7.642975 -0.562820  3.680205
      ESP Fit Center  334 is at   8.458663  0.143977  3.680205
      ESP Fit Center  335 is at   9.235826  1.179568  2.697831
      ESP Fit Center  336 is at   8.999283  2.215931  2.697831
      ESP Fit Center  337 is at   8.336504  3.047030  2.697831
      ESP Fit Center  338 is at   7.378761  3.508255  2.697831
      ESP Fit Center  339 is at   7.378761 -1.149119  2.697831
      ESP Fit Center  340 is at   8.336504 -0.687894  2.697831
      ESP Fit Center  341 is at   8.999283  0.143205  2.697831
      ESP Fit Center  342 is at   7.378761 -1.149119  1.607479
      ESP Fit Center  343 is at   8.336504 -0.687894  1.607479
      ESP Fit Center  344 is at   6.574651 -0.716422  0.625105
      ESP Fit Center  345 is at   8.125982  0.493795 -1.310042
      ESP Fit Center  346 is at   6.056061  2.651407 -0.779354
      ESP Fit Center  347 is at   6.056061 -0.116021 -0.779354
      ESP Fit Center  348 is at   7.132399 -0.305808 -0.779354
      ESP Fit Center  349 is at   6.056061  1.848119 -1.619354
      ESP Fit Center  350 is at   6.056061  0.687267 -1.619354
      ESP Fit Center  351 is at   7.160096  0.328544 -1.619354
      ESP Fit Center  352 is at   6.854948  1.267693 -1.940205
      ESP Fit Center  353 is at   9.290343  0.583300  1.781806
      ESP Fit Center  354 is at   9.900639  0.583300  0.941806
      ESP Fit Center  355 is at   8.580315 -0.990201  0.941806
      ESP Fit Center  356 is at   9.526831 -0.443730  0.941806
      ESP Fit Center  357 is at   7.503977 -0.800414 -0.096492
      ESP Fit Center  358 is at   8.580315 -0.990201 -0.096492
      ESP Fit Center  359 is at   9.526831 -0.443730 -0.096492
      ESP Fit Center  360 is at   8.608012 -0.355849 -0.936492
      ESP Fit Center  361 is at   7.794720  3.650316  2.166961
      ESP Fit Center  362 is at   7.921576  4.499515  1.786978
      ESP Fit Center  363 is at   6.817541  4.140792  1.786978
      ESP Fit Center  364 is at   7.893879  5.133867  0.946978
      ESP Fit Center  365 is at   6.817541  4.944080  0.946978
      ESP Fit Center  366 is at   7.893879  5.133867 -0.091320
      ESP Fit Center  367 is at   6.817541  4.944080 -0.091320
      ESP Fit Center  368 is at   6.115011  4.106837 -0.091320
      ESP Fit Center  369 is at   6.817541  4.140792 -0.931320
      ESP Fit Center  370 is at   9.051320  2.877060  2.813116
      ESP Fit Center  371 is at  10.038799  2.877060  2.492265
      ESP Fit Center  372 is at   9.356468  3.816209  2.492265
      ESP Fit Center  373 is at   8.252433  3.457486  2.492265
      ESP Fit Center  374 is at   9.356468  1.937911  2.492265
      ESP Fit Center  375 is at  10.275287  3.904090  1.652265
      ESP Fit Center  376 is at   9.328771  4.450561  1.652265
      ESP Fit Center  377 is at   9.896648  4.705715  0.247083
      ESP Fit Center  378 is at   8.828324  4.859317  0.247083
      ESP Fit Center  379 is at  10.590177  4.830789 -0.735291
      ESP Fit Center  380 is at   9.632434  5.292014 -0.735291
      ESP Fit Center  381 is at   8.569418  5.292014 -0.735291
      ESP Fit Center  382 is at   7.611675  4.830789 -0.735291
      ESP Fit Center  383 is at  10.590177  4.830789 -1.825643
      ESP Fit Center  384 is at   9.632434  5.292014 -1.825643
      ESP Fit Center  385 is at   8.569418  5.292014 -1.825643
      ESP Fit Center  386 is at   7.611675  4.830789 -1.825643
      ESP Fit Center  387 is at   6.948896  3.999690 -1.825643
      ESP Fit Center  388 is at   6.712353  2.963327 -1.825643
      ESP Fit Center  389 is at   6.948896  1.926964 -1.825643
      ESP Fit Center  390 is at   7.611675  1.095865 -1.825643
      ESP Fit Center  391 is at   8.569418  0.634640 -1.825643
      ESP Fit Center  392 is at  10.712336  3.998918 -2.808017
      ESP Fit Center  393 is at   9.896648  4.705715 -2.808017
      ESP Fit Center  394 is at   8.828324  4.859317 -2.808017
      ESP Fit Center  395 is at   7.846549  4.410956 -2.808017
      ESP Fit Center  396 is at   7.263030  3.502982 -2.808017
      ESP Fit Center  397 is at   7.263030  2.423672 -2.808017
      ESP Fit Center  398 is at   7.846549  1.515698 -2.808017
      ESP Fit Center  399 is at   8.828324  1.067337 -2.808017
      ESP Fit Center  400 is at  10.163941  2.963327 -3.487841
      ESP Fit Center  401 is at   9.632434  3.883925 -3.487841
      ESP Fit Center  402 is at   8.569418  3.883925 -3.487841
      ESP Fit Center  403 is at   8.037911  2.963327 -3.487841
      ESP Fit Center  404 is at   8.569418  2.042729 -3.487841
      ESP Fit Center  405 is at   9.632434  2.042729 -3.487841
      ESP Fit Center  406 is at   9.100926  2.963327 -3.730467
      ESP Fit Center  407 is at  11.335606  3.561885 -2.223188
      ESP Fit Center  408 is at  10.291029  0.906123  0.801494
      ESP Fit Center  409 is at  10.596177 -0.033026  0.480643
      ESP Fit Center  410 is at   9.492142 -0.477591 -0.359357
      ESP Fit Center  411 is at  10.568480 -0.667378 -0.359357
      ESP Fit Center  412 is at  11.514996 -0.120907 -0.359357
      ESP Fit Center  413 is at   8.789612  0.359652 -1.397655
      ESP Fit Center  414 is at   9.492142 -0.477591 -1.397655
      ESP Fit Center  415 is at  10.568480 -0.667378 -1.397655
      ESP Fit Center  416 is at  11.514996 -0.120907 -1.397655
      ESP Fit Center  417 is at   9.492142  0.325697 -2.237655
      ESP Fit Center  418 is at  10.596177 -0.033026 -2.237655
      ESP Fit Center  419 is at  12.531804  1.840022 -2.714250
      ESP Fit Center  420 is at  12.157996  2.867052 -2.714250
      ESP Fit Center  421 is at  11.211480  3.413523 -2.714250
      ESP Fit Center  422 is at  10.135142  0.456308 -2.714250
      ESP Fit Center  423 is at  11.211480  0.266521 -2.714250
      ESP Fit Center  424 is at  12.157996  0.812992 -2.714250
      ESP Fit Center  425 is at  11.921508  1.840022 -3.554250
      ESP Fit Center  426 is at  11.239177  2.779171 -3.554250
      ESP Fit Center  427 is at  10.135142  2.420448 -3.554250
      ESP Fit Center  428 is at  10.135142  1.259596 -3.554250
      ESP Fit Center  429 is at  11.239177  0.900873 -3.554250
      ESP Fit Center  430 is at  10.934029  1.840022 -3.875101
      ESP Fit Center  431 is at  13.218735  3.425148  0.778777
      ESP Fit Center  432 is at  11.429965  4.242052  0.778777
      ESP Fit Center  433 is at  11.429965  0.641768  0.778777
      ESP Fit Center  434 is at  12.738786  2.441910 -2.089876
      ESP Fit Center  435 is at  11.369900  2.510714  2.442866
      ESP Fit Center  436 is at  12.357379  2.510714  2.122015
      ESP Fit Center  437 is at  11.675048  3.449863  2.122015
      ESP Fit Center  438 is at  10.571013  3.091140  2.122015
      ESP Fit Center  439 is at  10.571013  1.930288  2.122015
      ESP Fit Center  440 is at  11.675048  1.571565  2.122015
      ESP Fit Center  441 is at  12.593867  3.537744  1.282015
      ESP Fit Center  442 is at  11.647351  4.084215  1.282015
      ESP Fit Center  443 is at  10.571013  3.894428  1.282015
      ESP Fit Center  444 is at  10.571013  1.127000  1.282015
      ESP Fit Center  445 is at  11.647351  0.937213  1.282015
      ESP Fit Center  446 is at  13.535342  1.777641  1.053055
      ESP Fit Center  447 is at  12.853011  0.838492  1.053055
      ESP Fit Center  448 is at  14.145638  1.777641  0.213055
      ESP Fit Center  449 is at  13.771830  2.804671  0.213055
      ESP Fit Center  450 is at  11.748976  0.393927  0.213055
      ESP Fit Center  451 is at  12.825314  0.204140  0.213055
      ESP Fit Center  452 is at  13.771830  0.750611  0.213055
      ESP Fit Center  453 is at  14.145638  1.777641 -0.825243
      ESP Fit Center  454 is at  13.771830  2.804671 -0.825243
      ESP Fit Center  455 is at  12.825314  0.204140 -0.825243
      ESP Fit Center  456 is at  13.771830  0.750611 -0.825243
      ESP Fit Center  457 is at  13.535342  1.777641 -1.665243
      ESP Fit Center  458 is at  12.853011  0.838492 -1.665243
      ESP Fit Center  459 is at  12.311004  4.366762  0.768099
      ESP Fit Center  460 is at  13.603631  3.427613 -0.071901
      ESP Fit Center  461 is at  13.229823  4.454643 -0.071901
      ESP Fit Center  462 is at  12.283307  5.001114 -0.071901
      ESP Fit Center  463 is at  11.206969  4.811327 -0.071901
      ESP Fit Center  464 is at  13.603631  3.427613 -1.110199
      ESP Fit Center  465 is at  13.229823  4.454643 -1.110199
      ESP Fit Center  466 is at  12.283307  5.001114 -1.110199
      ESP Fit Center  467 is at  11.206969  4.811327 -1.110199
      ESP Fit Center  468 is at  12.993335  3.427613 -1.950199
      ESP Fit Center  469 is at  12.311004  4.366762 -1.950199
      ESP Fit Center  470 is at  12.005856  3.427613 -2.271050
      ESP Fit Center  471 is at   5.338949 -3.035513  6.179828
      ESP Fit Center  472 is at   6.380270 -3.035513  5.942153
      ESP Fit Center  473 is at   7.215345 -3.035513  5.276204
      ESP Fit Center  474 is at   6.917473 -4.049969  5.276204
      ESP Fit Center  475 is at   5.859609 -5.316676  3.245778
      ESP Fit Center  476 is at   4.878804 -3.836789  6.269205
      ESP Fit Center  477 is at   5.838804 -3.836789  6.011974
      ESP Fit Center  478 is at   4.398804 -3.005405  6.011974
      ESP Fit Center  479 is at   3.918804 -3.836789  6.011974
      ESP Fit Center  480 is at   4.398804 -4.668173  6.011974
      ESP Fit Center  481 is at   5.358804 -4.668173  6.011974
      ESP Fit Center  482 is at   3.533596 -4.814140  5.309205
      ESP Fit Center  483 is at   4.364980 -5.418176  5.309205
      ESP Fit Center  484 is at   5.392628 -5.418176  5.309205
      ESP Fit Center  485 is at   6.224012 -4.814140  5.309205
      ESP Fit Center  486 is at   3.918804 -5.499558  4.349205
      ESP Fit Center  487 is at   4.878804 -5.756789  4.349205
      ESP Fit Center  488 is at   5.838804 -5.499558  4.349205
      ESP Fit Center  489 is at   4.364980 -5.418176  3.389205
      ESP Fit Center  490 is at   5.392628 -5.418176  3.389205
      ESP Fit Center  491 is at   7.306505 -3.348512  5.186582
      ESP Fit Center  492 is at   8.009274 -3.348512  4.483813
      ESP Fit Center  493 is at   7.691713 -2.371161  4.483813
      ESP Fit Center  494 is at   6.860329 -4.929899  4.483813
      ESP Fit Center  495 is at   7.691713 -4.325863  4.483813
      ESP Fit Center  496 is at   8.266505 -3.348512  3.523813
      ESP Fit Center  497 is at   8.009274 -2.388512  3.523813
      ESP Fit Center  498 is at   6.346505 -5.268512  3.523813
      ESP Fit Center  499 is at   7.306505 -5.011281  3.523813
      ESP Fit Center  500 is at   8.009274 -4.308512  3.523813
      ESP Fit Center  501 is at   8.009274 -3.348512  2.563813
      ESP Fit Center  502 is at   7.691713 -2.371161  2.563813
      ESP Fit Center  503 is at   6.860329 -4.929899  2.563813
      ESP Fit Center  504 is at   7.691713 -4.325863  2.563813
      ESP Fit Center  505 is at   7.306505 -3.348512  1.861044
      ESP Fit Center  506 is at   6.826505 -4.179896  1.861044
      ESP Fit Center  507 is at   5.407278 -2.159230  6.335342
      ESP Fit Center  508 is at   6.367278 -2.159230  6.078111
      ESP Fit Center  509 is at   5.887278 -1.327846  6.078111
      ESP Fit Center  510 is at   4.927278 -1.327846  6.078111
      ESP Fit Center  511 is at   4.447278 -2.159230  6.078111
      ESP Fit Center  512 is at   7.070047 -2.159230  5.375342
      ESP Fit Center  513 is at   6.752486 -1.181879  5.375342
      ESP Fit Center  514 is at   5.921102 -0.577843  5.375342
      ESP Fit Center  515 is at   4.893454 -0.577843  5.375342
      ESP Fit Center  516 is at   4.062070 -1.181879  5.375342
      ESP Fit Center  517 is at   3.744509 -2.159230  5.375342
      ESP Fit Center  518 is at   7.070047 -1.199230  4.415342
      ESP Fit Center  519 is at   6.367278 -0.496461  4.415342
      ESP Fit Center  520 is at   5.407278 -0.239230  4.415342
      ESP Fit Center  521 is at   4.447278 -0.496461  4.415342
      ESP Fit Center  522 is at   3.518427 -2.710175  0.350615
      ESP Fit Center  523 is at   4.559748 -2.710175  0.112940
      ESP Fit Center  524 is at   7.000945 -1.950599  1.947471
      ESP Fit Center  525 is at   6.743714 -1.950599  0.987471
      ESP Fit Center  526 is at   6.426153 -2.927950  0.987471
      ESP Fit Center  527 is at   6.040945 -1.950599  0.284702
      ESP Fit Center  528 is at   5.560945 -2.781983  0.284702
      ESP Fit Center  529 is at   5.080945 -1.950599  0.027471
      ESP Fit Center  530 is at   3.958166 -5.173823  2.842038
      ESP Fit Center  531 is at   4.471990 -5.512436  1.882038
      ESP Fit Center  532 is at   5.431990 -5.255205  1.882038
      ESP Fit Center  533 is at   6.134759 -4.552436  1.882038
      ESP Fit Center  534 is at   6.134759 -3.592436  0.922038
      ESP Fit Center  535 is at   3.126782 -4.569787  0.922038
      ESP Fit Center  536 is at   3.958166 -5.173823  0.922038
      ESP Fit Center  537 is at   4.985814 -5.173823  0.922038
      ESP Fit Center  538 is at   5.817198 -4.569787  0.922038
      ESP Fit Center  539 is at   5.431990 -3.592436  0.219269
      ESP Fit Center  540 is at   3.511990 -3.592436  0.219269
      ESP Fit Center  541 is at   3.991990 -4.423820  0.219269
      ESP Fit Center  542 is at   4.951990 -4.423820  0.219269
      ESP Fit Center  543 is at   4.471990 -3.592436 -0.037962
      ESP Fit Center  544 is at   2.796134 -1.342768  4.786148
      ESP Fit Center  545 is at   3.823266 -0.518870  4.164595
      ESP Fit Center  546 is at   2.740902 -0.518870  4.164595
      ESP Fit Center  547 is at   2.796134 -3.026148  0.749808
      ESP Fit Center  548 is at   0.858290 -4.922343  3.737268
      ESP Fit Center  549 is at   2.473275 -3.353643  6.168104
      ESP Fit Center  550 is at   3.433275 -3.353643  5.910873
      ESP Fit Center  551 is at   2.953275 -2.522259  5.910873
      ESP Fit Center  552 is at   1.993275 -2.522259  5.910873
      ESP Fit Center  553 is at   1.513275 -3.353643  5.910873
      ESP Fit Center  554 is at   1.993275 -4.185027  5.910873
      ESP Fit Center  555 is at   2.953275 -4.185027  5.910873
      ESP Fit Center  556 is at   2.987099 -1.772256  5.208104
      ESP Fit Center  557 is at   1.959451 -1.772256  5.208104
      ESP Fit Center  558 is at   1.128067 -4.330994  5.208104
      ESP Fit Center  559 is at   1.959451 -4.935030  5.208104
      ESP Fit Center  560 is at   2.987099 -4.935030  5.208104
      ESP Fit Center  561 is at   2.473275 -5.273643  4.248104
      ESP Fit Center  562 is at   1.844112 -5.588586  3.576291
      ESP Fit Center  563 is at   2.871760 -5.588586  3.576291
      ESP Fit Center  564 is at   0.695167 -4.967199  2.616291
      ESP Fit Center  565 is at   1.397936 -5.669968  2.616291
      ESP Fit Center  566 is at   2.357936 -5.927199  2.616291
      ESP Fit Center  567 is at   3.317936 -5.669968  2.616291
      ESP Fit Center  568 is at   1.012728 -4.984550  1.656291
      ESP Fit Center  569 is at   1.844112 -5.588586  1.656291
      ESP Fit Center  570 is at   2.871760 -5.588586  1.656291
      ESP Fit Center  571 is at   1.877936 -4.838583  0.953522
      ESP Fit Center  572 is at   2.837936 -4.838583  0.953522
      ESP Fit Center  573 is at   2.357936 -4.007199  0.696291
      ESP Fit Center  574 is at   0.945170 -2.475886  5.457132
      ESP Fit Center  575 is at   0.424510 -4.757049  2.523082
      ESP Fit Center  576 is at   0.221176 -3.093331  5.508292
      ESP Fit Center  577 is at  -0.258824 -2.261947  5.251061
      ESP Fit Center  578 is at  -0.738824 -3.093331  5.251061
      ESP Fit Center  579 is at  -0.258824 -3.924715  5.251061
      ESP Fit Center  580 is at   0.701176 -3.924715  5.251061
      ESP Fit Center  581 is at  -1.124032 -2.115980  4.548292
      ESP Fit Center  582 is at  -1.441593 -3.093331  4.548292
      ESP Fit Center  583 is at  -1.124032 -4.070682  4.548292
      ESP Fit Center  584 is at  -0.292648 -4.674718  4.548292
      ESP Fit Center  585 is at   0.735000 -4.674718  4.548292
      ESP Fit Center  586 is at  -1.441593 -4.053331  3.588292
      ESP Fit Center  587 is at  -0.738824 -4.756100  3.588292
      ESP Fit Center  588 is at   0.221176 -5.013331  3.588292
      ESP Fit Center  589 is at  -1.124032 -4.070682  2.628292
      ESP Fit Center  590 is at  -0.292648 -4.674718  2.628292
      ESP Fit Center  591 is at   0.946173 -1.491541  5.439486
      ESP Fit Center  592 is at   1.906173 -1.491541  5.182255
      ESP Fit Center  593 is at   1.426173 -0.660157  5.182255
      ESP Fit Center  594 is at   0.466173 -0.660157  5.182255
      ESP Fit Center  595 is at  -0.013827 -1.491541  5.182255
      ESP Fit Center  596 is at   2.291381 -0.514190  4.479486
      ESP Fit Center  597 is at   1.459997  0.089846  4.479486
      ESP Fit Center  598 is at   0.432349  0.089846  4.479486
      ESP Fit Center  599 is at  -0.399035 -0.514190  4.479486
      ESP Fit Center  600 is at   1.906173  0.171228  3.519486
      ESP Fit Center  601 is at  -0.162857 -4.448580  2.202191
      ESP Fit Center  602 is at  -0.162857 -4.448580  1.205297
      ESP Fit Center  603 is at   0.874776 -4.574572  1.205297
      ESP Fit Center  604 is at   0.070361 -4.072244  0.307127
      ESP Fit Center  605 is at   1.152725 -4.072244  0.307127
      ESP Fit Center  606 is at   2.028377 -3.436046  0.307127
      ESP Fit Center  607 is at   1.583443 -2.406656 -0.314426
      ESP Fit Center  608 is at   1.097493 -3.248346 -0.314426
      ESP Fit Center  609 is at  -1.156195 -4.121380  1.949733
      ESP Fit Center  610 is at  -2.975362 -1.840217  0.881633
      ESP Fit Center  611 is at  -1.350746 -2.080955  4.121220
      ESP Fit Center  612 is at  -1.830746 -1.249571  3.863989
      ESP Fit Center  613 is at  -2.310746 -2.080955  3.863989
      ESP Fit Center  614 is at  -1.830746 -2.912339  3.863989
      ESP Fit Center  615 is at  -2.695954 -1.103604  3.161220
      ESP Fit Center  616 is at  -3.013515 -2.080955  3.161220
      ESP Fit Center  617 is at  -2.695954 -3.058306  3.161220
      ESP Fit Center  618 is at  -1.864570 -3.662342  3.161220
      ESP Fit Center  619 is at  -3.013515 -1.120955  2.201220
      ESP Fit Center  620 is at  -3.270746 -2.080955  2.201220
      ESP Fit Center  621 is at  -3.013515 -3.040955  2.201220
      ESP Fit Center  622 is at  -2.310746 -3.743724  2.201220
      ESP Fit Center  623 is at  -1.350746 -4.000955  2.201220
      ESP Fit Center  624 is at  -2.902799 -2.292117  0.495914
      ESP Fit Center  625 is at  -2.645568 -3.252117  0.495914
      ESP Fit Center  626 is at  -1.942799 -3.954886  0.495914
      ESP Fit Center  627 is at  -0.982799 -4.212117  0.495914
      ESP Fit Center  628 is at  -2.328007 -1.314766 -0.464086
      ESP Fit Center  629 is at  -2.645568 -2.292117 -0.464086
      ESP Fit Center  630 is at  -2.328007 -3.269468 -0.464086
      ESP Fit Center  631 is at  -1.496623 -3.873504 -0.464086
      ESP Fit Center  632 is at  -0.468975 -3.873504 -0.464086
      ESP Fit Center  633 is at   0.362409 -3.269468 -0.464086
      ESP Fit Center  634 is at  -0.022799 -2.292117 -1.166855
      ESP Fit Center  635 is at  -1.462799 -1.460733 -1.166855
      ESP Fit Center  636 is at  -1.942799 -2.292117 -1.166855
      ESP Fit Center  637 is at  -1.462799 -3.123501 -1.166855
      ESP Fit Center  638 is at  -0.502799 -3.123501 -1.166855
      ESP Fit Center  639 is at  -0.982799 -2.292117 -1.424086
      ESP Fit Center  640 is at  -1.625846 -0.333805  3.388331
      ESP Fit Center  641 is at  -1.105185  1.947358  1.760056
      ESP Fit Center  642 is at  -1.105185  1.947358  0.691956
      ESP Fit Center  643 is at  -2.384913 -0.862447 -0.270370
      ESP Fit Center  644 is at  -0.052493  0.130247  3.971505
      ESP Fit Center  645 is at   0.427507  0.961631  3.714274
      ESP Fit Center  646 is at  -0.532493  0.961631  3.714274
      ESP Fit Center  647 is at  -1.012493  0.130247  3.714274
      ESP Fit Center  648 is at   1.292715  1.107598  3.011505
      ESP Fit Center  649 is at   0.461331  1.711634  3.011505
      ESP Fit Center  650 is at  -0.566317  1.711634  3.011505
      ESP Fit Center  651 is at  -1.397701  1.107598  3.011505
      ESP Fit Center  652 is at  -2.081507  0.882637  2.897893
      ESP Fit Center  653 is at  -2.561507  0.051253  2.897893
      ESP Fit Center  654 is at  -2.115331  1.632640  2.195124
      ESP Fit Center  655 is at  -2.946715  1.028604  2.195124
      ESP Fit Center  656 is at  -3.264276  0.051253  2.195124
      ESP Fit Center  657 is at  -2.946715 -0.926098  2.195124
      ESP Fit Center  658 is at  -1.601507  1.971253  1.235124
      ESP Fit Center  659 is at  -2.561507  1.714022  1.235124
      ESP Fit Center  660 is at  -3.264276  1.011253  1.235124
      ESP Fit Center  661 is at  -3.521507  0.051253  1.235124
      ESP Fit Center  662 is at  -3.264276 -0.908747  1.235124
      ESP Fit Center  663 is at  -2.115331  1.632640  0.275124
      ESP Fit Center  664 is at  -2.946715  1.028604  0.275124
      ESP Fit Center  665 is at  -3.264276  0.051253  0.275124
      ESP Fit Center  666 is at  -2.946715 -0.926098  0.275124
      ESP Fit Center  667 is at  -2.081507  0.882637 -0.427645
      ESP Fit Center  668 is at  -2.561507  0.051253 -0.427645
      ESP Fit Center  669 is at  -1.634627  1.448153 -0.498447
      ESP Fit Center  670 is at  -1.416834  1.029390 -1.396617
      ESP Fit Center  671 is at  -1.751303  0.000000 -1.396617
      ESP Fit Center  672 is at  -1.416834 -1.029390 -1.396617
      ESP Fit Center  673 is at  -0.541182 -1.665588 -1.396617
      ESP Fit Center  674 is at   0.541182 -1.665588 -1.396617
      ESP Fit Center  675 is at  -0.485950  0.841690 -2.018170
      ESP Fit Center  676 is at  -0.971900  0.000000 -2.018170
      ESP Fit Center  677 is at  -0.485950 -0.841690 -2.018170
      ESP Fit Center  678 is at   0.485950 -0.841690 -2.018170
      ESP Fit Center  679 is at   0.000000  0.000000 -2.240000
      ESP Fit Center  680 is at   0.610681 -0.076069 -2.162325
      ESP Fit Center  681 is at   1.105416  1.504690  2.767574
      ESP Fit Center  682 is at   0.625416  2.336074  2.510343
      ESP Fit Center  683 is at   0.591592  3.086077  1.807574
      ESP Fit Center  684 is at  -0.239792  2.482041  1.807574
      ESP Fit Center  685 is at   2.065416  3.167459  0.847574
      ESP Fit Center  686 is at   1.105416  3.424690  0.847574
      ESP Fit Center  687 is at   0.145416  3.167459  0.847574
      ESP Fit Center  688 is at  -0.557353  2.464690  0.847574
      ESP Fit Center  689 is at   2.043979  3.090118 -0.898412
      ESP Fit Center  690 is at   1.083979  3.347349 -0.898412
      ESP Fit Center  691 is at   0.123979  3.090118 -0.898412
      ESP Fit Center  692 is at  -0.578790  2.387349 -0.898412
      ESP Fit Center  693 is at   1.597803  3.008736 -1.858412
      ESP Fit Center  694 is at   0.570155  3.008736 -1.858412
      ESP Fit Center  695 is at  -0.261229  2.404700 -1.858412
      ESP Fit Center  696 is at  -0.578790  1.427349 -1.858412
      ESP Fit Center  697 is at   2.043979  1.427349 -2.561181
      ESP Fit Center  698 is at   1.563979  2.258733 -2.561181
      ESP Fit Center  699 is at   0.603979  2.258733 -2.561181
      ESP Fit Center  700 is at   0.123979  1.427349 -2.561181
      ESP Fit Center  701 is at   0.603979  0.595965 -2.561181
      ESP Fit Center  702 is at   1.563979  0.595965 -2.561181
      ESP Fit Center  703 is at   1.083979  1.427349 -2.818412
      ESP Fit Center  704 is at   3.871860 -1.829350 -0.534050
      ESP Fit Center  705 is at   1.491964 -2.254071 -0.906204
      ESP Fit Center  706 is at   2.451964 -2.511302 -0.906204
      ESP Fit Center  707 is at   3.411964 -2.254071 -0.906204
      ESP Fit Center  708 is at   1.106756 -1.568653 -1.866204
      ESP Fit Center  709 is at   1.938140 -2.172689 -1.866204
      ESP Fit Center  710 is at   2.965788 -2.172689 -1.866204
      ESP Fit Center  711 is at   3.797172 -1.568653 -1.866204
      ESP Fit Center  712 is at   3.411964 -0.591302 -2.568973
      ESP Fit Center  713 is at   2.931964  0.240082 -2.568973
      ESP Fit Center  714 is at   1.971964  0.240082 -2.568973
      ESP Fit Center  715 is at   1.491964 -0.591302 -2.568973
      ESP Fit Center  716 is at   1.971964 -1.422686 -2.568973
      ESP Fit Center  717 is at   2.931964 -1.422686 -2.568973
      ESP Fit Center  718 is at   2.451964 -0.591302 -2.826204
      ESP Fit Center  719 is at   1.958833  0.143259  2.494789
      ESP Fit Center  720 is at   4.179338  3.802087  0.007196
      ESP Fit Center  721 is at   3.154731  3.707143  0.007196
      ESP Fit Center  722 is at   2.233610  3.248479  0.007196
      ESP Fit Center  723 is at   4.179338 -1.774025  0.007196
      ESP Fit Center  724 is at   5.169054 -1.492426  0.007196
      ESP Fit Center  725 is at   5.990212 -0.872317  0.007196
      ESP Fit Center  726 is at   5.651936  2.936445 -1.064318
      ESP Fit Center  727 is at   4.720372  3.474284 -1.064318
      ESP Fit Center  728 is at   3.650586  3.586723 -1.064318
      ESP Fit Center  729 is at   2.627556  3.254320 -1.064318
      ESP Fit Center  730 is at   4.720372 -1.446222 -1.064318
      ESP Fit Center  731 is at   5.651936 -0.908383 -1.064318
      ESP Fit Center  732 is at   5.900886  1.014031 -1.972703
      ESP Fit Center  733 is at   5.635630  2.003980 -1.972703
      ESP Fit Center  734 is at   4.910936  2.728674 -1.972703
      ESP Fit Center  735 is at   3.920987  2.993930 -1.972703
      ESP Fit Center  736 is at   2.931038  2.728674 -1.972703
      ESP Fit Center  737 is at   4.910936 -0.700612 -1.972703
      ESP Fit Center  738 is at   5.635630  0.024082 -1.972703
      ESP Fit Center  739 is at   4.992501  1.014031 -2.579667
      ESP Fit Center  740 is at   4.456744  1.941989 -2.579667
      ESP Fit Center  741 is at   3.385230  1.941989 -2.579667
      ESP Fit Center  742 is at   2.849473  1.014031 -2.579667
      ESP Fit Center  743 is at   3.385230  0.086073 -2.579667
      ESP Fit Center  744 is at   4.456744  0.086073 -2.579667
      ESP Fit Center  745 is at   3.920987  1.014031 -2.792804
      ESP Fit Center  746 is at   4.041565  1.454874  4.169473
      ESP Fit Center  747 is at   3.520905  2.356684  3.931798
      ESP Fit Center  748 is at   3.000244  1.454874  3.931798
      ESP Fit Center  749 is at   2.241177  0.926232  3.265849
      ESP Fit Center  750 is at   3.212094  2.101539  3.953060
      ESP Fit Center  751 is at   2.732094  2.932923  3.695829
      ESP Fit Center  752 is at   2.252094  2.101539  3.695829
      ESP Fit Center  753 is at   2.698270  3.682926  2.993060
      ESP Fit Center  754 is at   1.866886  3.078890  2.993060
      ESP Fit Center  755 is at   1.549325  2.101539  2.993060
      ESP Fit Center  756 is at   1.866886  1.124188  2.993060
      ESP Fit Center  757 is at   3.212094  4.021539  2.033060
      ESP Fit Center  758 is at   2.252094  3.764308  2.033060
      ESP Fit Center  759 is at   1.549325  3.061539  2.033060
      ESP Fit Center  760 is at   2.698270  3.682926  1.073060
      ESP Fit Center  761 is at   3.968758  0.553350  4.283160
      ESP Fit Center  762 is at   3.008758  0.553350  4.025929
      ESP Fit Center  763 is at   3.488758 -0.278034  4.025929
      ESP Fit Center  764 is at   4.448758 -0.278034  4.025929
      ESP Fit Center  765 is at   2.305989  0.553350  3.323160
      ESP Fit Center  766 is at   6.796983  4.029762  2.625178
      ESP Fit Center  767 is at   5.858785  4.481575  2.625178
      ESP Fit Center  768 is at   4.817465  4.481575  2.625178
      ESP Fit Center  769 is at   3.879267  4.029762  2.625178
      ESP Fit Center  770 is at   5.242465  2.626689  5.002296
      ESP Fit Center  771 is at   6.202465  2.626689  4.745065
      ESP Fit Center  772 is at   5.722465  3.458073  4.745065
      ESP Fit Center  773 is at   4.762465  3.458073  4.745065
      ESP Fit Center  774 is at   4.282465  2.626689  4.745065
      ESP Fit Center  775 is at   4.762465  1.795305  4.745065
      ESP Fit Center  776 is at   5.722465  1.795305  4.745065
      ESP Fit Center  777 is at   6.587673  3.604040  4.042296
      ESP Fit Center  778 is at   5.756289  4.208076  4.042296
      ESP Fit Center  779 is at   4.728641  4.208076  4.042296
      ESP Fit Center  780 is at   3.897257  3.604040  4.042296
      ESP Fit Center  781 is at   3.579696  2.626689  4.042296
      ESP Fit Center  782 is at   6.202465  4.289458  3.082296
      ESP Fit Center  783 is at   5.242465  4.546689  3.082296
      ESP Fit Center  784 is at   4.282465  4.289458  3.082296
      ESP Fit Center  785 is at   6.000261  4.609802  2.369131
      ESP Fit Center  786 is at   4.972613  4.609802  2.369131
      ESP Fit Center  787 is at   5.486437  4.948415  1.409131
      ESP Fit Center  788 is at   4.526437  4.691184  1.409131
      ESP Fit Center  789 is at   3.823668  3.988415  1.409131
      ESP Fit Center  790 is at   6.000261  4.609802  0.449131
      ESP Fit Center  791 is at   4.972613  4.609802  0.449131
      ESP Fit Center  792 is at   4.141229  4.005766  0.449131
      ESP Fit Center  793 is at   5.006437  3.859799 -0.253638
      ESP Fit Center  794 is at   6.847253  1.179568  4.952655
      ESP Fit Center  795 is at   7.918767  1.179568  4.739518
      ESP Fit Center  796 is at   7.383010  2.107526  4.739518
      ESP Fit Center  797 is at   6.311496  2.107526  4.739518
      ESP Fit Center  798 is at   5.775739  1.179568  4.739518
      ESP Fit Center  799 is at   6.311496  0.251610  4.739518
      ESP Fit Center  800 is at   7.383010  0.251610  4.739518
      ESP Fit Center  801 is at   8.827152  1.179568  4.132554
      ESP Fit Center  802 is at   8.561896  2.169517  4.132554
      ESP Fit Center  803 is at   7.837202  2.894211  4.132554
      ESP Fit Center  804 is at   6.847253  3.159467  4.132554
      ESP Fit Center  805 is at   5.132610  0.189619  4.132554
      ESP Fit Center  806 is at   6.847253 -0.800331  4.132554
      ESP Fit Center  807 is at   7.837202 -0.535075  4.132554
      ESP Fit Center  808 is at   8.561896  0.189619  4.132554
      ESP Fit Center  809 is at   9.434116  1.179568  3.224169
      ESP Fit Center  810 is at   9.210470  2.231740  3.224169
      ESP Fit Center  811 is at   8.578202  3.101982  3.224169
      ESP Fit Center  812 is at   7.646638  3.639821  3.224169
      ESP Fit Center  813 is at   7.646638 -1.280685  3.224169
      ESP Fit Center  814 is at   8.578202 -0.742846  3.224169
      ESP Fit Center  815 is at   9.210470  0.127396  3.224169
      ESP Fit Center  816 is at   9.647253  1.179568  2.152655
      ESP Fit Center  817 is at   7.105604 -1.608488  2.152655
      ESP Fit Center  818 is at   8.095320 -1.326889  2.152655
      ESP Fit Center  819 is at   8.916478 -0.706780  2.152655
      ESP Fit Center  820 is at   9.458175  0.168091  2.152655
      ESP Fit Center  821 is at   7.646638 -1.280685  1.081141
      ESP Fit Center  822 is at   7.080322 -0.878041 -0.025439
      ESP Fit Center  823 is at   7.333943 -0.454175 -0.987765
      ESP Fit Center  824 is at   6.341124 -0.313694 -1.220205
      ESP Fit Center  825 is at   7.368772 -0.313694 -1.220205
      ESP Fit Center  826 is at   6.374948  2.099077 -1.922974
      ESP Fit Center  827 is at   6.374948  0.436309 -1.922974
      ESP Fit Center  828 is at   7.334948  0.436309 -1.922974
      ESP Fit Center  829 is at   6.854948  1.267693 -2.180205
      ESP Fit Center  830 is at   9.965633  0.583300  1.382657
      ESP Fit Center  831 is at   8.816688 -0.998087  1.382657
      ESP Fit Center  832 is at   9.648072 -0.394051  1.382657
      ESP Fit Center  833 is at   7.342864 -1.079469  0.422657
      ESP Fit Center  834 is at   8.302864 -1.336700  0.422657
      ESP Fit Center  835 is at   9.262864 -1.079469  0.422657
      ESP Fit Center  836 is at   7.789040 -0.998087 -0.537343
      ESP Fit Center  837 is at   8.816688 -0.998087 -0.537343
      ESP Fit Center  838 is at   7.822864 -0.248084 -1.240112
      ESP Fit Center  839 is at   8.782864 -0.248084 -1.240112
      ESP Fit Center  840 is at   8.840380  5.022152  0.882358
      ESP Fit Center  841 is at   8.096428  4.391750  2.090598
      ESP Fit Center  842 is at   7.136428  4.391750  2.090598
      ESP Fit Center  843 is at   8.130252  5.141753  1.387829
      ESP Fit Center  844 is at   7.102604  5.141753  1.387829
      ESP Fit Center  845 is at   8.576428  5.223135  0.427829
      ESP Fit Center  846 is at   7.616428  5.480366  0.427829
      ESP Fit Center  847 is at   6.656428  5.223135  0.427829
      ESP Fit Center  848 is at   7.102604  5.141753 -0.532171
      ESP Fit Center  849 is at   6.271220  4.537717 -0.532171
      ESP Fit Center  850 is at   5.953659  3.560366 -0.532171
      ESP Fit Center  851 is at   9.051320  2.877060  3.053116
      ESP Fit Center  852 is at  10.011320  2.877060  2.795885
      ESP Fit Center  853 is at   9.531320  3.708444  2.795885
      ESP Fit Center  854 is at   8.571320  3.708444  2.795885
      ESP Fit Center  855 is at   9.531320  2.045676  2.795885
      ESP Fit Center  856 is at  10.396528  3.854411  2.093116
      ESP Fit Center  857 is at   9.565144  4.458447  2.093116
      ESP Fit Center  858 is at   8.537496  4.458447  2.093116
      ESP Fit Center  859 is at  10.011320  4.539829  1.133116
      ESP Fit Center  860 is at  10.090875  4.677970  0.699432
      ESP Fit Center  861 is at   9.900311  5.423580 -0.208953
      ESP Fit Center  862 is at   8.830525  5.536019 -0.208953
      ESP Fit Center  863 is at  10.348993  5.469784 -1.280467
      ESP Fit Center  864 is at   9.359277  5.751383 -1.280467
      ESP Fit Center  865 is at   8.334670  5.656439 -1.280467
      ESP Fit Center  866 is at   7.413549  5.197775 -1.280467
      ESP Fit Center  867 is at   6.720318  4.437337 -1.280467
      ESP Fit Center  868 is at   6.348601  3.477826 -1.280467
      ESP Fit Center  869 is at  11.464143  4.015499 -2.351981
      ESP Fit Center  870 is at  10.831875  4.885741 -2.351981
      ESP Fit Center  871 is at   9.900311  5.423580 -2.351981
      ESP Fit Center  872 is at   8.830525  5.536019 -2.351981
      ESP Fit Center  873 is at   7.807495  5.203616 -2.351981
      ESP Fit Center  874 is at   7.008110  4.483847 -2.351981
      ESP Fit Center  875 is at   6.570592  3.501166 -2.351981
      ESP Fit Center  876 is at   6.570592  2.425488 -2.351981
      ESP Fit Center  877 is at   7.008110  1.442807 -2.351981
      ESP Fit Center  878 is at   7.807495  0.723038 -2.351981
      ESP Fit Center  879 is at   8.830525  0.390635 -2.351981
      ESP Fit Center  880 is at  10.815569  3.953276 -3.260366
      ESP Fit Center  881 is at  10.090875  4.677970 -3.260366
      ESP Fit Center  882 is at   9.100926  4.943226 -3.260366
      ESP Fit Center  883 is at   8.110977  4.677970 -3.260366
      ESP Fit Center  884 is at   7.386283  3.953276 -3.260366
      ESP Fit Center  885 is at   7.121027  2.963327 -3.260366
      ESP Fit Center  886 is at   7.386283  1.973378 -3.260366
      ESP Fit Center  887 is at   8.110977  1.248684 -3.260366
      ESP Fit Center  888 is at   9.100926  0.983428 -3.260366
      ESP Fit Center  889 is at  10.172440  2.963327 -3.867330
      ESP Fit Center  890 is at   9.636683  3.891285 -3.867330
      ESP Fit Center  891 is at   8.565169  3.891285 -3.867330
      ESP Fit Center  892 is at   8.029412  2.963327 -3.867330
      ESP Fit Center  893 is at   8.565169  2.035369 -3.867330
      ESP Fit Center  894 is at   9.636683  2.035369 -3.867330
      ESP Fit Center  895 is at   9.100926  2.963327 -4.080467
      ESP Fit Center  896 is at  12.038968  0.078230 -1.707238
      ESP Fit Center  897 is at   9.351332  0.489495 -2.669564
      ESP Fit Center  898 is at  10.313071  0.050283 -2.669564
      ESP Fit Center  899 is at  10.291029  0.906123  1.041494
      ESP Fit Center  900 is at  10.771029  0.074739  0.784263
      ESP Fit Center  901 is at   9.777205 -0.675264  0.081494
      ESP Fit Center  902 is at  10.804853 -0.675264  0.081494
      ESP Fit Center  903 is at  11.636237 -0.071228  0.081494
      ESP Fit Center  904 is at   9.331029 -0.756646 -0.878506
      ESP Fit Center  905 is at  10.291029 -1.013877 -0.878506
      ESP Fit Center  906 is at  11.251029 -0.756646 -0.878506
      ESP Fit Center  907 is at  11.953798 -0.053877 -0.878506
      ESP Fit Center  908 is at   8.945821 -0.071228 -1.838506
      ESP Fit Center  909 is at   9.777205 -0.675264 -1.838506
      ESP Fit Center  910 is at  10.804853 -0.675264 -1.838506
      ESP Fit Center  911 is at   9.811029  0.074739 -2.541275
      ESP Fit Center  912 is at  11.894029  0.177253 -2.195101
      ESP Fit Center  913 is at  12.596798  0.880022 -2.195101
      ESP Fit Center  914 is at  12.596798  1.840022 -3.155101
      ESP Fit Center  915 is at  12.279237  2.817373 -3.155101
      ESP Fit Center  916 is at  11.447853  3.421409 -3.155101
      ESP Fit Center  917 is at   9.588821  0.862671 -3.155101
      ESP Fit Center  918 is at  10.420205  0.258635 -3.155101
      ESP Fit Center  919 is at  11.447853  0.258635 -3.155101
      ESP Fit Center  920 is at  12.279237  0.862671 -3.155101
      ESP Fit Center  921 is at  11.894029  1.840022 -3.857870
      ESP Fit Center  922 is at  11.414029  2.671406 -3.857870
      ESP Fit Center  923 is at  10.454029  2.671406 -3.857870
      ESP Fit Center  924 is at   9.974029  1.840022 -3.857870
      ESP Fit Center  925 is at  10.454029  1.008638 -3.857870
      ESP Fit Center  926 is at  11.414029  1.008638 -3.857870
      ESP Fit Center  927 is at  10.934029  1.840022 -4.115101
      ESP Fit Center  928 is at  13.565182  2.441910  1.225153
      ESP Fit Center  929 is at  13.267310  3.456366  1.225153
      ESP Fit Center  930 is at  12.468269  4.148739  1.225153
      ESP Fit Center  931 is at  11.421747  0.584613  1.225153
      ESP Fit Center  932 is at  13.796897  3.457123  0.262827
      ESP Fit Center  933 is at  11.369900  2.510714  2.682866
      ESP Fit Center  934 is at  12.329900  2.510714  2.425635
      ESP Fit Center  935 is at  11.849900  3.342098  2.425635
      ESP Fit Center  936 is at  10.889900  3.342098  2.425635
      ESP Fit Center  937 is at  10.889900  1.679330  2.425635
      ESP Fit Center  938 is at  11.849900  1.679330  2.425635
      ESP Fit Center  939 is at  13.032669  2.510714  1.722866
      ESP Fit Center  940 is at  12.715108  3.488065  1.722866
      ESP Fit Center  941 is at  11.883724  4.092101  1.722866
      ESP Fit Center  942 is at  10.856076  4.092101  1.722866
      ESP Fit Center  943 is at  10.856076  0.929327  1.722866
      ESP Fit Center  944 is at  11.883724  0.929327  1.722866
      ESP Fit Center  945 is at  12.715108  1.533363  1.722866
      ESP Fit Center  946 is at  13.507863  1.777641  1.356675
      ESP Fit Center  947 is at  13.027863  0.946257  1.356675
      ESP Fit Center  948 is at  14.210632  1.777641  0.653906
      ESP Fit Center  949 is at  13.893071  2.754992  0.653906
      ESP Fit Center  950 is at  12.034039  0.196254  0.653906
      ESP Fit Center  951 is at  13.061687  0.196254  0.653906
      ESP Fit Center  952 is at  13.893071  0.800290  0.653906
      ESP Fit Center  953 is at  14.467863  1.777641 -0.306094
      ESP Fit Center  954 is at  14.210632  2.737641 -0.306094
      ESP Fit Center  955 is at  12.547863 -0.142359 -0.306094
      ESP Fit Center  956 is at  13.507863  0.114872 -0.306094
      ESP Fit Center  957 is at  14.210632  0.817641 -0.306094
      ESP Fit Center  958 is at  14.210632  1.777641 -1.266094
      ESP Fit Center  959 is at  13.893071  2.754992 -1.266094
      ESP Fit Center  960 is at  13.061687  0.196254 -1.266094
      ESP Fit Center  961 is at  13.893071  0.800290 -1.266094
      ESP Fit Center  962 is at  13.507863  1.777641 -1.968863
      ESP Fit Center  963 is at  13.027863  0.946257 -1.968863
      ESP Fit Center  964 is at  13.351064  4.404964  0.368950
      ESP Fit Center  965 is at  12.519680  5.009000  0.368950
      ESP Fit Center  966 is at  11.492032  5.009000  0.368950
      ESP Fit Center  967 is at  13.925856  3.427613 -0.591050
      ESP Fit Center  968 is at  13.668625  4.387613 -0.591050
      ESP Fit Center  969 is at  12.965856  5.090382 -0.591050
      ESP Fit Center  970 is at  12.005856  5.347613 -0.591050
      ESP Fit Center  971 is at  11.045856  5.090382 -0.591050
      ESP Fit Center  972 is at  13.668625  3.427613 -1.551050
      ESP Fit Center  973 is at  13.351064  4.404964 -1.551050
      ESP Fit Center  974 is at  12.519680  5.009000 -1.551050
      ESP Fit Center  975 is at  11.492032  5.009000 -1.551050
      ESP Fit Center  976 is at  12.965856  3.427613 -2.253819
      ESP Fit Center  977 is at  12.485856  4.258997 -2.253819
      ESP Fit Center  978 is at  11.525856  4.258997 -2.253819
      ESP Fit Center  979 is at  12.005856  3.427613 -2.511050
      ESP Fit Center  980 is at   5.338949 -3.035513  6.479828
      ESP Fit Center  981 is at   6.372194 -3.035513  6.274303
      ESP Fit Center  982 is at   4.305704 -3.035513  6.274303
      ESP Fit Center  983 is at   5.855572 -3.930330  6.274303
      ESP Fit Center  984 is at   7.248137 -3.035513  5.689016
      ESP Fit Center  985 is at   6.945060 -4.067698  5.689016
      ESP Fit Center  986 is at   7.586393 -1.953201  4.813073
      ESP Fit Center  987 is at   6.372194 -5.529988  3.779828
      ESP Fit Center  988 is at   5.894022 -5.467446  2.746583
      ESP Fit Center  989 is at   4.878804 -3.836789  6.509205
      ESP Fit Center  990 is at   3.798804 -3.836789  6.219820
      ESP Fit Center  991 is at   4.338804 -4.772096  6.219820
      ESP Fit Center  992 is at   5.418804 -4.772096  6.219820
      ESP Fit Center  993 is at   3.653812 -5.250505  5.429205
      ESP Fit Center  994 is at   4.612588 -5.688364  5.429205
      ESP Fit Center  995 is at   5.655886 -5.538360  5.429205
      ESP Fit Center  996 is at   4.112857 -5.856424  4.349205
      ESP Fit Center  997 is at   5.139163 -5.981040  4.349205
      ESP Fit Center  998 is at   6.105824 -5.614434  4.349205
      ESP Fit Center  999 is at   4.612588 -5.688364  3.269205
      ESP Fit Center 1000 is at   8.217120 -3.348512  4.603813
      ESP Fit Center 1001 is at   7.920166 -2.337181  4.603813
      ESP Fit Center 1002 is at   7.123587 -5.050083  4.603813
      ESP Fit Center 1003 is at   7.920166 -4.359843  4.603813
      ESP Fit Center 1004 is at   8.506505 -3.348512  3.523813
      ESP Fit Center 1005 is at   8.259090 -2.344710  3.523813
      ESP Fit Center 1006 is at   6.606864 -5.492763  3.523813
      ESP Fit Center 1007 is at   7.573525 -5.126157  3.523813
      ESP Fit Center 1008 is at   8.259090 -4.352314  3.523813
      ESP Fit Center 1009 is at   8.217120 -3.348512  2.443813
      ESP Fit Center 1010 is at   7.920166 -2.337181  2.443813
      ESP Fit Center 1011 is at   7.123587 -5.050083  2.443813
      ESP Fit Center 1012 is at   7.920166 -4.359843  2.443813
      ESP Fit Center 1013 is at   7.426505 -3.348512  1.653198
      ESP Fit Center 1014 is at   6.886505 -4.283819  1.653198
      ESP Fit Center 1015 is at   5.407278 -2.159230  6.575342
      ESP Fit Center 1016 is at   6.487278 -2.159230  6.285957
      ESP Fit Center 1017 is at   5.947278 -1.223923  6.285957
      ESP Fit Center 1018 is at   4.867278 -1.223923  6.285957
      ESP Fit Center 1019 is at   4.327278 -2.159230  6.285957
      ESP Fit Center 1020 is at   7.277893 -2.159230  5.495342
      ESP Fit Center 1021 is at   6.980939 -1.147899  5.495342
      ESP Fit Center 1022 is at   6.184360 -0.457659  5.495342
      ESP Fit Center 1023 is at   5.141062 -0.307655  5.495342
      ESP Fit Center 1024 is at   4.182286 -0.745514  5.495342
      ESP Fit Center 1025 is at   3.612436 -1.632217  5.495342
      ESP Fit Center 1026 is at   7.319863 -1.155428  4.415342
      ESP Fit Center 1027 is at   4.641331 -0.139595  4.415342
      ESP Fit Center 1028 is at   7.054223 -2.710175  1.479695
      ESP Fit Center 1029 is at   3.526503 -2.710175  0.018465
      ESP Fit Center 1030 is at   4.559748 -2.710175 -0.187060
      ESP Fit Center 1031 is at   7.240945 -1.950599  1.947471
      ESP Fit Center 1032 is at   6.951560 -1.950599  0.867471
      ESP Fit Center 1033 is at   6.160945 -1.950599  0.076856
      ESP Fit Center 1034 is at   5.080945 -1.950599 -0.212529
      ESP Fit Center 1035 is at   4.205774 -5.444011  2.962038
      ESP Fit Center 1036 is at   3.706043 -5.612071  1.882038
      ESP Fit Center 1037 is at   4.732349 -5.736687  1.882038
      ESP Fit Center 1038 is at   5.699010 -5.370081  1.882038
      ESP Fit Center 1039 is at   3.246998 -5.006152  0.802038
      ESP Fit Center 1040 is at   4.205774 -5.444011  0.802038
      ESP Fit Center 1041 is at   5.249072 -5.294007  0.802038
      ESP Fit Center 1042 is at   6.045651 -4.603767  0.802038
      ESP Fit Center 1043 is at   5.551990 -3.592436  0.011423
      ESP Fit Center 1044 is at   3.391990 -3.592436  0.011423
      ESP Fit Center 1045 is at   3.931990 -4.527743  0.011423
      ESP Fit Center 1046 is at   5.011990 -4.527743  0.011423
      ESP Fit Center 1047 is at   4.471990 -3.592436 -0.277962
      ESP Fit Center 1048 is at   4.100541 -0.392287  4.339172
[...]
 1174 Fit      -0.000015
 1175 Fit      -0.002947
 1176 Fit      -0.016261
 1177 Fit       0.014496
 1178 Fit       0.010360
 1179 Fit       0.009489
 1180 Fit       0.004013
 1181 Fit       0.004188
 1182 Fit       0.003297
 1183 Fit      -0.004963
 1184 Fit      -0.002392
 1185 Fit      -0.004968
 1186 Fit      -0.009177
 1187 Fit      -0.004156
 1188 Fit      -0.004910
 1189 Fit      -0.011611
 1190 Fit      -0.007762
 1191 Fit      -0.006785
 1192 Fit      -0.005265
 1193 Fit      -0.009902
 1194 Fit      -0.012208
 1195 Fit      -0.006097
 1196 Fit      -0.006552
 1197 Fit      -0.018161
 1198 Fit      -0.022523
 1199 Fit      -0.015338
 1200 Fit      -0.012611
 1201 Fit      -0.014915
 1202 Fit      -0.009855
 1203 Fit      -0.007767
 1204 Fit      -0.009857
 1205 Fit      -0.006959
 1206 Fit      -0.005444
 1207 Fit      -0.009074
 1208 Fit      -0.007212
 1209 Fit      -0.005519
 1210 Fit      -0.005318
 1211 Fit      -0.002669
 1212 Fit      -0.002430
 1213 Fit      -0.008976
 1214 Fit      -0.013604
 1215 Fit      -0.012356
 1216 Fit      -0.016542
 1217 Fit      -0.019253
 1218 Fit      -0.019327
 1219 Fit      -0.014617
 1220 Fit      -0.016870
 1221 Fit      -0.019598
 1222 Fit      -0.018725
 1223 Fit      -0.016970
 1224 Fit      -0.019485
 1225 Fit      -0.020608
 1226 Fit      -0.022025
 1227 Fit      -0.021798
 1228 Fit      -0.021583
 1229 Fit      -0.018035
 1230 Fit      -0.015771
 1231 Fit      -0.019026
 1232 Fit      -0.019033
 1233 Fit      -0.020141
 1234 Fit      -0.016642
 1235 Fit      -0.009836
 1236 Fit      -0.008301
 1237 Fit      -0.014210
 1238 Fit      -0.014740
 1239 Fit       0.009611
 1240 Fit       0.008757
 1241 Fit       0.008509
 1242 Fit       0.012837
 1243 Fit       0.012168
 1244 Fit       0.012254
 1245 Fit       0.012554
 1246 Fit       0.014558
 1247 Fit       0.016051
 1248 Fit       0.009842
 1249 Fit       0.009208
 1250 Fit       0.011410
 1251 Fit       0.001571
 1252 Fit       0.004166
 1253 Fit       0.003023
 1254 Fit       0.003220
 1255 Fit       0.007775
 1256 Fit       0.000805
 1257 Fit       0.006467
 1258 Fit       0.010260
 1259 Fit       0.011121
 1260 Fit       0.008273
 1261 Fit      -0.001662
 1262 Fit       0.005784
 1263 Fit       0.009249
 1264 Fit       0.011629
 1265 Fit       0.013569
 1266 Fit       0.007792
 1267 Fit       0.009734
 1268 Fit       0.012741
 1269 Fit       0.007060
 1270 Fit       0.008486
 1271 Fit       0.008886
 1272 Fit       0.007427
 1273 Fit       0.006946
 1274 Fit       0.005979
 1275 Fit       0.000822
 1276 Fit      -0.004023
 1277 Fit      -0.007897
 1278 Fit      -0.013918
 1279 Fit      -0.010571
 1280 Fit      -0.001051
 1281 Fit       0.000171
 1282 Fit      -0.006106
 1283 Fit      -0.011752
 1284 Fit      -0.015234
 1285 Fit      -0.015792
 1286 Fit      -0.012528
 1287 Fit      -0.003425
 1288 Fit      -0.000696
 1289 Fit      -0.012975
 1290 Fit      -0.013834
 1291 Fit      -0.010586
 1292 Fit      -0.012016
 1293 Fit      -0.012580
 1294 Fit      -0.009549
 1295 Fit      -0.011708
 1296 Fit      -0.010109
 1297 Fit      -0.009592
 1298 Fit      -0.000351
 1299 Fit      -0.000799
 1300 Fit      -0.006634
 1301 Fit      -0.003032
 1302 Fit      -0.000989
 1303 Fit      -0.006705
 1304 Fit      -0.001367
 1305 Fit      -0.010465
 1306 Fit      -0.009438
 1307 Fit      -0.014752
 1308 Fit      -0.017693
 1309 Fit      -0.015382
 1310 Fit       0.011367
 1311 Fit       0.004627
 1312 Fit       0.008819
 1313 Fit      -0.004261
 1314 Fit       0.003879
 1315 Fit       0.009539
 1316 Fit      -0.000190
 1317 Fit       0.007324
 1318 Fit       0.000826
 1319 Fit      -0.001598
 1320 Fit       0.004666
 1321 Fit       0.000460
 1322 Fit       0.004701
 1323 Fit      -0.000992
 1324 Fit       0.004435
 1325 Fit       0.009206
 1326 Fit       0.001374
 1327 Fit       0.001741
 1328 Fit       0.001774
 1329 Fit      -0.000155
 1330 Fit      -0.006232
 1331 Fit       0.001104
 1332 Fit       0.000123
 1333 Fit      -0.003777
 1334 Fit      -0.013394
 1335 Fit      -0.010815
 1336 Fit      -0.017506
 1337 Fit      -0.018843
 1338 Fit      -0.014385
 1339 Fit      -0.006636
 1340 Fit      -0.018863
 1341 Fit      -0.021361
 1342 Fit      -0.018854
 1343 Fit      -0.014063
 1344 Fit      -0.010556
 1345 Fit      -0.011443
 1346 Fit      -0.016469
 1347 Fit      -0.004656
 1348 Fit      -0.002846
 1349 Fit      -0.012552
 1350 Fit      -0.019092
 1351 Fit      -0.020920
 1352 Fit      -0.019490
 1353 Fit      -0.017960
 1354 Fit      -0.019085
 1355 Fit      -0.022667
 1356 Fit      -0.024824
 1357 Fit      -0.023009
 1358 Fit      -0.017131
 1359 Fit      -0.008160
 1360 Fit      -0.006926
 1361 Fit      -0.014952
 1362 Fit      -0.019267
 1363 Fit      -0.020592
 1364 Fit      -0.021955
 1365 Fit      -0.024372
 1366 Fit      -0.024932
 1367 Fit      -0.020667
 1368 Fit      -0.011774
 1369 Fit      -0.006296
 1370 Fit      -0.013757
 1371 Fit      -0.019273
 1372 Fit      -0.021671
 1373 Fit      -0.018233
 1374 Fit      -0.008494
 1375 Fit      -0.015099
 1376 Fit       0.006752
 1377 Fit       0.010471
 1378 Fit       0.011659
 1379 Fit       0.009584
 1380 Fit       0.007921
 1381 Fit       0.007998
 1382 Fit       0.007969
 1383 Fit      -0.000064
 1384 Fit       0.004069
 1385 Fit       0.005571
 1386 Fit       0.006319
 1387 Fit       0.004550
 1388 Fit       0.000715
 1389 Fit      -0.003882
 1390 Fit       0.002271
 1391 Fit       0.005206
 1392 Fit       0.006580
 1393 Fit       0.005089
 1394 Fit       0.002293
 1395 Fit       0.000130
 1396 Fit       0.004390
 1397 Fit       0.001838
 1398 Fit       0.001584
 1399 Fit       0.000680
 1400 Fit       0.000099
 1401 Fit       0.003916
 1402 Fit       0.000559
 1403 Fit      -0.005798
 1404 Fit       0.000977
 1405 Fit       0.003584
 1406 Fit       0.004303
 1407 Fit       0.003156
 1408 Fit       0.003094
 1409 Fit       0.004862
 1410 Fit       0.004778
 1411 Fit       0.004006
 1412 Fit       0.000520
 1413 Fit       0.000994
 1414 Fit       0.009582
 1415 Fit       0.006632
 1416 Fit       0.004134
 1417 Fit       0.002532
 1418 Fit       0.003698
 1419 Fit       0.003563
 1420 Fit       0.006487
 1421 Fit       0.005757
 1422 Fit       0.005102
 1423 Fit       0.004257
 1424 Fit       0.002013
 1425 Fit       0.007477
 1426 Fit       0.006854
 1427 Fit       0.005963
 1428 Fit       0.004437
 1429 Fit       0.007341
 1430 Fit       0.006296
 1431 Fit       0.005158
 1432 Fit       0.007475
 1433 Fit       0.000507
 1434 Fit      -0.000595
 1435 Fit      -0.004068
 1436 Fit       0.001273
 1437 Fit       0.000489
 1438 Fit      -0.002790
 1439 Fit      -0.011086
 1440 Fit       0.001669
 1441 Fit       0.001348
 1442 Fit      -0.000703
 1443 Fit      -0.007259
 1444 Fit       0.002443
 1445 Fit      -0.000366
 1446 Fit       0.002019
 1447 Fit       0.000475
 1448 Fit       0.004192
 1449 Fit       0.002121
 1450 Fit      -0.000644
 1451 Fit       0.000823
 1452 Fit      -0.003680
 1453 Fit       0.001979
 1454 Fit       0.003206
 1455 Fit       0.004990
 1456 Fit       0.005065
 1457 Fit       0.004133
 1458 Fit       0.007429
 1459 Fit       0.006858
 1460 Fit       0.004292
 1461 Fit       0.009671
 1462 Fit       0.007081
 1463 Fit       0.004636
 1464 Fit       0.010588
 1465 Fit       0.007799
 1466 Fit       0.005458
 1467 Fit       0.003400
 1468 Fit       0.007731
 1469 Fit       0.005345
 1470 Fit       0.000161
 1471 Fit       0.001717
 1472 Fit       0.001171
 1473 Fit      -0.002560
 1474 Fit       0.003278
 1475 Fit       0.003233
 1476 Fit       0.002796
 1477 Fit       0.002058
 1478 Fit      -0.001867
 1479 Fit       0.004070
 1480 Fit       0.003991
 1481 Fit       0.003589
 1482 Fit       0.002384
 1483 Fit      -0.001873
 1484 Fit       0.004440
 1485 Fit       0.003869
 1486 Fit       0.002261
 1487 Fit       0.004271
 1488 Fit       0.001750
 1489 Fit       0.000137
 1490 Fit       0.000800
 1491 Fit       0.002187
 1492 Fit       0.003012
 1493 Fit      -0.001875
 1494 Fit      -0.002643
 1495 Fit      -0.001420
 1496 Fit       0.001056
 1497 Fit       0.001503
 1498 Fit       0.002316
 1499 Fit      -0.007588
 1500 Fit       0.000251
 1501 Fit      -0.002432
 1502 Fit      -0.000865
 1503 Fit       0.002556
 1504 Fit      -0.008064
 1505 Fit      -0.011129
 1506 Fit      -0.006587
 1507 Fit      -0.011849
 1508 Fit       0.007832
 1509 Fit       0.006319
 1510 Fit       0.004782
 1511 Fit       0.004695
 1512 Fit       0.004519
 1513 Fit       0.004555
 1514 Fit      -0.001821
 1515 Fit       0.001557
 1516 Fit       0.002317
 1517 Fit       0.001858
 1518 Fit      -0.003456
 1519 Fit      -0.010784
 1520 Fit      -0.003623
 1521 Fit      -0.001238
 1522 Fit      -0.006390
 1523 Fit      -0.002997
 1524 Fit       0.001039
 1525 Fit       0.012891
 1526 Fit       0.011412
 1527 Fit       0.010044
 1528 Fit       0.007844
 1529 Fit       0.007311
 1530 Fit       0.010552
 1531 Fit       0.012473
 1532 Fit       0.011560
 1533 Fit       0.010195
 1534 Fit       0.002692
 1535 Fit       0.008039
 1536 Fit       0.013001
 1537 Fit       0.011407
 1538 Fit       0.011033
 1539 Fit       0.011559
 1540 Fit       0.011048
 1541 Fit       0.008208
 1542 Fit       0.007986
 1543 Fit       0.008269
 1544 Fit       0.009136
 1545 Fit       0.002642
 1546 Fit       0.004677
 1547 Fit       0.005923
 1548 Fit      -0.004885
 1549 Fit       0.000475
 1550 Fit       0.002991
 1551 Fit      -0.009916
 1552 Fit      -0.003652
 1553 Fit       0.013845
 1554 Fit       0.011688
 1555 Fit       0.013336
 1556 Fit       0.016656
 1557 Fit       0.003706
 1558 Fit       0.014192
 1559 Fit       0.013323
 1560 Fit       0.013296
 1561 Fit       0.013979
 1562 Fit       0.012808
 1563 Fit       0.012150
 1564 Fit       0.012659
 1565 Fit       0.011811
 1566 Fit       0.010472
 1567 Fit       0.010508
 1568 Fit       0.007487
 1569 Fit       0.006780
 1570 Fit       0.012543
 1571 Fit       0.009899
 1572 Fit       0.012475
 1573 Fit       0.002077
 1574 Fit       0.008829
 1575 Fit       0.012789
 1576 Fit       0.014496
 1577 Fit       0.015098
 1578 Fit       0.012064
 1579 Fit      -0.004089
 1580 Fit      -0.011841
 1581 Fit      -0.016573
 1582 Fit      -0.019615
 1583 Fit      -0.021917
 1584 Fit      -0.021331
 1585 Fit       0.002577
 1586 Fit       0.007538
 1587 Fit       0.005899
 1588 Fit       0.003431
 1589 Fit      -0.000955
 1590 Fit       0.003741
 1591 Fit       0.015924
 1592 Fit       0.014255
 1593 Fit       0.015266
 1594 Fit       0.013242
 1595 Fit       0.012124
 1596 Fit       0.011834
 1597 Fit       0.013036
 1598 Fit       0.011149
 1599 Fit       0.009900
 1600 Fit       0.008889
 1601 Fit       0.008023
 1602 Fit       0.009773
 1603 Fit       0.008075
 1604 Fit       0.006338
 1605 Fit       0.004592
 1606 Fit       0.003810
 1607 Fit       0.001990
 1608 Fit      -0.001575
 1609 Fit      -0.008529
 1610 Fit      -0.001805
 1611 Fit       0.000575
 1612 Fit      -0.000146
 1613 Fit      -0.003435
 1614 Fit      -0.009785
 1615 Fit      -0.018489
 1616 Fit      -0.019649
 1617 Fit      -0.005870
 1618 Fit      -0.004750
 1619 Fit      -0.010016
 1620 Fit      -0.012772
 1621 Fit       0.017018
 1622 Fit       0.012632
 1623 Fit       0.014210
 1624 Fit       0.009529
 1625 Fit       0.006143
 1626 Fit       0.000292
 1627 Fit      -0.009545
 1628 Fit       0.014703
 1629 Fit       0.014426
 1630 Fit       0.016507
 1631 Fit       0.013442
 1632 Fit       0.014471
 1633 Fit       0.012828
 1634 Fit       0.012387
 1635 Fit       0.010876
 1636 Fit       0.014204
 1637 Fit       0.009391
 1638 Fit       0.010546
 1639 Fit       0.012844
 1640 Fit       0.005762
 1641 Fit       0.006256
 1642 Fit       0.007397
 1643 Fit       0.008816
 1644 Fit       0.010929
 1645 Fit       0.000574
 1646 Fit       0.002203
 1647 Fit       0.003853
 1648 Fit       0.005333
 1649 Fit       0.007069
 1650 Fit      -0.003985
 1651 Fit      -0.001084
 1652 Fit       0.000698
 1653 Fit      -0.010489
 1654 Fit      -0.005699
 1655 Fit      -0.011161
 1656 Fit      -0.013557
 1657 Fit      -0.012839
 1658 Fit      -0.010501
 1659 Fit      -0.018374
 1660 Fit      -0.018954
 1661 Fit      -0.018269
 1662 Fit      -0.018597
 1663 Fit      -0.020575
 1664 Fit      -0.020880
 1665 Fit      -0.021294
 1666 Fit      -0.017762
 1667 Fit      -0.017837
 1668 Fit       0.001116
 1669 Fit      -0.003156
 1670 Fit      -0.008363
 1671 Fit      -0.013877
 1672 Fit       0.013904
 1673 Fit       0.010740
 1674 Fit       0.010015
 1675 Fit       0.006841
 1676 Fit       0.005913
 1677 Fit       0.005455
 1678 Fit      -0.000932
 1679 Fit       0.001152
 1680 Fit      -0.007221
 1681 Fit      -0.003627
 1682 Fit      -0.004239
 1683 Fit      -0.009189
 1684 Fit      -0.008965
 1685 Fit      -0.005055
 1686 Fit      -0.005510
 1687 Fit      -0.010349
 1688 Fit      -0.008156
 1689 Fit      -0.007301
 1690 Fit      -0.006081
 1691 Fit      -0.009361
 1692 Fit      -0.011017
 1693 Fit      -0.007082
 1694 Fit      -0.007174
 1695 Fit      -0.013600
 1696 Fit      -0.020104
 1697 Fit      -0.014995
 1698 Fit      -0.011051
 1699 Fit      -0.010550
 1700 Fit      -0.012620
 1701 Fit      -0.008890
 1702 Fit      -0.007454
 1703 Fit      -0.009115
 1704 Fit      -0.006576
 1705 Fit      -0.008853
 1706 Fit      -0.007494
 1707 Fit      -0.006297
 1708 Fit      -0.006317
 1709 Fit      -0.002629
 1710 Fit      -0.005920
 1711 Fit      -0.005207
 1712 Fit      -0.009600
 1713 Fit      -0.012363
 1714 Fit      -0.011968
 1715 Fit      -0.013488
 1716 Fit      -0.015155
 1717 Fit      -0.014332
 1718 Fit      -0.016370
 1719 Fit      -0.016673
 1720 Fit      -0.015163
 1721 Fit      -0.013495
 1722 Fit      -0.015587
 1723 Fit      -0.019447
 1724 Fit      -0.020878
 1725 Fit      -0.019301
 1726 Fit      -0.017823
 1727 Fit      -0.014748
 1728 Fit      -0.008789
 1729 Fit      -0.013391
 1730 Fit      -0.016460
 1731 Fit      -0.016769
 1732 Fit      -0.017331
 1733 Fit      -0.014297
 1734 Fit      -0.009837
 1735 Fit      -0.008958
 1736 Fit      -0.012906
 1737 Fit      -0.013365
 1738 Fit       0.008119
 1739 Fit       0.008202
 1740 Fit       0.011661
 1741 Fit       0.011077
 1742 Fit       0.011443
 1743 Fit       0.011409
 1744 Fit       0.012897
 1745 Fit       0.014097
 1746 Fit       0.009296
 1747 Fit       0.010087
 1748 Fit       0.005452
 1749 Fit       0.006851
 1750 Fit       0.002878
 1751 Fit       0.003514
 1752 Fit       0.004781
 1753 Fit       0.006818
 1754 Fit       0.007772
 1755 Fit       0.009425
 1756 Fit       0.006472
 1757 Fit       0.006210
 1758 Fit       0.005185
 1759 Fit       0.008445
 1760 Fit       0.009216
 1761 Fit       0.006713
 1762 Fit       0.004762
 1763 Fit       0.007887
 1764 Fit       0.009996
 1765 Fit       0.011461
 1766 Fit       0.001881
 1767 Fit       0.005937
 1768 Fit       0.008078
 1769 Fit       0.010165
 1770 Fit       0.007007
 1771 Fit       0.006885
 1772 Fit       0.007702
 1773 Fit       0.005294
 1774 Fit       0.003466
 1775 Fit       0.002572
 1776 Fit      -0.005722
 1777 Fit      -0.010060
 1778 Fit      -0.007431
 1779 Fit      -0.000915
 1780 Fit       0.000012
 1781 Fit      -0.004231
 1782 Fit      -0.008526
 1783 Fit      -0.011464
 1784 Fit      -0.011413
 1785 Fit      -0.008723
 1786 Fit      -0.002249
 1787 Fit       0.005253
 1788 Fit       0.000026
 1789 Fit      -0.009644
 1790 Fit      -0.010635
 1791 Fit      -0.009081
 1792 Fit      -0.009803
 1793 Fit      -0.009688
 1794 Fit      -0.006948
 1795 Fit      -0.000404
 1796 Fit      -0.008990
 1797 Fit      -0.008531
 1798 Fit      -0.008485
 1799 Fit      -0.002749
 1800 Fit      -0.002532
 1801 Fit      -0.005553
 1802 Fit      -0.004073
 1803 Fit      -0.003111
 1804 Fit      -0.003132
 1805 Fit      -0.000604
 1806 Fit       0.002587
 1807 Fit       0.004682
 1808 Fit      -0.003119
 1809 Fit      -0.009293
 1810 Fit      -0.006851
 1811 Fit      -0.014191
 1812 Fit       0.003195
 1813 Fit       0.007427
 1814 Fit      -0.001972
 1815 Fit       0.004036
 1816 Fit      -0.001763
 1817 Fit      -0.000599
 1818 Fit      -0.001147
 1819 Fit       0.003589
 1820 Fit      -0.001123
 1821 Fit       0.003044
 1822 Fit       0.007303
 1823 Fit      -0.000593
 1824 Fit       0.003042
 1825 Fit      -0.000768
 1826 Fit      -0.001807
 1827 Fit       0.003128
 1828 Fit       0.000455
 1829 Fit      -0.000694
 1830 Fit      -0.000792
 1831 Fit      -0.002040
 1832 Fit      -0.008231
 1833 Fit      -0.006473
 1834 Fit      -0.011351
 1835 Fit      -0.013092
 1836 Fit      -0.010616
 1837 Fit      -0.004983
 1838 Fit      -0.011561
 1839 Fit      -0.015589
 1840 Fit      -0.015697
 1841 Fit      -0.013015
 1842 Fit      -0.009013
 1843 Fit      -0.005621
 1844 Fit      -0.005211
 1845 Fit      -0.013770
 1846 Fit      -0.016828
 1847 Fit      -0.016629
 1848 Fit      -0.014544
 1849 Fit      -0.012611
 1850 Fit      -0.012955
 1851 Fit      -0.016684
 1852 Fit      -0.011944
 1853 Fit      -0.004650
 1854 Fit      -0.002856
 1855 Fit      -0.009897
 1856 Fit      -0.014878
 1857 Fit      -0.016873
 1858 Fit      -0.016751
 1859 Fit      -0.016504
 1860 Fit      -0.017865
 1861 Fit      -0.020558
 1862 Fit      -0.021811
 1863 Fit      -0.019784
 1864 Fit      -0.014711
 1865 Fit      -0.007645
 1866 Fit      -0.006412
 1867 Fit      -0.012239
 1868 Fit      -0.015751
 1869 Fit      -0.017312
 1870 Fit      -0.018669
 1871 Fit      -0.020284
 1872 Fit      -0.020197
 1873 Fit      -0.016633
 1874 Fit      -0.009984
 1875 Fit      -0.006530
 1876 Fit      -0.011808
 1877 Fit      -0.016003
 1878 Fit      -0.017661
 1879 Fit      -0.014844
 1880 Fit      -0.007988
 1881 Fit      -0.012814
 1882 Fit       0.006107
 1883 Fit      -0.003160
 1884 Fit       0.004135
 1885 Fit       0.009005
 1886 Fit       0.008426
 1887 Fit       0.008031
 1888 Fit       0.007552
 1889 Fit       0.007532
 1890 Fit       0.002139
 1891 Fit       0.004642
 1892 Fit       0.005657
 1893 Fit       0.006346
 1894 Fit      -0.002621
 1895 Fit       0.002006
 1896 Fit       0.004144
 1897 Fit       0.005710
 1898 Fit       0.006292
 1899 Fit       0.004754
 1900 Fit       0.003119
 1901 Fit      -0.000381
 1902 Fit      -0.004271
 1903 Fit       0.001157
 1904 Fit       0.003854
 1905 Fit       0.005006
 1906 Fit       0.003292
 1907 Fit       0.000769
 1908 Fit      -0.000892
 1909 Fit       0.002754
 1910 Fit       0.000324
 1911 Fit       0.001623
 1912 Fit       0.000913
 1913 Fit       0.003495
 1914 Fit       0.002581
 1915 Fit       0.001849
 1916 Fit       0.000675
 1917 Fit       0.000018
 1918 Fit      -0.002990
 1919 Fit       0.007024
 1920 Fit       0.000908
 1921 Fit       0.007691
 1922 Fit       0.001197
 1923 Fit       0.003531
 1924 Fit       0.006019
 1925 Fit       0.002907
 1926 Fit       0.002596
 1927 Fit       0.002427
 1928 Fit       0.003203
 1929 Fit       0.002787
 1930 Fit       0.003081
 1931 Fit       0.001245
 1932 Fit       0.000873
 1933 Fit       0.001343
 1934 Fit       0.004773
 1935 Fit       0.003603
 1936 Fit       0.002808
 1937 Fit       0.004596
 1938 Fit       0.003964
 1939 Fit       0.003388
 1940 Fit       0.001804
 1941 Fit       0.007573
 1942 Fit       0.006025
 1943 Fit       0.005437
 1944 Fit       0.004661
 1945 Fit       0.003678
 1946 Fit       0.002035
 1947 Fit       0.006587
 1948 Fit       0.005911
 1949 Fit       0.005040
 1950 Fit       0.003872
 1951 Fit       0.006371
 1952 Fit       0.005344
 1953 Fit      -0.000931
 1954 Fit      -0.003330
 1955 Fit       0.000693
 1956 Fit      -0.000015
 1957 Fit      -0.002162
 1958 Fit      -0.006896
 1959 Fit       0.000960
 1960 Fit       0.000004
 1961 Fit      -0.002761
 1962 Fit      -0.009322
 1963 Fit       0.001674
 1964 Fit       0.000668
 1965 Fit      -0.001641
 1966 Fit      -0.007617
 1967 Fit      -0.000933
 Job cpu time:       0 days  0 hours  5 minutes 43.6 seconds.
 Normal termination of Gaussian 16 at Sat Jul  8 22:04:27 2023.
