 Copyright (c) 1988-2019, Gaussian, Inc.  All Rights Reserved.
  
 This is part of the Gaussian(R) 16 program.  It is based on
 the Gaussian(R) 09 system (copyright 2009, Gaussian, Inc.),
 the Gaussian(R) 03 system (copyright 2003, Gaussian, Inc.),
 the Gaussian(R) 98 system (copyright 1998, Gaussian, Inc.),
 the Gaussian(R) 94 system (copyright 1995, Gaussian, Inc.),
 the Gaussian 92(TM) system (copyright 1992, Gaussian, Inc.),
 the Gaussian 90(TM) system (copyright 1990, Gaussian, Inc.),
 the Gaussian 88(TM) system (copyright 1988, Gaussian, Inc.),
 the Gaussian 86(TM) system (copyright 1986, Carnegie Mellon
 University), and the Gaussian 82(TM) system (copyright 1983,
 Carnegie Mellon University). Gaussian is a federally registered
 trademark of Gaussian, Inc.
 Cite this work as:
 Gaussian 16, Revision C.01,
 M. J. Frisch, G. W. Trucks, H. B. Schlegel, G. E. Scuseria, 
 M. A. Robb, J. R. Cheeseman, G. Scalmani, V. Barone, 
 G. A. Petersson, H. Nakatsuji, X. Li, M. Caricato, A. V. Marenich, 
 J. Bloino, B. G. Janesko, R. Gomperts, B. Mennucci, H. P. Hratchian, 
 J. V. Ortiz, A. F. Izmaylov, J. L. Sonnenberg, D. Williams-Young, 
 F. Ding, F. Lipparini, F. Egidi, J. Goings, B. Peng, A. Petrone, 
 T. Henderson, D. Ranasinghe, V. G. Zakrzewski, J. Gao, N. Rega, 
 G. Zheng, W. Liang, M. Hada, M. Ehara, K. Toyota, R. Fukuda, 
 J. Hasegawa, M. Ishida, T. Nakajima, Y. Honda, O. Kitao, H. Nakai, 
 T. Vreven, K. Throssell, J. A. Montgomery, Jr., J. E. Peralta, 
 F. Ogliaro, M. J. Bearpark, J. J. Heyd, E. N. Brothers, K. N. Kudin, 
 V. N. Staroverov, T. A. Keith, R. Kobayashi, J. Normand, 
 K. Raghavachari, A. P. Rendell, J. C. Burant, S. S. Iyengar, 
 J. Tomasi, M. Cossi, J. M. Millam, M. Klene, C. Adamo, R. Cammi, 
 J. W. Ochterski, R. L. Martin, K. Morokuma, O. Farkas, 
 J. B. Foresman, and D. J. Fox, Gaussian, Inc., Wallingford CT, 2019.
 
 ******************************************
 Gaussian 16:  EM64L-G16RevC.01  3-Jul-2019
                 8-Jul-2023 
 ******************************************
 ----------------------------------------------------------------------
 #P HF/6-31G(d) SCF(Conver=8,XQC,MaxConventionalCycles=64,MaxCycle=128)
  NoSymm Test Pop=mk IOp(6/33=2) GFInput GFPrint
 ----------------------------------------------------------------------
 1/38=1,172=1/1;
 2/12=2,15=1,17=6,18=5,40=1/2;
 3/5=1,6=6,7=1,11=9,24=110,25=1,30=1/1,2,3;
 4//1;
 5/5=2,6=8,7=128,8=3,13=1,38=5,85=64/2,8;
 6/7=2,8=2,9=2,10=2,15=8,20=1,28=1,33=2/1,2;
 99/5=1,9=1/99;
 -------------------------------------------------
 MEP step - Input generated by PyRED DVE-DMDS-OPLS
 -------------------------------------------------
 Symbolic Z-matrix:
 Charge =  0 Multiplicity = 1
 C                    -8.28794  -0.54284  -2.45982 
 H                    -8.01768  -1.45616  -1.9419 
 H                    -9.01306  -0.01077  -1.85466 
 H                    -8.75174  -0.80572  -3.40549 
 C                    -7.06189   0.31813  -2.69077 
 H                    -6.33905  -0.2142   -3.30599 
 H                    -7.33152   1.22886  -3.22269 
 O                    -6.51128   0.64242  -1.44437 
 C                    -5.35214   1.42264  -1.46938 
 H                    -5.34856   2.03158  -0.57449 
 H                    -5.34226   2.09156  -2.3256 
 C                    -4.10473   0.55428  -1.48384 
 H                    -4.10654  -0.08803  -0.60736 
 H                    -4.09142  -0.08724  -2.36249 
 O                    -3.00078   1.41311  -1.49532 
 C                    -1.74186   0.80344  -1.46419 
 H                    -1.06229   1.45416  -2.00052 
 H                    -1.75522  -0.15443  -1.97721 
 C                    -1.26134   0.60906  -0.0305 
 H                    -1.9391   -0.04281   0.50608 
 H                    -1.24883   1.56657   0.48307 
 O                     0.        0.        0. 
 C                     1.09988   0.86419   0. 
 H                     1.07178   1.50314   0.87963 
 H                     1.09932   1.50975  -0.87345 
 C                     2.35037   0.        0. 
 H                     2.37624  -0.59432  -0.90415 
 H                     2.32192  -0.68902   0.8338 
 S                     3.8919    0.96166   0.02162 
 C                     4.08982   1.34927   1.79059 
 H                     4.76176   2.19727   1.81778 
 H                     3.14671   1.67841   2.20548 
 C                     4.65684   0.18837   2.60509 
 H                     5.6011   -0.13937   2.19177 
 H                     3.98703  -0.66116   2.57168 
 S                     4.843     0.56437   4.37703 
 C                     6.35147   1.58435   4.41878 
 H                     6.31681   2.08395   5.37829 
 H                     6.30247   2.35462   3.66094 
 C                     7.64105   0.77771   4.28071 
 H                     7.68939   0.00739   5.0382 
 H                     7.67527   0.2784    3.32087 
 S                     9.14789   1.79673   4.32385 
 C                     9.31688   2.20544   6.09016 
 H                     10.0604   2.99331   6.11114 
 H                     8.3935    2.64063   6.45259 
 C                     9.75869   1.04639   6.97866 
 H                     10.70315   0.63756   6.63938 
 H                     9.88187   1.39013   8.00183 
 H                     9.02933   0.2441    6.9884 
 
 ITRead=  0  0  0  0  0  0  0  0  0  0  0  0  0  0  0  0  0  0  0  0
 ITRead=  0  0  0  0  0  0  0  0  0  0  0  0  0  0  0  0  0  0  0  0
 ITRead=  0  0  0  0  0  0  0  0  0  0
 MicOpt= -1 -1 -1 -1 -1 -1 -1 -1 -1 -1 -1 -1 -1 -1 -1 -1 -1 -1 -1 -1
 MicOpt= -1 -1 -1 -1 -1 -1 -1 -1 -1 -1 -1 -1 -1 -1 -1 -1 -1 -1 -1 -1
 MicOpt= -1 -1 -1 -1 -1 -1 -1 -1 -1 -1
 NAtoms=     50 NQM=       50 NQMF=       0 NMMI=      0 NMMIF=      0
                NMic=       0 NMicF=      0.
                          Input orientation:                          
 ---------------------------------------------------------------------
 Center     Atomic      Atomic             Coordinates (Angstroms)
 Number     Number       Type             X           Y           Z
 ---------------------------------------------------------------------
      1          6           0       -8.287942   -0.542835   -2.459817
      2          1           0       -8.017683   -1.456161   -1.941904
      3          1           0       -9.013057   -0.010765   -1.854664
      4          1           0       -8.751744   -0.805715   -3.405492
      5          6           0       -7.061886    0.318132   -2.690767
      6          1           0       -6.339047   -0.214203   -3.305992
      7          1           0       -7.331517    1.228855   -3.222686
      8          8           0       -6.511285    0.642418   -1.444367
      9          6           0       -5.352138    1.422636   -1.469384
     10          1           0       -5.348557    2.031583   -0.574490
     11          1           0       -5.342264    2.091559   -2.325602
     12          6           0       -4.104732    0.554278   -1.483837
     13          1           0       -4.106535   -0.088033   -0.607357
     14          1           0       -4.091424   -0.087243   -2.362488
     15          8           0       -3.000778    1.413114   -1.495324
     16          6           0       -1.741863    0.803438   -1.464192
     17          1           0       -1.062294    1.454160   -2.000518
     18          1           0       -1.755215   -0.154426   -1.977213
     19          6           0       -1.261341    0.609063   -0.030496
     20          1           0       -1.939104   -0.042812    0.506080
     21          1           0       -1.248826    1.566569    0.483067
     22          8           0        0.000000    0.000000    0.000000
     23          6           0        1.099877    0.864186    0.000000
     24          1           0        1.071785    1.503136    0.879627
     25          1           0        1.099322    1.509746   -0.873454
     26          6           0        2.350368    0.000000    0.000000
     27          1           0        2.376237   -0.594322   -0.904154
     28          1           0        2.321924   -0.689018    0.833803
     29         16           0        3.891901    0.961658    0.021619
     30          6           0        4.089821    1.349267    1.790587
     31          1           0        4.761756    2.197272    1.817775
     32          1           0        3.146710    1.678411    2.205479
     33          6           0        4.656837    0.188373    2.605091
     34          1           0        5.601103   -0.139365    2.191768
     35          1           0        3.987026   -0.661155    2.571683
     36         16           0        4.842999    0.564370    4.377034
     37          6           0        6.351472    1.584345    4.418780
     38          1           0        6.316809    2.083951    5.378286
     39          1           0        6.302470    2.354621    3.660941
     40          6           0        7.641045    0.777707    4.280715
     41          1           0        7.689390    0.007390    5.038199
     42          1           0        7.675266    0.278403    3.320867
     43         16           0        9.147886    1.796728    4.323849
     44          6           0        9.316882    2.205435    6.090162
     45          1           0       10.060396    2.993308    6.111142
     46          1           0        8.393499    2.640632    6.452587
     47          6           0        9.758686    1.046391    6.978659
     48          1           0       10.703145    0.637559    6.639375
     49          1           0        9.881869    1.390125    8.001832
     50          1           0        9.029334    0.244103    6.988403
 ---------------------------------------------------------------------
 Stoichiometry    C14H30O3S3
 Framework group  C1[X(C14H30O3S3)]
 Standard basis: 6-31G(d) (6D, 7F)
   372 basis functions,   752 primitive gaussians,   372 cartesian basis functions
    93 alpha electrons       93 beta electrons
 Requested convergence on RMS density matrix=1.00D-08 within  64 cycles.
 Requested convergence on MAX density matrix=1.00D-06.
 Requested convergence on             energy=1.00D-06.
 SCF Done:  E(RHF) =  -1964.69384163     A.U. after   13 cycles
            NFock= 13  Conv=0.50D-08     -V/T= 2.0006
 Mulliken charges:
     1  C   -0.488586
     2  H    0.172601
     3  H    0.175983
     4  H    0.157002
     5  C    0.017424
     6  H    0.136113
     7  H    0.143316
     8  O   -0.632179
     9  C    0.002809
    10  H    0.180199
    11  H    0.154961
    12  C    0.004947
    13  H    0.152384
    14  H    0.144726
    15  O   -0.645233
    16  C   -0.002216
    17  H    0.171967
    18  H    0.155930
    19  C   -0.006398
    20  H    0.174696
    21  H    0.157061
    22  O   -0.639654
    23  C    0.029921
    24  H    0.149145
    25  H    0.157606
    26  C   -0.494612
    27  H    0.213156
    28  H    0.204583
    29  S    0.113121
    30  C   -0.475966
    31  H    0.205411
    32  H    0.210089
    33  C   -0.475859
    34  H    0.209485
    35  H    0.206400
    36  S    0.116488
    37  C   -0.475856
    38  H    0.203510
    39  H    0.208367
    40  C   -0.476168
    41  H    0.210630
    42  H    0.203445
    43  S    0.114430
    44  C   -0.476247
    45  H    0.201599
    46  H    0.188919
    47  C   -0.475608
    48  H    0.181671
    49  H    0.168376
    50  H    0.166116
 Sum of Mulliken charges =  -0.00000
 Dipole moment (field-independent basis, Debye):
    X=             -0.5331    Y=             -0.0741    Z=              0.3104  Tot=              0.6213
 Quadrupole moment (field-independent basis, Debye-Ang):
   XX=           -157.0419   YY=           -150.4311   ZZ=           -134.0604
   XY=              2.9303   XZ=             23.6029   YZ=              7.7591
 Traceless Quadrupole moment (field-independent basis, Debye-Ang):
   XX=             -9.8641   YY=             -3.2533   ZZ=             13.1174
   XY=              2.9303   XZ=             23.6029   YZ=              7.7591
 Octapole moment (field-independent basis, Debye-Ang**2):
  XXX=           -999.4311  YYY=           -389.6780  ZZZ=           -566.9908  XYY=           -298.1734
  XXY=           -132.7883  XXZ=           -134.9948  XZZ=           -203.4200  YZZ=            -83.9637
  YYZ=           -196.1382  XYZ=             47.8048
 Hexadecapole moment (field-independent basis, Debye-Ang**3):
 XXXX=         -33100.2958 YYYY=          -1338.2367 ZZZZ=          -9016.2654 XXXY=          -1620.4094
 XXXZ=          -6481.8916 YYYX=          -1681.9517 YYYZ=           -951.8832 ZZZX=          -6845.9445
 ZZZY=           -641.4724 XXYY=          -5505.4927 XXZZ=          -5353.1501 YYZZ=          -1754.8356
 XXYZ=             86.2863 YYXZ=          -2575.9207 ZZXY=           -147.2630
 Merz-Kollman atomic radii used.
 Atom Element Radius
    1     6    1.50
    2     1    1.20
    3     1    1.20
    4     1    1.20
    5     6    1.50
    6     1    1.20
    7     1    1.20
    8     8    1.40
    9     6    1.50
   10     1    1.20
   11     1    1.20
   12     6    1.50
   13     1    1.20
   14     1    1.20
   15     8    1.40
   16     6    1.50
   17     1    1.20
   18     1    1.20
   19     6    1.50
   20     1    1.20
   21     1    1.20
   22     8    1.40
   23     6    1.50
   24     1    1.20
   25     1    1.20
   26     6    1.50
   27     1    1.20
   28     1    1.20
   29    16    1.75
   30     6    1.50
   31     1    1.20
   32     1    1.20
   33     6    1.50
   34     1    1.20
   35     1    1.20
   36    16    1.75
   37     6    1.50
   38     1    1.20
   39     1    1.20
   40     6    1.50
   41     1    1.20
   42     1    1.20
   43    16    1.75
   44     6    1.50
   45     1    1.20
   46     1    1.20
   47     6    1.50
   48     1    1.20
   49     1    1.20
   50     1    1.20
 Generate VDW surfaces: Layer= 4 Dens= 1 Start= 1.400 Inc= 0.200
            Electrostatic Properties Using The SCF Density.


       Atomic Center    1 is at  -8.287942 -0.542835 -2.459817
       Atomic Center    2 is at  -8.017683 -1.456161 -1.941904
       Atomic Center    3 is at  -9.013057 -0.010765 -1.854664
       Atomic Center    4 is at  -8.751744 -0.805715 -3.405492
       Atomic Center    5 is at  -7.061886  0.318132 -2.690767
       Atomic Center    6 is at  -6.339047 -0.214203 -3.305992
       Atomic Center    7 is at  -7.331517  1.228855 -3.222686
       Atomic Center    8 is at  -6.511285  0.642418 -1.444367
       Atomic Center    9 is at  -5.352138  1.422636 -1.469384
       Atomic Center   10 is at  -5.348557  2.031583 -0.574490
       Atomic Center   11 is at  -5.342264  2.091559 -2.325602
       Atomic Center   12 is at  -4.104732  0.554278 -1.483837
       Atomic Center   13 is at  -4.106535 -0.088033 -0.607357
       Atomic Center   14 is at  -4.091424 -0.087243 -2.362488
       Atomic Center   15 is at  -3.000778  1.413114 -1.495324
       Atomic Center   16 is at  -1.741863  0.803438 -1.464192
       Atomic Center   17 is at  -1.062294  1.454160 -2.000518
       Atomic Center   18 is at  -1.755215 -0.154426 -1.977213
       Atomic Center   19 is at  -1.261341  0.609063 -0.030496
       Atomic Center   20 is at  -1.939104 -0.042812  0.506080
       Atomic Center   21 is at  -1.248826  1.566569  0.483067
       Atomic Center   22 is at   0.000000  0.000000  0.000000
       Atomic Center   23 is at   1.099877  0.864186  0.000000
       Atomic Center   24 is at   1.071785  1.503136  0.879627
       Atomic Center   25 is at   1.099322  1.509746 -0.873454
       Atomic Center   26 is at   2.350368  0.000000  0.000000
       Atomic Center   27 is at   2.376237 -0.594322 -0.904154
       Atomic Center   28 is at   2.321924 -0.689018  0.833803
       Atomic Center   29 is at   3.891901  0.961658  0.021619
       Atomic Center   30 is at   4.089821  1.349267  1.790587
       Atomic Center   31 is at   4.761756  2.197272  1.817775
       Atomic Center   32 is at   3.146710  1.678411  2.205479
       Atomic Center   33 is at   4.656837  0.188373  2.605091
       Atomic Center   34 is at   5.601103 -0.139365  2.191768
       Atomic Center   35 is at   3.987026 -0.661155  2.571683
       Atomic Center   36 is at   4.842999  0.564370  4.377034
       Atomic Center   37 is at   6.351472  1.584345  4.418780
       Atomic Center   38 is at   6.316809  2.083951  5.378286
       Atomic Center   39 is at   6.302470  2.354621  3.660941
       Atomic Center   40 is at   7.641045  0.777707  4.280715
       Atomic Center   41 is at   7.689390  0.007390  5.038199
       Atomic Center   42 is at   7.675266  0.278403  3.320867
       Atomic Center   43 is at   9.147886  1.796728  4.323849
       Atomic Center   44 is at   9.316882  2.205435  6.090162
       Atomic Center   45 is at  10.060396  2.993308  6.111142
       Atomic Center   46 is at   8.393499  2.640632  6.452587
       Atomic Center   47 is at   9.758686  1.046391  6.978659
       Atomic Center   48 is at  10.703145  0.637559  6.639375
       Atomic Center   49 is at   9.881869  1.390125  8.001832
       Atomic Center   50 is at   9.029334  0.244103  6.988403
      ESP Fit Center   51 is at  -8.287942 -0.542835 -0.359817
      ESP Fit Center   52 is at -10.326920 -1.045398 -2.459817
      ESP Fit Center   53 is at  -9.859815 -1.935393 -2.459817
      ESP Fit Center   54 is at  -9.478907  0.831611 -3.509817
      ESP Fit Center   55 is at  -7.532446 -2.197140 -3.509817
      ESP Fit Center   56 is at  -8.017683 -1.456161 -0.261904
      ESP Fit Center   57 is at  -7.030204 -1.456161 -0.582755
      ESP Fit Center   58 is at  -8.816570 -2.036587 -0.582755
      ESP Fit Center   59 is at  -7.712535 -2.395310 -0.582755
      ESP Fit Center   60 is at  -6.419908 -1.456161 -1.422755
      ESP Fit Center   61 is at  -9.519100 -2.002632 -1.422755
      ESP Fit Center   62 is at  -8.816570 -2.839875 -1.422755
      ESP Fit Center   63 is at  -7.740232 -3.029662 -1.422755
      ESP Fit Center   64 is at  -6.793716 -2.483191 -1.422755
      ESP Fit Center   65 is at  -8.816570 -2.839875 -2.461053
      ESP Fit Center   66 is at  -7.740232 -3.029662 -2.461053
      ESP Fit Center   67 is at  -6.793716 -2.483191 -2.461053
      ESP Fit Center   68 is at  -7.712535 -2.395310 -3.301053
      ESP Fit Center   69 is at  -9.013057 -0.010765 -0.174664
      ESP Fit Center   70 is at  -8.707909  0.928384 -0.495515
      ESP Fit Center   71 is at  -9.811944  0.569661 -0.495515
      ESP Fit Center   72 is at  -9.811944 -0.591191 -0.495515
      ESP Fit Center   73 is at  -8.735606  1.562736 -1.335515
      ESP Fit Center   74 is at  -9.811944  1.372949 -1.335515
      ESP Fit Center   75 is at -10.514474  0.535706 -1.335515
      ESP Fit Center   76 is at -10.514474 -0.557236 -1.335515
      ESP Fit Center   77 is at  -9.811944  1.372949 -2.373813
      ESP Fit Center   78 is at -10.514474  0.535706 -2.373813
      ESP Fit Center   79 is at -10.514474 -0.557236 -2.373813
      ESP Fit Center   80 is at -10.253161 -1.352186 -2.886343
      ESP Fit Center   81 is at  -9.550631 -2.189429 -2.886343
      ESP Fit Center   82 is at  -9.550631  0.577999 -3.924641
      ESP Fit Center   83 is at -10.253161 -0.259244 -3.924641
      ESP Fit Center   84 is at -10.253161 -1.352186 -3.924641
      ESP Fit Center   85 is at  -9.550631 -2.189429 -3.924641
      ESP Fit Center   86 is at  -8.474293 -2.379216 -3.924641
      ESP Fit Center   87 is at  -7.764265 -0.805715 -4.764641
      ESP Fit Center   88 is at  -8.446596  0.133434 -4.764641
      ESP Fit Center   89 is at  -9.550631 -0.225289 -4.764641
      ESP Fit Center   90 is at  -9.550631 -1.386141 -4.764641
      ESP Fit Center   91 is at  -8.446596 -1.744864 -4.764641
      ESP Fit Center   92 is at  -8.751744 -0.805715 -5.085492
      ESP Fit Center   93 is at  -8.252851  1.692578 -1.640767
      ESP Fit Center   94 is at  -6.306390 -1.336173 -1.640767
      ESP Fit Center   95 is at  -8.111886  0.318132 -4.509420
      ESP Fit Center   96 is at  -7.061886  0.318132 -4.790767
      ESP Fit Center   97 is at  -6.061596 -1.787704 -2.786843
      ESP Fit Center   98 is at  -5.115080  0.812827 -3.825141
      ESP Fit Center   99 is at  -6.061596 -1.787704 -3.825141
      ESP Fit Center  100 is at  -5.115080 -1.241233 -3.825141
      ESP Fit Center  101 is at  -5.351568 -0.214203 -4.665141
      ESP Fit Center  102 is at  -6.033899  0.724946 -4.665141
      ESP Fit Center  103 is at  -7.137934 -0.794629 -4.665141
      ESP Fit Center  104 is at  -6.033899 -1.153352 -4.665141
      ESP Fit Center  105 is at  -6.339047 -0.214203 -4.985992
      ESP Fit Center  106 is at  -7.054066  2.802356 -2.703537
      ESP Fit Center  107 is at  -8.130404  2.612569 -2.703537
      ESP Fit Center  108 is at  -8.832934  1.775326 -2.703537
      ESP Fit Center  109 is at  -7.054066  2.802356 -3.741835
      ESP Fit Center  110 is at  -8.130404  2.612569 -3.741835
      ESP Fit Center  111 is at  -8.832934  1.775326 -3.741835
      ESP Fit Center  112 is at  -6.344038  1.228855 -4.581835
      ESP Fit Center  113 is at  -7.026369  2.168004 -4.581835
      ESP Fit Center  114 is at  -8.130404  1.809281 -4.581835
      ESP Fit Center  115 is at  -8.130404  0.648429 -4.581835
      ESP Fit Center  116 is at  -7.331517  1.228855 -4.902686
      ESP Fit Center  117 is at  -6.511285  0.642418  0.515633
      ESP Fit Center  118 is at  -7.001285  1.491123  0.253043
      ESP Fit Center  119 is at  -7.491285  0.642418  0.253043
      ESP Fit Center  120 is at  -7.001285 -0.206287  0.253043
      ESP Fit Center  121 is at  -6.021285 -0.206287  0.253043
      ESP Fit Center  122 is at  -7.035813  2.256751 -0.464367
      ESP Fit Center  123 is at  -7.884518  1.640130 -0.464367
      ESP Fit Center  124 is at  -8.208695  0.642418 -0.464367
      ESP Fit Center  125 is at  -7.035813 -0.971915 -0.464367
      ESP Fit Center  126 is at  -5.986757 -0.971915 -0.464367
      ESP Fit Center  127 is at  -7.491285  2.339828 -1.444367
      ESP Fit Center  128 is at  -8.208695  1.622418 -1.444367
      ESP Fit Center  129 is at  -5.531285 -1.054992 -1.444367
      ESP Fit Center  130 is at  -4.159202  3.150902 -1.469384
      ESP Fit Center  131 is at  -6.096808  3.386170 -1.469384
      ESP Fit Center  132 is at  -6.924011  2.815194 -1.469384
      ESP Fit Center  133 is at  -5.348557  2.031583  1.105510
      ESP Fit Center  134 is at  -4.361078  2.031583  0.784659
      ESP Fit Center  135 is at  -5.043409  2.970732  0.784659
      ESP Fit Center  136 is at  -6.147444  2.612009  0.784659
      ESP Fit Center  137 is at  -6.147444  1.451157  0.784659
      ESP Fit Center  138 is at  -5.043409  1.092434  0.784659
      ESP Fit Center  139 is at  -4.124590  3.058613 -0.055341
      ESP Fit Center  140 is at  -5.071106  3.605084 -0.055341
      ESP Fit Center  141 is at  -6.147444  3.415297 -0.055341
      ESP Fit Center  142 is at  -6.849974  2.578054 -0.055341
      ESP Fit Center  143 is at  -5.071106  3.605084 -1.093639
      ESP Fit Center  144 is at  -6.147444  3.415297 -1.093639
      ESP Fit Center  145 is at  -4.118297  3.118589 -1.806453
      ESP Fit Center  146 is at  -5.064813  3.665060 -1.806453
      ESP Fit Center  147 is at  -6.141151  3.475273 -1.806453
      ESP Fit Center  148 is at  -4.118297  3.118589 -2.844751
      ESP Fit Center  149 is at  -5.064813  3.665060 -2.844751
      ESP Fit Center  150 is at  -6.141151  3.475273 -2.844751
      ESP Fit Center  151 is at  -4.354785  2.091559 -3.684751
      ESP Fit Center  152 is at  -5.037116  3.030708 -3.684751
      ESP Fit Center  153 is at  -6.141151  2.671985 -3.684751
      ESP Fit Center  154 is at  -5.037116  1.152410 -3.684751
      ESP Fit Center  155 is at  -5.342264  2.091559 -4.005602
      ESP Fit Center  156 is at  -4.849402 -1.409256 -1.483837
      ESP Fit Center  157 is at  -3.851605 -1.530411 -1.483837
      ESP Fit Center  158 is at  -4.106535 -0.088033  1.072643
      ESP Fit Center  159 is at  -3.801387  0.851116  0.751792
      ESP Fit Center  160 is at  -4.905422  0.492393  0.751792
      ESP Fit Center  161 is at  -4.905422 -0.668459  0.751792
      ESP Fit Center  162 is at  -3.801387 -1.027182  0.751792
      ESP Fit Center  163 is at  -5.607952 -0.634504 -0.088208
      ESP Fit Center  164 is at  -4.905422 -1.471747 -0.088208
      ESP Fit Center  165 is at  -3.829084 -1.661534 -0.088208
      ESP Fit Center  166 is at  -4.905422 -1.471747 -1.126506
      ESP Fit Center  167 is at  -3.829084 -1.661534 -1.126506
      ESP Fit Center  168 is at  -4.890311 -1.470957 -1.843339
      ESP Fit Center  169 is at  -3.813973 -1.660744 -1.843339
      ESP Fit Center  170 is at  -4.890311 -1.470957 -2.881637
      ESP Fit Center  171 is at  -3.813973 -1.660744 -2.881637
      ESP Fit Center  172 is at  -2.867457 -1.114273 -2.881637
      ESP Fit Center  173 is at  -3.103945 -0.087243 -3.721637
      ESP Fit Center  174 is at  -3.786276  0.851906 -3.721637
      ESP Fit Center  175 is at  -3.786276 -1.026392 -3.721637
      ESP Fit Center  176 is at  -4.091424 -0.087243 -4.042488
      ESP Fit Center  177 is at  -3.490778  2.261819  0.202086
      ESP Fit Center  178 is at  -2.476250  3.027447 -0.515324
      ESP Fit Center  179 is at  -3.525306  3.027447 -0.515324
      ESP Fit Center  180 is at  -2.020778  3.110524 -1.495324
      ESP Fit Center  181 is at  -3.000778  3.373114 -1.495324
      ESP Fit Center  182 is at  -3.980778  3.110524 -1.495324
      ESP Fit Center  183 is at  -2.476250  3.027447 -2.475324
      ESP Fit Center  184 is at  -3.525306  3.027447 -2.475324
      ESP Fit Center  185 is at  -2.510778  2.261819 -3.192734
      ESP Fit Center  186 is at  -3.490778  2.261819 -3.192734
      ESP Fit Center  187 is at  -3.000778  1.413114 -3.455324
      ESP Fit Center  188 is at  -1.741863  0.803438 -3.564192
      ESP Fit Center  189 is at  -0.784843  3.027661 -1.481369
      ESP Fit Center  190 is at   0.535481  1.454160 -2.519667
      ESP Fit Center  191 is at   0.161673  2.481190 -2.519667
      ESP Fit Center  192 is at  -0.784843  3.027661 -2.519667
      ESP Fit Center  193 is at  -1.861181  2.837874 -2.519667
      ESP Fit Center  194 is at   0.161673  0.427130 -2.519667
      ESP Fit Center  195 is at  -0.074815  1.454160 -3.359667
      ESP Fit Center  196 is at  -0.757146  2.393309 -3.359667
      ESP Fit Center  197 is at  -1.861181  2.034586 -3.359667
      ESP Fit Center  198 is at  -0.757146  0.515011 -3.359667
      ESP Fit Center  199 is at  -1.062294  1.454160 -3.680518
      ESP Fit Center  200 is at  -2.554102 -1.538140 -1.458064
      ESP Fit Center  201 is at  -1.477764 -1.727927 -1.458064
      ESP Fit Center  202 is at  -0.157440 -0.154426 -2.496362
      ESP Fit Center  203 is at  -2.554102 -1.538140 -2.496362
      ESP Fit Center  204 is at  -1.477764 -1.727927 -2.496362
      ESP Fit Center  205 is at  -0.531248 -1.181456 -2.496362
      ESP Fit Center  206 is at  -0.767736 -0.154426 -3.336362
      ESP Fit Center  207 is at  -2.554102 -0.734852 -3.336362
      ESP Fit Center  208 is at  -1.450067 -1.093575 -3.336362
      ESP Fit Center  209 is at  -1.755215 -0.154426 -3.657213
      ESP Fit Center  210 is at  -1.261341  0.609063  2.069504
      ESP Fit Center  211 is at  -1.939104 -0.042812  2.186080
      ESP Fit Center  212 is at  -2.737991  0.537614  1.865229
      ESP Fit Center  213 is at  -2.737991 -0.623238  1.865229
      ESP Fit Center  214 is at  -1.633956 -0.981961  1.865229
      ESP Fit Center  215 is at  -3.440521  0.503659  1.025229
      ESP Fit Center  216 is at  -3.440521 -0.589283  1.025229
      ESP Fit Center  217 is at  -2.737991 -1.426526  1.025229
      ESP Fit Center  218 is at  -1.661653 -1.616313  1.025229
      ESP Fit Center  219 is at  -2.737991 -1.426526 -0.013069
      ESP Fit Center  220 is at  -1.661653 -1.616313 -0.013069
      ESP Fit Center  221 is at  -1.248826  1.566569  2.163067
      ESP Fit Center  222 is at  -0.943678  2.505718  1.842216
      ESP Fit Center  223 is at  -2.047713  2.146995  1.842216
      ESP Fit Center  224 is at  -0.971375  3.140070  1.002216
      ESP Fit Center  225 is at  -2.047713  2.950283  1.002216
      ESP Fit Center  226 is at  -2.750243  2.113040  1.002216
      ESP Fit Center  227 is at  -0.971375  3.140070 -0.036082
      ESP Fit Center  228 is at  -2.047713  2.950283 -0.036082
      ESP Fit Center  229 is at   0.000000  0.000000  1.960000
      ESP Fit Center  230 is at  -0.490000 -0.848705  1.697410
      ESP Fit Center  231 is at   0.490000 -0.848705  1.697410
      ESP Fit Center  232 is at  -0.524528 -1.614333  0.980000
      ESP Fit Center  233 is at   0.524528 -1.614333  0.980000
      ESP Fit Center  234 is at  -0.980000 -1.697410  0.000000
      ESP Fit Center  235 is at  -0.000000 -1.960000  0.000000
      ESP Fit Center  236 is at   0.980000 -1.697410  0.000000
      ESP Fit Center  237 is at  -0.524528 -1.614333 -0.980000
      ESP Fit Center  238 is at   0.524528 -1.614333 -0.980000
      ESP Fit Center  239 is at   0.490000 -0.848705 -1.697410
      ESP Fit Center  240 is at   1.353004  2.948875  0.000000
      ESP Fit Center  241 is at   0.355207  2.827720  0.000000
      ESP Fit Center  242 is at   1.071785  1.503136  2.559627
      ESP Fit Center  243 is at   1.376933  2.442285  2.238776
      ESP Fit Center  244 is at   0.272898  2.083562  2.238776
      ESP Fit Center  245 is at   0.272898  0.922710  2.238776
      ESP Fit Center  246 is at   1.376933  0.563987  2.238776
      ESP Fit Center  247 is at   1.349236  3.076637  1.398776
      ESP Fit Center  248 is at   0.272898  2.886850  1.398776
      ESP Fit Center  249 is at   1.349236  3.076637  0.360478
      ESP Fit Center  250 is at   0.272898  2.886850  0.360478
      ESP Fit Center  251 is at   1.376773  3.083247 -0.354305
      ESP Fit Center  252 is at   0.300435  2.893460 -0.354305
      ESP Fit Center  253 is at   2.323289  2.536776 -1.392603
      ESP Fit Center  254 is at   1.376773  3.083247 -1.392603
      ESP Fit Center  255 is at   0.300435  2.893460 -1.392603
      ESP Fit Center  256 is at   2.086801  1.509746 -2.232603
      ESP Fit Center  257 is at   1.404470  2.448895 -2.232603
      ESP Fit Center  258 is at   1.404470  0.570597 -2.232603
      ESP Fit Center  259 is at   1.099322  1.509746 -2.553454
      ESP Fit Center  260 is at   1.605698 -1.963534  0.000000
      ESP Fit Center  261 is at   3.543304 -1.728266  0.000000
      ESP Fit Center  262 is at   1.577350 -1.978036 -0.385005
      ESP Fit Center  263 is at   2.653688 -2.167823 -0.385005
      ESP Fit Center  264 is at   0.874820 -1.140793 -1.423303
      ESP Fit Center  265 is at   1.577350 -1.978036 -1.423303
      ESP Fit Center  266 is at   2.653688 -2.167823 -1.423303
      ESP Fit Center  267 is at   3.600204 -1.621352 -1.423303
      ESP Fit Center  268 is at   3.363716 -0.594322 -2.263303
      ESP Fit Center  269 is at   2.681385  0.344827 -2.263303
      ESP Fit Center  270 is at   1.577350 -0.013896 -2.263303
      ESP Fit Center  271 is at   1.577350 -1.174748 -2.263303
      ESP Fit Center  272 is at   2.681385 -1.533471 -2.263303
      ESP Fit Center  273 is at   2.376237 -0.594322 -2.584154
      ESP Fit Center  274 is at   1.523037 -0.108592  2.192952
      ESP Fit Center  275 is at   1.523037 -1.269444  2.192952
      ESP Fit Center  276 is at   2.627072 -1.628167  2.192952
      ESP Fit Center  277 is at   0.820507 -1.235489  1.352952
      ESP Fit Center  278 is at   1.523037 -2.072732  1.352952
      ESP Fit Center  279 is at   2.599375 -2.262519  1.352952
      ESP Fit Center  280 is at   1.523037 -2.072732  0.314654
      ESP Fit Center  281 is at   2.599375 -2.262519  0.314654
      ESP Fit Center  282 is at   3.545891 -1.716048  0.314654
      ESP Fit Center  283 is at   6.280474  0.961658  0.566795
      ESP Fit Center  284 is at   6.043931  1.998021  0.566795
      ESP Fit Center  285 is at   4.423409  3.290345  0.566795
      ESP Fit Center  286 is at   3.360393  3.290345  0.566795
      ESP Fit Center  287 is at   2.402650  2.829120  0.566795
      ESP Fit Center  288 is at   4.423409 -1.367029  0.566795
      ESP Fit Center  289 is at   5.381152 -0.905804  0.566795
      ESP Fit Center  290 is at   6.043931 -0.074705  0.566795
      ESP Fit Center  291 is at   6.280474  0.961658 -0.523557
      ESP Fit Center  292 is at   6.043931  1.998021 -0.523557
      ESP Fit Center  293 is at   5.381152  2.829120 -0.523557
      ESP Fit Center  294 is at   4.423409  3.290345 -0.523557
      ESP Fit Center  295 is at   3.360393  3.290345 -0.523557
      ESP Fit Center  296 is at   2.402650  2.829120 -0.523557
      ESP Fit Center  297 is at   4.423409 -1.367029 -0.523557
      ESP Fit Center  298 is at   5.381152 -0.905804 -0.523557
      ESP Fit Center  299 is at   6.043931 -0.074705 -0.523557
      ESP Fit Center  300 is at   5.807388  0.961658 -1.505931
      ESP Fit Center  301 is at   5.503311  1.997249 -1.505931
      ESP Fit Center  302 is at   4.687623  2.704046 -1.505931
      ESP Fit Center  303 is at   3.619299  2.857648 -1.505931
      ESP Fit Center  304 is at   2.637524  2.409287 -1.505931
      ESP Fit Center  305 is at   4.687623 -0.780730 -1.505931
      ESP Fit Center  306 is at   5.503311 -0.073933 -1.505931
      ESP Fit Center  307 is at   4.954916  0.961658 -2.185755
      ESP Fit Center  308 is at   4.423409  1.882256 -2.185755
      ESP Fit Center  309 is at   3.360393  1.882256 -2.185755
      ESP Fit Center  310 is at   2.828886  0.961658 -2.185755
      ESP Fit Center  311 is at   3.360393  0.041060 -2.185755
      ESP Fit Center  312 is at   4.423409  0.041060 -2.185755
      ESP Fit Center  313 is at   3.891901  0.961658 -2.428381
      ESP Fit Center  314 is at   3.345151  3.312801  1.790587
      ESP Fit Center  315 is at   5.039207  3.770773  2.336924
      ESP Fit Center  316 is at   3.962869  3.580986  2.336924
      ESP Fit Center  317 is at   6.359531  2.197272  1.298626
      ESP Fit Center  318 is at   5.985723  3.224302  1.298626
      ESP Fit Center  319 is at   5.039207  3.770773  1.298626
      ESP Fit Center  320 is at   3.962869  3.580986  1.298626
      ESP Fit Center  321 is at   5.066904  3.136421  0.458626
      ESP Fit Center  322 is at   3.451858  2.617560  3.564628
      ESP Fit Center  323 is at   2.347823  2.258837  3.564628
      ESP Fit Center  324 is at   2.347823  1.097985  3.564628
      ESP Fit Center  325 is at   3.424161  3.251912  2.724628
      ESP Fit Center  326 is at   2.347823  3.062125  2.724628
      ESP Fit Center  327 is at   1.645293  2.224882  2.724628
      ESP Fit Center  328 is at   1.645293  1.131940  2.724628
      ESP Fit Center  329 is at   2.347823  0.294697  2.724628
      ESP Fit Center  330 is at   2.347823  3.062125  1.686330
      ESP Fit Center  331 is at   5.878554 -1.712866  2.710917
      ESP Fit Center  332 is at   6.825070 -1.166395  2.710917
      ESP Fit Center  333 is at   7.198878 -0.139365  1.672619
      ESP Fit Center  334 is at   6.825070  0.887665  1.672619
      ESP Fit Center  335 is at   5.878554 -1.712866  1.672619
      ESP Fit Center  336 is at   6.825070 -1.166395  1.672619
      ESP Fit Center  337 is at   6.588582 -0.139365  0.832619
      ESP Fit Center  338 is at   5.906251 -1.078514  0.832619
      ESP Fit Center  339 is at   3.188139 -1.241581  3.930832
      ESP Fit Center  340 is at   2.485609 -0.114684  3.090832
      ESP Fit Center  341 is at   2.485609 -1.207626  3.090832
      ESP Fit Center  342 is at   3.188139 -2.044869  3.090832
      ESP Fit Center  343 is at   4.264477 -2.234656  3.090832
      ESP Fit Center  344 is at   3.188139 -2.044869  2.052534
      ESP Fit Center  345 is at   4.264477 -2.234656  2.052534
      ESP Fit Center  346 is at   4.292174 -1.600304  1.212534
      ESP Fit Center  347 is at   4.842999  0.564370  6.827034
      ESP Fit Center  348 is at   5.906014  0.564370  6.584408
      ESP Fit Center  349 is at   4.311491  1.484968  6.584408
      ESP Fit Center  350 is at   3.779984  0.564370  6.584408
      ESP Fit Center  351 is at   4.311491 -0.356228  6.584408
      ESP Fit Center  352 is at   5.374507 -0.356228  6.584408
      ESP Fit Center  353 is at   4.570397  2.460360  5.904584
      ESP Fit Center  354 is at   3.588622  2.011999  5.904584
      ESP Fit Center  355 is at   3.005103  1.104025  5.904584
      ESP Fit Center  356 is at   3.005103  0.024715  5.904584
      ESP Fit Center  357 is at   3.588622 -0.883259  5.904584
      ESP Fit Center  358 is at   4.570397 -1.331620  5.904584
      ESP Fit Center  359 is at   5.638721 -1.178018  5.904584
      ESP Fit Center  360 is at   4.311491  2.893057  4.922210
      ESP Fit Center  361 is at   3.353748  2.431832  4.922210
      ESP Fit Center  362 is at   2.690969  1.600733  4.922210
      ESP Fit Center  363 is at   2.454426  0.564370  4.922210
      ESP Fit Center  364 is at   2.690969 -0.471993  4.922210
      ESP Fit Center  365 is at   3.353748 -1.303092  4.922210
      ESP Fit Center  366 is at   4.311491 -1.764317  4.922210
      ESP Fit Center  367 is at   5.374507 -1.764317  4.922210
      ESP Fit Center  368 is at   6.332250 -1.303092  4.922210
      ESP Fit Center  369 is at   4.311491  2.893057  3.831858
      ESP Fit Center  370 is at   3.353748  2.431832  3.831858
      ESP Fit Center  371 is at   2.690969  1.600733  3.831858
      ESP Fit Center  372 is at   2.454426  0.564370  3.831858
      ESP Fit Center  373 is at   2.690969 -0.471993  3.831858
      ESP Fit Center  374 is at   4.311491 -1.764317  3.831858
      ESP Fit Center  375 is at   5.374507 -1.764317  3.831858
      ESP Fit Center  376 is at   6.332250 -1.303092  3.831858
      ESP Fit Center  377 is at   6.316809  2.083951  7.058286
      ESP Fit Center  378 is at   6.621957  3.023100  6.737435
      ESP Fit Center  379 is at   5.517922  2.664377  6.737435
      ESP Fit Center  380 is at   5.517922  1.503525  6.737435
      ESP Fit Center  381 is at   6.621957  1.144802  6.737435
      ESP Fit Center  382 is at   6.594260  3.657452  5.897435
      ESP Fit Center  383 is at   5.517922  3.467665  5.897435
      ESP Fit Center  384 is at   4.815392  2.630422  5.897435
      ESP Fit Center  385 is at   6.594260  3.657452  4.859137
      ESP Fit Center  386 is at   5.517922  3.467665  4.859137
      ESP Fit Center  387 is at   6.579921  3.928122  4.180090
      ESP Fit Center  388 is at   5.503583  3.738335  4.180090
      ESP Fit Center  389 is at   7.526437  3.381651  3.141792
      ESP Fit Center  390 is at   6.579921  3.928122  3.141792
      ESP Fit Center  391 is at   5.503583  3.738335  3.141792
      ESP Fit Center  392 is at   7.289949  2.354621  2.301792
      ESP Fit Center  393 is at   6.607618  3.293770  2.301792
      ESP Fit Center  394 is at   6.607618  1.415472  2.301792
      ESP Fit Center  395 is at   6.890503  0.587816  6.397348
      ESP Fit Center  396 is at   6.890503 -0.573036  6.397348
      ESP Fit Center  397 is at   6.890503 -1.376324  5.557348
      ESP Fit Center  398 is at   7.966841 -1.566111  5.557348
      ESP Fit Center  399 is at   8.913357 -1.019640  5.557348
      ESP Fit Center  400 is at   6.890503 -1.376324  4.519050
      ESP Fit Center  401 is at   7.966841 -1.566111  4.519050
      ESP Fit Center  402 is at   8.913357 -1.019640  4.519050
      ESP Fit Center  403 is at   7.952717 -1.295098  3.840016
      ESP Fit Center  404 is at   6.876379 -1.105311  2.801718
      ESP Fit Center  405 is at   7.952717 -1.295098  2.801718
      ESP Fit Center  406 is at   8.899233 -0.748627  2.801718
      ESP Fit Center  407 is at   8.662745  0.278403  1.961718
      ESP Fit Center  408 is at   7.980414  1.217552  1.961718
      ESP Fit Center  409 is at   7.980414 -0.660746  1.961718
      ESP Fit Center  410 is at   7.675266  0.278403  1.640867
      ESP Fit Center  411 is at  11.536459  1.796728  4.869025
      ESP Fit Center  412 is at  11.299916  2.833091  4.869025
      ESP Fit Center  413 is at   9.679394  4.125415  4.869025
      ESP Fit Center  414 is at   8.616378  4.125415  4.869025
      ESP Fit Center  415 is at   7.658635  3.664190  4.869025
      ESP Fit Center  416 is at   9.679394 -0.531959  4.869025
      ESP Fit Center  417 is at  10.637137 -0.070734  4.869025
      ESP Fit Center  418 is at  11.299916  0.760365  4.869025
      ESP Fit Center  419 is at  11.536459  1.796728  3.778673
      ESP Fit Center  420 is at  11.299916  2.833091  3.778673
      ESP Fit Center  421 is at  10.637137  3.664190  3.778673
      ESP Fit Center  422 is at   9.679394  4.125415  3.778673
      ESP Fit Center  423 is at   8.616378  4.125415  3.778673
      ESP Fit Center  424 is at   7.658635  3.664190  3.778673
      ESP Fit Center  425 is at   9.679394 -0.531959  3.778673
      ESP Fit Center  426 is at  10.637137 -0.070734  3.778673
      ESP Fit Center  427 is at  11.299916  0.760365  3.778673
      ESP Fit Center  428 is at  11.063373  1.796728  2.796299
      ESP Fit Center  429 is at  10.759296  2.832319  2.796299
      ESP Fit Center  430 is at   9.943608  3.539116  2.796299
      ESP Fit Center  431 is at   8.875284  3.692718  2.796299
      ESP Fit Center  432 is at   7.893509  3.244357  2.796299
      ESP Fit Center  433 is at   9.943608  0.054340  2.796299
      ESP Fit Center  434 is at  10.759296  0.761137  2.796299
      ESP Fit Center  435 is at  10.210901  1.796728  2.116475
      ESP Fit Center  436 is at   9.679394  2.717326  2.116475
      ESP Fit Center  437 is at   8.616378  2.717326  2.116475
      ESP Fit Center  438 is at   8.084871  1.796728  2.116475
      ESP Fit Center  439 is at   9.679394  0.876130  2.116475
      ESP Fit Center  440 is at   9.147886  1.796728  1.873849
      ESP Fit Center  441 is at   9.841882  3.114762  7.908815
      ESP Fit Center  442 is at  11.047875  2.993308  7.470291
      ESP Fit Center  443 is at  10.365544  3.932457  7.470291
      ESP Fit Center  444 is at  11.658171  2.993308  6.630291
      ESP Fit Center  445 is at  11.284363  4.020338  6.630291
      ESP Fit Center  446 is at  10.337847  4.566809  6.630291
      ESP Fit Center  447 is at   9.261509  4.377022  6.630291
      ESP Fit Center  448 is at  11.658171  2.993308  5.591993
      ESP Fit Center  449 is at  11.284363  4.020338  5.591993
      ESP Fit Center  450 is at  10.337847  4.566809  5.591993
      ESP Fit Center  451 is at   9.261509  4.377022  5.591993
      ESP Fit Center  452 is at  10.365544  3.932457  4.751993
      ESP Fit Center  453 is at   8.393499  2.640632  8.132587
      ESP Fit Center  454 is at   8.698647  3.579781  7.811736
      ESP Fit Center  455 is at   7.594612  3.221058  7.811736
      ESP Fit Center  456 is at   7.594612  2.060206  7.811736
      ESP Fit Center  457 is at   8.670950  4.214133  6.971736
      ESP Fit Center  458 is at   7.594612  4.024346  6.971736
      ESP Fit Center  459 is at   6.892082  3.187103  6.971736
      ESP Fit Center  460 is at   6.892082  2.094161  6.971736
      ESP Fit Center  461 is at   7.594612  1.256918  6.971736
      ESP Fit Center  462 is at   8.670950  4.214133  5.933438
      ESP Fit Center  463 is at   7.594612  4.024346  5.933438
      ESP Fit Center  464 is at  11.577339  1.046391  8.028659
      ESP Fit Center  465 is at   8.013701  1.558765  8.028659
      ESP Fit Center  466 is at  10.514182 -0.607914  8.028659
      ESP Fit Center  467 is at  11.618144  2.022310  6.978659
      ESP Fit Center  468 is at  11.690624  0.637559  7.998524
      ESP Fit Center  469 is at  11.008293 -0.301590  7.998524
      ESP Fit Center  470 is at  12.300920  0.637559  7.158524
      ESP Fit Center  471 is at  11.927112  1.664589  7.158524
      ESP Fit Center  472 is at  10.980596 -0.935942  7.158524
      ESP Fit Center  473 is at  11.927112 -0.389471  7.158524
      ESP Fit Center  474 is at  12.300920  0.637559  6.120226
      ESP Fit Center  475 is at  11.927112  1.664589  6.120226
      ESP Fit Center  476 is at  10.980596 -0.935942  6.120226
      ESP Fit Center  477 is at  11.927112 -0.389471  6.120226
      ESP Fit Center  478 is at  11.690624  0.637559  5.280226
      ESP Fit Center  479 is at  11.008293 -0.301590  5.280226
      ESP Fit Center  480 is at   9.881869  1.390125  9.681832
      ESP Fit Center  481 is at  10.869348  1.390125  9.360981
      ESP Fit Center  482 is at  10.187017  2.329274  9.360981
      ESP Fit Center  483 is at   9.082982  1.970551  9.360981
      ESP Fit Center  484 is at   9.082982  0.809699  9.360981
      ESP Fit Center  485 is at  10.187017  0.450976  9.360981
      ESP Fit Center  486 is at  11.479644  1.390125  8.520981
      ESP Fit Center  487 is at  11.105836  2.417155  8.520981
      ESP Fit Center  488 is at  10.159320  2.963626  8.520981
      ESP Fit Center  489 is at   9.082982  2.773839  8.520981
      ESP Fit Center  490 is at   8.380452  1.936596  8.520981
      ESP Fit Center  491 is at  11.105836  0.363095  8.520981
      ESP Fit Center  492 is at   8.230447 -0.336323  8.347552
      ESP Fit Center  493 is at   9.334482 -0.695046  8.347552
      ESP Fit Center  494 is at   7.527917  0.790574  7.507552
      ESP Fit Center  495 is at   7.527917 -0.302368  7.507552
      ESP Fit Center  496 is at   8.230447 -1.139611  7.507552
      ESP Fit Center  497 is at   9.306785 -1.329398  7.507552
      ESP Fit Center  498 is at   8.230447 -1.139611  6.469254
      ESP Fit Center  499 is at   9.306785 -1.329398  6.469254
      ESP Fit Center  500 is at   9.334482 -0.695046  5.629254
      ESP Fit Center  501 is at  -8.287942 -0.542835 -0.059817
      ESP Fit Center  502 is at -10.396053 -1.558048 -1.925767
      ESP Fit Center  503 is at  -9.746800 -2.372185 -1.925767
      ESP Fit Center  504 is at -10.627769 -0.542835 -2.993867
      ESP Fit Center  505 is at  -9.516720  0.875250 -3.956193
      ESP Fit Center  506 is at  -7.508459 -2.249664 -3.956193
      ESP Fit Center  507 is at  -8.017683 -1.456161 -0.021904
      ESP Fit Center  508 is at  -7.057683 -1.456161 -0.279135
      ESP Fit Center  509 is at  -8.977683 -1.456161 -0.279135
      ESP Fit Center  510 is at  -8.497683 -2.287545 -0.279135
      ESP Fit Center  511 is at  -7.537683 -2.287545 -0.279135
      ESP Fit Center  512 is at  -9.362891 -2.433512 -0.981904
      ESP Fit Center  513 is at  -8.531507 -3.037548 -0.981904
      ESP Fit Center  514 is at  -7.503859 -3.037548 -0.981904
      ESP Fit Center  515 is at  -6.672475 -2.433512 -0.981904
      ESP Fit Center  516 is at  -8.977683 -3.118930 -1.941904
      ESP Fit Center  517 is at  -8.017683 -3.376161 -1.941904
      ESP Fit Center  518 is at  -7.057683 -3.118930 -1.941904
      ESP Fit Center  519 is at  -6.354914 -2.416161 -1.941904
      ESP Fit Center  520 is at  -8.531507 -3.037548 -2.901904
      ESP Fit Center  521 is at  -7.503859 -3.037548 -2.901904
      ESP Fit Center  522 is at  -6.672475 -2.433512 -2.901904
      ESP Fit Center  523 is at  -9.013057 -0.010765  0.065336
      ESP Fit Center  524 is at  -8.533057  0.820619 -0.191895
      ESP Fit Center  525 is at  -9.493057  0.820619 -0.191895
      ESP Fit Center  526 is at  -9.973057 -0.010765 -0.191895
      ESP Fit Center  527 is at  -9.493057 -0.842149 -0.191895
      ESP Fit Center  528 is at  -8.499233  1.570622 -0.894664
      ESP Fit Center  529 is at  -9.526881  1.570622 -0.894664
      ESP Fit Center  530 is at -10.358265  0.966586 -0.894664
      ESP Fit Center  531 is at -10.675826 -0.010765 -0.894664
      ESP Fit Center  532 is at -10.358265 -0.988116 -0.894664
      ESP Fit Center  533 is at  -9.013057  1.909235 -1.854664
      ESP Fit Center  534 is at  -9.973057  1.652004 -1.854664
      ESP Fit Center  535 is at -10.675826  0.949235 -1.854664
      ESP Fit Center  536 is at -10.933057 -0.010765 -1.854664
      ESP Fit Center  537 is at -10.675826 -0.970765 -1.854664
      ESP Fit Center  538 is at  -9.526881  1.570622 -2.814664
      ESP Fit Center  539 is at -10.358265  0.966586 -2.814664
      ESP Fit Center  540 is at -10.675826 -0.010765 -2.814664
      ESP Fit Center  541 is at -10.414513  0.154285 -3.405492
      ESP Fit Center  542 is at -10.671744 -0.805715 -3.405492
      ESP Fit Center  543 is at -10.414513 -1.765715 -3.405492
      ESP Fit Center  544 is at  -9.711744 -2.468484 -3.405492
      ESP Fit Center  545 is at  -8.751744 -2.725715 -3.405492
      ESP Fit Center  546 is at  -9.265568  0.775672 -4.365492
      ESP Fit Center  547 is at -10.096952  0.171636 -4.365492
      ESP Fit Center  548 is at -10.414513 -0.805715 -4.365492
      ESP Fit Center  549 is at -10.096952 -1.783066 -4.365492
      ESP Fit Center  550 is at  -9.265568 -2.387102 -4.365492
      ESP Fit Center  551 is at  -8.237920 -2.387102 -4.365492
      ESP Fit Center  552 is at  -7.406536 -1.783066 -4.365492
      ESP Fit Center  553 is at  -7.791744 -0.805715 -5.068261
      ESP Fit Center  554 is at  -8.271744  0.025669 -5.068261
      ESP Fit Center  555 is at  -9.231744  0.025669 -5.068261
      ESP Fit Center  556 is at  -9.711744 -0.805715 -5.068261
      ESP Fit Center  557 is at  -9.231744 -1.637099 -5.068261
      ESP Fit Center  558 is at  -8.271744 -1.637099 -5.068261
      ESP Fit Center  559 is at  -8.751744 -0.805715 -5.325492
      ESP Fit Center  560 is at  -5.483362  1.332588 -4.187143
      ESP Fit Center  561 is at  -8.103207  0.318132 -4.853092
      ESP Fit Center  562 is at  -7.061886  0.318132 -5.090767
      ESP Fit Center  563 is at  -5.825223 -1.795590 -2.345992
      ESP Fit Center  564 is at  -6.339047 -2.134203 -3.305992
      ESP Fit Center  565 is at  -5.379047 -1.876972 -3.305992
      ESP Fit Center  566 is at  -4.676278 -0.214203 -4.265992
      ESP Fit Center  567 is at  -4.993839  0.763148 -4.265992
      ESP Fit Center  568 is at  -6.852871 -1.795590 -4.265992
      ESP Fit Center  569 is at  -5.825223 -1.795590 -4.265992
      ESP Fit Center  570 is at  -4.993839 -1.191554 -4.265992
      ESP Fit Center  571 is at  -5.379047 -0.214203 -4.968761
      ESP Fit Center  572 is at  -5.859047  0.617181 -4.968761
      ESP Fit Center  573 is at  -6.819047 -1.045587 -4.968761
      ESP Fit Center  574 is at  -5.859047 -1.045587 -4.968761
      ESP Fit Center  575 is at  -6.339047 -0.214203 -5.225992
      ESP Fit Center  576 is at  -7.845341  2.810242 -2.262686
      ESP Fit Center  577 is at  -8.676725  2.206206 -2.262686
      ESP Fit Center  578 is at  -7.331517  3.148855 -3.222686
      ESP Fit Center  579 is at  -8.291517  2.891624 -3.222686
      ESP Fit Center  580 is at  -8.994286  2.188855 -3.222686
      ESP Fit Center  581 is at  -5.986309  2.206206 -4.182686
      ESP Fit Center  582 is at  -6.817693  2.810242 -4.182686
      ESP Fit Center  583 is at  -7.845341  2.810242 -4.182686
      ESP Fit Center  584 is at  -8.676725  2.206206 -4.182686
      ESP Fit Center  585 is at  -8.994286  1.228855 -4.182686
      ESP Fit Center  586 is at  -6.371517  1.228855 -4.885455
      ESP Fit Center  587 is at  -6.851517  2.060239 -4.885455
      ESP Fit Center  588 is at  -7.811517  2.060239 -4.885455
      ESP Fit Center  589 is at  -8.291517  1.228855 -4.885455
      ESP Fit Center  590 is at  -7.331517  1.228855 -5.142686
      ESP Fit Center  591 is at  -6.511285  0.642418  0.795633
      ESP Fit Center  592 is at  -6.997235  1.484108  0.573803
      ESP Fit Center  593 is at  -7.483185  0.642418  0.573803
      ESP Fit Center  594 is at  -6.997235 -0.199272  0.573803
      ESP Fit Center  595 is at  -6.025335 -0.199272  0.573803
      ESP Fit Center  596 is at  -7.928119  1.671808 -0.047750
      ESP Fit Center  597 is at  -8.262588  0.642418 -0.047750
      ESP Fit Center  598 is at  -7.928119 -0.386972 -0.047750
      ESP Fit Center  599 is at  -7.052467 -1.023170 -0.047750
      ESP Fit Center  600 is at  -5.970103 -1.023170 -0.047750
      ESP Fit Center  601 is at  -8.145912  2.090571 -0.945920
      ESP Fit Center  602 is at  -6.248052 -1.525498 -0.945920
      ESP Fit Center  603 is at  -6.810996  3.251986 -0.935334
      ESP Fit Center  604 is at  -5.348557  2.031583  1.345510
      ESP Fit Center  605 is at  -4.388557  2.031583  1.088279
      ESP Fit Center  606 is at  -4.868557  2.862967  1.088279
      ESP Fit Center  607 is at  -5.828557  2.862967  1.088279
      ESP Fit Center  608 is at  -6.308557  2.031583  1.088279
      ESP Fit Center  609 is at  -5.828557  1.200199  1.088279
      ESP Fit Center  610 is at  -4.868557  1.200199  1.088279
      ESP Fit Center  611 is at  -4.003349  3.008934  0.385510
      ESP Fit Center  612 is at  -4.834733  3.612970  0.385510
      ESP Fit Center  613 is at  -5.862381  3.612970  0.385510
      ESP Fit Center  614 is at  -6.693765  3.008934  0.385510
      ESP Fit Center  615 is at  -7.011326  2.031583  0.385510
      ESP Fit Center  616 is at  -4.388557  3.694352 -0.574490
      ESP Fit Center  617 is at  -5.348557  3.951583 -0.574490
      ESP Fit Center  618 is at  -6.308557  3.694352 -0.574490
      ESP Fit Center  619 is at  -7.011326  2.991583 -0.574490
      ESP Fit Center  620 is at  -4.382264  3.754328 -2.325602
      ESP Fit Center  621 is at  -5.342264  4.011559 -2.325602
      ESP Fit Center  622 is at  -6.302264  3.754328 -2.325602
      ESP Fit Center  623 is at  -7.005033  3.051559 -2.325602
      ESP Fit Center  624 is at  -3.997056  3.068910 -3.285602
      ESP Fit Center  625 is at  -4.828440  3.672946 -3.285602
      ESP Fit Center  626 is at  -5.856088  3.672946 -3.285602
      ESP Fit Center  627 is at  -6.687472  3.068910 -3.285602
      ESP Fit Center  628 is at  -4.382264  2.091559 -3.988371
      ESP Fit Center  629 is at  -4.862264  2.922943 -3.988371
      ESP Fit Center  630 is at  -5.822264  2.922943 -3.988371
      ESP Fit Center  631 is at  -4.862264  1.260175 -3.988371
      ESP Fit Center  632 is at  -5.342264  2.091559 -4.245602
      ESP Fit Center  633 is at  -3.584072  1.456088  0.678488
      ESP Fit Center  634 is at  -4.106535 -0.088033  1.312643
      ESP Fit Center  635 is at  -3.626535  0.743351  1.055412
      ESP Fit Center  636 is at  -4.586535  0.743351  1.055412
      ESP Fit Center  637 is at  -5.066535 -0.088033  1.055412
      ESP Fit Center  638 is at  -4.586535 -0.919417  1.055412
      ESP Fit Center  639 is at  -3.626535 -0.919417  1.055412
      ESP Fit Center  640 is at  -5.451743 -1.065384  0.352643
      ESP Fit Center  641 is at  -4.620359 -1.669420  0.352643
      ESP Fit Center  642 is at  -3.592711 -1.669420  0.352643
      ESP Fit Center  643 is at  -5.066535 -1.750802 -0.607357
      ESP Fit Center  644 is at  -4.106535 -2.008033 -0.607357
      ESP Fit Center  645 is at  -3.146535 -1.750802 -0.607357
      ESP Fit Center  646 is at  -5.051424 -1.750012 -2.362488
      ESP Fit Center  647 is at  -4.091424 -2.007243 -2.362488
      ESP Fit Center  648 is at  -3.131424 -1.750012 -2.362488
      ESP Fit Center  649 is at  -4.605248 -1.668630 -3.322488
      ESP Fit Center  650 is at  -3.577600 -1.668630 -3.322488
      ESP Fit Center  651 is at  -3.131424 -0.087243 -4.025257
      ESP Fit Center  652 is at  -3.611424  0.744141 -4.025257
      ESP Fit Center  653 is at  -4.571424  0.744141 -4.025257
      ESP Fit Center  654 is at  -4.571424 -0.918627 -4.025257
      ESP Fit Center  655 is at  -3.611424 -0.918627 -4.025257
      ESP Fit Center  656 is at  -4.091424 -0.087243 -4.282488
      ESP Fit Center  657 is at  -3.486728  2.254804  0.522846
      ESP Fit Center  658 is at  -2.459596  3.078702 -0.098707
      ESP Fit Center  659 is at  -3.541960  3.078702 -0.098707
      ESP Fit Center  660 is at  -1.760216  3.210378 -0.996877
      ESP Fit Center  661 is at  -2.737545  3.581030 -0.996877
      ESP Fit Center  662 is at  -3.775178  3.455038 -0.996877
      ESP Fit Center  663 is at  -2.737545  3.581030 -1.993771
      ESP Fit Center  664 is at  -3.775178  3.455038 -1.993771
      ESP Fit Center  665 is at  -2.459596  3.078702 -2.891941
      ESP Fit Center  666 is at  -3.541960  3.078702 -2.891941
      ESP Fit Center  667 is at  -2.514828  2.254804 -3.513494
      ESP Fit Center  668 is at  -3.486728  2.254804 -3.513494
      ESP Fit Center  669 is at  -3.000778  1.413114 -3.735324
      ESP Fit Center  670 is at  -1.221203  3.084601 -0.930142
      ESP Fit Center  671 is at  -2.262523  1.705248 -3.626517
      ESP Fit Center  672 is at  -1.741863  0.803438 -3.864192
      ESP Fit Center  673 is at  -0.548470  3.035547 -1.040518
      ESP Fit Center  674 is at  -0.102294  3.116929 -2.000518
      ESP Fit Center  675 is at  -1.062294  3.374160 -2.000518
      ESP Fit Center  676 is at   0.600475  1.454160 -2.960518
      ESP Fit Center  677 is at   0.282914  2.431511 -2.960518
      ESP Fit Center  678 is at  -0.548470  3.035547 -2.960518
      ESP Fit Center  679 is at  -1.576118  3.035547 -2.960518
      ESP Fit Center  680 is at   0.282914  0.476809 -2.960518
      ESP Fit Center  681 is at  -0.102294  1.454160 -3.663287
      ESP Fit Center  682 is at  -0.582294  2.285544 -3.663287
      ESP Fit Center  683 is at  -1.542294  2.285544 -3.663287
      ESP Fit Center  684 is at  -0.582294  0.622776 -3.663287
      ESP Fit Center  685 is at  -1.062294  1.454160 -3.920518
      ESP Fit Center  686 is at  -2.269039 -1.735813 -1.017213
      ESP Fit Center  687 is at  -1.241391 -1.735813 -1.017213
      ESP Fit Center  688 is at  -2.715215 -1.817195 -1.977213
      ESP Fit Center  689 is at  -1.755215 -2.074426 -1.977213
      ESP Fit Center  690 is at  -0.795215 -1.817195 -1.977213
      ESP Fit Center  691 is at  -0.092446 -1.114426 -1.977213
      ESP Fit Center  692 is at  -0.092446 -0.154426 -2.937213
      ESP Fit Center  693 is at  -2.269039 -1.735813 -2.937213
      ESP Fit Center  694 is at  -1.241391 -1.735813 -2.937213
      ESP Fit Center  695 is at  -0.410007 -1.131777 -2.937213
      ESP Fit Center  696 is at  -0.795215 -0.154426 -3.639982
      ESP Fit Center  697 is at  -2.235215 -0.985810 -3.639982
      ESP Fit Center  698 is at  -1.275215 -0.985810 -3.639982
      ESP Fit Center  699 is at  -1.755215 -0.154426 -3.897213
      ESP Fit Center  700 is at  -1.261341  0.609063  2.369504
      ESP Fit Center  701 is at  -0.740681 -0.292747  2.131829
      ESP Fit Center  702 is at  -1.782001 -1.672100 -0.564546
      ESP Fit Center  703 is at  -1.939104 -0.042812  2.426080
      ESP Fit Center  704 is at  -2.419104  0.788572  2.168849
      ESP Fit Center  705 is at  -2.899104 -0.042812  2.168849
      ESP Fit Center  706 is at  -2.419104 -0.874196  2.168849
      ESP Fit Center  707 is at  -1.459104 -0.874196  2.168849
      ESP Fit Center  708 is at  -3.284312  0.934539  1.466080
      ESP Fit Center  709 is at  -3.601873 -0.042812  1.466080
      ESP Fit Center  710 is at  -3.284312 -1.020163  1.466080
      ESP Fit Center  711 is at  -2.452928 -1.624199  1.466080
      ESP Fit Center  712 is at  -1.425280 -1.624199  1.466080
      ESP Fit Center  713 is at  -2.899104 -1.705581  0.506080
      ESP Fit Center  714 is at  -1.939104 -1.962812  0.506080
      ESP Fit Center  715 is at  -2.452928 -1.624199 -0.453920
      ESP Fit Center  716 is at  -1.248826  1.566569  2.403067
      ESP Fit Center  717 is at  -0.768826  2.397953  2.145836
      ESP Fit Center  718 is at  -1.728826  2.397953  2.145836
      ESP Fit Center  719 is at  -2.208826  1.566569  2.145836
      ESP Fit Center  720 is at  -0.735002  3.147956  1.443067
      ESP Fit Center  721 is at  -1.762650  3.147956  1.443067
      ESP Fit Center  722 is at  -2.594034  2.543920  1.443067
      ESP Fit Center  723 is at  -2.911595  1.566569  1.443067
      ESP Fit Center  724 is at  -0.288826  3.229338  0.483067
      ESP Fit Center  725 is at  -1.248826  3.486569  0.483067
      ESP Fit Center  726 is at  -2.208826  3.229338  0.483067
      ESP Fit Center  727 is at  -2.911595  2.526569  0.483067
      ESP Fit Center  728 is at  -0.735002  3.147956 -0.476933
      ESP Fit Center  729 is at  -1.762650  3.147956 -0.476933
      ESP Fit Center  730 is at   0.000000  0.000000  2.240000
      ESP Fit Center  731 is at  -0.485950 -0.841690  2.018170
      ESP Fit Center  732 is at   0.485950 -0.841690  2.018170
      ESP Fit Center  733 is at  -0.541182 -1.665588  1.396617
      ESP Fit Center  734 is at   0.541182 -1.665588  1.396617
      ESP Fit Center  735 is at  -0.774400 -2.041924  0.498447
      ESP Fit Center  736 is at   0.263233 -2.167916  0.498447
      ESP Fit Center  737 is at  -0.774400 -2.041924 -0.498447
      ESP Fit Center  738 is at   0.263233 -2.167916 -0.498447
      ESP Fit Center  739 is at  -0.541182 -1.665588 -1.396617
      ESP Fit Center  740 is at   0.541182 -1.665588 -1.396617
      ESP Fit Center  741 is at   0.485950 -0.841690 -2.018170
      ESP Fit Center  742 is at   1.071785  1.503136  2.799627
      ESP Fit Center  743 is at   0.591785  2.334520  2.542396
      ESP Fit Center  744 is at   0.111785  1.503136  2.542396
      ESP Fit Center  745 is at   0.591785  0.671752  2.542396
      ESP Fit Center  746 is at   1.585609  3.084523  1.839627
      ESP Fit Center  747 is at   0.557961  3.084523  1.839627
      ESP Fit Center  748 is at   2.031785  3.165905  0.879627
      ESP Fit Center  749 is at   1.071785  3.423136  0.879627
      ESP Fit Center  750 is at   0.111785  3.165905  0.879627
      ESP Fit Center  751 is at   2.059322  3.172515 -0.873454
      ESP Fit Center  752 is at   1.099322  3.429746 -0.873454
      ESP Fit Center  753 is at   0.139322  3.172515 -0.873454
      ESP Fit Center  754 is at   2.444530  2.487097 -1.833454
      ESP Fit Center  755 is at   1.613146  3.091133 -1.833454
      ESP Fit Center  756 is at   0.585498  3.091133 -1.833454
      ESP Fit Center  757 is at   2.059322  1.509746 -2.536223
      ESP Fit Center  758 is at   1.579322  2.341130 -2.536223
      ESP Fit Center  759 is at   0.619322  2.341130 -2.536223
      ESP Fit Center  760 is at   0.619322  0.678362 -2.536223
      ESP Fit Center  761 is at   1.579322  0.678362 -2.536223
      ESP Fit Center  762 is at   1.099322  1.509746 -2.793454
      ESP Fit Center  763 is at   3.809226 -1.829350 -0.534050
      ESP Fit Center  764 is at   1.416237 -2.257091 -0.904154
      ESP Fit Center  765 is at   2.376237 -2.514322 -0.904154
      ESP Fit Center  766 is at   3.336237 -2.257091 -0.904154
      ESP Fit Center  767 is at   1.031029 -1.571673 -1.864154
      ESP Fit Center  768 is at   1.862413 -2.175709 -1.864154
      ESP Fit Center  769 is at   2.890061 -2.175709 -1.864154
      ESP Fit Center  770 is at   3.721445 -1.571673 -1.864154
      ESP Fit Center  771 is at   3.336237 -0.594322 -2.566923
      ESP Fit Center  772 is at   2.856237  0.237062 -2.566923
      ESP Fit Center  773 is at   1.896237  0.237062 -2.566923
      ESP Fit Center  774 is at   1.416237 -0.594322 -2.566923
      ESP Fit Center  775 is at   1.896237 -1.425706 -2.566923
      ESP Fit Center  776 is at   2.856237 -1.425706 -2.566923
      ESP Fit Center  777 is at   2.376237 -0.594322 -2.824154
      ESP Fit Center  778 is at   1.841924  0.142366  2.496572
      ESP Fit Center  779 is at   1.361924 -0.689018  2.496572
      ESP Fit Center  780 is at   1.841924 -1.520402  2.496572
      ESP Fit Center  781 is at   0.976716 -1.666369  1.793803
      ESP Fit Center  782 is at   1.808100 -2.270405  1.793803
      ESP Fit Center  783 is at   2.835748 -2.270405  1.793803
      ESP Fit Center  784 is at   1.361924 -2.351787  0.833803
      ESP Fit Center  785 is at   2.321924 -2.609018  0.833803
      ESP Fit Center  786 is at   3.281924 -2.351787  0.833803
      ESP Fit Center  787 is at   2.598470  3.201947  1.093133
      ESP Fit Center  788 is at   6.691901  0.961658  0.021619
      ESP Fit Center  789 is at   6.502823  1.973135  0.021619
      ESP Fit Center  790 is at   5.961126  2.848006  0.021619
      ESP Fit Center  791 is at   5.139968  3.468115  0.021619
      ESP Fit Center  792 is at   4.150252  3.749714  0.021619
      ESP Fit Center  793 is at   3.125645  3.654770  0.021619
      ESP Fit Center  794 is at   2.204524  3.196106  0.021619
      ESP Fit Center  795 is at   4.150252 -1.826398  0.021619
      ESP Fit Center  796 is at   5.139968 -1.544799  0.021619
      ESP Fit Center  797 is at   5.961126 -0.924690  0.021619
      ESP Fit Center  798 is at   6.502823 -0.049819  0.021619
      ESP Fit Center  799 is at   6.478764  0.961658 -1.049895
      ESP Fit Center  800 is at   6.255118  2.013830 -1.049895
      ESP Fit Center  801 is at   5.622850  2.884072 -1.049895
      ESP Fit Center  802 is at   4.691286  3.421911 -1.049895
      ESP Fit Center  803 is at   3.621500  3.534350 -1.049895
      ESP Fit Center  804 is at   2.598470  3.201947 -1.049895
      ESP Fit Center  805 is at   4.691286 -1.498595 -1.049895
      ESP Fit Center  806 is at   5.622850 -0.960756 -1.049895
      ESP Fit Center  807 is at   6.255118 -0.090514 -1.049895
      ESP Fit Center  808 is at   5.871800  0.961658 -1.958280
      ESP Fit Center  809 is at   5.606544  1.951607 -1.958280
      ESP Fit Center  810 is at   4.881850  2.676301 -1.958280
      ESP Fit Center  811 is at   3.891901  2.941557 -1.958280
      ESP Fit Center  812 is at   2.901952  2.676301 -1.958280
      ESP Fit Center  813 is at   4.881850 -0.752985 -1.958280
      ESP Fit Center  814 is at   5.606544 -0.028291 -1.958280
      ESP Fit Center  815 is at   4.963415  0.961658 -2.565244
      ESP Fit Center  816 is at   4.427658  1.889616 -2.565244
      ESP Fit Center  817 is at   3.356144  1.889616 -2.565244
      ESP Fit Center  818 is at   2.820387  0.961658 -2.565244
      ESP Fit Center  819 is at   3.356144  0.033700 -2.565244
      ESP Fit Center  820 is at   4.427658  0.033700 -2.565244
      ESP Fit Center  821 is at   3.891901  0.961658 -2.778381
      ESP Fit Center  822 is at   3.822782  3.206564  3.286963
      ESP Fit Center  823 is at   3.569161  3.630430  2.324637
      ESP Fit Center  824 is at   6.429648  1.349267  1.256537
      ESP Fit Center  825 is at   3.569161  3.630430  1.256537
      ESP Fit Center  826 is at   5.275580  3.778659  2.777775
      ESP Fit Center  827 is at   4.247932  3.778659  2.777775
      ESP Fit Center  828 is at   6.424525  3.157272  1.817775
      ESP Fit Center  829 is at   5.721756  3.860041  1.817775
      ESP Fit Center  830 is at   4.761756  4.117272  1.817775
      ESP Fit Center  831 is at   3.801756  3.860041  1.817775
      ESP Fit Center  832 is at   6.424525  2.197272  0.857775
      ESP Fit Center  833 is at   6.106964  3.174623  0.857775
      ESP Fit Center  834 is at   5.275580  3.778659  0.857775
      ESP Fit Center  835 is at   4.247932  3.778659  0.857775
      ESP Fit Center  836 is at   2.666710  2.509795  3.868248
      ESP Fit Center  837 is at   2.186710  1.678411  3.868248
      ESP Fit Center  838 is at   2.632886  3.259798  3.165479
      ESP Fit Center  839 is at   1.801502  2.655762  3.165479
      ESP Fit Center  840 is at   1.483941  1.678411  3.165479
      ESP Fit Center  841 is at   1.801502  0.701060  3.165479
      ESP Fit Center  842 is at   3.146710  3.598411  2.205479
      ESP Fit Center  843 is at   2.186710  3.341180  2.205479
      ESP Fit Center  844 is at   2.632886  3.259798  1.245479
      ESP Fit Center  845 is at   2.317010  0.188373  3.139141
      ESP Fit Center  846 is at   5.177497 -2.092790  3.139141
      ESP Fit Center  847 is at   5.177497 -2.092790  2.071041
      ESP Fit Center  848 is at   6.114927 -1.720752  3.151768
      ESP Fit Center  849 is at   5.601103 -2.059365  2.191768
      ESP Fit Center  850 is at   6.561103 -1.802134  2.191768
      ESP Fit Center  851 is at   7.263872 -0.139365  1.231768
      ESP Fit Center  852 is at   6.946311  0.837986  1.231768
      ESP Fit Center  853 is at   6.114927 -1.720752  1.231768
      ESP Fit Center  854 is at   6.946311 -1.116716  1.231768
      ESP Fit Center  855 is at   6.561103 -0.139365  0.528999
      ESP Fit Center  856 is at   6.081103 -0.970749  0.528999
      ESP Fit Center  857 is at   2.324257 -0.661155  3.531683
      ESP Fit Center  858 is at   2.641818 -1.638506  3.531683
      ESP Fit Center  859 is at   3.473202 -2.242542  3.531683
      ESP Fit Center  860 is at   4.500850 -2.242542  3.531683
      ESP Fit Center  861 is at   2.324257 -1.621155  2.571683
      ESP Fit Center  862 is at   3.027026 -2.323924  2.571683
      ESP Fit Center  863 is at   3.987026 -2.581155  2.571683
      ESP Fit Center  864 is at   4.947026 -2.323924  2.571683
      ESP Fit Center  865 is at   3.473202 -2.242542  1.611683
      ESP Fit Center  866 is at   4.500850 -2.242542  1.611683
      ESP Fit Center  867 is at   4.842999  0.564370  7.177034
      ESP Fit Center  868 is at   5.914513  0.564370  6.963897
      ESP Fit Center  869 is at   5.378756  1.492328  6.963897
      ESP Fit Center  870 is at   4.307242  1.492328  6.963897
      ESP Fit Center  871 is at   3.771485  0.564370  6.963897
      ESP Fit Center  872 is at   4.307242 -0.363588  6.963897
      ESP Fit Center  873 is at   5.378756 -0.363588  6.963897
      ESP Fit Center  874 is at   3.853050  2.279013  6.356933
      ESP Fit Center  875 is at   3.128356  1.554319  6.356933
      ESP Fit Center  876 is at   2.863100  0.564370  6.356933
      ESP Fit Center  877 is at   3.128356 -0.425579  6.356933
      ESP Fit Center  878 is at   3.853050 -1.150273  6.356933
      ESP Fit Center  879 is at   4.842999 -1.415529  6.356933
      ESP Fit Center  880 is at   5.832948 -1.150273  6.356933
      ESP Fit Center  881 is at   4.572598  3.137062  5.448548
      ESP Fit Center  882 is at   3.549568  2.804659  5.448548
      ESP Fit Center  883 is at   2.750183  2.084890  5.448548
      ESP Fit Center  884 is at   2.312665  1.102209  5.448548
      ESP Fit Center  885 is at   2.312665  0.026531  5.448548
      ESP Fit Center  886 is at   2.750183 -0.956150  5.448548
      ESP Fit Center  887 is at   3.549568 -1.675919  5.448548
      ESP Fit Center  888 is at   4.572598 -2.008322  5.448548
      ESP Fit Center  889 is at   5.642384 -1.895883  5.448548
      ESP Fit Center  890 is at   4.076743  3.257482  4.377034
      ESP Fit Center  891 is at   3.155622  2.798818  4.377034
      ESP Fit Center  892 is at   2.462391  2.038380  4.377034
      ESP Fit Center  893 is at   2.090674  1.078869  4.377034
      ESP Fit Center  894 is at   2.090674  0.049871  4.377034
      ESP Fit Center  895 is at   2.462391 -0.909640  4.377034
      ESP Fit Center  896 is at   3.155622 -1.670078  4.377034
      ESP Fit Center  897 is at   4.076743 -2.128742  4.377034
      ESP Fit Center  898 is at   5.101350 -2.223686  4.377034
      ESP Fit Center  899 is at   6.091066 -1.942087  4.377034
      ESP Fit Center  900 is at   2.312665  0.026531  3.305520
      ESP Fit Center  901 is at   5.642384 -1.895883  3.305520
      ESP Fit Center  902 is at   4.892614  3.413695  4.952830
      ESP Fit Center  903 is at   6.316809  2.083951  7.298286
      ESP Fit Center  904 is at   5.836809  2.915335  7.041055
      ESP Fit Center  905 is at   5.356809  2.083951  7.041055
      ESP Fit Center  906 is at   5.836809  1.252567  7.041055
      ESP Fit Center  907 is at   6.796809  1.252567  7.041055
      ESP Fit Center  908 is at   5.802985  3.665338  6.338286
      ESP Fit Center  909 is at   4.971601  3.061302  6.338286
      ESP Fit Center  910 is at   6.316809  4.003951  5.378286
      ESP Fit Center  911 is at   5.356809  3.746720  5.378286
      ESP Fit Center  912 is at   6.816294  3.936008  4.620941
      ESP Fit Center  913 is at   5.788646  3.936008  4.620941
      ESP Fit Center  914 is at   7.262470  4.017390  3.660941
      ESP Fit Center  915 is at   6.302470  4.274621  3.660941
      ESP Fit Center  916 is at   5.342470  4.017390  3.660941
      ESP Fit Center  917 is at   4.639701  3.314621  3.660941
      ESP Fit Center  918 is at   6.816294  3.936008  2.700941
      ESP Fit Center  919 is at   5.788646  3.936008  2.700941
      ESP Fit Center  920 is at   7.262470  2.354621  1.998172
      ESP Fit Center  921 is at   6.782470  3.186005  1.998172
      ESP Fit Center  922 is at   6.782470  1.523237  1.998172
      ESP Fit Center  923 is at   9.099903 -1.051643  3.746665
      ESP Fit Center  924 is at   7.209390  0.838774  6.700968
      ESP Fit Center  925 is at   6.729390  0.007390  6.700968
      ESP Fit Center  926 is at   7.209390 -0.823994  6.700968
      ESP Fit Center  927 is at   7.175566 -1.573997  5.998199
      ESP Fit Center  928 is at   8.203214 -1.573997  5.998199
      ESP Fit Center  929 is at   6.729390 -1.655379  5.038199
      ESP Fit Center  930 is at   7.689390 -1.912610  5.038199
      ESP Fit Center  931 is at   8.649390 -1.655379  5.038199
      ESP Fit Center  932 is at   9.352159 -0.952610  5.038199
      ESP Fit Center  933 is at   7.175566 -1.573997  4.078199
      ESP Fit Center  934 is at   8.203214 -1.573997  4.078199
      ESP Fit Center  935 is at   6.715266 -1.384366  3.320867
      ESP Fit Center  936 is at   7.675266 -1.641597  3.320867
      ESP Fit Center  937 is at   8.635266 -1.384366  3.320867
      ESP Fit Center  938 is at   7.161442 -1.302984  2.360867
      ESP Fit Center  939 is at   8.189090 -1.302984  2.360867
      ESP Fit Center  940 is at   9.020474 -0.698948  2.360867
      ESP Fit Center  941 is at   8.635266  0.278403  1.658098
      ESP Fit Center  942 is at   8.155266  1.109787  1.658098
      ESP Fit Center  943 is at   7.195266  1.109787  1.658098
      ESP Fit Center  944 is at   8.155266 -0.552981  1.658098
      ESP Fit Center  945 is at   7.675266  0.278403  1.400867
      ESP Fit Center  946 is at  11.734749  1.796728  5.395363
      ESP Fit Center  947 is at  11.947886  1.796728  4.323849
      ESP Fit Center  948 is at  11.758808  2.808205  4.323849
      ESP Fit Center  949 is at  11.217111  3.683076  4.323849
      ESP Fit Center  950 is at  10.395953  4.303185  4.323849
      ESP Fit Center  951 is at   9.406237  4.584784  4.323849
      ESP Fit Center  952 is at   8.381630  4.489840  4.323849
      ESP Fit Center  953 is at   7.460509  4.031176  4.323849
      ESP Fit Center  954 is at   9.406237 -0.991328  4.323849
      ESP Fit Center  955 is at  10.395953 -0.709729  4.323849
      ESP Fit Center  956 is at  11.217111 -0.089620  4.323849
      ESP Fit Center  957 is at  11.758808  0.785251  4.323849
      ESP Fit Center  958 is at  11.734749  1.796728  3.252335
      ESP Fit Center  959 is at  11.511103  2.848900  3.252335
      ESP Fit Center  960 is at  10.878835  3.719142  3.252335
      ESP Fit Center  961 is at   9.947271  4.256981  3.252335
      ESP Fit Center  962 is at   8.877485  4.369420  3.252335
      ESP Fit Center  963 is at   7.854455  4.037017  3.252335
      ESP Fit Center  964 is at   9.947271 -0.663525  3.252335
      ESP Fit Center  965 is at  10.878835 -0.125686  3.252335
      ESP Fit Center  966 is at  11.511103  0.744556  3.252335
      ESP Fit Center  967 is at  11.127785  1.796728  2.343950
      ESP Fit Center  968 is at  10.862529  2.786677  2.343950
      ESP Fit Center  969 is at  10.137835  3.511371  2.343950
      ESP Fit Center  970 is at   9.147886  3.776627  2.343950
      ESP Fit Center  971 is at   8.157937  3.511371  2.343950
      ESP Fit Center  972 is at  10.137835  0.082085  2.343950
      ESP Fit Center  973 is at  10.862529  0.806779  2.343950
      ESP Fit Center  974 is at  10.219400  1.796728  1.736986
      ESP Fit Center  975 is at   9.683643  2.724686  1.736986
      ESP Fit Center  976 is at   8.612129  2.724686  1.736986
      ESP Fit Center  977 is at   8.076372  1.796728  1.736986
      ESP Fit Center  978 is at   8.612129  0.868770  1.736986
      ESP Fit Center  979 is at   9.683643  0.868770  1.736986
      ESP Fit Center  980 is at   9.147886  1.796728  1.523849
      ESP Fit Center  981 is at   9.049843  4.062732  7.586538
      ESP Fit Center  982 is at   8.796222  4.486598  5.556112
      ESP Fit Center  983 is at  11.020396  2.993308  7.773911
      ESP Fit Center  984 is at  10.540396  3.824692  7.773911
      ESP Fit Center  985 is at  11.723165  2.993308  7.071142
      ESP Fit Center  986 is at  11.405604  3.970659  7.071142
      ESP Fit Center  987 is at  10.574220  4.574695  7.071142
      ESP Fit Center  988 is at   9.546572  4.574695  7.071142
      ESP Fit Center  989 is at  11.980396  2.993308  6.111142
      ESP Fit Center  990 is at  11.723165  3.953308  6.111142
      ESP Fit Center  991 is at  11.020396  4.656077  6.111142
      ESP Fit Center  992 is at  10.060396  4.913308  6.111142
      ESP Fit Center  993 is at   9.100396  4.656077  6.111142
      ESP Fit Center  994 is at  11.723165  2.993308  5.151142
      ESP Fit Center  995 is at  11.405604  3.970659  5.151142
      ESP Fit Center  996 is at  10.574220  4.574695  5.151142
      ESP Fit Center  997 is at   9.546572  4.574695  5.151142
      ESP Fit Center  998 is at   8.393499  2.640632  8.372587
      ESP Fit Center  999 is at   8.873499  3.472016  8.115356
      ESP Fit Center 1000 is at   7.913499  3.472016  8.115356
      ESP Fit Center 1001 is at   7.433499  2.640632  8.115356
      ESP Fit Center 1002 is at   8.907323  4.222019  7.412587
      ESP Fit Center 1003 is at   7.879675  4.222019  7.412587
      ESP Fit Center 1004 is at   7.048291  3.617983  7.412587
      ESP Fit Center 1005 is at   6.730730  2.640632  7.412587
      ESP Fit Center 1006 is at   7.048291  1.663281  7.412587
      ESP Fit Center 1007 is at   8.393499  4.560632  6.452587
      ESP Fit Center 1008 is at   7.433499  4.303401  6.452587
      ESP Fit Center 1009 is at   7.879675  4.222019  5.492587
      ESP Fit Center 1010 is at   7.958298  1.575033  8.475035
      ESP Fit Center 1011 is at  10.538169 -0.660438  8.475035
      ESP Fit Center 1012 is at  11.337210  0.031935  8.475035
      ESP Fit Center 1013 is at  11.866797  2.061604  7.512709
      ESP Fit Center 1014 is at  10.279346 -1.234772  7.512709
      ESP Fit Center 1015 is at  10.279346 -1.234772  6.444609
      ESP Fit Center 1016 is at  12.365914  0.637559  7.599375
      ESP Fit Center 1017 is at  12.048353  1.614910  7.599375
      ESP Fit Center 1018 is at  11.216969 -0.943828  7.599375
      ESP Fit Center 1019 is at  12.048353 -0.339792  7.599375
      ESP Fit Center 1020 is at  12.623145  0.637559  6.639375
      ESP Fit Center 1021 is at  12.365914  1.597559  6.639375
      ESP Fit Center 1022 is at  10.703145 -1.282441  6.639375
      ESP Fit Center 1023 is at  11.663145 -1.025210  6.639375
      ESP Fit Center 1024 is at  12.365914 -0.322441  6.639375
      ESP Fit Center 1025 is at  12.365914  0.637559  5.679375
      ESP Fit Center 1026 is at  12.048353  1.614910  5.679375
      ESP Fit Center 1027 is at  10.189321 -0.943828  5.679375
      ESP Fit Center 1028 is at  11.216969 -0.943828  5.679375
      ESP Fit Center 1029 is at  12.048353 -0.339792  5.679375
      ESP Fit Center 1030 is at  11.663145  0.637559  4.976606
      ESP Fit Center 1031 is at  11.183145 -0.193825  4.976606
      ESP Fit Center 1032 is at   9.881869  1.390125  9.921832
      ESP Fit Center 1033 is at  10.841869  1.390125  9.664601
      ESP Fit Center 1034 is at  10.361869  2.221509  9.664601
      ESP Fit Center 1035 is at   9.401869  2.221509  9.664601
      ESP Fit Center 1036 is at   8.921869  1.390125  9.664601
      ESP Fit Center 1037 is at   9.401869  0.558741  9.664601
      ESP Fit Center 1038 is at  10.361869  0.558741  9.664601
      ESP Fit Center 1039 is at  11.544638  1.390125  8.961832
      ESP Fit Center 1040 is at  11.227077  2.367476  8.961832
      ESP Fit Center 1041 is at  10.395693  2.971512  8.961832
      ESP Fit Center 1042 is at   9.368045  2.971512  8.961832
      ESP Fit Center 1043 is at   8.536661  2.367476  8.961832
      ESP Fit Center 1044 is at   8.219100  1.390125  8.961832
      ESP Fit Center 1045 is at   8.536661  0.412774  8.961832
      ESP Fit Center 1046 is at  10.395693 -0.191262  8.961832
      ESP Fit Center 1047 is at  11.227077  0.412774  8.961832
      ESP Fit Center 1048 is at  11.544638  2.350125  8.001832
[...]
 1407 Fit       0.009399
 1408 Fit       0.006529
 1409 Fit       0.008975
 1410 Fit       0.004967
 1411 Fit      -0.002095
 1412 Fit       0.006279
 1413 Fit       0.007802
 1414 Fit      -0.002333
 1415 Fit      -0.008553
 1416 Fit      -0.009362
 1417 Fit      -0.004221
 1418 Fit      -0.005156
 1419 Fit      -0.010863
 1420 Fit      -0.012240
 1421 Fit      -0.012273
 1422 Fit      -0.012890
 1423 Fit      -0.012467
 1424 Fit      -0.006931
 1425 Fit      -0.005761
 1426 Fit      -0.011855
 1427 Fit      -0.013369
 1428 Fit      -0.012037
 1429 Fit      -0.010399
 1430 Fit      -0.010465
 1431 Fit      -0.012381
 1432 Fit      -0.013833
 1433 Fit      -0.011070
 1434 Fit      -0.001327
 1435 Fit      -0.008312
 1436 Fit      -0.010924
 1437 Fit      -0.009874
 1438 Fit      -0.007149
 1439 Fit      -0.004476
 1440 Fit      -0.003574
 1441 Fit      -0.005536
 1442 Fit      -0.009155
 1443 Fit      -0.011037
 1444 Fit      -0.007733
 1445 Fit       0.002767
 1446 Fit      -0.002390
 1447 Fit       0.003008
 1448 Fit       0.005339
 1449 Fit      -0.000277
 1450 Fit      -0.004205
 1451 Fit      -0.002667
 1452 Fit       0.015525
 1453 Fit       0.013034
 1454 Fit       0.008818
 1455 Fit       0.016886
 1456 Fit       0.011964
 1457 Fit       0.007852
 1458 Fit       0.007863
 1459 Fit       0.007308
 1460 Fit       0.003475
 1461 Fit       0.007544
 1462 Fit       0.006834
 1463 Fit       0.001348
 1464 Fit       0.009630
 1465 Fit       0.008905
 1466 Fit       0.008611
 1467 Fit       0.004734
 1468 Fit       0.008178
 1469 Fit      -0.002009
 1470 Fit       0.003717
 1471 Fit       0.003371
 1472 Fit       0.004892
 1473 Fit       0.004970
 1474 Fit       0.001804
 1475 Fit       0.009990
 1476 Fit       0.006010
 1477 Fit       0.000755
 1478 Fit       0.004092
 1479 Fit       0.014656
 1480 Fit       0.007860
 1481 Fit       0.009896
 1482 Fit      -0.004656
 1483 Fit       0.000209
 1484 Fit      -0.002041
 1485 Fit      -0.004518
 1486 Fit      -0.001629
 1487 Fit      -0.003453
 1488 Fit      -0.009831
 1489 Fit      -0.008434
 1490 Fit      -0.012137
 1491 Fit      -0.008232
 1492 Fit      -0.006453
 1493 Fit      -0.007830
 1494 Fit      -0.010831
 1495 Fit      -0.011910
 1496 Fit      -0.007577
 1497 Fit      -0.005931
 1498 Fit      -0.013686
 1499 Fit      -0.016914
 1500 Fit      -0.015827
 1501 Fit      -0.015991
 1502 Fit      -0.013707
 1503 Fit      -0.013248
 1504 Fit      -0.014758
 1505 Fit      -0.015754
 1506 Fit      -0.012283
 1507 Fit      -0.010104
 1508 Fit      -0.016396
 1509 Fit      -0.017813
 1510 Fit      -0.015963
 1511 Fit      -0.015606
 1512 Fit      -0.015914
 1513 Fit      -0.015197
 1514 Fit      -0.009125
 1515 Fit      -0.009391
 1516 Fit      -0.014917
 1517 Fit      -0.012516
 1518 Fit      -0.013032
 1519 Fit      -0.007753
 1520 Fit       0.002512
 1521 Fit       0.003191
 1522 Fit      -0.006719
 1523 Fit      -0.006409
 1524 Fit       0.010306
 1525 Fit       0.010639
 1526 Fit       0.009008
 1527 Fit       0.009664
 1528 Fit       0.009442
 1529 Fit       0.008710
 1530 Fit       0.006925
 1531 Fit       0.007906
 1532 Fit       0.007880
 1533 Fit       0.006788
 1534 Fit       0.005476
 1535 Fit       0.004215
 1536 Fit       0.003306
 1537 Fit       0.000015
 1538 Fit       0.011834
 1539 Fit       0.013118
 1540 Fit       0.009965
 1541 Fit       0.012320
 1542 Fit       0.015512
 1543 Fit       0.017222
 1544 Fit       0.008656
 1545 Fit       0.013206
 1546 Fit       0.006946
 1547 Fit       0.004131
 1548 Fit       0.003329
 1549 Fit       0.003694
 1550 Fit       0.006049
 1551 Fit       0.011699
 1552 Fit       0.002865
 1553 Fit      -0.000547
 1554 Fit       0.004050
 1555 Fit       0.002817
 1556 Fit       0.003573
 1557 Fit       0.003488
 1558 Fit       0.004438
 1559 Fit       0.001303
 1560 Fit       0.002172
 1561 Fit       0.003007
 1562 Fit      -0.000353
 1563 Fit       0.000869
 1564 Fit      -0.002961
 1565 Fit      -0.002070
 1566 Fit      -0.000900
 1567 Fit       0.007970
 1568 Fit       0.007206
 1569 Fit       0.008906
 1570 Fit       0.009396
 1571 Fit       0.007997
 1572 Fit       0.006295
 1573 Fit       0.006018
 1574 Fit       0.005669
 1575 Fit       0.007693
 1576 Fit       0.009605
 1577 Fit       0.010621
 1578 Fit       0.010925
 1579 Fit       0.009772
 1580 Fit       0.004355
 1581 Fit       0.010826
 1582 Fit       0.006655
 1583 Fit       0.005482
 1584 Fit       0.010537
 1585 Fit       0.007946
 1586 Fit       0.006831
 1587 Fit       0.005536
 1588 Fit       0.003702
 1589 Fit       0.017131
 1590 Fit       0.008671
 1591 Fit       0.007204
 1592 Fit       0.004640
 1593 Fit       0.001141
 1594 Fit      -0.016328
 1595 Fit      -0.008026
 1596 Fit      -0.003637
 1597 Fit      -0.001748
 1598 Fit      -0.000184
 1599 Fit      -0.000494
 1600 Fit      -0.000122
 1601 Fit       0.001114
 1602 Fit       0.000957
 1603 Fit       0.001020
 1604 Fit       0.001120
 1605 Fit       0.001598
 1606 Fit       0.004587
 1607 Fit       0.003065
 1608 Fit       0.004174
 1609 Fit      -0.011097
 1610 Fit      -0.004131
 1611 Fit      -0.005434
 1612 Fit      -0.001339
 1613 Fit      -0.000305
 1614 Fit      -0.000702
 1615 Fit      -0.003892
 1616 Fit       0.000195
 1617 Fit       0.001313
 1618 Fit       0.001874
 1619 Fit       0.001656
 1620 Fit       0.000149
 1621 Fit       0.001951
 1622 Fit       0.002833
 1623 Fit       0.003570
 1624 Fit       0.004640
 1625 Fit      -0.011368
 1626 Fit      -0.007669
 1627 Fit      -0.004580
 1628 Fit      -0.006344
 1629 Fit      -0.008121
 1630 Fit      -0.002826
 1631 Fit      -0.001279
 1632 Fit      -0.001615
 1633 Fit      -0.002943
 1634 Fit      -0.003176
 1635 Fit      -0.000501
 1636 Fit       0.000386
 1637 Fit       0.000210
 1638 Fit      -0.000608
 1639 Fit       0.000606
 1640 Fit       0.001101
 1641 Fit       0.001166
 1642 Fit       0.000770
 1643 Fit       0.002694
 1644 Fit       0.002747
 1645 Fit       0.002893
 1646 Fit       0.002927
 1647 Fit       0.002952
 1648 Fit       0.005262
 1649 Fit       0.004701
 1650 Fit       0.004725
 1651 Fit       0.004781
 1652 Fit       0.004897
 1653 Fit       0.005660
 1654 Fit       0.008847
 1655 Fit       0.008799
 1656 Fit       0.006960
 1657 Fit       0.006207
 1658 Fit       0.006254
 1659 Fit       0.007042
 1660 Fit       0.007397
 1661 Fit       0.003661
 1662 Fit       0.007575
 1663 Fit       0.007889
 1664 Fit       0.009026
 1665 Fit       0.009385
 1666 Fit       0.008672
 1667 Fit       0.005586
 1668 Fit       0.007217
 1669 Fit       0.009301
 1670 Fit       0.009541
 1671 Fit       0.007964
 1672 Fit       0.007746
 1673 Fit       0.008434
 1674 Fit       0.009599
 1675 Fit       0.008463
 1676 Fit       0.008040
 1677 Fit       0.008763
 1678 Fit       0.008537
 1679 Fit       0.008537
 1680 Fit       0.001426
 1681 Fit       0.001085
 1682 Fit       0.001616
 1683 Fit       0.005168
 1684 Fit       0.004238
 1685 Fit       0.004008
 1686 Fit       0.004122
 1687 Fit       0.007135
 1688 Fit       0.006261
 1689 Fit       0.005801
 1690 Fit       0.005754
 1691 Fit       0.006164
 1692 Fit       0.006909
 1693 Fit       0.006842
 1694 Fit       0.007787
 1695 Fit       0.007939
 1696 Fit      -0.013705
 1697 Fit      -0.014057
 1698 Fit      -0.018664
 1699 Fit      -0.017864
 1700 Fit      -0.011563
 1701 Fit      -0.013326
 1702 Fit      -0.017309
 1703 Fit      -0.018143
 1704 Fit      -0.018347
 1705 Fit      -0.017209
 1706 Fit      -0.014380
 1707 Fit      -0.011111
 1708 Fit      -0.013444
 1709 Fit      -0.007019
 1710 Fit      -0.008536
 1711 Fit      -0.009886
 1712 Fit      -0.001525
 1713 Fit      -0.003506
 1714 Fit      -0.000576
 1715 Fit      -0.001164
 1716 Fit       0.000659
 1717 Fit      -0.000118
 1718 Fit      -0.001531
 1719 Fit      -0.005575
 1720 Fit      -0.005795
 1721 Fit       0.000295
 1722 Fit      -0.003561
 1723 Fit      -0.001400
 1724 Fit      -0.000809
 1725 Fit      -0.002862
 1726 Fit      -0.008529
 1727 Fit      -0.007657
 1728 Fit      -0.002610
 1729 Fit      -0.001377
 1730 Fit      -0.003035
 1731 Fit      -0.008838
 1732 Fit      -0.003834
 1733 Fit      -0.000816
 1734 Fit      -0.008460
 1735 Fit      -0.001739
 1736 Fit       0.001140
 1737 Fit       0.002428
 1738 Fit      -0.005661
 1739 Fit      -0.000417
 1740 Fit       0.002857
 1741 Fit       0.005270
 1742 Fit       0.002419
 1743 Fit       0.002906
 1744 Fit       0.005856
 1745 Fit       0.006545
 1746 Fit       0.007065
 1747 Fit       0.000122
 1748 Fit       0.004279
 1749 Fit       0.001367
 1750 Fit      -0.001897
 1751 Fit       0.001740
 1752 Fit      -0.002971
 1753 Fit       0.002823
 1754 Fit      -0.004666
 1755 Fit       0.002016
 1756 Fit       0.004925
 1757 Fit       0.007625
 1758 Fit       0.007896
 1759 Fit       0.009480
 1760 Fit       0.008863
 1761 Fit       0.006529
 1762 Fit       0.004053
 1763 Fit       0.008777
 1764 Fit       0.008512
 1765 Fit      -0.002247
 1766 Fit      -0.007464
 1767 Fit      -0.008431
 1768 Fit      -0.011946
 1769 Fit      -0.008025
 1770 Fit      -0.013350
 1771 Fit      -0.012557
 1772 Fit      -0.011327
 1773 Fit      -0.013238
 1774 Fit      -0.008029
 1775 Fit      -0.011271
 1776 Fit      -0.006511
 1777 Fit      -0.005291
 1778 Fit      -0.001854
 1779 Fit      -0.003673
 1780 Fit       0.004979
 1781 Fit       0.005188
 1782 Fit      -0.002350
 1783 Fit       0.001791
 1784 Fit       0.002776
 1785 Fit       0.003120
 1786 Fit       0.006071
 1787 Fit       0.001745
 1788 Fit      -0.006210
 1789 Fit       0.007133
 1790 Fit       0.005950
 1791 Fit       0.003154
 1792 Fit      -0.002211
 1793 Fit       0.006434
 1794 Fit       0.005031
 1795 Fit       0.003061
 1796 Fit      -0.001266
 1797 Fit       0.002795
 1798 Fit       0.004747
 1799 Fit      -0.001315
 1800 Fit       0.006457
 1801 Fit       0.003239
 1802 Fit      -0.000054
 1803 Fit       0.007142
 1804 Fit       0.004975
 1805 Fit       0.004072
 1806 Fit       0.005177
 1807 Fit       0.007680
 1808 Fit       0.005900
 1809 Fit       0.005428
 1810 Fit       0.002245
 1811 Fit       0.002401
 1812 Fit      -0.002068
 1813 Fit       0.003635
 1814 Fit       0.000523
 1815 Fit       0.003460
 1816 Fit       0.002192
 1817 Fit       0.002051
 1818 Fit       0.003635
 1819 Fit       0.002394
 1820 Fit      -0.001309
 1821 Fit       0.004233
 1822 Fit       0.004875
 1823 Fit       0.004079
 1824 Fit       0.000846
 1825 Fit      -0.005726
 1826 Fit       0.005601
 1827 Fit       0.001890
 1828 Fit      -0.005553
 1829 Fit       0.003269
 1830 Fit       0.004710
 1831 Fit       0.007207
 1832 Fit       0.004775
 1833 Fit       0.003859
 1834 Fit       0.008267
 1835 Fit       0.005042
 1836 Fit       0.002755
 1837 Fit       0.002365
 1838 Fit       0.006056
 1839 Fit       0.002276
 1840 Fit      -0.001671
 1841 Fit       0.004478
 1842 Fit      -0.002164
 1843 Fit      -0.000766
 1844 Fit      -0.005734
 1845 Fit      -0.002647
 1846 Fit      -0.007324
 1847 Fit      -0.009556
 1848 Fit      -0.011826
 1849 Fit      -0.010343
 1850 Fit      -0.012138
 1851 Fit      -0.009765
 1852 Fit      -0.008560
 1853 Fit      -0.005650
 1854 Fit       0.000779
 1855 Fit       0.002331
 1856 Fit       0.008404
 1857 Fit       0.006454
 1858 Fit       0.005096
 1859 Fit       0.008903
 1860 Fit       0.008843
 1861 Fit       0.007010
 1862 Fit       0.007745
 1863 Fit       0.000379
 1864 Fit       0.004729
 1865 Fit       0.000247
 1866 Fit       0.005138
 1867 Fit       0.003393
 1868 Fit       0.003869
 1869 Fit       0.007181
 1870 Fit       0.007397
 1871 Fit      -0.002926
 1872 Fit       0.000977
 1873 Fit      -0.005245
 1874 Fit       0.000606
 1875 Fit       0.002295
 1876 Fit       0.000495
 1877 Fit       0.000977
 1878 Fit       0.003202
 1879 Fit       0.003158
 1880 Fit       0.000339
 1881 Fit       0.006794
 1882 Fit       0.005457
 1883 Fit       0.004648
 1884 Fit       0.004198
 1885 Fit       0.005226
 1886 Fit       0.006229
 1887 Fit       0.008490
 1888 Fit       0.000713
 1889 Fit       0.006613
 1890 Fit      -0.005720
 1891 Fit       0.001933
 1892 Fit       0.005895
 1893 Fit      -0.000849
 1894 Fit       0.002882
 1895 Fit       0.001582
 1896 Fit       0.002345
 1897 Fit      -0.002155
 1898 Fit      -0.001277
 1899 Fit      -0.000405
 1900 Fit      -0.000486
 1901 Fit      -0.002224
 1902 Fit      -0.004367
 1903 Fit      -0.004701
 1904 Fit      -0.001574
 1905 Fit      -0.000132
 1906 Fit      -0.004110
 1907 Fit      -0.005752
 1908 Fit      -0.004911
 1909 Fit      -0.003301
 1910 Fit      -0.008539
 1911 Fit      -0.007216
 1912 Fit      -0.006651
 1913 Fit      -0.007334
 1914 Fit      -0.008769
 1915 Fit      -0.009217
 1916 Fit      -0.006539
 1917 Fit      -0.004536
 1918 Fit      -0.008744
 1919 Fit      -0.010352
 1920 Fit      -0.009899
 1921 Fit      -0.011191
 1922 Fit      -0.010445
 1923 Fit      -0.010429
 1924 Fit      -0.011105
 1925 Fit      -0.011001
 1926 Fit      -0.007797
 1927 Fit      -0.006241
 1928 Fit      -0.010322
 1929 Fit      -0.011626
 1930 Fit      -0.010977
 1931 Fit      -0.011110
 1932 Fit      -0.011151
 1933 Fit      -0.010046
 1934 Fit      -0.005583
 1935 Fit       0.000306
 1936 Fit      -0.006191
 1937 Fit      -0.009846
 1938 Fit      -0.008486
 1939 Fit      -0.008710
 1940 Fit      -0.004919
 1941 Fit       0.000952
 1942 Fit       0.001005
 1943 Fit      -0.004708
 1944 Fit      -0.004349
 1945 Fit       0.004353
 1946 Fit       0.005283
 1947 Fit       0.002296
 1948 Fit       0.006875
 1949 Fit       0.008271
 1950 Fit       0.006314
 1951 Fit       0.009063
 1952 Fit       0.006579
 1953 Fit       0.006280
 1954 Fit       0.005355
 1955 Fit       0.003639
 1956 Fit       0.000915
 1957 Fit       0.003035
 1958 Fit       0.004625
 1959 Fit       0.004444
 1960 Fit       0.005406
 1961 Fit       0.007731
 1962 Fit       0.001569
 1963 Fit       0.006519
 1964 Fit       0.003699
 1965 Fit       0.005745
 1966 Fit       0.004343
 1967 Fit       0.000182
 1968 Fit       0.002629
 1969 Fit       0.008182
 1970 Fit       0.007182
 1971 Fit       0.005408
 1972 Fit       0.003115
 1973 Fit       0.007339
 1974 Fit       0.005072
 1975 Fit      -0.001023
 1976 Fit       0.005505
 1977 Fit       0.006267
 1978 Fit      -0.001155
 1979 Fit      -0.005962
 1980 Fit      -0.006453
 1981 Fit      -0.002187
 1982 Fit       0.005497
 1983 Fit      -0.002805
 1984 Fit      -0.007384
 1985 Fit      -0.008973
 1986 Fit      -0.009320
 1987 Fit      -0.009492
 1988 Fit      -0.008446
 1989 Fit      -0.003704
 1990 Fit       0.005656
 1991 Fit      -0.002898
 1992 Fit      -0.007870
 1993 Fit      -0.009689
 1994 Fit      -0.009500
 1995 Fit      -0.008869
 1996 Fit      -0.008983
 1997 Fit      -0.009867
 1998 Fit      -0.010023
 1999 Fit      -0.006998
 2000 Fit       0.002071
 2001 Fit      -0.004129
 2002 Fit      -0.007699
 2003 Fit      -0.008582
 2004 Fit      -0.007753
 2005 Fit      -0.006343
 2006 Fit      -0.005332
 2007 Fit      -0.005551
 2008 Fit      -0.007084
 2009 Fit      -0.008713
 2010 Fit      -0.008366
 2011 Fit      -0.003867
 2012 Fit       0.000488
 2013 Fit      -0.003092
 2014 Fit      -0.003852
 2015 Fit      -0.002894
 2016 Fit      -0.001801
 2017 Fit      -0.000725
 2018 Fit       0.000490
 2019 Fit       0.000953
 2020 Fit      -0.000396
 2021 Fit      -0.003084
 2022 Fit      -0.005167
 2023 Fit      -0.004742
 2024 Fit       0.008164
 2025 Fit       0.000091
 2026 Fit       0.002135
 2027 Fit       0.004452
 2028 Fit       0.005582
 2029 Fit       0.013341
 2030 Fit       0.011403
 2031 Fit       0.007731
 2032 Fit       0.011181
 2033 Fit       0.007311
 2034 Fit       0.007746
 2035 Fit       0.004624
 2036 Fit       0.001270
 2037 Fit       0.005202
 2038 Fit       0.004774
 2039 Fit       0.001283
 2040 Fit       0.006490
 2041 Fit       0.001626
 2042 Fit       0.008914
 2043 Fit       0.002900
 2044 Fit       0.000791
 2045 Fit       0.004619
 2046 Fit       0.000364
 2047 Fit       0.003906
 2048 Fit       0.003439
 2049 Fit      -0.000205
 2050 Fit       0.002496
 2051 Fit       0.000582
 2052 Fit       0.006095
 2053 Fit       0.004289
 2054 Fit       0.000751
 2055 Fit       0.004810
 2056 Fit       0.000567
 2057 Fit       0.002614
 2058 Fit       0.005637
 2059 Fit       0.006742
 2060 Fit      -0.000189
 2061 Fit       0.000670
 2062 Fit       0.001960
 2063 Fit      -0.006740
 2064 Fit      -0.003924
 2065 Fit      -0.001906
 2066 Fit      -0.001721
 2067 Fit      -0.003384
 2068 Fit      -0.005328
 2069 Fit      -0.005471
 2070 Fit      -0.002395
 2071 Fit      -0.001410
 2072 Fit      -0.006926
 2073 Fit      -0.010028
 2074 Fit      -0.010529
 2075 Fit      -0.009212
 2076 Fit      -0.011158
 2077 Fit      -0.008948
 2078 Fit      -0.007810
 2079 Fit      -0.008303
 2080 Fit      -0.009680
 2081 Fit      -0.010041
 2082 Fit      -0.007105
 2083 Fit      -0.005544
 2084 Fit      -0.010962
 2085 Fit      -0.013400
 2086 Fit      -0.013118
 2087 Fit      -0.013096
 2088 Fit      -0.011941
 2089 Fit      -0.011628
 2090 Fit      -0.012182
 2091 Fit      -0.011977
 2092 Fit      -0.008353
 2093 Fit      -0.007085
 2094 Fit      -0.012064
 2095 Fit      -0.013711
 2096 Fit      -0.012578
 2097 Fit      -0.012570
 2098 Fit      -0.012483
 2099 Fit      -0.011230
 2100 Fit      -0.006133
 2101 Fit       0.004031
 2102 Fit       0.000859
 2103 Fit      -0.007077
 2104 Fit      -0.011344
 2105 Fit      -0.009940
 2106 Fit      -0.010159
 2107 Fit      -0.005956
 2108 Fit       0.001111
 2109 Fit       0.001142
 2110 Fit      -0.005690
 2111 Fit      -0.005535
 2112 Fit       0.009776
 2113 Fit       0.009542
 2114 Fit       0.008200
 2115 Fit       0.006401
 2116 Fit       0.001723
 2117 Fit       0.009767
 2118 Fit       0.008517
 2119 Fit       0.008427
 2120 Fit       0.008240
 2121 Fit       0.006572
 2122 Fit       0.007190
 2123 Fit       0.007291
 2124 Fit       0.006812
 2125 Fit       0.006265
 2126 Fit       0.003773
 2127 Fit       0.004877
 2128 Fit       0.004977
 2129 Fit       0.004090
 2130 Fit       0.002617
 2131 Fit       0.010569
 2132 Fit       0.011310
 2133 Fit       0.009245
 2134 Fit       0.010671
 2135 Fit       0.012521
 2136 Fit       0.013332
 2137 Fit       0.007910
 2138 Fit       0.010177
 2139 Fit       0.004802
 2140 Fit       0.008422
 2141 Fit       0.006249
 2142 Fit       0.004976
 2143 Fit       0.003943
 2144 Fit       0.003466
 2145 Fit       0.003878
 2146 Fit       0.004010
 2147 Fit       0.005617
 2148 Fit       0.010548
 2149 Fit       0.002723
 2150 Fit       0.002755
 2151 Fit       0.003292
 2152 Fit       0.005163
 2153 Fit       0.002809
 2154 Fit       0.002081
 2155 Fit       0.001775
 2156 Fit       0.003628
 2157 Fit       0.003098
 2158 Fit       0.003253
 2159 Fit       0.004160
 2160 Fit       0.001808
 2161 Fit       0.002265
 2162 Fit       0.002799
 2163 Fit       0.001506
 2164 Fit       0.002511
 2165 Fit      -0.000079
 2166 Fit       0.000476
 2167 Fit       0.001054
 2168 Fit      -0.003460
 2169 Fit      -0.004645
 2170 Fit      -0.003775
 2171 Fit       0.006926
 2172 Fit       0.006401
 2173 Fit       0.007672
 2174 Fit       0.008084
 2175 Fit       0.007093
 2176 Fit       0.005809
 2177 Fit       0.005537
 2178 Fit       0.005451
 2179 Fit       0.006928
 2180 Fit       0.008321
 2181 Fit       0.009127
 2182 Fit       0.009313
 2183 Fit       0.008425
 2184 Fit       0.006647
 2185 Fit       0.004024
 2186 Fit       0.004429
 2187 Fit       0.006287
 2188 Fit       0.008461
 2189 Fit       0.009963
 2190 Fit       0.004886
 2191 Fit       0.006353
 2192 Fit       0.005395
 2193 Fit       0.004551
 2194 Fit       0.009244
 2195 Fit       0.006110
 2196 Fit       0.005703
 2197 Fit       0.004988
 2198 Fit       0.003540
 2199 Fit       0.005657
 2200 Fit       0.002992
 Job cpu time:       0 days  0 hours  4 minutes 28.3 seconds.
 Normal termination of Gaussian 16 at Sat Jul  8 22:16:57 2023.
