 Copyright (c) 1988-2019, Gaussian, Inc.  All Rights Reserved.
  
 This is part of the Gaussian(R) 16 program.  It is based on
 the Gaussian(R) 09 system (copyright 2009, Gaussian, Inc.),
 the Gaussian(R) 03 system (copyright 2003, Gaussian, Inc.),
 the Gaussian(R) 98 system (copyright 1998, Gaussian, Inc.),
 the Gaussian(R) 94 system (copyright 1995, Gaussian, Inc.),
 the Gaussian 92(TM) system (copyright 1992, Gaussian, Inc.),
 the Gaussian 90(TM) system (copyright 1990, Gaussian, Inc.),
 the Gaussian 88(TM) system (copyright 1988, Gaussian, Inc.),
 the Gaussian 86(TM) system (copyright 1986, Carnegie Mellon
 University), and the Gaussian 82(TM) system (copyright 1983,
 Carnegie Mellon University). Gaussian is a federally registered
 trademark of Gaussian, Inc.
 Cite this work as:
 Gaussian 16, Revision C.01,
 M. J. Frisch, G. W. Trucks, H. B. Schlegel, G. E. Scuseria, 
 M. A. Robb, J. R. Cheeseman, G. Scalmani, V. Barone, 
 G. A. Petersson, H. Nakatsuji, X. Li, M. Caricato, A. V. Marenich, 
 J. Bloino, B. G. Janesko, R. Gomperts, B. Mennucci, H. P. Hratchian, 
 J. V. Ortiz, A. F. Izmaylov, J. L. Sonnenberg, D. Williams-Young, 
 F. Ding, F. Lipparini, F. Egidi, J. Goings, B. Peng, A. Petrone, 
 T. Henderson, D. Ranasinghe, V. G. Zakrzewski, J. Gao, N. Rega, 
 G. Zheng, W. Liang, M. Hada, M. Ehara, K. Toyota, R. Fukuda, 
 J. Hasegawa, M. Ishida, T. Nakajima, Y. Honda, O. Kitao, H. Nakai, 
 T. Vreven, K. Throssell, J. A. Montgomery, Jr., J. E. Peralta, 
 F. Ogliaro, M. J. Bearpark, J. J. Heyd, E. N. Brothers, K. N. Kudin, 
 V. N. Staroverov, T. A. Keith, R. Kobayashi, J. Normand, 
 K. Raghavachari, A. P. Rendell, J. C. Burant, S. S. Iyengar, 
 J. Tomasi, M. Cossi, J. M. Millam, M. Klene, C. Adamo, R. Cammi, 
 J. W. Ochterski, R. L. Martin, K. Morokuma, O. Farkas, 
 J. B. Foresman, and D. J. Fox, Gaussian, Inc., Wallingford CT, 2019.
 
 ******************************************
 Gaussian 16:  EM64L-G16RevC.01  3-Jul-2019
                 8-Jul-2023 
 ******************************************
 ----------------------------------------------------------------------
 #P HF/6-31G(d) SCF(Conver=8,XQC,MaxConventionalCycles=64,MaxCycle=128)
  NoSymm Test Pop=mk IOp(6/33=2) GFInput GFPrint
 ----------------------------------------------------------------------
 1/38=1,172=1/1;
 2/12=2,15=1,17=6,18=5,40=1/2;
 3/5=1,6=6,7=1,11=9,24=110,25=1,30=1/1,2,3;
 4//1;
 5/5=2,6=8,7=128,8=3,13=1,38=5,85=64/2,8;
 6/7=2,8=2,9=2,10=2,15=8,20=1,28=1,33=2/1,2;
 99/5=1,9=1/99;
 -------------------------------------------------
 MEP step - Input generated by PyRED DVE-DMDS-OPLS
 -------------------------------------------------
 Symbolic Z-matrix:
 Charge =  0 Multiplicity = 1
 C                    -3.35273   7.49225  -3.03643 
 H                    -4.39759   7.60384  -2.76693 
 H                    -2.76162   8.1136   -2.37234 
 H                    -3.23244   7.86289  -4.05004 
 C                    -2.89105   6.04321  -2.95293 
 H                    -3.49701   5.41348  -3.60209 
 H                    -1.86519   5.9674   -3.29029 
 O                    -2.89985   5.53281  -1.64807 
 C                    -4.14875   5.18903  -1.12589 
 H                    -4.69155   4.5535   -1.82277 
 H                    -4.75105   6.07706  -0.94087 
 C                    -3.96547   4.44866   0.18394 
 H                    -3.32431   5.02962   0.84194 
 H                    -4.93554   4.3517    0.65907 
 O                    -3.47197   3.15182   0.02553 
 C                    -2.08003   2.99657   0.00562 
 H                    -1.63079   3.45569   0.88311 
 H                    -1.64176   3.45104  -0.87262 
 C                    -1.80468   1.50735   0.01623 
 H                    -2.26355   1.04182  -0.85338 
 H                    -2.2418    1.05677   0.90435 
 O                    -0.41826   1.33035   0. 
 C                     0.        0.        0. 
 H                    -0.38717  -0.51765  -0.87568 
 H                    -0.37245  -0.52119   0.87877 
 C                     1.52026   0.        0. 
 H                     1.87887   0.47839   0.90211 
 H                     1.88981   0.57808  -0.83676 
 S                     2.24255  -1.66781  -0.01489 
 C                     2.19241  -2.10408  -1.78298 
 H                     2.23806  -3.18417  -1.81589 
 H                     1.23777  -1.81806  -2.20408 
 C                     3.33818  -1.49308  -2.58811 
 H                     4.29396  -1.79736  -2.18127 
 H                     3.30033  -0.41351  -2.53209 
 S                     3.28611  -1.91716  -4.36351 
 C                     4.54908  -3.22051  -4.51317 
 H                     5.47134  -2.86213  -4.07411 
 H                     4.71925  -3.31932  -5.57735 
 C                     4.14552  -4.57304  -3.93156 
 H                     3.9727   -4.50711  -2.86443 
 H                     3.2223   -4.90623  -4.38758 
 S                     5.35483  -5.89507  -4.24209 
 C                     6.64628  -5.51389  -3.01726 
 H                     7.08164  -4.54576  -3.23119 
 H                     6.19218  -5.46884  -2.03406 
 C                     7.72878  -6.58944  -3.04968 
 H                     7.31796  -7.565    -2.81551 
 H                     8.19741  -6.64418  -4.02607 
 H                     8.49831  -6.36173  -2.31936 
 
 ITRead=  0  0  0  0  0  0  0  0  0  0  0  0  0  0  0  0  0  0  0  0
 ITRead=  0  0  0  0  0  0  0  0  0  0  0  0  0  0  0  0  0  0  0  0
 ITRead=  0  0  0  0  0  0  0  0  0  0
 MicOpt= -1 -1 -1 -1 -1 -1 -1 -1 -1 -1 -1 -1 -1 -1 -1 -1 -1 -1 -1 -1
 MicOpt= -1 -1 -1 -1 -1 -1 -1 -1 -1 -1 -1 -1 -1 -1 -1 -1 -1 -1 -1 -1
 MicOpt= -1 -1 -1 -1 -1 -1 -1 -1 -1 -1
 NAtoms=     50 NQM=       50 NQMF=       0 NMMI=      0 NMMIF=      0
                NMic=       0 NMicF=      0.
                          Input orientation:                          
 ---------------------------------------------------------------------
 Center     Atomic      Atomic             Coordinates (Angstroms)
 Number     Number       Type             X           Y           Z
 ---------------------------------------------------------------------
      1          6           0       -3.352726    7.492249   -3.036428
      2          1           0       -4.397593    7.603839   -2.766927
      3          1           0       -2.761619    8.113604   -2.372344
      4          1           0       -3.232436    7.862894   -4.050039
      5          6           0       -2.891054    6.043212   -2.952925
      6          1           0       -3.497012    5.413480   -3.602087
      7          1           0       -1.865185    5.967403   -3.290286
      8          8           0       -2.899854    5.532812   -1.648074
      9          6           0       -4.148754    5.189028   -1.125889
     10          1           0       -4.691554    4.553502   -1.822766
     11          1           0       -4.751054    6.077058   -0.940868
     12          6           0       -3.965470    4.448655    0.183936
     13          1           0       -3.324314    5.029623    0.841943
     14          1           0       -4.935538    4.351697    0.659069
     15          8           0       -3.471973    3.151815    0.025531
     16          6           0       -2.080032    2.996566    0.005616
     17          1           0       -1.630794    3.455685    0.883110
     18          1           0       -1.641759    3.451037   -0.872619
     19          6           0       -1.804675    1.507350    0.016229
     20          1           0       -2.263545    1.041817   -0.853375
     21          1           0       -2.241800    1.056769    0.904348
     22          8           0       -0.418261    1.330351    0.000000
     23          6           0        0.000000    0.000000    0.000000
     24          1           0       -0.387168   -0.517653   -0.875681
     25          1           0       -0.372452   -0.521194    0.878768
     26          6           0        1.520261    0.000000    0.000000
     27          1           0        1.878869    0.478389    0.902111
     28          1           0        1.889809    0.578081   -0.836757
     29         16           0        2.242552   -1.667812   -0.014887
     30          6           0        2.192414   -2.104083   -1.782982
     31          1           0        2.238062   -3.184174   -1.815886
     32          1           0        1.237771   -1.818063   -2.204078
     33          6           0        3.338182   -1.493081   -2.588110
     34          1           0        4.293958   -1.797362   -2.181271
     35          1           0        3.300332   -0.413507   -2.532095
     36         16           0        3.286113   -1.917158   -4.363510
     37          6           0        4.549083   -3.220511   -4.513166
     38          1           0        5.471336   -2.862131   -4.074112
     39          1           0        4.719246   -3.319324   -5.577350
     40          6           0        4.145519   -4.573043   -3.931558
     41          1           0        3.972696   -4.507112   -2.864428
     42          1           0        3.222302   -4.906233   -4.387581
     43         16           0        5.354831   -5.895071   -4.242088
     44          6           0        6.646284   -5.513885   -3.017259
     45          1           0        7.081645   -4.545756   -3.231194
     46          1           0        6.192179   -5.468836   -2.034059
     47          6           0        7.728783   -6.589438   -3.049683
     48          1           0        7.317958   -7.565004   -2.815509
     49          1           0        8.197413   -6.644176   -4.026072
     50          1           0        8.498315   -6.361727   -2.319358
 ---------------------------------------------------------------------
 Stoichiometry    C14H30O3S3
 Framework group  C1[X(C14H30O3S3)]
 Standard basis: 6-31G(d) (6D, 7F)
   372 basis functions,   752 primitive gaussians,   372 cartesian basis functions
    93 alpha electrons       93 beta electrons
 Requested convergence on RMS density matrix=1.00D-08 within  64 cycles.
 Requested convergence on MAX density matrix=1.00D-06.
 Requested convergence on             energy=1.00D-06.
 SCF Done:  E(RHF) =  -1964.69613928     A.U. after   13 cycles
            NFock= 13  Conv=0.50D-08     -V/T= 2.0006
 Mulliken charges:
     1  C   -0.505921
     2  H    0.162181
     3  H    0.175070
     4  H    0.161411
     5  C    0.015041
     6  H    0.142346
     7  H    0.173093
     8  O   -0.627751
     9  C    0.007644
    10  H    0.151120
    11  H    0.137083
    12  C    0.004392
    13  H    0.156364
    14  H    0.168235
    15  O   -0.647502
    16  C    0.012184
    17  H    0.148463
    18  H    0.182555
    19  C    0.012342
    20  H    0.151334
    21  H    0.151321
    22  O   -0.642397
    23  C    0.040292
    24  H    0.143773
    25  H    0.157705
    26  C   -0.494556
    27  H    0.213767
    28  H    0.203386
    29  S    0.106199
    30  C   -0.472120
    31  H    0.206292
    32  H    0.208487
    33  C   -0.476965
    34  H    0.203749
    35  H    0.207732
    36  S    0.116579
    37  C   -0.470682
    38  H    0.195757
    39  H    0.218464
    40  C   -0.479556
    41  H    0.190478
    42  H    0.216667
    43  S    0.120853
    44  C   -0.459285
    45  H    0.186625
    46  H    0.187241
    47  C   -0.495912
    48  H    0.182208
    49  H    0.180347
    50  H    0.173865
 Sum of Mulliken charges =  -0.00000
 Dipole moment (field-independent basis, Debye):
    X=             -0.4994    Y=              2.0838    Z=              0.3468  Tot=              2.1707
 Quadrupole moment (field-independent basis, Debye-Ang):
   XX=           -130.8207   YY=           -146.5973   ZZ=           -158.4772
   XY=            -11.7312   XZ=              6.3774   YZ=            -11.8535
 Traceless Quadrupole moment (field-independent basis, Debye-Ang):
   XX=             14.4777   YY=             -1.2989   ZZ=            -13.1788
   XY=            -11.7312   XZ=              6.3774   YZ=            -11.8535
 Octapole moment (field-independent basis, Debye-Ang**2):
  XXX=           -487.6533  YYY=            300.1939  ZZZ=            963.4361  XYY=           -277.2860
  XXY=             50.9440  XXZ=            281.6543  XZZ=           -262.3980  YZZ=            135.2768
  YYZ=            322.8312  XYZ=             -8.3133
 Hexadecapole moment (field-independent basis, Debye-Ang**3):
 XXXX=         -12364.7343 YYYY=         -15980.6440 ZZZZ=          -7021.0375 XXXY=           5828.6461
 XXXZ=           2704.4660 YYYX=           6526.2449 YYYZ=          -2576.1828 ZZZX=           3233.3452
 ZZZY=          -2211.5560 XXYY=          -4393.0658 XXZZ=          -3540.0629 YYZZ=          -3941.8428
 XXYZ=           -734.1604 YYXZ=           1371.1373 ZZXY=           2422.0826
 Merz-Kollman atomic radii used.
 Atom Element Radius
    1     6    1.50
    2     1    1.20
    3     1    1.20
    4     1    1.20
    5     6    1.50
    6     1    1.20
    7     1    1.20
    8     8    1.40
    9     6    1.50
   10     1    1.20
   11     1    1.20
   12     6    1.50
   13     1    1.20
   14     1    1.20
   15     8    1.40
   16     6    1.50
   17     1    1.20
   18     1    1.20
   19     6    1.50
   20     1    1.20
   21     1    1.20
   22     8    1.40
   23     6    1.50
   24     1    1.20
   25     1    1.20
   26     6    1.50
   27     1    1.20
   28     1    1.20
   29    16    1.75
   30     6    1.50
   31     1    1.20
   32     1    1.20
   33     6    1.50
   34     1    1.20
   35     1    1.20
   36    16    1.75
   37     6    1.50
   38     1    1.20
   39     1    1.20
   40     6    1.50
   41     1    1.20
   42     1    1.20
   43    16    1.75
   44     6    1.50
   45     1    1.20
   46     1    1.20
   47     6    1.50
   48     1    1.20
   49     1    1.20
   50     1    1.20
 Generate VDW surfaces: Layer= 4 Dens= 1 Start= 1.400 Inc= 0.200
            Electrostatic Properties Using The SCF Density.


       Atomic Center    1 is at  -3.352726  7.492249 -3.036428
       Atomic Center    2 is at  -4.397593  7.603839 -2.766927
       Atomic Center    3 is at  -2.761619  8.113604 -2.372344
       Atomic Center    4 is at  -3.232436  7.862894 -4.050039
       Atomic Center    5 is at  -2.891054  6.043212 -2.952925
       Atomic Center    6 is at  -3.497012  5.413480 -3.602087
       Atomic Center    7 is at  -1.865185  5.967403 -3.290286
       Atomic Center    8 is at  -2.899854  5.532812 -1.648074
       Atomic Center    9 is at  -4.148754  5.189028 -1.125889
       Atomic Center   10 is at  -4.691554  4.553502 -1.822766
       Atomic Center   11 is at  -4.751054  6.077058 -0.940868
       Atomic Center   12 is at  -3.965470  4.448655  0.183936
       Atomic Center   13 is at  -3.324314  5.029623  0.841943
       Atomic Center   14 is at  -4.935538  4.351697  0.659069
       Atomic Center   15 is at  -3.471973  3.151815  0.025531
       Atomic Center   16 is at  -2.080032  2.996566  0.005616
       Atomic Center   17 is at  -1.630794  3.455685  0.883110
       Atomic Center   18 is at  -1.641759  3.451037 -0.872619
       Atomic Center   19 is at  -1.804675  1.507350  0.016229
       Atomic Center   20 is at  -2.263545  1.041817 -0.853375
       Atomic Center   21 is at  -2.241800  1.056769  0.904348
       Atomic Center   22 is at  -0.418261  1.330351  0.000000
       Atomic Center   23 is at   0.000000  0.000000  0.000000
       Atomic Center   24 is at  -0.387168 -0.517653 -0.875681
       Atomic Center   25 is at  -0.372452 -0.521194  0.878768
       Atomic Center   26 is at   1.520261  0.000000  0.000000
       Atomic Center   27 is at   1.878869  0.478389  0.902111
       Atomic Center   28 is at   1.889809  0.578081 -0.836757
       Atomic Center   29 is at   2.242552 -1.667812 -0.014887
       Atomic Center   30 is at   2.192414 -2.104083 -1.782982
       Atomic Center   31 is at   2.238062 -3.184174 -1.815886
       Atomic Center   32 is at   1.237771 -1.818063 -2.204078
       Atomic Center   33 is at   3.338182 -1.493081 -2.588110
       Atomic Center   34 is at   4.293958 -1.797362 -2.181271
       Atomic Center   35 is at   3.300332 -0.413507 -2.532095
       Atomic Center   36 is at   3.286113 -1.917158 -4.363510
       Atomic Center   37 is at   4.549083 -3.220511 -4.513166
       Atomic Center   38 is at   5.471336 -2.862131 -4.074112
       Atomic Center   39 is at   4.719246 -3.319324 -5.577350
       Atomic Center   40 is at   4.145519 -4.573043 -3.931558
       Atomic Center   41 is at   3.972696 -4.507112 -2.864428
       Atomic Center   42 is at   3.222302 -4.906233 -4.387581
       Atomic Center   43 is at   5.354831 -5.895071 -4.242088
       Atomic Center   44 is at   6.646284 -5.513885 -3.017259
       Atomic Center   45 is at   7.081645 -4.545756 -3.231194
       Atomic Center   46 is at   6.192179 -5.468836 -2.034059
       Atomic Center   47 is at   7.728783 -6.589438 -3.049683
       Atomic Center   48 is at   7.317958 -7.565004 -2.815509
       Atomic Center   49 is at   8.197413 -6.644176 -4.026072
       Atomic Center   50 is at   8.498315 -6.361727 -2.319358
      ESP Fit Center   51 is at  -4.097396  9.455783 -3.036428
      ESP Fit Center   52 is at  -1.534073  7.492249 -4.086428
      ESP Fit Center   53 is at  -5.196480  8.184265 -1.407778
      ESP Fit Center   54 is at  -5.196480  8.987553 -2.247778
      ESP Fit Center   55 is at  -5.899010  8.150310 -2.247778
      ESP Fit Center   56 is at  -5.899010  7.057368 -2.247778
      ESP Fit Center   57 is at  -5.196480  8.987553 -3.286076
      ESP Fit Center   58 is at  -5.899010  8.150310 -3.286076
      ESP Fit Center   59 is at  -5.899010  7.057368 -3.286076
      ESP Fit Center   60 is at  -5.196480  6.220125 -3.286076
      ESP Fit Center   61 is at  -5.196480  8.184265 -4.126076
      ESP Fit Center   62 is at  -5.196480  7.023413 -4.126076
      ESP Fit Center   63 is at  -2.761619  8.113604 -0.692344
      ESP Fit Center   64 is at  -1.774140  8.113604 -1.013195
      ESP Fit Center   65 is at  -2.456471  9.052753 -1.013195
      ESP Fit Center   66 is at  -3.560506  8.694030 -1.013195
      ESP Fit Center   67 is at  -1.163844  8.113604 -1.853195
      ESP Fit Center   68 is at  -1.537652  9.140634 -1.853195
      ESP Fit Center   69 is at  -2.484168  9.687105 -1.853195
      ESP Fit Center   70 is at  -3.560506  9.497318 -1.853195
      ESP Fit Center   71 is at  -1.163844  8.113604 -2.891493
      ESP Fit Center   72 is at  -1.537652  9.140634 -2.891493
      ESP Fit Center   73 is at  -2.484168  9.687105 -2.891493
      ESP Fit Center   74 is at  -1.634661  7.862894 -4.569188
      ESP Fit Center   75 is at  -2.008469  8.889924 -4.569188
      ESP Fit Center   76 is at  -2.954985  9.436395 -4.569188
      ESP Fit Center   77 is at  -4.031323  9.246608 -4.569188
      ESP Fit Center   78 is at  -4.733853  8.409365 -4.569188
      ESP Fit Center   79 is at  -2.244957  7.862894 -5.409188
      ESP Fit Center   80 is at  -2.927288  8.802043 -5.409188
      ESP Fit Center   81 is at  -4.031323  8.443320 -5.409188
      ESP Fit Center   82 is at  -4.031323  7.282468 -5.409188
      ESP Fit Center   83 is at  -2.927288  6.923745 -5.409188
      ESP Fit Center   84 is at  -3.232436  7.862894 -5.730039
      ESP Fit Center   85 is at  -1.361105  7.026450 -1.902925
      ESP Fit Center   86 is at  -2.637927  3.958523 -2.952925
      ESP Fit Center   87 is at  -1.698118  4.314946 -2.952925
      ESP Fit Center   88 is at  -2.135558  4.388907 -4.002925
      ESP Fit Center   89 is at  -2.891054  6.043212 -5.052925
      ESP Fit Center   90 is at  -4.998429  5.959951 -3.082938
      ESP Fit Center   91 is at  -3.219561  3.839979 -3.082938
      ESP Fit Center   92 is at  -4.998429  5.959951 -4.121236
      ESP Fit Center   93 is at  -4.998429  4.867009 -4.121236
      ESP Fit Center   94 is at  -4.295899  4.029766 -4.121236
      ESP Fit Center   95 is at  -3.219561  3.839979 -4.121236
      ESP Fit Center   96 is at  -2.273045  4.386450 -4.121236
      ESP Fit Center   97 is at  -2.509533  5.413480 -4.961236
      ESP Fit Center   98 is at  -4.295899  5.993906 -4.961236
      ESP Fit Center   99 is at  -4.295899  4.833054 -4.961236
      ESP Fit Center  100 is at  -3.191864  4.474331 -4.961236
      ESP Fit Center  101 is at  -3.497012  5.413480 -5.282087
      ESP Fit Center  102 is at  -0.877706  5.967403 -1.931137
      ESP Fit Center  103 is at  -0.267410  5.967403 -2.771137
      ESP Fit Center  104 is at  -0.641218  6.994433 -2.771137
      ESP Fit Center  105 is at  -1.587734  4.393902 -2.771137
      ESP Fit Center  106 is at  -0.641218  4.940373 -2.771137
      ESP Fit Center  107 is at  -0.267410  5.967403 -3.809435
      ESP Fit Center  108 is at  -0.641218  6.994433 -3.809435
      ESP Fit Center  109 is at  -1.587734  4.393902 -3.809435
      ESP Fit Center  110 is at  -0.641218  4.940373 -3.809435
      ESP Fit Center  111 is at  -0.877706  5.967403 -4.649435
      ESP Fit Center  112 is at  -1.560037  6.906552 -4.649435
      ESP Fit Center  113 is at  -1.560037  5.028254 -4.649435
      ESP Fit Center  114 is at  -1.865185  5.967403 -4.970286
      ESP Fit Center  115 is at  -1.919854  5.532812  0.049336
      ESP Fit Center  116 is at  -2.409854  6.381517  0.049336
      ESP Fit Center  117 is at  -1.202444  5.532812 -0.668074
      ESP Fit Center  118 is at  -1.526621  6.530524 -0.668074
      ESP Fit Center  119 is at  -2.375326  7.147145 -0.668074
      ESP Fit Center  120 is at  -3.424382  7.147145 -0.668074
      ESP Fit Center  121 is at  -0.939854  5.532812 -1.648074
      ESP Fit Center  122 is at  -1.202444  6.512812 -1.648074
      ESP Fit Center  123 is at  -2.375326  3.918479 -2.628074
      ESP Fit Center  124 is at  -3.393258  6.843333 -0.075889
      ESP Fit Center  125 is at  -5.893739  5.701402 -2.175889
      ESP Fit Center  126 is at  -3.393258  3.534723 -2.175889
      ESP Fit Center  127 is at  -6.192971  4.007031 -1.303617
      ESP Fit Center  128 is at  -5.490441  3.169788 -1.303617
      ESP Fit Center  129 is at  -6.192971  5.099973 -2.341915
      ESP Fit Center  130 is at  -6.192971  4.007031 -2.341915
      ESP Fit Center  131 is at  -5.490441  3.169788 -2.341915
      ESP Fit Center  132 is at  -4.414103  2.980001 -2.341915
      ESP Fit Center  133 is at  -3.467587  3.526472 -2.341915
      ESP Fit Center  134 is at  -5.490441  5.133928 -3.181915
      ESP Fit Center  135 is at  -5.490441  3.973076 -3.181915
      ESP Fit Center  136 is at  -4.386406  3.614353 -3.181915
      ESP Fit Center  137 is at  -4.445906  7.016207  0.418281
      ESP Fit Center  138 is at  -5.549941  6.657484  0.418281
      ESP Fit Center  139 is at  -3.527087  7.104088 -0.421719
      ESP Fit Center  140 is at  -4.473603  7.650559 -0.421719
      ESP Fit Center  141 is at  -5.549941  7.460772 -0.421719
      ESP Fit Center  142 is at  -6.252471  6.623529 -0.421719
      ESP Fit Center  143 is at  -6.252471  5.530587 -0.421719
      ESP Fit Center  144 is at  -5.549941  7.460772 -1.460017
      ESP Fit Center  145 is at  -6.252471  6.623529 -1.460017
      ESP Fit Center  146 is at  -6.252471  5.530587 -1.460017
      ESP Fit Center  147 is at  -3.965470  4.448655  2.283936
      ESP Fit Center  148 is at  -3.440470  3.539328  2.002589
      ESP Fit Center  149 is at  -3.324314  5.029623  2.521943
      ESP Fit Center  150 is at  -2.336835  5.029623  2.201092
      ESP Fit Center  151 is at  -3.019166  5.968772  2.201092
      ESP Fit Center  152 is at  -4.123201  5.610049  2.201092
      ESP Fit Center  153 is at  -3.019166  4.090474  2.201092
      ESP Fit Center  154 is at  -2.100347  6.056653  1.361092
      ESP Fit Center  155 is at  -3.046863  6.603124  1.361092
      ESP Fit Center  156 is at  -4.123201  6.413337  1.361092
      ESP Fit Center  157 is at  -2.100347  6.056653  0.322794
      ESP Fit Center  158 is at  -3.046863  6.603124  0.322794
      ESP Fit Center  159 is at  -4.935538  4.351697  2.339069
      ESP Fit Center  160 is at  -4.630390  5.290846  2.018218
      ESP Fit Center  161 is at  -5.734425  4.932123  2.018218
      ESP Fit Center  162 is at  -5.734425  3.771271  2.018218
      ESP Fit Center  163 is at  -4.630390  3.412548  2.018218
      ESP Fit Center  164 is at  -5.734425  5.735411  1.178218
      ESP Fit Center  165 is at  -6.436955  4.898168  1.178218
      ESP Fit Center  166 is at  -6.436955  3.805226  1.178218
      ESP Fit Center  167 is at  -5.734425  2.967983  1.178218
      ESP Fit Center  168 is at  -6.436955  4.898168  0.139920
      ESP Fit Center  169 is at  -6.436955  3.805226  0.139920
      ESP Fit Center  170 is at  -5.734425  2.967983  0.139920
      ESP Fit Center  171 is at  -3.471973  3.151815  1.985531
      ESP Fit Center  172 is at  -3.961973  2.303110  1.722941
      ESP Fit Center  173 is at  -4.845206  2.154103  1.005531
      ESP Fit Center  174 is at  -3.996501  1.537482  1.005531
      ESP Fit Center  175 is at  -5.169383  2.171815  0.025531
      ESP Fit Center  176 is at  -4.451973  1.454405  0.025531
      ESP Fit Center  177 is at  -5.169383  3.151815 -0.954469
      ESP Fit Center  178 is at  -4.845206  2.154103 -0.954469
      ESP Fit Center  179 is at  -3.996501  1.537482 -0.954469
      ESP Fit Center  180 is at  -3.961973  2.303110 -1.671879
      ESP Fit Center  181 is at  -3.471973  3.151815 -1.934469
      ESP Fit Center  182 is at  -0.220574  3.972485  0.005616
      ESP Fit Center  183 is at  -0.887096  4.724832  0.005616
      ESP Fit Center  184 is at  -1.826905  5.081255  0.005616
      ESP Fit Center  185 is at  -1.630794  3.455685  2.563110
      ESP Fit Center  186 is at  -0.643315  3.455685  2.242259
      ESP Fit Center  187 is at  -1.325646  4.394834  2.242259
      ESP Fit Center  188 is at  -2.429681  4.036111  2.242259
      ESP Fit Center  189 is at  -2.429681  2.875259  2.242259
      ESP Fit Center  190 is at  -1.325646  2.516536  2.242259
      ESP Fit Center  191 is at  -0.033019  3.455685  1.402259
      ESP Fit Center  192 is at  -0.406827  4.482715  1.402259
      ESP Fit Center  193 is at  -1.353343  5.029186  1.402259
      ESP Fit Center  194 is at  -0.033019  3.455685  0.363961
      ESP Fit Center  195 is at  -0.406827  4.482715  0.363961
      ESP Fit Center  196 is at  -1.353343  5.029186  0.363961
      ESP Fit Center  197 is at  -0.043984  3.451037 -0.353470
      ESP Fit Center  198 is at  -0.417792  4.478067 -0.353470
      ESP Fit Center  199 is at  -1.364308  5.024538 -0.353470
      ESP Fit Center  200 is at  -0.043984  3.451037 -1.391768
      ESP Fit Center  201 is at  -0.417792  4.478067 -1.391768
      ESP Fit Center  202 is at  -0.654280  3.451037 -2.231768
      ESP Fit Center  203 is at  -1.336611  4.390186 -2.231768
      ESP Fit Center  204 is at  -2.440646  2.870611 -2.231768
      ESP Fit Center  205 is at  -1.336611  2.511888 -2.231768
      ESP Fit Center  206 is at  -1.641759  3.451037 -2.552619
      ESP Fit Center  207 is at  -3.843653  1.004787  0.016229
      ESP Fit Center  208 is at  -3.376548  0.114792  0.016229
      ESP Fit Center  209 is at  -2.549345 -0.456184  0.016229
      ESP Fit Center  210 is at  -3.764962  0.495346 -0.334226
      ESP Fit Center  211 is at  -3.062432 -0.341897 -0.334226
      ESP Fit Center  212 is at  -3.764962  1.588288 -1.372524
      ESP Fit Center  213 is at  -3.764962  0.495346 -1.372524
      ESP Fit Center  214 is at  -3.062432 -0.341897 -1.372524
      ESP Fit Center  215 is at  -1.276066  1.041817 -2.212524
      ESP Fit Center  216 is at  -1.958397  1.980966 -2.212524
      ESP Fit Center  217 is at  -3.062432  1.622243 -2.212524
      ESP Fit Center  218 is at  -3.062432  0.461391 -2.212524
      ESP Fit Center  219 is at  -1.958397  0.102668 -2.212524
      ESP Fit Center  220 is at  -2.263545  1.041817 -2.533375
      ESP Fit Center  221 is at  -2.241800  1.056769  2.584348
      ESP Fit Center  222 is at  -1.254321  1.056769  2.263497
      ESP Fit Center  223 is at  -1.936652  1.995918  2.263497
      ESP Fit Center  224 is at  -3.040687  1.637195  2.263497
      ESP Fit Center  225 is at  -3.040687  0.476343  2.263497
      ESP Fit Center  226 is at  -1.936652  0.117620  2.263497
      ESP Fit Center  227 is at  -3.743217  1.603240  1.423497
      ESP Fit Center  228 is at  -3.743217  0.510298  1.423497
      ESP Fit Center  229 is at  -3.040687 -0.326945  1.423497
      ESP Fit Center  230 is at  -1.964349 -0.516732  1.423497
      ESP Fit Center  231 is at  -3.743217  0.510298  0.385199
      ESP Fit Center  232 is at  -3.040687 -0.326945  0.385199
      ESP Fit Center  233 is at  -0.418261  1.330351  1.960000
      ESP Fit Center  234 is at   0.561739  1.330351  1.697410
      ESP Fit Center  235 is at   0.071739  2.179056  1.697410
      ESP Fit Center  236 is at   0.954972  2.328063  0.980000
      ESP Fit Center  237 is at   0.106267  2.944684  0.980000
      ESP Fit Center  238 is at   1.279149  2.310351  0.000000
      ESP Fit Center  239 is at   0.561739  3.027761  0.000000
      ESP Fit Center  240 is at   0.954972  2.328063 -0.980000
      ESP Fit Center  241 is at   0.106267  2.944684 -0.980000
      ESP Fit Center  242 is at   0.561739  1.330351 -1.697410
      ESP Fit Center  243 is at   0.071739  2.179056 -1.697410
      ESP Fit Center  244 is at  -0.418261  1.330351 -1.960000
      ESP Fit Center  245 is at   0.525000  0.909327  1.818653
      ESP Fit Center  246 is at  -1.571873 -1.392558  0.000000
      ESP Fit Center  247 is at  -0.744670 -1.963534  0.000000
      ESP Fit Center  248 is at   0.525000  0.909327 -1.818653
      ESP Fit Center  249 is at  -1.888585 -1.064124 -0.356532
      ESP Fit Center  250 is at  -1.186055 -1.901367 -0.356532
      ESP Fit Center  251 is at  -1.888585 -1.064124 -1.394830
      ESP Fit Center  252 is at  -1.186055 -1.901367 -1.394830
      ESP Fit Center  253 is at  -0.082020  0.421496 -2.234830
      ESP Fit Center  254 is at  -1.186055  0.062773 -2.234830
      ESP Fit Center  255 is at  -1.186055 -1.098079 -2.234830
      ESP Fit Center  256 is at  -0.387168 -0.517653 -2.555681
      ESP Fit Center  257 is at  -0.372452 -0.521194  2.558768
      ESP Fit Center  258 is at   0.615027 -0.521194  2.237917
      ESP Fit Center  259 is at  -0.067304  0.417955  2.237917
      ESP Fit Center  260 is at  -1.171339  0.059232  2.237917
      ESP Fit Center  261 is at  -1.171339 -1.101620  2.237917
      ESP Fit Center  262 is at  -0.067304 -1.460343  2.237917
      ESP Fit Center  263 is at  -1.873869 -1.067665  1.397917
      ESP Fit Center  264 is at  -1.171339 -1.904908  1.397917
      ESP Fit Center  265 is at  -0.095001 -2.094695  1.397917
      ESP Fit Center  266 is at  -1.873869 -1.067665  0.359619
      ESP Fit Center  267 is at  -1.171339 -1.904908  0.359619
      ESP Fit Center  268 is at   3.379719  0.975919  0.000000
      ESP Fit Center  269 is at   1.773388  2.084689  0.000000
      ESP Fit Center  270 is at   1.878869  0.478389  2.582111
      ESP Fit Center  271 is at   2.866348  0.478389  2.261260
      ESP Fit Center  272 is at   2.184017  1.417538  2.261260
      ESP Fit Center  273 is at   1.079982  1.058815  2.261260
      ESP Fit Center  274 is at   1.079982 -0.102037  2.261260
      ESP Fit Center  275 is at   2.184017 -0.460760  2.261260
      ESP Fit Center  276 is at   3.476644  0.478389  1.421260
      ESP Fit Center  277 is at   3.102836  1.505419  1.421260
      ESP Fit Center  278 is at   2.156320  2.051890  1.421260
      ESP Fit Center  279 is at   1.079982  1.862103  1.421260
      ESP Fit Center  280 is at   3.102836  1.505419  0.382962
      ESP Fit Center  281 is at   2.156320  2.051890  0.382962
      ESP Fit Center  282 is at   3.113776  1.605111 -0.317608
      ESP Fit Center  283 is at   2.167260  2.151582 -0.317608
      ESP Fit Center  284 is at   3.113776  1.605111 -1.355906
      ESP Fit Center  285 is at   2.167260  2.151582 -1.355906
      ESP Fit Center  286 is at   1.090922  1.961795 -1.355906
      ESP Fit Center  287 is at   2.194957  1.517230 -2.195906
      ESP Fit Center  288 is at   1.090922  1.158507 -2.195906
      ESP Fit Center  289 is at   1.090922 -0.002345 -2.195906
      ESP Fit Center  290 is at   1.889809  0.578081 -2.516757
      ESP Fit Center  291 is at   2.242552 -1.667812  2.435113
      ESP Fit Center  292 is at   3.305567 -1.667812  2.192487
      ESP Fit Center  293 is at   2.774060 -0.747214  2.192487
      ESP Fit Center  294 is at   1.711044 -0.747214  2.192487
      ESP Fit Center  295 is at   1.179537 -1.667812  2.192487
      ESP Fit Center  296 is at   1.711044 -2.588410  2.192487
      ESP Fit Center  297 is at   2.774060 -2.588410  2.192487
      ESP Fit Center  298 is at   4.158039 -1.667812  1.512663
      ESP Fit Center  299 is at   3.853962 -0.632221  1.512663
      ESP Fit Center  300 is at   0.404656 -2.207467  1.512663
      ESP Fit Center  301 is at   0.988175 -3.115441  1.512663
      ESP Fit Center  302 is at   1.969950 -3.563802  1.512663
      ESP Fit Center  303 is at   3.038274 -3.410200  1.512663
      ESP Fit Center  304 is at   3.853962 -2.703403  1.512663
      ESP Fit Center  305 is at   4.631125 -1.667812  0.530289
      ESP Fit Center  306 is at   4.394582 -0.631449  0.530289
      ESP Fit Center  307 is at   3.731803  0.199650  0.530289
      ESP Fit Center  308 is at   0.090522 -2.704175  0.530289
      ESP Fit Center  309 is at   0.753301 -3.535274  0.530289
      ESP Fit Center  310 is at   1.711044 -3.996499  0.530289
      ESP Fit Center  311 is at   2.774060 -3.996499  0.530289
      ESP Fit Center  312 is at   3.731803 -3.535274  0.530289
      ESP Fit Center  313 is at   4.394582 -2.704175  0.530289
      ESP Fit Center  314 is at   4.394582 -0.631449 -0.560063
      ESP Fit Center  315 is at   3.731803  0.199650 -0.560063
      ESP Fit Center  316 is at   0.090522 -2.704175 -0.560063
      ESP Fit Center  317 is at   0.753301 -3.535274 -0.560063
      ESP Fit Center  318 is at   3.731803 -3.535274 -0.560063
      ESP Fit Center  319 is at   4.394582 -2.704175 -0.560063
      ESP Fit Center  320 is at   2.543210 -4.123323 -0.456737
      ESP Fit Center  321 is at   0.736645 -3.730645 -1.296737
      ESP Fit Center  322 is at   1.439175 -4.567888 -1.296737
      ESP Fit Center  323 is at   2.515513 -4.757675 -1.296737
      ESP Fit Center  324 is at   0.736645 -3.730645 -2.335035
      ESP Fit Center  325 is at   1.439175 -4.567888 -2.335035
      ESP Fit Center  326 is at   1.439175 -3.764600 -3.175035
      ESP Fit Center  327 is at  -0.263646 -2.364534 -1.684929
      ESP Fit Center  328 is at   1.515222 -0.244562 -2.723227
      ESP Fit Center  329 is at   0.438884 -0.434349 -2.723227
      ESP Fit Center  330 is at  -0.263646 -1.271592 -2.723227
      ESP Fit Center  331 is at  -0.263646 -2.364534 -2.723227
      ESP Fit Center  332 is at   0.438884 -3.201777 -2.723227
      ESP Fit Center  333 is at   0.438884 -1.237637 -3.563227
      ESP Fit Center  334 is at   0.438884 -2.398489 -3.563227
      ESP Fit Center  335 is at   5.281437 -1.797362 -0.822122
      ESP Fit Center  336 is at   4.599106 -0.858213 -0.822122
      ESP Fit Center  337 is at   4.599106 -2.736511 -0.822122
      ESP Fit Center  338 is at   5.891733 -1.797362 -1.662122
      ESP Fit Center  339 is at   5.517925 -0.770332 -1.662122
      ESP Fit Center  340 is at   4.571409 -3.370863 -1.662122
      ESP Fit Center  341 is at   5.517925 -2.824392 -1.662122
      ESP Fit Center  342 is at   5.891733 -1.797362 -2.700420
      ESP Fit Center  343 is at   5.517925 -0.770332 -2.700420
      ESP Fit Center  344 is at   3.605480  0.525642 -1.172946
      ESP Fit Center  345 is at   4.524299  0.613523 -2.012946
      ESP Fit Center  346 is at   3.577783  1.159994 -2.012946
      ESP Fit Center  347 is at   4.524299  0.613523 -3.051244
      ESP Fit Center  348 is at   3.577783  1.159994 -3.051244
      ESP Fit Center  349 is at   2.501445  0.970207 -3.051244
      ESP Fit Center  350 is at   1.798915  0.132964 -3.051244
      ESP Fit Center  351 is at   3.605480  0.525642 -3.891244
      ESP Fit Center  352 is at   5.438143 -0.880795 -3.818334
      ESP Fit Center  353 is at   4.775364 -0.049696 -3.818334
      ESP Fit Center  354 is at   1.796862 -0.049696 -3.818334
      ESP Fit Center  355 is at   1.134083 -0.880795 -3.818334
      ESP Fit Center  356 is at   1.134083 -2.953521 -3.818334
      ESP Fit Center  357 is at   1.796862 -3.784620 -3.818334
      ESP Fit Center  358 is at   5.438143 -0.880795 -4.908686
      ESP Fit Center  359 is at   4.775364 -0.049696 -4.908686
      ESP Fit Center  360 is at   3.817621  0.411529 -4.908686
      ESP Fit Center  361 is at   2.754605  0.411529 -4.908686
      ESP Fit Center  362 is at   1.796862 -0.049696 -4.908686
      ESP Fit Center  363 is at   1.134083 -0.880795 -4.908686
      ESP Fit Center  364 is at   0.897540 -1.917158 -4.908686
      ESP Fit Center  365 is at   1.134083 -2.953521 -4.908686
      ESP Fit Center  366 is at   1.796862 -3.784620 -4.908686
      ESP Fit Center  367 is at   4.897523 -0.881567 -5.891060
      ESP Fit Center  368 is at   4.081835 -0.174770 -5.891060
      ESP Fit Center  369 is at   3.013511 -0.021168 -5.891060
      ESP Fit Center  370 is at   2.031736 -0.469529 -5.891060
      ESP Fit Center  371 is at   1.448217 -1.377503 -5.891060
      ESP Fit Center  372 is at   1.448217 -2.456813 -5.891060
      ESP Fit Center  373 is at   2.031736 -3.364787 -5.891060
      ESP Fit Center  374 is at   3.013511 -3.813148 -5.891060
      ESP Fit Center  375 is at   4.349128 -1.917158 -6.570884
      ESP Fit Center  376 is at   3.817621 -0.996560 -6.570884
      ESP Fit Center  377 is at   2.754605 -0.996560 -6.570884
      ESP Fit Center  378 is at   2.223098 -1.917158 -6.570884
      ESP Fit Center  379 is at   2.754605 -2.837756 -6.570884
      ESP Fit Center  380 is at   3.286113 -1.917158 -6.813510
      ESP Fit Center  381 is at   6.079032 -2.237273 -5.563166
      ESP Fit Center  382 is at   6.458815 -2.862131 -2.714963
      ESP Fit Center  383 is at   7.069111 -2.862131 -3.554963
      ESP Fit Center  384 is at   6.695303 -1.835101 -3.554963
      ESP Fit Center  385 is at   5.748787 -1.288630 -3.554963
      ESP Fit Center  386 is at   7.069111 -2.862131 -4.593261
      ESP Fit Center  387 is at   6.695303 -1.835101 -4.593261
      ESP Fit Center  388 is at   5.748787 -1.288630 -4.593261
      ESP Fit Center  389 is at   6.458815 -2.862131 -5.433261
      ESP Fit Center  390 is at   6.317021 -3.319324 -6.096499
      ESP Fit Center  391 is at   5.943213 -2.292294 -6.096499
      ESP Fit Center  392 is at   3.217829 -3.865795 -6.096499
      ESP Fit Center  393 is at   3.920359 -4.703038 -6.096499
      ESP Fit Center  394 is at   5.943213 -4.346354 -6.096499
      ESP Fit Center  395 is at   5.706725 -3.319324 -6.936499
      ESP Fit Center  396 is at   5.024394 -2.380175 -6.936499
      ESP Fit Center  397 is at   3.920359 -2.738898 -6.936499
      ESP Fit Center  398 is at   3.920359 -3.899750 -6.936499
      ESP Fit Center  399 is at   5.024394 -4.258473 -6.936499
      ESP Fit Center  400 is at   4.719246 -3.319324 -7.257350
      ESP Fit Center  401 is at   2.954554 -5.947489 -2.881558
      ESP Fit Center  402 is at   3.972696 -4.507112 -1.184428
      ESP Fit Center  403 is at   4.277844 -3.567963 -1.505279
      ESP Fit Center  404 is at   3.173809 -5.087538 -1.505279
      ESP Fit Center  405 is at   4.277844 -5.446261 -1.505279
      ESP Fit Center  406 is at   5.196663 -3.480082 -2.345279
      ESP Fit Center  407 is at   2.471279 -5.053583 -2.345279
      ESP Fit Center  408 is at   3.173809 -5.890826 -2.345279
      ESP Fit Center  409 is at   2.423415 -5.486659 -3.028432
      ESP Fit Center  410 is at   1.720885 -4.359762 -3.868432
      ESP Fit Center  411 is at   1.720885 -5.452704 -3.868432
      ESP Fit Center  412 is at   2.423415 -6.289947 -3.868432
      ESP Fit Center  413 is at   1.720885 -4.359762 -4.906730
      ESP Fit Center  414 is at   1.720885 -5.452704 -4.906730
      ESP Fit Center  415 is at   2.423415 -6.289947 -4.906730
      ESP Fit Center  416 is at   2.423415 -4.325807 -5.746730
      ESP Fit Center  417 is at   2.423415 -5.486659 -5.746730
      ESP Fit Center  418 is at   3.222302 -4.906233 -6.067581
      ESP Fit Center  419 is at   4.823323 -6.815669 -2.034714
      ESP Fit Center  420 is at   3.516935 -6.434726 -2.714538
      ESP Fit Center  421 is at   4.100454 -7.342700 -2.714538
      ESP Fit Center  422 is at   5.082229 -7.791061 -2.714538
      ESP Fit Center  423 is at   3.202801 -6.931434 -3.696912
      ESP Fit Center  424 is at   3.865580 -7.762533 -3.696912
      ESP Fit Center  425 is at   4.823323 -8.223758 -3.696912
      ESP Fit Center  426 is at   5.886339 -8.223758 -3.696912
      ESP Fit Center  427 is at   3.202801 -6.931434 -4.787264
      ESP Fit Center  428 is at   3.865580 -7.762533 -4.787264
      ESP Fit Center  429 is at   4.823323 -8.223758 -4.787264
      ESP Fit Center  430 is at   5.886339 -8.223758 -4.787264
      ESP Fit Center  431 is at   6.844082 -7.762533 -4.787264
      ESP Fit Center  432 is at   7.270318 -5.895071 -5.769638
      ESP Fit Center  433 is at   6.966241 -4.859480 -5.769638
      ESP Fit Center  434 is at   3.516935 -6.434726 -5.769638
      ESP Fit Center  435 is at   4.100454 -7.342700 -5.769638
      ESP Fit Center  436 is at   5.082229 -7.791061 -5.769638
      ESP Fit Center  437 is at   6.150553 -7.637459 -5.769638
      ESP Fit Center  438 is at   6.966241 -6.930662 -5.769638
      ESP Fit Center  439 is at   6.417846 -5.895071 -6.449462
      ESP Fit Center  440 is at   5.886339 -4.974473 -6.449462
      ESP Fit Center  441 is at   4.823323 -4.974473 -6.449462
      ESP Fit Center  442 is at   4.291816 -5.895071 -6.449462
      ESP Fit Center  443 is at   4.823323 -6.815669 -6.449462
      ESP Fit Center  444 is at   5.886339 -6.815669 -6.449462
      ESP Fit Center  445 is at   5.354831 -5.895071 -6.692088
      ESP Fit Center  446 is at   7.386793 -3.606607 -1.872045
      ESP Fit Center  447 is at   8.679420 -4.545756 -2.712045
      ESP Fit Center  448 is at   8.305612 -3.518726 -2.712045
      ESP Fit Center  449 is at   7.359096 -2.972255 -2.712045
      ESP Fit Center  450 is at   8.679420 -4.545756 -3.750343
      ESP Fit Center  451 is at   8.305612 -3.518726 -3.750343
      ESP Fit Center  452 is at   7.359096 -2.972255 -3.750343
      ESP Fit Center  453 is at   8.069124 -4.545756 -4.590343
      ESP Fit Center  454 is at   7.386793 -3.606607 -4.590343
      ESP Fit Center  455 is at   6.192179 -5.468836 -0.354059
      ESP Fit Center  456 is at   7.179658 -5.468836 -0.674910
      ESP Fit Center  457 is at   6.497327 -4.529687 -0.674910
      ESP Fit Center  458 is at   5.393292 -4.888410 -0.674910
      ESP Fit Center  459 is at   5.393292 -6.049262 -0.674910
      ESP Fit Center  460 is at   6.497327 -6.407985 -0.674910
      ESP Fit Center  461 is at   6.469630 -3.895335 -1.514910
      ESP Fit Center  462 is at   5.393292 -4.085122 -1.514910
      ESP Fit Center  463 is at   4.690762 -6.015307 -1.514910
      ESP Fit Center  464 is at   5.393292 -6.852550 -1.514910
      ESP Fit Center  465 is at   8.921719 -4.861172 -3.049683
      ESP Fit Center  466 is at   8.921719 -8.317704 -3.049683
      ESP Fit Center  467 is at   9.588241 -7.565357 -3.049683
      ESP Fit Center  468 is at   8.484279 -4.935133 -4.099683
      ESP Fit Center  469 is at   7.317958 -7.565004 -1.135509
      ESP Fit Center  470 is at   6.519071 -8.145430 -1.456360
      ESP Fit Center  471 is at   7.623106 -8.504153 -1.456360
      ESP Fit Center  472 is at   5.816541 -8.111475 -2.296360
      ESP Fit Center  473 is at   6.519071 -8.948718 -2.296360
      ESP Fit Center  474 is at   7.595409 -9.138505 -2.296360
      ESP Fit Center  475 is at   8.541925 -8.592034 -2.296360
      ESP Fit Center  476 is at   6.519071 -8.948718 -3.334658
      ESP Fit Center  477 is at   7.595409 -9.138505 -3.334658
      ESP Fit Center  478 is at   8.541925 -8.592034 -3.334658
      ESP Fit Center  479 is at   6.519071 -8.145430 -4.174658
      ESP Fit Center  480 is at   7.623106 -8.504153 -4.174658
      ESP Fit Center  481 is at   9.795188 -6.644176 -3.506923
      ESP Fit Center  482 is at   9.795188 -6.644176 -4.545221
      ESP Fit Center  483 is at   9.421380 -5.617146 -4.545221
      ESP Fit Center  484 is at   8.474864 -5.070675 -4.545221
      ESP Fit Center  485 is at   7.398526 -8.027890 -4.545221
      ESP Fit Center  486 is at   8.474864 -8.217677 -4.545221
      ESP Fit Center  487 is at   9.421380 -7.671206 -4.545221
      ESP Fit Center  488 is at   9.184892 -6.644176 -5.385221
      ESP Fit Center  489 is at   8.502561 -5.705027 -5.385221
      ESP Fit Center  490 is at   7.398526 -7.224602 -5.385221
      ESP Fit Center  491 is at   8.502561 -7.583325 -5.385221
      ESP Fit Center  492 is at   8.197413 -6.644176 -5.706072
      ESP Fit Center  493 is at   8.498315 -6.361727 -0.639358
      ESP Fit Center  494 is at   9.485794 -6.361727 -0.960209
      ESP Fit Center  495 is at   8.803463 -5.422578 -0.960209
      ESP Fit Center  496 is at   7.699428 -5.781301 -0.960209
      ESP Fit Center  497 is at   7.699428 -6.942153 -0.960209
      ESP Fit Center  498 is at   8.803463 -7.300876 -0.960209
      ESP Fit Center  499 is at  10.096090 -6.361727 -1.800209
      ESP Fit Center  500 is at   9.722282 -5.334697 -1.800209
      ESP Fit Center  501 is at   8.775766 -4.788226 -1.800209
      ESP Fit Center  502 is at   8.775766 -7.935228 -1.800209
      ESP Fit Center  503 is at   9.722282 -7.388757 -1.800209
      ESP Fit Center  504 is at  10.096090 -6.361727 -2.838507
      ESP Fit Center  505 is at   9.722282 -5.334697 -2.838507
      ESP Fit Center  506 is at   9.722282 -7.388757 -2.838507
      ESP Fit Center  507 is at  -3.352726  7.492249 -0.636428
      ESP Fit Center  508 is at  -3.873386  9.773412 -2.502378
      ESP Fit Center  509 is at  -1.244615  8.507462 -3.570478
      ESP Fit Center  510 is at  -2.832066  9.773412 -3.570478
      ESP Fit Center  511 is at  -3.873386  9.773412 -3.570478
      ESP Fit Center  512 is at  -4.811584  9.321599 -3.570478
      ESP Fit Center  513 is at  -5.153114  8.020891 -4.532804
      ESP Fit Center  514 is at  -5.153114  6.963607 -4.532804
      ESP Fit Center  515 is at  -4.877593  8.435223 -1.104158
      ESP Fit Center  516 is at  -4.911417  9.185226 -1.806927
      ESP Fit Center  517 is at  -5.742801  8.581190 -1.806927
      ESP Fit Center  518 is at  -6.060362  7.603839 -1.806927
      ESP Fit Center  519 is at  -5.357593  9.266608 -2.766927
      ESP Fit Center  520 is at  -6.060362  8.563839 -2.766927
      ESP Fit Center  521 is at  -6.317593  7.603839 -2.766927
      ESP Fit Center  522 is at  -6.060362  6.643839 -2.766927
      ESP Fit Center  523 is at  -4.911417  9.185226 -3.726927
      ESP Fit Center  524 is at  -5.742801  8.581190 -3.726927
      ESP Fit Center  525 is at  -6.060362  7.603839 -3.726927
      ESP Fit Center  526 is at  -5.742801  6.626488 -3.726927
      ESP Fit Center  527 is at  -5.357593  7.603839 -4.429696
      ESP Fit Center  528 is at  -2.761619  8.113604 -0.452344
      ESP Fit Center  529 is at  -1.801619  8.113604 -0.709575
      ESP Fit Center  530 is at  -2.281619  8.944988 -0.709575
      ESP Fit Center  531 is at  -3.241619  8.944988 -0.709575
      ESP Fit Center  532 is at  -3.721619  8.113604 -0.709575
      ESP Fit Center  533 is at  -1.098850  8.113604 -1.412344
      ESP Fit Center  534 is at  -1.416411  9.090955 -1.412344
      ESP Fit Center  535 is at  -2.247795  9.694991 -1.412344
      ESP Fit Center  536 is at  -3.275443  9.694991 -1.412344
      ESP Fit Center  537 is at  -4.106827  9.090955 -1.412344
      ESP Fit Center  538 is at  -0.841619  8.113604 -2.372344
      ESP Fit Center  539 is at  -1.098850  9.073604 -2.372344
      ESP Fit Center  540 is at  -1.801619  9.776373 -2.372344
      ESP Fit Center  541 is at  -2.761619 10.033604 -2.372344
      ESP Fit Center  542 is at  -3.721619  9.776373 -2.372344
      ESP Fit Center  543 is at  -1.416411  9.090955 -3.332344
      ESP Fit Center  544 is at  -2.247795  9.694991 -3.332344
      ESP Fit Center  545 is at  -1.569667  8.822894 -4.050039
      ESP Fit Center  546 is at  -2.272436  9.525663 -4.050039
      ESP Fit Center  547 is at  -3.232436  9.782894 -4.050039
      ESP Fit Center  548 is at  -4.192436  9.525663 -4.050039
      ESP Fit Center  549 is at  -1.569667  7.862894 -5.010039
      ESP Fit Center  550 is at  -1.887228  8.840245 -5.010039
      ESP Fit Center  551 is at  -2.718612  9.444281 -5.010039
      ESP Fit Center  552 is at  -3.746260  9.444281 -5.010039
      ESP Fit Center  553 is at  -4.577644  8.840245 -5.010039
      ESP Fit Center  554 is at  -4.895205  7.862894 -5.010039
      ESP Fit Center  555 is at  -4.577644  6.885543 -5.010039
      ESP Fit Center  556 is at  -1.887228  6.885543 -5.010039
      ESP Fit Center  557 is at  -2.272436  7.862894 -5.712808
      ESP Fit Center  558 is at  -2.752436  8.694278 -5.712808
      ESP Fit Center  559 is at  -3.712436  8.694278 -5.712808
      ESP Fit Center  560 is at  -4.192436  7.862894 -5.712808
      ESP Fit Center  561 is at  -3.712436  7.031510 -5.712808
      ESP Fit Center  562 is at  -2.752436  7.031510 -5.712808
      ESP Fit Center  563 is at  -3.232436  7.862894 -5.970039
      ESP Fit Center  564 is at  -2.370394  3.762049 -3.486975
      ESP Fit Center  565 is at  -2.111571  4.336383 -4.449301
      ESP Fit Center  566 is at  -2.891054  6.043212 -5.352925
      ESP Fit Center  567 is at  -5.417012  5.413480 -3.602087
      ESP Fit Center  568 is at  -4.457012  3.750711 -3.602087
      ESP Fit Center  569 is at  -3.497012  3.493480 -3.602087
      ESP Fit Center  570 is at  -2.537012  3.750711 -3.602087
      ESP Fit Center  571 is at  -5.159781  5.413480 -4.562087
      ESP Fit Center  572 is at  -4.842220  4.436129 -4.562087
      ESP Fit Center  573 is at  -4.010836  3.832093 -4.562087
      ESP Fit Center  574 is at  -2.983188  3.832093 -4.562087
      ESP Fit Center  575 is at  -2.537012  5.413480 -5.264856
      ESP Fit Center  576 is at  -3.977012  6.244864 -5.264856
      ESP Fit Center  577 is at  -4.457012  5.413480 -5.264856
      ESP Fit Center  578 is at  -3.977012  4.582096 -5.264856
      ESP Fit Center  579 is at  -3.017012  4.582096 -5.264856
      ESP Fit Center  580 is at  -3.497012  5.413480 -5.522087
      ESP Fit Center  581 is at  -0.202416  5.967403 -2.330286
      ESP Fit Center  582 is at  -0.519977  6.944754 -2.330286
      ESP Fit Center  583 is at  -0.519977  4.990052 -2.330286
      ESP Fit Center  584 is at   0.054815  5.967403 -3.290286
      ESP Fit Center  585 is at  -0.202416  6.927403 -3.290286
      ESP Fit Center  586 is at  -0.905185  7.630172 -3.290286
      ESP Fit Center  587 is at  -0.905185  4.304634 -3.290286
      ESP Fit Center  588 is at  -0.202416  5.007403 -3.290286
      ESP Fit Center  589 is at  -0.202416  5.967403 -4.250286
      ESP Fit Center  590 is at  -0.519977  6.944754 -4.250286
      ESP Fit Center  591 is at  -1.351361  4.386016 -4.250286
      ESP Fit Center  592 is at  -0.519977  4.990052 -4.250286
      ESP Fit Center  593 is at  -0.905185  5.967403 -4.953055
      ESP Fit Center  594 is at  -1.385185  6.798787 -4.953055
      ESP Fit Center  595 is at  -1.385185  5.136019 -4.953055
      ESP Fit Center  596 is at  -1.865185  5.967403 -5.210286
      ESP Fit Center  597 is at  -1.148551  5.532812 -0.251457
      ESP Fit Center  598 is at  -1.483020  6.562202 -0.251457
      ESP Fit Center  599 is at  -2.358672  7.198400 -0.251457
      ESP Fit Center  600 is at  -0.716015  5.532812 -1.149627
      ESP Fit Center  601 is at  -0.966161  6.547692 -1.149627
      ESP Fit Center  602 is at  -3.369271  6.895857  0.370487
      ESP Fit Center  603 is at  -6.488581  5.189028 -0.591839
      ESP Fit Center  604 is at  -6.036762  3.576151 -0.862766
      ESP Fit Center  605 is at  -6.611554  4.553502 -1.822766
      ESP Fit Center  606 is at  -6.354323  3.593502 -1.822766
      ESP Fit Center  607 is at  -5.651554  2.890733 -1.822766
      ESP Fit Center  608 is at  -4.691554  2.633502 -1.822766
      ESP Fit Center  609 is at  -6.036762  5.530853 -2.782766
      ESP Fit Center  610 is at  -6.354323  4.553502 -2.782766
      ESP Fit Center  611 is at  -6.036762  3.576151 -2.782766
      ESP Fit Center  612 is at  -5.205378  2.972115 -2.782766
      ESP Fit Center  613 is at  -4.177730  2.972115 -2.782766
      ESP Fit Center  614 is at  -3.346346  3.576151 -2.782766
      ESP Fit Center  615 is at  -5.651554  4.553502 -3.485535
      ESP Fit Center  616 is at  -5.171554  3.722118 -3.485535
      ESP Fit Center  617 is at  -4.271054  6.908442  0.721901
      ESP Fit Center  618 is at  -5.231054  6.908442  0.721901
      ESP Fit Center  619 is at  -4.237230  7.658445  0.019132
      ESP Fit Center  620 is at  -5.264878  7.658445  0.019132
      ESP Fit Center  621 is at  -6.096262  7.054409  0.019132
      ESP Fit Center  622 is at  -6.413823  6.077058  0.019132
      ESP Fit Center  623 is at  -5.711054  7.739827 -0.940868
      ESP Fit Center  624 is at  -6.413823  7.037058 -0.940868
      ESP Fit Center  625 is at  -6.671054  6.077058 -0.940868
      ESP Fit Center  626 is at  -6.096262  7.054409 -1.900868
      ESP Fit Center  627 is at  -6.413823  6.077058 -1.900868
      ESP Fit Center  628 is at  -3.965470  4.448655  2.583936
      ESP Fit Center  629 is at  -4.486130  5.350465  2.346261
      ESP Fit Center  630 is at  -4.486130  3.546845  2.346261
      ESP Fit Center  631 is at  -3.444810  3.546845  2.346261
      ESP Fit Center  632 is at  -3.324314  5.029623  2.761943
      ESP Fit Center  633 is at  -2.364314  5.029623  2.504712
      ESP Fit Center  634 is at  -2.844314  5.861007  2.504712
      ESP Fit Center  635 is at  -3.804314  5.861007  2.504712
      ESP Fit Center  636 is at  -4.284314  5.029623  2.504712
      ESP Fit Center  637 is at  -2.844314  4.198239  2.504712
      ESP Fit Center  638 is at  -1.979106  6.006974  1.801943
      ESP Fit Center  639 is at  -2.810490  6.611010  1.801943
      ESP Fit Center  640 is at  -3.838138  6.611010  1.801943
      ESP Fit Center  641 is at  -1.661545  5.989623  0.841943
      ESP Fit Center  642 is at  -2.364314  6.692392  0.841943
      ESP Fit Center  643 is at  -3.324314  6.949623  0.841943
      ESP Fit Center  644 is at  -4.935538  4.351697  2.579069
      ESP Fit Center  645 is at  -5.415538  5.183081  2.321838
      ESP Fit Center  646 is at  -5.895538  4.351697  2.321838
      ESP Fit Center  647 is at  -5.415538  3.520313  2.321838
      ESP Fit Center  648 is at  -5.449362  5.933084  1.619069
      ESP Fit Center  649 is at  -6.280746  5.329048  1.619069
      ESP Fit Center  650 is at  -6.598307  4.351697  1.619069
      ESP Fit Center  651 is at  -6.280746  3.374346  1.619069
      ESP Fit Center  652 is at  -5.449362  2.770310  1.619069
      ESP Fit Center  653 is at  -5.895538  6.014466  0.659069
      ESP Fit Center  654 is at  -6.598307  5.311697  0.659069
      ESP Fit Center  655 is at  -6.855538  4.351697  0.659069
      ESP Fit Center  656 is at  -6.598307  3.391697  0.659069
      ESP Fit Center  657 is at  -5.895538  2.688928  0.659069
      ESP Fit Center  658 is at  -6.598307  4.351697 -0.300931
      ESP Fit Center  659 is at  -6.280746  3.374346 -0.300931
      ESP Fit Center  660 is at  -3.471973  3.151815  2.265531
      ESP Fit Center  661 is at  -3.957923  2.310125  2.043701
      ESP Fit Center  662 is at  -4.888807  2.122425  1.422148
      ESP Fit Center  663 is at  -5.106600  1.703662  0.523978
      ESP Fit Center  664 is at  -4.246373  1.109891  0.523978
      ESP Fit Center  665 is at  -5.592353  2.629188 -0.472916
      ESP Fit Center  666 is at  -5.106600  1.703662 -0.472916
      ESP Fit Center  667 is at  -4.246373  1.109891 -0.472916
      ESP Fit Center  668 is at  -4.888807  2.122425 -1.371086
      ESP Fit Center  669 is at  -3.957923  2.310125 -1.992639
      ESP Fit Center  670 is at  -1.630794  3.455685  2.803110
      ESP Fit Center  671 is at  -0.670794  3.455685  2.545879
      ESP Fit Center  672 is at  -1.150794  4.287069  2.545879
      ESP Fit Center  673 is at  -2.110794  4.287069  2.545879
      ESP Fit Center  674 is at  -2.590794  3.455685  2.545879
      ESP Fit Center  675 is at  -2.110794  2.624301  2.545879
      ESP Fit Center  676 is at  -1.150794  2.624301  2.545879
      ESP Fit Center  677 is at   0.031975  3.455685  1.843110
      ESP Fit Center  678 is at  -0.285586  4.433036  1.843110
      ESP Fit Center  679 is at  -1.116970  5.037072  1.843110
      ESP Fit Center  680 is at   0.289206  3.455685  0.883110
      ESP Fit Center  681 is at   0.031975  4.415685  0.883110
      ESP Fit Center  682 is at  -0.670794  5.118454  0.883110
      ESP Fit Center  683 is at   0.278241  3.451037 -0.872619
      ESP Fit Center  684 is at   0.021010  4.411037 -0.872619
      ESP Fit Center  685 is at  -0.681759  5.113806 -0.872619
      ESP Fit Center  686 is at   0.021010  3.451037 -1.832619
      ESP Fit Center  687 is at  -0.296551  4.428388 -1.832619
      ESP Fit Center  688 is at  -0.681759  3.451037 -2.535388
      ESP Fit Center  689 is at  -1.161759  4.282421 -2.535388
      ESP Fit Center  690 is at  -2.601759  3.451037 -2.535388
      ESP Fit Center  691 is at  -2.121759  2.619653 -2.535388
      ESP Fit Center  692 is at  -1.161759  2.619653 -2.535388
      ESP Fit Center  693 is at  -1.641759  3.451037 -2.792619
      ESP Fit Center  694 is at  -4.183545  1.041817 -0.853375
      ESP Fit Center  695 is at  -3.926314  0.081817 -0.853375
      ESP Fit Center  696 is at  -3.223545 -0.620952 -0.853375
      ESP Fit Center  697 is at  -3.926314  1.041817 -1.813375
      ESP Fit Center  698 is at  -3.608753  0.064466 -1.813375
      ESP Fit Center  699 is at  -2.777369 -0.539570 -1.813375
      ESP Fit Center  700 is at  -1.303545  1.041817 -2.516144
      ESP Fit Center  701 is at  -1.783545  1.873201 -2.516144
      ESP Fit Center  702 is at  -2.743545  1.873201 -2.516144
      ESP Fit Center  703 is at  -3.223545  1.041817 -2.516144
      ESP Fit Center  704 is at  -2.743545  0.210433 -2.516144
      ESP Fit Center  705 is at  -1.783545  0.210433 -2.516144
      ESP Fit Center  706 is at  -2.263545  1.041817 -2.773375
      ESP Fit Center  707 is at  -2.241800  1.056769  2.824348
      ESP Fit Center  708 is at  -1.281800  1.056769  2.567117
      ESP Fit Center  709 is at  -1.761800  1.888153  2.567117
      ESP Fit Center  710 is at  -2.721800  1.888153  2.567117
      ESP Fit Center  711 is at  -3.201800  1.056769  2.567117
      ESP Fit Center  712 is at  -2.721800  0.225385  2.567117
      ESP Fit Center  713 is at  -1.761800  0.225385  2.567117
      ESP Fit Center  714 is at  -3.904569  1.056769  1.864348
      ESP Fit Center  715 is at  -3.587008  0.079418  1.864348
      ESP Fit Center  716 is at  -2.755624 -0.524618  1.864348
      ESP Fit Center  717 is at  -4.161800  1.056769  0.904348
      ESP Fit Center  718 is at  -3.904569  0.096769  0.904348
      ESP Fit Center  719 is at  -3.201800 -0.606000  0.904348
      ESP Fit Center  720 is at  -0.418261  1.330351  2.240000
      ESP Fit Center  721 is at   0.553639  1.330351  2.018170
      ESP Fit Center  722 is at   0.067689  2.172041  2.018170
      ESP Fit Center  723 is at   0.998573  2.359741  1.396617
      ESP Fit Center  724 is at   0.822301  3.127615  0.498447
      ESP Fit Center  725 is at   0.822301  3.127615 -0.498447
      ESP Fit Center  726 is at   0.998573  2.359741 -1.396617
      ESP Fit Center  727 is at   0.553639  1.330351 -2.018170
      ESP Fit Center  728 is at   0.067689  2.172041 -2.018170
      ESP Fit Center  729 is at  -0.418261  1.330351 -2.240000
      ESP Fit Center  730 is at   0.520660  0.901810 -2.162325
      ESP Fit Center  731 is at  -2.049937 -1.477653 -0.875681
      ESP Fit Center  732 is at  -1.347168 -2.180422 -0.875681
      ESP Fit Center  733 is at  -0.387168 -2.437653 -0.875681
      ESP Fit Center  734 is at  -1.732376 -1.495004 -1.835681
      ESP Fit Center  735 is at  -0.900992 -2.099040 -1.835681
      ESP Fit Center  736 is at   0.092832  0.313731 -2.538450
      ESP Fit Center  737 is at  -0.867168  0.313731 -2.538450
      ESP Fit Center  738 is at  -1.347168 -0.517653 -2.538450
      ESP Fit Center  739 is at  -0.867168 -1.349037 -2.538450
      ESP Fit Center  740 is at  -0.387168 -0.517653 -2.795681
      ESP Fit Center  741 is at  -0.372452 -0.521194  2.798768
      ESP Fit Center  742 is at   0.587548 -0.521194  2.541537
      ESP Fit Center  743 is at   0.107548  0.310190  2.541537
      ESP Fit Center  744 is at  -0.852452  0.310190  2.541537
      ESP Fit Center  745 is at  -1.332452 -0.521194  2.541537
      ESP Fit Center  746 is at  -0.852452 -1.352578  2.541537
      ESP Fit Center  747 is at   0.107548 -1.352578  2.541537
      ESP Fit Center  748 is at  -1.717660 -1.498545  1.838768
      ESP Fit Center  749 is at  -0.886276 -2.102581  1.838768
      ESP Fit Center  750 is at   0.141372 -2.102581  1.838768
      ESP Fit Center  751 is at  -2.035221 -1.481194  0.878768
      ESP Fit Center  752 is at  -1.332452 -2.183963  0.878768
      ESP Fit Center  753 is at  -0.372452 -2.441194  0.878768
      ESP Fit Center  754 is at   1.878869  0.478389  2.822111
      ESP Fit Center  755 is at   2.838869  0.478389  2.564880
      ESP Fit Center  756 is at   2.358869  1.309773  2.564880
      ESP Fit Center  757 is at   1.398869  1.309773  2.564880
      ESP Fit Center  758 is at   0.918869  0.478389  2.564880
      ESP Fit Center  759 is at   1.398869 -0.352995  2.564880
      ESP Fit Center  760 is at   2.358869 -0.352995  2.564880
      ESP Fit Center  761 is at   3.541638  0.478389  1.862111
      ESP Fit Center  762 is at   3.224077  1.455740  1.862111
      ESP Fit Center  763 is at   2.392693  2.059776  1.862111
      ESP Fit Center  764 is at   1.365045  2.059776  1.862111
      ESP Fit Center  765 is at   3.798869  0.478389  0.902111
      ESP Fit Center  766 is at   3.541638  1.438389  0.902111
      ESP Fit Center  767 is at   2.838869  2.141158  0.902111
      ESP Fit Center  768 is at   1.878869  2.398389  0.902111
      ESP Fit Center  769 is at   3.809809  0.578081 -0.836757
      ESP Fit Center  770 is at   3.552578  1.538081 -0.836757
      ESP Fit Center  771 is at   2.849809  2.240850 -0.836757
      ESP Fit Center  772 is at   1.889809  2.498081 -0.836757
      ESP Fit Center  773 is at   3.235017  1.555432 -1.796757
      ESP Fit Center  774 is at   2.403633  2.159468 -1.796757
      ESP Fit Center  775 is at   1.375985  2.159468 -1.796757
      ESP Fit Center  776 is at   2.369809  1.409465 -2.499526
      ESP Fit Center  777 is at   1.409809  1.409465 -2.499526
      ESP Fit Center  778 is at   0.929809  0.578081 -2.499526
      ESP Fit Center  779 is at   2.242552 -1.667812  2.785113
      ESP Fit Center  780 is at   3.314066 -1.667812  2.571976
      ESP Fit Center  781 is at   2.778309 -0.739854  2.571976
      ESP Fit Center  782 is at   1.706795 -0.739854  2.571976
      ESP Fit Center  783 is at   1.171038 -1.667812  2.571976
      ESP Fit Center  784 is at   1.706795 -2.595770  2.571976
      ESP Fit Center  785 is at   2.778309 -2.595770  2.571976
      ESP Fit Center  786 is at   4.222451 -1.667812  1.965012
      ESP Fit Center  787 is at   3.957195 -0.677863  1.965012
      ESP Fit Center  788 is at   0.527909 -2.657761  1.965012
      ESP Fit Center  789 is at   1.252603 -3.382455  1.965012
      ESP Fit Center  790 is at   2.242552 -3.647711  1.965012
      ESP Fit Center  791 is at   3.232501 -3.382455  1.965012
      ESP Fit Center  792 is at   3.957195 -2.657761  1.965012
      ESP Fit Center  793 is at   4.829415 -1.667812  1.056627
      ESP Fit Center  794 is at   4.605769 -0.615640  1.056627
      ESP Fit Center  795 is at   3.973501  0.254602  1.056627
      ESP Fit Center  796 is at   0.149736 -3.188332  1.056627
      ESP Fit Center  797 is at   0.949121 -3.908101  1.056627
      ESP Fit Center  798 is at   1.972151 -4.240504  1.056627
      ESP Fit Center  799 is at   3.041937 -4.128065  1.056627
      ESP Fit Center  800 is at   3.973501 -3.590226  1.056627
      ESP Fit Center  801 is at   4.605769 -2.719984  1.056627
      ESP Fit Center  802 is at   5.042552 -1.667812 -0.014887
      ESP Fit Center  803 is at   4.853474 -0.656335 -0.014887
      ESP Fit Center  804 is at   4.311777  0.218536 -0.014887
      ESP Fit Center  805 is at  -0.138056 -3.141822 -0.014887
      ESP Fit Center  806 is at   0.555175 -3.902260 -0.014887
      ESP Fit Center  807 is at   1.476296 -4.360924 -0.014887
      ESP Fit Center  808 is at   2.500903 -4.455868 -0.014887
      ESP Fit Center  809 is at   3.490619 -4.174269 -0.014887
      ESP Fit Center  810 is at   4.311777 -3.554160 -0.014887
      ESP Fit Center  811 is at   4.853474 -2.679289 -0.014887
      ESP Fit Center  812 is at   0.149736 -3.188332 -1.086401
      ESP Fit Center  813 is at   3.973501 -3.590226 -1.086401
      ESP Fit Center  814 is at   0.084303 -3.119296 -1.248932
      ESP Fit Center  815 is at   0.963636 -3.522168 -3.279358
      ESP Fit Center  816 is at   0.892854 -4.161525 -0.855886
      ESP Fit Center  817 is at   1.724238 -4.765561 -0.855886
      ESP Fit Center  818 is at   2.751886 -4.765561 -0.855886
      ESP Fit Center  819 is at   3.583270 -4.161525 -0.855886
      ESP Fit Center  820 is at   0.575293 -4.144174 -1.815886
      ESP Fit Center  821 is at   1.278062 -4.846943 -1.815886
      ESP Fit Center  822 is at   2.238062 -5.104174 -1.815886
      ESP Fit Center  823 is at   0.892854 -4.161525 -2.775886
      ESP Fit Center  824 is at   1.724238 -4.765561 -2.775886
      ESP Fit Center  825 is at  -0.107437 -2.795414 -1.244078
      ESP Fit Center  826 is at  -0.424998 -2.778063 -2.204078
      ESP Fit Center  827 is at   0.723947 -0.236676 -3.164078
      ESP Fit Center  828 is at  -0.107437 -0.840712 -3.164078
      ESP Fit Center  829 is at  -0.424998 -1.818063 -3.164078
      ESP Fit Center  830 is at  -0.107437 -2.795414 -3.164078
      ESP Fit Center  831 is at   0.277771 -1.818063 -3.866847
      ESP Fit Center  832 is at   5.446293 -0.477868 -3.122160
      ESP Fit Center  833 is at   5.253958 -1.797362 -0.518502
      ESP Fit Center  834 is at   5.956727 -1.797362 -1.221271
      ESP Fit Center  835 is at   5.639166 -0.820011 -1.221271
      ESP Fit Center  836 is at   4.807782 -3.378749 -1.221271
      ESP Fit Center  837 is at   5.639166 -2.774713 -1.221271
      ESP Fit Center  838 is at   6.213958 -1.797362 -2.181271
      ESP Fit Center  839 is at   5.956727 -0.837362 -2.181271
      ESP Fit Center  840 is at   5.956727 -2.757362 -2.181271
      ESP Fit Center  841 is at   5.639166 -0.820011 -3.141271
      ESP Fit Center  842 is at   4.645540  0.563844 -1.572095
      ESP Fit Center  843 is at   3.814156  1.167880 -1.572095
      ESP Fit Center  844 is at   4.963101  0.546493 -2.532095
      ESP Fit Center  845 is at   4.260332  1.249262 -2.532095
      ESP Fit Center  846 is at   3.300332  1.506493 -2.532095
      ESP Fit Center  847 is at   4.645540  0.563844 -3.492095
      ESP Fit Center  848 is at   3.814156  1.167880 -3.492095
      ESP Fit Center  849 is at   2.786508  1.167880 -3.492095
      ESP Fit Center  850 is at   1.955124  0.563844 -3.492095
      ESP Fit Center  851 is at   5.649330 -0.864986 -3.291996
      ESP Fit Center  852 is at   5.897035 -0.905681 -4.363510
      ESP Fit Center  853 is at   5.355338 -0.030810 -4.363510
      ESP Fit Center  854 is at   4.534180  0.589299 -4.363510
      ESP Fit Center  855 is at   3.544464  0.870898 -4.363510
      ESP Fit Center  856 is at   2.519857  0.775954 -4.363510
      ESP Fit Center  857 is at   1.598736  0.317290 -4.363510
      ESP Fit Center  858 is at   0.905505 -0.443148 -4.363510
      ESP Fit Center  859 is at   0.533788 -1.402659 -4.363510
      ESP Fit Center  860 is at   0.533788 -2.431657 -4.363510
      ESP Fit Center  861 is at   0.905505 -3.391168 -4.363510
      ESP Fit Center  862 is at   5.649330 -0.864986 -5.435024
      ESP Fit Center  863 is at   5.017062  0.005256 -5.435024
      ESP Fit Center  864 is at   4.085498  0.543095 -5.435024
      ESP Fit Center  865 is at   3.015712  0.655534 -5.435024
      ESP Fit Center  866 is at   1.992682  0.323131 -5.435024
      ESP Fit Center  867 is at   1.193297 -0.396638 -5.435024
      ESP Fit Center  868 is at   0.755779 -1.379319 -5.435024
      ESP Fit Center  869 is at   0.755779 -2.454997 -5.435024
      ESP Fit Center  870 is at   1.193297 -3.437678 -5.435024
      ESP Fit Center  871 is at   5.000756 -0.927209 -6.343409
      ESP Fit Center  872 is at   4.276062 -0.202515 -6.343409
      ESP Fit Center  873 is at   3.286113  0.062741 -6.343409
      ESP Fit Center  874 is at   2.296164 -0.202515 -6.343409
      ESP Fit Center  875 is at   1.571470 -0.927209 -6.343409
      ESP Fit Center  876 is at   1.306214 -1.917158 -6.343409
      ESP Fit Center  877 is at   1.571470 -2.907107 -6.343409
      ESP Fit Center  878 is at   2.296164 -3.631801 -6.343409
      ESP Fit Center  879 is at   4.357627 -1.917158 -6.950373
      ESP Fit Center  880 is at   3.821870 -0.989200 -6.950373
      ESP Fit Center  881 is at   2.750356 -0.989200 -6.950373
      ESP Fit Center  882 is at   2.214599 -1.917158 -6.950373
      ESP Fit Center  883 is at   2.750356 -2.845116 -6.950373
      ESP Fit Center  884 is at   3.286113 -1.917158 -7.163510
      ESP Fit Center  885 is at   6.431336 -2.862131 -2.411343
      ESP Fit Center  886 is at   6.816544 -1.884780 -3.114112
      ESP Fit Center  887 is at   5.985160 -1.280744 -3.114112
      ESP Fit Center  888 is at   7.134105 -1.902131 -4.074112
      ESP Fit Center  889 is at   6.431336 -1.199362 -4.074112
      ESP Fit Center  890 is at   7.134105 -2.862131 -5.034112
      ESP Fit Center  891 is at   6.816544 -1.884780 -5.034112
      ESP Fit Center  892 is at   5.985160 -1.280744 -5.034112
      ESP Fit Center  893 is at   6.382015 -3.319324 -6.537350
      ESP Fit Center  894 is at   6.064454 -2.341973 -6.537350
      ESP Fit Center  895 is at   5.233070 -1.737937 -6.537350
      ESP Fit Center  896 is at   3.374038 -4.296675 -6.537350
      ESP Fit Center  897 is at   6.064454 -4.296675 -6.537350
      ESP Fit Center  898 is at   5.679246 -3.319324 -7.240119
      ESP Fit Center  899 is at   5.199246 -2.487940 -7.240119
      ESP Fit Center  900 is at   4.239246 -2.487940 -7.240119
      ESP Fit Center  901 is at   3.759246 -3.319324 -7.240119
      ESP Fit Center  902 is at   4.239246 -4.150708 -7.240119
      ESP Fit Center  903 is at   5.199246 -4.150708 -7.240119
      ESP Fit Center  904 is at   4.719246 -3.319324 -7.497350
      ESP Fit Center  905 is at   3.972696 -4.507112 -0.944428
      ESP Fit Center  906 is at   4.452696 -3.675728 -1.201659
      ESP Fit Center  907 is at   3.492696 -5.338496 -1.201659
      ESP Fit Center  908 is at   4.452696 -5.338496 -1.201659
      ESP Fit Center  909 is at   5.317904 -3.529761 -1.904428
      ESP Fit Center  910 is at   2.627488 -5.484463 -1.904428
      ESP Fit Center  911 is at   3.458872 -6.088499 -1.904428
      ESP Fit Center  912 is at   1.559533 -4.906233 -3.427581
      ESP Fit Center  913 is at   1.877094 -5.883584 -3.427581
      ESP Fit Center  914 is at   2.708478 -6.487620 -3.427581
      ESP Fit Center  915 is at   1.302302 -4.906233 -4.387581
      ESP Fit Center  916 is at   1.559533 -5.866233 -4.387581
      ESP Fit Center  917 is at   2.262302 -6.569002 -4.387581
      ESP Fit Center  918 is at   1.559533 -4.906233 -5.347581
      ESP Fit Center  919 is at   1.877094 -5.883584 -5.347581
      ESP Fit Center  920 is at   2.708478 -6.487620 -5.347581
      ESP Fit Center  921 is at   2.262302 -4.906233 -6.050350
      ESP Fit Center  922 is at   2.742302 -5.737617 -6.050350
      ESP Fit Center  923 is at   3.222302 -4.906233 -6.307581
      ESP Fit Center  924 is at   4.819074 -6.823029 -1.655225
      ESP Fit Center  925 is at   3.640188 -6.885020 -2.262189
      ESP Fit Center  926 is at   4.364882 -7.609714 -2.262189
      ESP Fit Center  927 is at   5.354831 -7.874970 -2.262189
      ESP Fit Center  928 is at   2.824497 -6.432910 -3.170574
      ESP Fit Center  929 is at   3.262015 -7.415591 -3.170574
      ESP Fit Center  930 is at   4.061400 -8.135360 -3.170574
      ESP Fit Center  931 is at   5.084430 -8.467763 -3.170574
      ESP Fit Center  932 is at   2.974223 -7.369081 -4.242088
      ESP Fit Center  933 is at   3.667454 -8.129519 -4.242088
      ESP Fit Center  934 is at   4.588575 -8.588183 -4.242088
      ESP Fit Center  935 is at   5.613182 -8.683127 -4.242088
      ESP Fit Center  936 is at   7.718048 -4.842899 -5.313602
      ESP Fit Center  937 is at   7.085780 -3.972657 -5.313602
      ESP Fit Center  938 is at   3.262015 -7.415591 -5.313602
      ESP Fit Center  939 is at   4.061400 -8.135360 -5.313602
      ESP Fit Center  940 is at   5.084430 -8.467763 -5.313602
      ESP Fit Center  941 is at   6.154216 -8.355324 -5.313602
      ESP Fit Center  942 is at   7.085780 -7.817485 -5.313602
      ESP Fit Center  943 is at   7.334730 -5.895071 -6.221987
      ESP Fit Center  944 is at   7.069474 -4.905122 -6.221987
      ESP Fit Center  945 is at   6.344780 -4.180428 -6.221987
      ESP Fit Center  946 is at   3.374932 -5.895071 -6.221987
      ESP Fit Center  947 is at   3.640188 -6.885020 -6.221987
      ESP Fit Center  948 is at   4.364882 -7.609714 -6.221987
      ESP Fit Center  949 is at   5.354831 -7.874970 -6.221987
      ESP Fit Center  950 is at   6.344780 -7.609714 -6.221987
      ESP Fit Center  951 is at   7.069474 -6.885020 -6.221987
      ESP Fit Center  952 is at   6.426345 -5.895071 -6.828951
      ESP Fit Center  953 is at   5.890588 -4.967113 -6.828951
      ESP Fit Center  954 is at   4.819074 -4.967113 -6.828951
      ESP Fit Center  955 is at   4.283317 -5.895071 -6.828951
      ESP Fit Center  956 is at   4.819074 -6.823029 -6.828951
      ESP Fit Center  957 is at   5.890588 -6.823029 -6.828951
      ESP Fit Center  958 is at   5.354831 -5.895071 -7.042088
      ESP Fit Center  959 is at   8.224808 -4.499429 -1.520883
      ESP Fit Center  960 is at   7.561645 -3.714372 -1.568425
      ESP Fit Center  961 is at   8.426853 -3.568405 -2.271194
      ESP Fit Center  962 is at   7.595469 -2.964369 -2.271194
      ESP Fit Center  963 is at   6.567821 -2.964369 -2.271194
      ESP Fit Center  964 is at   9.001645 -4.545756 -3.231194
      ESP Fit Center  965 is at   8.744414 -3.585756 -3.231194
      ESP Fit Center  966 is at   8.041645 -2.882987 -3.231194
      ESP Fit Center  967 is at   8.744414 -4.545756 -4.191194
      ESP Fit Center  968 is at   8.426853 -3.568405 -4.191194
      ESP Fit Center  969 is at   7.595469 -2.964369 -4.191194
      ESP Fit Center  970 is at   8.041645 -4.545756 -4.893963
      ESP Fit Center  971 is at   7.561645 -3.714372 -4.893963
      ESP Fit Center  972 is at   6.192179 -5.468836 -0.114059
      ESP Fit Center  973 is at   7.152179 -5.468836 -0.371290
      ESP Fit Center  974 is at   6.672179 -4.637452 -0.371290
      ESP Fit Center  975 is at   5.712179 -4.637452 -0.371290
      ESP Fit Center  976 is at   5.232179 -5.468836 -0.371290
      ESP Fit Center  977 is at   5.712179 -6.300220 -0.371290
      ESP Fit Center  978 is at   6.672179 -6.300220 -0.371290
      ESP Fit Center  979 is at   6.706003 -3.887449 -1.074059
      ESP Fit Center  980 is at   5.678355 -3.887449 -1.074059
      ESP Fit Center  981 is at   4.846971 -4.491485 -1.074059
      ESP Fit Center  982 is at   4.529410 -5.468836 -1.074059
      ESP Fit Center  983 is at   4.846971 -6.446187 -1.074059
      ESP Fit Center  984 is at   5.678355 -7.050223 -1.074059
      ESP Fit Center  985 is at   7.208123 -7.491248 -0.887358
      ESP Fit Center  986 is at   9.187641 -8.418788 -2.515633
      ESP Fit Center  987 is at  10.068610 -6.589438 -3.583733
      ESP Fit Center  988 is at   9.836894 -5.574225 -3.583733
      ESP Fit Center  989 is at   9.187641 -4.760088 -3.583733
      ESP Fit Center  990 is at   9.187641 -8.418788 -3.583733
      ESP Fit Center  991 is at   9.836894 -7.604651 -3.583733
      ESP Fit Center  992 is at   7.461744 -8.446735 -4.546059
      ESP Fit Center  993 is at   7.317958 -7.565004 -0.895509
      ESP Fit Center  994 is at   6.357958 -7.565004 -1.152740
      ESP Fit Center  995 is at   6.837958 -8.396388 -1.152740
      ESP Fit Center  996 is at   7.797958 -8.396388 -1.152740
      ESP Fit Center  997 is at   5.655189 -7.565004 -1.855509
      ESP Fit Center  998 is at   5.972750 -8.542355 -1.855509
      ESP Fit Center  999 is at   6.804134 -9.146391 -1.855509
      ESP Fit Center 1000 is at   7.831782 -9.146391 -1.855509
      ESP Fit Center 1001 is at   8.663166 -8.542355 -1.855509
      ESP Fit Center 1002 is at   5.655189 -8.525004 -2.815509
      ESP Fit Center 1003 is at   6.357958 -9.227773 -2.815509
      ESP Fit Center 1004 is at   7.317958 -9.485004 -2.815509
      ESP Fit Center 1005 is at   8.277958 -9.227773 -2.815509
      ESP Fit Center 1006 is at   6.804134 -9.146391 -3.775509
      ESP Fit Center 1007 is at   7.831782 -9.146391 -3.775509
      ESP Fit Center 1008 is at   6.837958 -8.396388 -4.478278
      ESP Fit Center 1009 is at  10.117413 -6.644176 -4.026072
      ESP Fit Center 1010 is at   9.860182 -5.684176 -4.026072
      ESP Fit Center 1011 is at   9.157413 -8.306945 -4.026072
      ESP Fit Center 1012 is at   9.860182 -7.604176 -4.026072
      ESP Fit Center 1013 is at   9.860182 -6.644176 -4.986072
      ESP Fit Center 1014 is at   9.542621 -5.666825 -4.986072
      ESP Fit Center 1015 is at   8.711237 -5.062789 -4.986072
      ESP Fit Center 1016 is at   7.683589 -8.225563 -4.986072
      ESP Fit Center 1017 is at   8.711237 -8.225563 -4.986072
      ESP Fit Center 1018 is at   9.542621 -7.621527 -4.986072
      ESP Fit Center 1019 is at   9.157413 -6.644176 -5.688841
      ESP Fit Center 1020 is at   8.677413 -5.812792 -5.688841
      ESP Fit Center 1021 is at   7.717413 -7.475560 -5.688841
      ESP Fit Center 1022 is at   8.677413 -7.475560 -5.688841
      ESP Fit Center 1023 is at   8.197413 -6.644176 -5.946072
      ESP Fit Center 1024 is at   8.498315 -6.361727 -0.399358
      ESP Fit Center 1025 is at   9.458315 -6.361727 -0.656589
      ESP Fit Center 1026 is at   8.978315 -5.530343 -0.656589
      ESP Fit Center 1027 is at   8.018315 -5.530343 -0.656589
      ESP Fit Center 1028 is at   7.538315 -6.361727 -0.656589
      ESP Fit Center 1029 is at   8.018315 -7.193111 -0.656589
      ESP Fit Center 1030 is at   8.978315 -7.193111 -0.656589
      ESP Fit Center 1031 is at  10.161084 -6.361727 -1.359358
      ESP Fit Center 1032 is at   9.843523 -5.384376 -1.359358
      ESP Fit Center 1033 is at   9.012139 -4.780340 -1.359358
      ESP Fit Center 1034 is at   9.012139 -7.943114 -1.359358
      ESP Fit Center 1035 is at   9.843523 -7.339078 -1.359358
      ESP Fit Center 1036 is at  10.418315 -6.361727 -2.319358
      ESP Fit Center 1037 is at  10.161084 -5.401727 -2.319358
      ESP Fit Center 1038 is at   9.458315 -4.698958 -2.319358
      ESP Fit Center 1039 is at  10.161084 -7.321727 -2.319358
      ESP Fit Center 1040 is at  10.161084 -6.361727 -3.279358
      ESP Fit Center 1041 is at   9.843523 -5.384376 -3.279358
      ESP Fit Center 1042 is at  -3.907799  9.924182 -2.003183
      ESP Fit Center 1043 is at  -3.352726 10.192249 -3.036428
      ESP Fit Center 1044 is at  -4.385971  9.986724 -3.036428
      ESP Fit Center 1045 is at  -1.105282  8.574561 -4.069673
      ESP Fit Center 1046 is at  -3.907799  9.924182 -4.069673
      ESP Fit Center 1047 is at  -4.908006  9.442508 -4.069673
      ESP Fit Center 1048 is at  -5.184579  6.954368 -4.945616
[...]
 1375 Fit       0.004084
 1376 Fit       0.006275
 1377 Fit      -0.002179
 1378 Fit      -0.003572
 1379 Fit       0.004498
 1380 Fit       0.004712
 1381 Fit      -0.005377
 1382 Fit      -0.004735
 1383 Fit      -0.001612
 1384 Fit      -0.009538
 1385 Fit      -0.012526
 1386 Fit      -0.011259
 1387 Fit      -0.008254
 1388 Fit      -0.005962
 1389 Fit      -0.005559
 1390 Fit      -0.007339
 1391 Fit      -0.010601
 1392 Fit      -0.012621
 1393 Fit      -0.009391
 1394 Fit      -0.007009
 1395 Fit      -0.014113
 1396 Fit      -0.016826
 1397 Fit      -0.015764
 1398 Fit      -0.013403
 1399 Fit      -0.012120
 1400 Fit      -0.012793
 1401 Fit      -0.014308
 1402 Fit      -0.013877
 1403 Fit      -0.008522
 1404 Fit      -0.009364
 1405 Fit      -0.015267
 1406 Fit      -0.016407
 1407 Fit      -0.015156
 1408 Fit      -0.014233
 1409 Fit      -0.013592
 1410 Fit      -0.010555
 1411 Fit      -0.003406
 1412 Fit      -0.002111
 1413 Fit      -0.010906
 1414 Fit      -0.012728
 1415 Fit      -0.010400
 1416 Fit      -0.003861
 1417 Fit      -0.006292
 1418 Fit       0.003330
 1419 Fit       0.015555
 1420 Fit       0.013325
 1421 Fit       0.011612
 1422 Fit       0.007450
 1423 Fit       0.007262
 1424 Fit       0.006080
 1425 Fit      -0.000185
 1426 Fit       0.000108
 1427 Fit       0.002114
 1428 Fit      -0.001925
 1429 Fit       0.004557
 1430 Fit       0.001571
 1431 Fit       0.001979
 1432 Fit       0.000858
 1433 Fit       0.002648
 1434 Fit       0.001969
 1435 Fit      -0.001429
 1436 Fit       0.002828
 1437 Fit       0.014610
 1438 Fit       0.010861
 1439 Fit       0.006269
 1440 Fit       0.005046
 1441 Fit       0.001879
 1442 Fit      -0.002626
 1443 Fit       0.003220
 1444 Fit       0.002729
 1445 Fit      -0.003032
 1446 Fit       0.002909
 1447 Fit       0.002541
 1448 Fit       0.002502
 1449 Fit       0.002534
 1450 Fit       0.004451
 1451 Fit      -0.004717
 1452 Fit      -0.008998
 1453 Fit      -0.004327
 1454 Fit      -0.006346
 1455 Fit      -0.014038
 1456 Fit      -0.015573
 1457 Fit      -0.009698
 1458 Fit      -0.004682
 1459 Fit      -0.013906
 1460 Fit      -0.018216
 1461 Fit      -0.016639
 1462 Fit      -0.009538
 1463 Fit      -0.002614
 1464 Fit      -0.012204
 1465 Fit      -0.017239
 1466 Fit      -0.017211
 1467 Fit      -0.012974
 1468 Fit      -0.007331
 1469 Fit      -0.005378
 1470 Fit      -0.003723
 1471 Fit      -0.003984
 1472 Fit      -0.011876
 1473 Fit      -0.016014
 1474 Fit      -0.015873
 1475 Fit      -0.012785
 1476 Fit      -0.008580
 1477 Fit      -0.013476
 1478 Fit      -0.012698
 1479 Fit       0.003672
 1480 Fit      -0.001416
 1481 Fit      -0.008167
 1482 Fit      -0.013858
 1483 Fit      -0.016030
 1484 Fit      -0.015263
 1485 Fit      -0.013815
 1486 Fit      -0.016763
 1487 Fit      -0.012348
 1488 Fit      -0.005908
 1489 Fit      -0.008290
 1490 Fit      -0.014010
 1491 Fit      -0.016852
 1492 Fit      -0.014294
 1493 Fit       0.011639
 1494 Fit       0.011639
 1495 Fit       0.021988
 1496 Fit       0.012128
 1497 Fit       0.011771
 1498 Fit       0.013511
 1499 Fit       0.018198
 1500 Fit       0.010930
 1501 Fit       0.012942
 1502 Fit       0.009380
 1503 Fit       0.012222
 1504 Fit       0.002751
 1505 Fit       0.005329
 1506 Fit       0.009257
 1507 Fit       0.009910
 1508 Fit       0.010048
 1509 Fit       0.010500
 1510 Fit       0.009804
 1511 Fit       0.007825
 1512 Fit       0.008497
 1513 Fit       0.011962
 1514 Fit       0.014366
 1515 Fit       0.017458
 1516 Fit       0.008821
 1517 Fit       0.003824
 1518 Fit       0.005038
 1519 Fit       0.005196
 1520 Fit       0.003585
 1521 Fit       0.002879
 1522 Fit       0.002106
 1523 Fit       0.003264
 1524 Fit       0.007345
 1525 Fit       0.001383
 1526 Fit      -0.004676
 1527 Fit       0.004796
 1528 Fit       0.003496
 1529 Fit       0.003684
 1530 Fit      -0.002270
 1531 Fit       0.000732
 1532 Fit       0.002786
 1533 Fit       0.003182
 1534 Fit      -0.005783
 1535 Fit      -0.000258
 1536 Fit       0.001751
 1537 Fit       0.002077
 1538 Fit      -0.008595
 1539 Fit      -0.002144
 1540 Fit      -0.000071
 1541 Fit       0.003872
 1542 Fit       0.004776
 1543 Fit       0.002966
 1544 Fit       0.003920
 1545 Fit       0.004292
 1546 Fit       0.004185
 1547 Fit      -0.002650
 1548 Fit       0.000828
 1549 Fit       0.002886
 1550 Fit       0.002231
 1551 Fit       0.000441
 1552 Fit      -0.005947
 1553 Fit       0.000170
 1554 Fit      -0.003456
 1555 Fit       0.007931
 1556 Fit       0.008110
 1557 Fit       0.009496
 1558 Fit       0.010481
 1559 Fit       0.005574
 1560 Fit       0.006140
 1561 Fit       0.007672
 1562 Fit       0.008963
 1563 Fit       0.010321
 1564 Fit       0.004262
 1565 Fit       0.006014
 1566 Fit       0.006188
 1567 Fit       0.007481
 1568 Fit       0.009237
 1569 Fit       0.004756
 1570 Fit       0.002576
 1571 Fit       0.004557
 1572 Fit       0.003676
 1573 Fit       0.002795
 1574 Fit       0.003284
 1575 Fit       0.002939
 1576 Fit       0.002814
 1577 Fit       0.002754
 1578 Fit       0.003018
 1579 Fit       0.003974
 1580 Fit       0.004849
 1581 Fit       0.004308
 1582 Fit       0.004979
 1583 Fit       0.007721
 1584 Fit       0.007393
 1585 Fit       0.006498
 1586 Fit       0.006671
 1587 Fit       0.009805
 1588 Fit       0.005921
 1589 Fit       0.007998
 1590 Fit       0.009923
 1591 Fit       0.005377
 1592 Fit       0.007056
 1593 Fit       0.008478
 1594 Fit       0.009743
 1595 Fit       0.005134
 1596 Fit       0.006514
 1597 Fit       0.007829
 1598 Fit      -0.002381
 1599 Fit      -0.004480
 1600 Fit       0.000671
 1601 Fit       0.001887
 1602 Fit      -0.003402
 1603 Fit       0.000942
 1604 Fit       0.002524
 1605 Fit       0.002865
 1606 Fit       0.003085
 1607 Fit      -0.000597
 1608 Fit       0.001733
 1609 Fit       0.002806
 1610 Fit       0.003066
 1611 Fit       0.002896
 1612 Fit       0.002579
 1613 Fit       0.002848
 1614 Fit       0.002810
 1615 Fit       0.004544
 1616 Fit       0.004081
 1617 Fit       0.004037
 1618 Fit       0.004128
 1619 Fit       0.004392
 1620 Fit       0.006991
 1621 Fit       0.005950
 1622 Fit       0.005646
 1623 Fit       0.005598
 1624 Fit       0.005668
 1625 Fit       0.006034
 1626 Fit       0.007053
 1627 Fit       0.007489
 1628 Fit       0.006873
 1629 Fit       0.006763
 1630 Fit       0.007147
 1631 Fit       0.008189
 1632 Fit       0.008406
 1633 Fit       0.007576
 1634 Fit      -0.007992
 1635 Fit      -0.003339
 1636 Fit      -0.003677
 1637 Fit       0.000771
 1638 Fit       0.003985
 1639 Fit       0.007827
 1640 Fit       0.006584
 1641 Fit       0.008685
 1642 Fit       0.009436
 1643 Fit       0.008223
 1644 Fit       0.005659
 1645 Fit       0.002487
 1646 Fit       0.000378
 1647 Fit       0.008642
 1648 Fit       0.007869
 1649 Fit       0.006309
 1650 Fit       0.004429
 1651 Fit       0.003267
 1652 Fit       0.009275
 1653 Fit       0.007957
 1654 Fit       0.006565
 1655 Fit       0.005707
 1656 Fit       0.007704
 1657 Fit      -0.008623
 1658 Fit      -0.005573
 1659 Fit      -0.001424
 1660 Fit       0.000340
 1661 Fit      -0.003701
 1662 Fit       0.002426
 1663 Fit       0.003664
 1664 Fit       0.004626
 1665 Fit      -0.000710
 1666 Fit       0.000873
 1667 Fit       0.004611
 1668 Fit       0.005872
 1669 Fit       0.002337
 1670 Fit       0.003268
 1671 Fit       0.006147
 1672 Fit       0.008251
 1673 Fit       0.005192
 1674 Fit      -0.012856
 1675 Fit      -0.009466
 1676 Fit      -0.003646
 1677 Fit      -0.015901
 1678 Fit      -0.014201
 1679 Fit      -0.010595
 1680 Fit      -0.011747
 1681 Fit       0.000091
 1682 Fit       0.009254
 1683 Fit       0.009888
 1684 Fit       0.009811
 1685 Fit       0.004200
 1686 Fit      -0.003691
 1687 Fit       0.007538
 1688 Fit       0.004678
 1689 Fit       0.000192
 1690 Fit      -0.006181
 1691 Fit       0.008747
 1692 Fit       0.006525
 1693 Fit       0.003619
 1694 Fit       0.000249
 1695 Fit      -0.001948
 1696 Fit       0.008678
 1697 Fit       0.006041
 1698 Fit       0.009757
 1699 Fit       0.004209
 1700 Fit       0.007372
 1701 Fit       0.009300
 1702 Fit       0.010682
 1703 Fit       0.007673
 1704 Fit       0.009417
 1705 Fit       0.010037
 1706 Fit       0.010511
 1707 Fit       0.010451
 1708 Fit       0.010062
 1709 Fit       0.001322
 1710 Fit       0.004224
 1711 Fit      -0.002100
 1712 Fit      -0.002406
 1713 Fit       0.006828
 1714 Fit       0.008916
 1715 Fit       0.002712
 1716 Fit       0.002539
 1717 Fit       0.003549
 1718 Fit       0.004531
 1719 Fit       0.000770
 1720 Fit       0.001611
 1721 Fit       0.002977
 1722 Fit       0.005013
 1723 Fit      -0.003110
 1724 Fit      -0.001757
 1725 Fit       0.001449
 1726 Fit       0.005512
 1727 Fit       0.002063
 1728 Fit       0.005307
 1729 Fit       0.003754
 1730 Fit      -0.000498
 1731 Fit       0.007745
 1732 Fit       0.006452
 1733 Fit       0.003625
 1734 Fit      -0.001380
 1735 Fit      -0.009165
 1736 Fit       0.010364
 1737 Fit       0.008778
 1738 Fit       0.006369
 1739 Fit       0.002498
 1740 Fit      -0.004033
 1741 Fit       0.010646
 1742 Fit       0.007349
 1743 Fit       0.002630
 1744 Fit      -0.005549
 1745 Fit      -0.009566
 1746 Fit      -0.011440
 1747 Fit      -0.012484
 1748 Fit      -0.014230
 1749 Fit      -0.014313
 1750 Fit      -0.014095
 1751 Fit      -0.015807
 1752 Fit      -0.006888
 1753 Fit      -0.014170
 1754 Fit      -0.013979
 1755 Fit      -0.010680
 1756 Fit      -0.012049
 1757 Fit      -0.009417
 1758 Fit      -0.004506
 1759 Fit      -0.012503
 1760 Fit      -0.013620
 1761 Fit      -0.000433
 1762 Fit      -0.002007
 1763 Fit       0.000206
 1764 Fit       0.001477
 1765 Fit      -0.001242
 1766 Fit      -0.001709
 1767 Fit      -0.002364
 1768 Fit      -0.006021
 1769 Fit      -0.002629
 1770 Fit      -0.000270
 1771 Fit      -0.006613
 1772 Fit      -0.004399
 1773 Fit      -0.010146
 1774 Fit      -0.008029
 1775 Fit      -0.007338
 1776 Fit      -0.004914
 1777 Fit      -0.004236
 1778 Fit      -0.004226
 1779 Fit      -0.003665
 1780 Fit      -0.003319
 1781 Fit      -0.000619
 1782 Fit      -0.004269
 1783 Fit       0.000367
 1784 Fit       0.003926
 1785 Fit      -0.008812
 1786 Fit      -0.003034
 1787 Fit       0.000988
 1788 Fit       0.004377
 1789 Fit       0.000119
 1790 Fit      -0.002435
 1791 Fit      -0.003267
 1792 Fit      -0.001469
 1793 Fit       0.001672
 1794 Fit       0.003464
 1795 Fit       0.000179
 1796 Fit      -0.000343
 1797 Fit      -0.000892
 1798 Fit      -0.001521
 1799 Fit      -0.002598
 1800 Fit      -0.002051
 1801 Fit       0.000501
 1802 Fit       0.001453
 1803 Fit      -0.009259
 1804 Fit      -0.003831
 1805 Fit      -0.000137
 1806 Fit       0.002228
 1807 Fit      -0.004922
 1808 Fit      -0.000500
 1809 Fit       0.002316
 1810 Fit      -0.004157
 1811 Fit      -0.008288
 1812 Fit      -0.011365
 1813 Fit      -0.013921
 1814 Fit      -0.014055
 1815 Fit      -0.015573
 1816 Fit      -0.013805
 1817 Fit      -0.012055
 1818 Fit      -0.008123
 1819 Fit      -0.002818
 1820 Fit      -0.001822
 1821 Fit       0.002924
 1822 Fit       0.003933
 1823 Fit       0.000437
 1824 Fit       0.002380
 1825 Fit       0.004557
 1826 Fit       0.004381
 1827 Fit       0.004253
 1828 Fit       0.005462
 1829 Fit       0.006233
 1830 Fit       0.005931
 1831 Fit       0.003351
 1832 Fit       0.005464
 1833 Fit       0.001132
 1834 Fit       0.001468
 1835 Fit       0.000647
 1836 Fit       0.000660
 1837 Fit       0.001992
 1838 Fit       0.000644
 1839 Fit      -0.001222
 1840 Fit       0.002618
 1841 Fit       0.000766
 1842 Fit      -0.003266
 1843 Fit       0.002415
 1844 Fit       0.000321
 1845 Fit      -0.004929
 1846 Fit       0.000553
 1847 Fit       0.002082
 1848 Fit       0.001505
 1849 Fit       0.001822
 1850 Fit       0.000252
 1851 Fit       0.001598
 1852 Fit      -0.000608
 1853 Fit       0.001489
 1854 Fit       0.000433
 1855 Fit      -0.003439
 1856 Fit       0.000342
 1857 Fit       0.000171
 1858 Fit      -0.003671
 1859 Fit       0.000418
 1860 Fit      -0.005614
 1861 Fit       0.006350
 1862 Fit       0.003169
 1863 Fit      -0.002146
 1864 Fit       0.004283
 1865 Fit      -0.001665
 1866 Fit       0.004156
 1867 Fit       0.008279
 1868 Fit      -0.005740
 1869 Fit      -0.007297
 1870 Fit      -0.002680
 1871 Fit      -0.000727
 1872 Fit      -0.004576
 1873 Fit      -0.008881
 1874 Fit      -0.009279
 1875 Fit      -0.009067
 1876 Fit      -0.005819
 1877 Fit      -0.008622
 1878 Fit      -0.011303
 1879 Fit      -0.011130
 1880 Fit      -0.010334
 1881 Fit      -0.009997
 1882 Fit      -0.009871
 1883 Fit      -0.008162
 1884 Fit      -0.003510
 1885 Fit      -0.007263
 1886 Fit      -0.011454
 1887 Fit      -0.011682
 1888 Fit      -0.010012
 1889 Fit      -0.008498
 1890 Fit      -0.008357
 1891 Fit      -0.009353
 1892 Fit      -0.008097
 1893 Fit      -0.008180
 1894 Fit      -0.005497
 1895 Fit      -0.007874
 1896 Fit      -0.010321
 1897 Fit      -0.009323
 1898 Fit      -0.006643
 1899 Fit      -0.004038
 1900 Fit      -0.002798
 1901 Fit      -0.003676
 1902 Fit      -0.006046
 1903 Fit      -0.002028
 1904 Fit      -0.004279
 1905 Fit      -0.003725
 1906 Fit      -0.000696
 1907 Fit      -0.004087
 1908 Fit      -0.006341
 1909 Fit      -0.005183
 1910 Fit      -0.001870
 1911 Fit       0.001909
 1912 Fit       0.005066
 1913 Fit       0.006501
 1914 Fit       0.004845
 1915 Fit       0.001448
 1916 Fit       0.000665
 1917 Fit      -0.000415
 1918 Fit       0.003159
 1919 Fit       0.000323
 1920 Fit       0.003021
 1921 Fit       0.005810
 1922 Fit       0.004479
 1923 Fit       0.006961
 1924 Fit       0.002848
 1925 Fit       0.004983
 1926 Fit       0.004556
 1927 Fit       0.002622
 1928 Fit       0.004757
 1929 Fit       0.003978
 1930 Fit       0.001465
 1931 Fit      -0.002049
 1932 Fit       0.002267
 1933 Fit       0.004711
 1934 Fit       0.002214
 1935 Fit       0.006317
 1936 Fit       0.002151
 1937 Fit       0.009746
 1938 Fit       0.012557
 1939 Fit       0.008004
 1940 Fit       0.004978
 1941 Fit       0.017039
 1942 Fit       0.009671
 1943 Fit       0.002362
 1944 Fit       0.004664
 1945 Fit       0.004981
 1946 Fit       0.006648
 1947 Fit       0.002756
 1948 Fit       0.004169
 1949 Fit       0.005537
 1950 Fit       0.002417
 1951 Fit       0.007857
 1952 Fit      -0.002393
 1953 Fit      -0.005519
 1954 Fit      -0.005586
 1955 Fit      -0.003868
 1956 Fit      -0.002088
 1957 Fit      -0.001084
 1958 Fit      -0.000665
 1959 Fit      -0.000860
 1960 Fit      -0.002417
 1961 Fit      -0.005098
 1962 Fit      -0.006431
 1963 Fit      -0.003690
 1964 Fit      -0.001821
 1965 Fit      -0.007556
 1966 Fit      -0.010551
 1967 Fit      -0.010743
 1968 Fit      -0.009278
 1969 Fit      -0.007634
 1970 Fit      -0.006806
 1971 Fit      -0.007177
 1972 Fit      -0.008584
 1973 Fit      -0.009951
 1974 Fit      -0.009276
 1975 Fit      -0.004385
 1976 Fit      -0.005348
 1977 Fit      -0.010536
 1978 Fit      -0.012894
 1979 Fit      -0.012690
 1980 Fit      -0.011414
 1981 Fit      -0.010563
 1982 Fit      -0.010711
 1983 Fit      -0.011166
 1984 Fit      -0.010230
 1985 Fit      -0.006223
 1986 Fit      -0.006969
 1987 Fit      -0.011269
 1988 Fit      -0.012491
 1989 Fit      -0.011960
 1990 Fit      -0.011278
 1991 Fit      -0.010450
 1992 Fit      -0.007982
 1993 Fit      -0.003095
 1994 Fit      -0.002531
 1995 Fit      -0.008420
 1996 Fit      -0.009942
 1997 Fit      -0.008293
 1998 Fit      -0.003749
 1999 Fit      -0.005494
 2000 Fit       0.000992
 2001 Fit       0.002664
 2002 Fit       0.014555
 2003 Fit       0.012021
 2004 Fit       0.008868
 2005 Fit       0.008077
 2006 Fit       0.004477
 2007 Fit       0.004254
 2008 Fit       0.003754
 2009 Fit      -0.000591
 2010 Fit       0.000982
 2011 Fit      -0.001893
 2012 Fit       0.001630
 2013 Fit       0.000395
 2014 Fit       0.000714
 2015 Fit      -0.000266
 2016 Fit       0.000983
 2017 Fit       0.000469
 2018 Fit      -0.001788
 2019 Fit       0.001174
 2020 Fit       0.003285
 2021 Fit       0.009050
 2022 Fit       0.005939
 2023 Fit       0.005247
 2024 Fit       0.001507
 2025 Fit       0.002525
 2026 Fit      -0.000206
 2027 Fit      -0.000423
 2028 Fit       0.001924
 2029 Fit       0.000193
 2030 Fit       0.001241
 2031 Fit       0.000932
 2032 Fit       0.001128
 2033 Fit       0.000801
 2034 Fit      -0.001615
 2035 Fit      -0.004645
 2036 Fit      -0.001459
 2037 Fit      -0.003603
 2038 Fit      -0.009179
 2039 Fit      -0.010122
 2040 Fit      -0.006947
 2041 Fit      -0.012041
 2042 Fit      -0.013412
 2043 Fit      -0.010572
 2044 Fit      -0.005357
 2045 Fit      -0.011101
 2046 Fit      -0.014011
 2047 Fit      -0.013747
 2048 Fit      -0.010590
 2049 Fit      -0.005609
 2050 Fit      -0.011064
 2051 Fit      -0.013638
 2052 Fit      -0.013158
 2053 Fit      -0.010376
 2054 Fit      -0.006698
 2055 Fit      -0.005304
 2056 Fit      -0.003649
 2057 Fit      -0.004214
 2058 Fit      -0.009600
 2059 Fit      -0.012667
 2060 Fit      -0.012935
 2061 Fit      -0.011126
 2062 Fit      -0.008341
 2063 Fit      -0.010812
 2064 Fit      -0.009651
 2065 Fit       0.001009
 2066 Fit      -0.002788
 2067 Fit      -0.007398
 2068 Fit      -0.011339
 2069 Fit      -0.012995
 2070 Fit      -0.012593
 2071 Fit      -0.011489
 2072 Fit      -0.012644
 2073 Fit      -0.009193
 2074 Fit      -0.005157
 2075 Fit      -0.007221
 2076 Fit      -0.011300
 2077 Fit      -0.013176
 2078 Fit      -0.011006
 2079 Fit       0.010102
 2080 Fit       0.010046
 2081 Fit       0.016280
 2082 Fit       0.010597
 2083 Fit       0.011705
 2084 Fit       0.015333
 2085 Fit       0.009945
 2086 Fit       0.011116
 2087 Fit       0.014083
 2088 Fit       0.008816
 2089 Fit       0.010393
 2090 Fit       0.006999
 2091 Fit       0.009135
 2092 Fit       0.007572
 2093 Fit       0.008426
 2094 Fit       0.008343
 2095 Fit       0.008062
 2096 Fit       0.007626
 2097 Fit       0.006546
 2098 Fit       0.007272
 2099 Fit       0.009960
 2100 Fit       0.010754
 2101 Fit       0.012214
 2102 Fit       0.012059
 2103 Fit       0.007339
 2104 Fit       0.004129
 2105 Fit       0.004732
 2106 Fit       0.006933
 2107 Fit       0.004868
 2108 Fit       0.003549
 2109 Fit       0.003166
 2110 Fit       0.001987
 2111 Fit       0.002440
 2112 Fit       0.003775
 2113 Fit       0.004835
 2114 Fit       0.006552
 2115 Fit       0.000924
 2116 Fit       0.001763
 2117 Fit       0.002783
 2118 Fit       0.005578
 2119 Fit      -0.000665
 2120 Fit       0.003090
 2121 Fit       0.003434
 2122 Fit      -0.000421
 2123 Fit       0.000826
 2124 Fit       0.002238
 2125 Fit       0.002770
 2126 Fit      -0.002202
 2127 Fit       0.000657
 2128 Fit       0.001819
 2129 Fit       0.002148
 2130 Fit      -0.006213
 2131 Fit      -0.001548
 2132 Fit       0.000331
 2133 Fit       0.001059
 2134 Fit      -0.003751
 2135 Fit       0.003420
 2136 Fit       0.004105
 2137 Fit       0.005180
 2138 Fit       0.001439
 2139 Fit       0.002614
 2140 Fit       0.002815
 2141 Fit       0.003022
 2142 Fit       0.002253
 2143 Fit      -0.003424
 2144 Fit      -0.000026
 2145 Fit       0.001877
 2146 Fit       0.000721
 2147 Fit      -0.001078
 2148 Fit      -0.001092
 2149 Fit      -0.004462
 2150 Fit       0.006970
 2151 Fit       0.006956
 2152 Fit       0.008147
 2153 Fit       0.009041
 2154 Fit       0.005555
 2155 Fit       0.006748
 2156 Fit       0.007855
 2157 Fit       0.009034
 2158 Fit       0.004175
 2159 Fit       0.005449
 2160 Fit       0.005971
 2161 Fit       0.007047
 2162 Fit       0.008370
 2163 Fit       0.010640
 2164 Fit       0.003603
 2165 Fit       0.004806
 2166 Fit       0.004766
 2167 Fit       0.005890
 2168 Fit       0.007627
 Job cpu time:       0 days  0 hours  4 minutes 34.7 seconds.
 Normal termination of Gaussian 16 at Sat Jul  8 22:00:18 2023.
