 Copyright (c) 1988-2019, Gaussian, Inc.  All Rights Reserved.
  
 This is part of the Gaussian(R) 16 program.  It is based on
 the Gaussian(R) 09 system (copyright 2009, Gaussian, Inc.),
 the Gaussian(R) 03 system (copyright 2003, Gaussian, Inc.),
 the Gaussian(R) 98 system (copyright 1998, Gaussian, Inc.),
 the Gaussian(R) 94 system (copyright 1995, Gaussian, Inc.),
 the Gaussian 92(TM) system (copyright 1992, Gaussian, Inc.),
 the Gaussian 90(TM) system (copyright 1990, Gaussian, Inc.),
 the Gaussian 88(TM) system (copyright 1988, Gaussian, Inc.),
 the Gaussian 86(TM) system (copyright 1986, Carnegie Mellon
 University), and the Gaussian 82(TM) system (copyright 1983,
 Carnegie Mellon University). Gaussian is a federally registered
 trademark of Gaussian, Inc.
 Cite this work as:
 Gaussian 16, Revision C.01,
 M. J. Frisch, G. W. Trucks, H. B. Schlegel, G. E. Scuseria, 
 M. A. Robb, J. R. Cheeseman, G. Scalmani, V. Barone, 
 G. A. Petersson, H. Nakatsuji, X. Li, M. Caricato, A. V. Marenich, 
 J. Bloino, B. G. Janesko, R. Gomperts, B. Mennucci, H. P. Hratchian, 
 J. V. Ortiz, A. F. Izmaylov, J. L. Sonnenberg, D. Williams-Young, 
 F. Ding, F. Lipparini, F. Egidi, J. Goings, B. Peng, A. Petrone, 
 T. Henderson, D. Ranasinghe, V. G. Zakrzewski, J. Gao, N. Rega, 
 G. Zheng, W. Liang, M. Hada, M. Ehara, K. Toyota, R. Fukuda, 
 J. Hasegawa, M. Ishida, T. Nakajima, Y. Honda, O. Kitao, H. Nakai, 
 T. Vreven, K. Throssell, J. A. Montgomery, Jr., J. E. Peralta, 
 F. Ogliaro, M. J. Bearpark, J. J. Heyd, E. N. Brothers, K. N. Kudin, 
 V. N. Staroverov, T. A. Keith, R. Kobayashi, J. Normand, 
 K. Raghavachari, A. P. Rendell, J. C. Burant, S. S. Iyengar, 
 J. Tomasi, M. Cossi, J. M. Millam, M. Klene, C. Adamo, R. Cammi, 
 J. W. Ochterski, R. L. Martin, K. Morokuma, O. Farkas, 
 J. B. Foresman, and D. J. Fox, Gaussian, Inc., Wallingford CT, 2019.
 
 ******************************************
 Gaussian 16:  EM64L-G16RevC.01  3-Jul-2019
                 8-Jul-2023 
 ******************************************
 ----------------------------------------------------------------------
 #P HF/6-31G(d) SCF(Conver=8,XQC,MaxConventionalCycles=64,MaxCycle=128)
  NoSymm Test Pop=mk IOp(6/33=2) GFInput GFPrint
 ----------------------------------------------------------------------
 1/38=1,172=1/1;
 2/12=2,15=1,17=6,18=5,40=1/2;
 3/5=1,6=6,7=1,11=9,24=110,25=1,30=1/1,2,3;
 4//1;
 5/5=2,6=8,7=128,8=3,13=1,38=5,85=64/2,8;
 6/7=2,8=2,9=2,10=2,15=8,20=1,28=1,33=2/1,2;
 99/5=1,9=1/99;
 -------------------------------------------------
 MEP step - Input generated by PyRED DVE-DMDS-OPLS
 -------------------------------------------------
 Symbolic Z-matrix:
 Charge =  0 Multiplicity = 1
 C                    -7.30109   2.15817   2.28504 
 H                    -6.51961   2.82638   2.62901 
 H                    -7.57297   2.4423    1.27463 
 H                    -8.16904   2.28471   2.92443 
 C                    -6.821     0.72075   2.32011 
 H                    -6.5563    0.43145   3.33588 
 H                    -7.60963   0.04765   1.98547 
 O                    -5.70592   0.60152   1.48431 
 C                    -5.16144  -0.6814    1.41764 
 H                    -5.88046  -1.3745    0.97897 
 H                    -4.9099   -1.04272   2.4124 
 C                    -3.90834  -0.65625   0.56687 
 H                    -3.5861   -1.67731   0.39438 
 H                    -4.13553  -0.21095  -0.39778 
 O                    -2.85204   0.00609   1.19993 
 C                    -2.67557   1.36918   0.90559 
 H                    -2.24041   1.82323   1.78713 
 H                    -3.63092   1.84423   0.71718 
 C                    -1.74641   1.6045   -0.27387 
 H                    -1.79222   2.65433  -0.54152 
 H                    -2.076     1.02844  -1.13759 
 O                    -0.40042   1.34134   0. 
 C                     0.        0.        0. 
 H                    -0.37598  -0.50411  -0.88852 
 H                    -0.38245  -0.52276   0.86656 
 C                     1.52145   0.        0. 
 H                     1.87942   0.48649   0.89885 
 H                     1.87435   0.55822  -0.85652 
 S                     2.14171  -1.70994  -0.04742 
 C                     3.91785  -1.458     0.24924 
 H                     4.05191  -0.83055   1.12122 
 H                     4.29743  -2.44083   0.49679 
 C                     4.66864  -0.88207  -0.94868 
 H                     4.26676   0.08748  -1.21306 
 H                     4.55203  -1.52247  -1.81358 
 S                     6.43932  -0.57058  -0.66284 
 C                     7.17075  -2.24332  -0.69238 
 H                     8.10914  -2.15223  -1.22263 
 H                     6.53741  -2.89095  -1.28372 
 C                     7.43071  -2.82514   0.69751 
 H                     8.05108  -2.14138   1.26135 
 H                     6.51258  -2.94922   1.25664 
 S                     8.32068  -4.41751   0.66634 
 C                     6.98975  -5.64355   0.86301 
 H                     7.51454  -6.56994   1.06462 
 H                     6.42474  -5.402     1.75588 
 C                     6.06161  -5.8232   -0.33397 
 H                     5.36669  -6.63635  -0.14439 
 H                     5.47403  -4.93188  -0.52461 
 H                     6.62325  -6.05589  -1.23123 
 
 ITRead=  0  0  0  0  0  0  0  0  0  0  0  0  0  0  0  0  0  0  0  0
 ITRead=  0  0  0  0  0  0  0  0  0  0  0  0  0  0  0  0  0  0  0  0
 ITRead=  0  0  0  0  0  0  0  0  0  0
 MicOpt= -1 -1 -1 -1 -1 -1 -1 -1 -1 -1 -1 -1 -1 -1 -1 -1 -1 -1 -1 -1
 MicOpt= -1 -1 -1 -1 -1 -1 -1 -1 -1 -1 -1 -1 -1 -1 -1 -1 -1 -1 -1 -1
 MicOpt= -1 -1 -1 -1 -1 -1 -1 -1 -1 -1
 NAtoms=     50 NQM=       50 NQMF=       0 NMMI=      0 NMMIF=      0
                NMic=       0 NMicF=      0.
                          Input orientation:                          
 ---------------------------------------------------------------------
 Center     Atomic      Atomic             Coordinates (Angstroms)
 Number     Number       Type             X           Y           Z
 ---------------------------------------------------------------------
      1          6           0       -7.301087    2.158171    2.285035
      2          1           0       -6.519606    2.826375    2.629010
      3          1           0       -7.572973    2.442295    1.274628
      4          1           0       -8.169044    2.284710    2.924427
      5          6           0       -6.820997    0.720753    2.320110
      6          1           0       -6.556297    0.431448    3.335875
      7          1           0       -7.609632    0.047650    1.985468
      8          8           0       -5.705917    0.601520    1.484311
      9          6           0       -5.161444   -0.681403    1.417643
     10          1           0       -5.880461   -1.374498    0.978968
     11          1           0       -4.909895   -1.042718    2.412398
     12          6           0       -3.908341   -0.656249    0.566873
     13          1           0       -3.586097   -1.677313    0.394375
     14          1           0       -4.135533   -0.210954   -0.397777
     15          8           0       -2.852039    0.006087    1.199927
     16          6           0       -2.675567    1.369183    0.905586
     17          1           0       -2.240411    1.823229    1.787133
     18          1           0       -3.630915    1.844231    0.717182
     19          6           0       -1.746412    1.604500   -0.273866
     20          1           0       -1.792216    2.654331   -0.541517
     21          1           0       -2.075996    1.028440   -1.137593
     22          8           0       -0.400417    1.341339    0.000000
     23          6           0        0.000000    0.000000    0.000000
     24          1           0       -0.375982   -0.504113   -0.888518
     25          1           0       -0.382454   -0.522760    0.866555
     26          6           0        1.521452    0.000000    0.000000
     27          1           0        1.879415    0.486491    0.898849
     28          1           0        1.874349    0.558217   -0.856523
     29         16           0        2.141706   -1.709942   -0.047422
     30          6           0        3.917854   -1.457998    0.249237
     31          1           0        4.051908   -0.830549    1.121215
     32          1           0        4.297429   -2.440826    0.496789
     33          6           0        4.668643   -0.882065   -0.948684
     34          1           0        4.266756    0.087484   -1.213057
     35          1           0        4.552031   -1.522470   -1.813576
     36         16           0        6.439315   -0.570579   -0.662838
     37          6           0        7.170750   -2.243318   -0.692381
     38          1           0        8.109143   -2.152233   -1.222632
     39          1           0        6.537412   -2.890949   -1.283717
     40          6           0        7.430710   -2.825138    0.697512
     41          1           0        8.051076   -2.141384    1.261352
     42          1           0        6.512577   -2.949223    1.256644
     43         16           0        8.320678   -4.417506    0.666336
     44          6           0        6.989748   -5.643552    0.863010
     45          1           0        7.514538   -6.569940    1.064623
     46          1           0        6.424744   -5.402002    1.755884
     47          6           0        6.061613   -5.823197   -0.333970
     48          1           0        5.366695   -6.636354   -0.144392
     49          1           0        5.474031   -4.931878   -0.524605
     50          1           0        6.623254   -6.055895   -1.231232
 ---------------------------------------------------------------------
 Stoichiometry    C14H30O3S3
 Framework group  C1[X(C14H30O3S3)]
 Standard basis: 6-31G(d) (6D, 7F)
   372 basis functions,   752 primitive gaussians,   372 cartesian basis functions
    93 alpha electrons       93 beta electrons
 Requested convergence on RMS density matrix=1.00D-08 within  64 cycles.
 Requested convergence on MAX density matrix=1.00D-06.
 Requested convergence on             energy=1.00D-06.
 SCF Done:  E(RHF) =  -1964.69215273     A.U. after   13 cycles
            NFock= 13  Conv=0.50D-08     -V/T= 2.0006
 Mulliken charges:
     1  C   -0.490960
     2  H    0.174065
     3  H    0.172692
     4  H    0.159645
     5  C    0.024006
     6  H    0.143493
     7  H    0.138139
     8  O   -0.628473
     9  C    0.017614
    10  H    0.134496
    11  H    0.154735
    12  C   -0.007005
    13  H    0.169545
    14  H    0.152687
    15  O   -0.636209
    16  C   -0.019491
    17  H    0.179521
    18  H    0.177019
    19  C   -0.003226
    20  H    0.169375
    21  H    0.141145
    22  O   -0.636131
    23  C    0.018064
    24  H    0.145377
    25  H    0.190895
    26  C   -0.477939
    27  H    0.200099
    28  H    0.197830
    29  S    0.108544
    30  C   -0.475099
    31  H    0.209629
    32  H    0.194784
    33  C   -0.472869
    34  H    0.208278
    35  H    0.206291
    36  S    0.115529
    37  C   -0.475770
    38  H    0.217392
    39  H    0.199682
    40  C   -0.473508
    41  H    0.216116
    42  H    0.194257
    43  S    0.111556
    44  C   -0.471868
    45  H    0.200905
    46  H    0.190643
    47  C   -0.475630
    48  H    0.171329
    49  H    0.157708
    50  H    0.181092
 Sum of Mulliken charges =  -0.00000
 Dipole moment (field-independent basis, Debye):
    X=             -4.7509    Y=             -0.9823    Z=             -0.0053  Tot=              4.8514
 Quadrupole moment (field-independent basis, Debye-Ang):
   XX=           -159.2062   YY=           -142.9546   ZZ=           -148.6130
   XY=              0.5911   XZ=             -4.0398   YZ=              0.4891
 Traceless Quadrupole moment (field-independent basis, Debye-Ang):
   XX=             -8.9483   YY=              7.3033   ZZ=              1.6449
   XY=              0.5911   XZ=             -4.0398   YZ=              0.4891
 Octapole moment (field-independent basis, Debye-Ang**2):
  XXX=          -1185.0425  YYY=            476.3773  ZZZ=           -176.4955  XYY=           -242.1894
  XXY=            228.3417  XXZ=            -26.2884  XZZ=           -270.4481  YZZ=            183.1951
  YYZ=            -55.2033  XYZ=              8.3100
 Hexadecapole moment (field-independent basis, Debye-Ang**3):
 XXXX=         -28718.4323 YYYY=          -5483.9762 ZZZZ=          -1134.5468 XXXY=           5843.8846
 XXXZ=            478.6772 YYYX=           4469.9839 YYYZ=            -43.3041 ZZZX=            978.9224
 ZZZY=             28.7311 XXYY=          -5576.7156 XXZZ=          -4525.9612 YYZZ=          -1197.8066
 XXYZ=            150.5779 YYXZ=            333.6007 ZZXY=           1593.9652
 Merz-Kollman atomic radii used.
 Atom Element Radius
    1     6    1.50
    2     1    1.20
    3     1    1.20
    4     1    1.20
    5     6    1.50
    6     1    1.20
    7     1    1.20
    8     8    1.40
    9     6    1.50
   10     1    1.20
   11     1    1.20
   12     6    1.50
   13     1    1.20
   14     1    1.20
   15     8    1.40
   16     6    1.50
   17     1    1.20
   18     1    1.20
   19     6    1.50
   20     1    1.20
   21     1    1.20
   22     8    1.40
   23     6    1.50
   24     1    1.20
   25     1    1.20
   26     6    1.50
   27     1    1.20
   28     1    1.20
   29    16    1.75
   30     6    1.50
   31     1    1.20
   32     1    1.20
   33     6    1.50
   34     1    1.20
   35     1    1.20
   36    16    1.75
   37     6    1.50
   38     1    1.20
   39     1    1.20
   40     6    1.50
   41     1    1.20
   42     1    1.20
   43    16    1.75
   44     6    1.50
   45     1    1.20
   46     1    1.20
   47     6    1.50
   48     1    1.20
   49     1    1.20
   50     1    1.20
 Generate VDW surfaces: Layer= 4 Dens= 1 Start= 1.400 Inc= 0.200
            Electrostatic Properties Using The SCF Density.


       Atomic Center    1 is at  -7.301087  2.158171  2.285035
       Atomic Center    2 is at  -6.519606  2.826375  2.629010
       Atomic Center    3 is at  -7.572973  2.442295  1.274628
       Atomic Center    4 is at  -8.169044  2.284710  2.924427
       Atomic Center    5 is at  -6.820997  0.720753  2.320110
       Atomic Center    6 is at  -6.556297  0.431448  3.335875
       Atomic Center    7 is at  -7.609632  0.047650  1.985468
       Atomic Center    8 is at  -5.705917  0.601520  1.484311
       Atomic Center    9 is at  -5.161444 -0.681403  1.417643
       Atomic Center   10 is at  -5.880461 -1.374498  0.978968
       Atomic Center   11 is at  -4.909895 -1.042718  2.412398
       Atomic Center   12 is at  -3.908341 -0.656249  0.566873
       Atomic Center   13 is at  -3.586097 -1.677313  0.394375
       Atomic Center   14 is at  -4.135533 -0.210954 -0.397777
       Atomic Center   15 is at  -2.852039  0.006087  1.199927
       Atomic Center   16 is at  -2.675567  1.369183  0.905586
       Atomic Center   17 is at  -2.240411  1.823229  1.787133
       Atomic Center   18 is at  -3.630915  1.844231  0.717182
       Atomic Center   19 is at  -1.746412  1.604500 -0.273866
       Atomic Center   20 is at  -1.792216  2.654331 -0.541517
       Atomic Center   21 is at  -2.075996  1.028440 -1.137593
       Atomic Center   22 is at  -0.400417  1.341339  0.000000
       Atomic Center   23 is at   0.000000  0.000000  0.000000
       Atomic Center   24 is at  -0.375982 -0.504113 -0.888518
       Atomic Center   25 is at  -0.382454 -0.522760  0.866555
       Atomic Center   26 is at   1.521452  0.000000  0.000000
       Atomic Center   27 is at   1.879415  0.486491  0.898849
       Atomic Center   28 is at   1.874349  0.558217 -0.856523
       Atomic Center   29 is at   2.141706 -1.709942 -0.047422
       Atomic Center   30 is at   3.917854 -1.457998  0.249237
       Atomic Center   31 is at   4.051908 -0.830549  1.121215
       Atomic Center   32 is at   4.297429 -2.440826  0.496789
       Atomic Center   33 is at   4.668643 -0.882065 -0.948684
       Atomic Center   34 is at   4.266756  0.087484 -1.213057
       Atomic Center   35 is at   4.552031 -1.522470 -1.813576
       Atomic Center   36 is at   6.439315 -0.570579 -0.662838
       Atomic Center   37 is at   7.170750 -2.243318 -0.692381
       Atomic Center   38 is at   8.109143 -2.152233 -1.222632
       Atomic Center   39 is at   6.537412 -2.890949 -1.283717
       Atomic Center   40 is at   7.430710 -2.825138  0.697512
       Atomic Center   41 is at   8.051076 -2.141384  1.261352
       Atomic Center   42 is at   6.512577 -2.949223  1.256644
       Atomic Center   43 is at   8.320678 -4.417506  0.666336
       Atomic Center   44 is at   6.989748 -5.643552  0.863010
       Atomic Center   45 is at   7.514538 -6.569940  1.064623
       Atomic Center   46 is at   6.424744 -5.402002  1.755884
       Atomic Center   47 is at   6.061613 -5.823197 -0.333970
       Atomic Center   48 is at   5.366695 -6.636354 -0.144392
       Atomic Center   49 is at   5.474031 -4.931878 -0.524605
       Atomic Center   50 is at   6.623254 -6.055895 -1.231232
      ESP Fit Center   51 is at  -7.301087  2.158171  4.385035
      ESP Fit Center   52 is at  -7.559908  3.958313  3.335035
      ESP Fit Center   53 is at  -8.045757  4.121705  2.285035
      ESP Fit Center   54 is at  -6.545591  3.812476  1.235035
      ESP Fit Center   55 is at  -6.519606  2.826375  4.309010
      ESP Fit Center   56 is at  -5.532127  2.826375  3.988159
      ESP Fit Center   57 is at  -6.214458  3.765524  3.988159
      ESP Fit Center   58 is at  -7.318493  3.406801  3.988159
      ESP Fit Center   59 is at  -4.921831  2.826375  3.148159
      ESP Fit Center   60 is at  -5.295639  3.853405  3.148159
      ESP Fit Center   61 is at  -6.242155  4.399876  3.148159
      ESP Fit Center   62 is at  -7.318493  4.210089  3.148159
      ESP Fit Center   63 is at  -4.921831  2.826375  2.109861
      ESP Fit Center   64 is at  -5.295639  3.853405  2.109861
      ESP Fit Center   65 is at  -6.242155  4.399876  2.109861
      ESP Fit Center   66 is at  -5.532127  2.826375  1.269861
      ESP Fit Center   67 is at  -6.214458  3.765524  1.269861
      ESP Fit Center   68 is at  -6.349006  3.469325  0.755479
      ESP Fit Center   69 is at  -7.295522  4.015796  0.755479
      ESP Fit Center   70 is at  -8.371860  3.826009  0.755479
      ESP Fit Center   71 is at  -9.074390  2.988766  0.755479
      ESP Fit Center   72 is at  -9.074390  1.895824  0.755479
      ESP Fit Center   73 is at  -8.371860  1.058581  0.755479
      ESP Fit Center   74 is at  -6.585494  2.442295 -0.084521
      ESP Fit Center   75 is at  -7.267825  3.381444 -0.084521
      ESP Fit Center   76 is at  -8.371860  3.022721 -0.084521
      ESP Fit Center   77 is at  -8.371860  1.861869 -0.084521
      ESP Fit Center   78 is at  -7.267825  1.503146 -0.084521
      ESP Fit Center   79 is at  -7.572973  2.442295 -0.405372
      ESP Fit Center   80 is at  -8.169044  2.284710  4.604427
      ESP Fit Center   81 is at  -7.863896  3.223859  4.283576
      ESP Fit Center   82 is at  -8.967931  2.865136  4.283576
      ESP Fit Center   83 is at  -8.967931  1.704284  4.283576
      ESP Fit Center   84 is at  -7.863896  1.345561  4.283576
      ESP Fit Center   85 is at  -7.891593  3.858211  3.443576
      ESP Fit Center   86 is at  -8.967931  3.668424  3.443576
      ESP Fit Center   87 is at  -9.670461  2.831181  3.443576
      ESP Fit Center   88 is at  -9.670461  1.738239  3.443576
      ESP Fit Center   89 is at  -8.967931  0.900996  3.443576
      ESP Fit Center   90 is at  -8.967931  3.668424  2.405278
      ESP Fit Center   91 is at  -9.670461  2.831181  2.405278
      ESP Fit Center   92 is at  -9.670461  1.738239  2.405278
      ESP Fit Center   93 is at  -5.291048  1.703991  3.370110
      ESP Fit Center   94 is at  -8.565982  0.208379  3.370110
      ESP Fit Center   95 is at  -6.556297  0.431448  5.015875
      ESP Fit Center   96 is at  -5.568818  0.431448  4.695024
      ESP Fit Center   97 is at  -6.251149  1.370597  4.695024
      ESP Fit Center   98 is at  -7.355184  1.011874  4.695024
      ESP Fit Center   99 is at  -7.355184 -0.148978  4.695024
      ESP Fit Center  100 is at  -6.251149 -0.507701  4.695024
      ESP Fit Center  101 is at  -4.958522  0.431448  3.855024
      ESP Fit Center  102 is at  -5.332330  1.458478  3.855024
      ESP Fit Center  103 is at  -8.057714 -0.115023  3.855024
      ESP Fit Center  104 is at  -7.355184 -0.952266  3.855024
      ESP Fit Center  105 is at  -6.278846 -1.142053  3.855024
      ESP Fit Center  106 is at  -8.408519 -0.532776  3.344617
      ESP Fit Center  107 is at  -9.111049  0.594121  2.504617
      ESP Fit Center  108 is at  -9.111049 -0.498821  2.504617
      ESP Fit Center  109 is at  -8.408519 -1.336064  2.504617
      ESP Fit Center  110 is at  -7.332181 -1.525851  2.504617
      ESP Fit Center  111 is at  -9.111049  0.594121  1.466319
      ESP Fit Center  112 is at  -9.111049 -0.498821  1.466319
      ESP Fit Center  113 is at  -8.408519 -1.336064  1.466319
      ESP Fit Center  114 is at  -8.408519  0.628076  0.626319
      ESP Fit Center  115 is at  -8.408519 -0.532776  0.626319
      ESP Fit Center  116 is at  -7.609632  0.047650  0.305468
      ESP Fit Center  117 is at  -4.725917  0.601520  3.181721
      ESP Fit Center  118 is at  -4.332684  1.599232  2.464311
      ESP Fit Center  119 is at  -5.215917  1.450225 -0.213099
      ESP Fit Center  120 is at  -6.195917  1.450225 -0.213099
      ESP Fit Center  121 is at  -6.685917  0.601520 -0.213099
      ESP Fit Center  122 is at  -5.705917  0.601520 -0.475689
      ESP Fit Center  123 is at  -6.352409 -2.055849  2.467643
      ESP Fit Center  124 is at  -4.908317 -2.766092  1.417643
      ESP Fit Center  125 is at  -6.679348 -1.954924  2.338117
      ESP Fit Center  126 is at  -7.381878 -1.920969  1.498117
      ESP Fit Center  127 is at  -6.679348 -2.758212  1.498117
      ESP Fit Center  128 is at  -5.603010 -2.947999  1.498117
      ESP Fit Center  129 is at  -7.381878 -0.828027  0.459819
      ESP Fit Center  130 is at  -7.381878 -1.920969  0.459819
      ESP Fit Center  131 is at  -6.679348 -2.758212  0.459819
      ESP Fit Center  132 is at  -5.603010 -2.947999  0.459819
      ESP Fit Center  133 is at  -6.679348 -0.794072 -0.380181
      ESP Fit Center  134 is at  -6.679348 -1.954924 -0.380181
      ESP Fit Center  135 is at  -5.575313 -2.313647 -0.380181
      ESP Fit Center  136 is at  -5.880461 -1.374498 -0.701032
      ESP Fit Center  137 is at  -4.909895 -1.042718  4.092398
      ESP Fit Center  138 is at  -3.922416 -1.042718  3.771547
      ESP Fit Center  139 is at  -4.604747 -0.103569  3.771547
      ESP Fit Center  140 is at  -5.708782 -1.623144  3.771547
      ESP Fit Center  141 is at  -4.604747 -1.981867  3.771547
      ESP Fit Center  142 is at  -3.312120 -1.042718  2.931547
      ESP Fit Center  143 is at  -6.411312 -1.589189  2.931547
      ESP Fit Center  144 is at  -5.708782 -2.426432  2.931547
      ESP Fit Center  145 is at  -4.632444 -2.616219  2.931547
      ESP Fit Center  146 is at  -3.685928 -2.069748  2.931547
      ESP Fit Center  147 is at  -2.089688 -0.656249 -0.483127
      ESP Fit Center  148 is at  -5.099306 -2.030695 -0.483127
      ESP Fit Center  149 is at  -3.280949 -2.616462  1.753524
      ESP Fit Center  150 is at  -4.384984 -3.061027  0.913524
      ESP Fit Center  151 is at  -3.308646 -3.250814  0.913524
      ESP Fit Center  152 is at  -2.362130 -2.704343  0.913524
      ESP Fit Center  153 is at  -1.988322 -1.677313 -0.124774
      ESP Fit Center  154 is at  -4.384984 -3.061027 -0.124774
      ESP Fit Center  155 is at  -3.308646 -3.250814 -0.124774
      ESP Fit Center  156 is at  -2.362130 -2.704343 -0.124774
      ESP Fit Center  157 is at  -2.598618 -1.677313 -0.964774
      ESP Fit Center  158 is at  -4.384984 -2.257739 -0.964774
      ESP Fit Center  159 is at  -3.280949 -2.616462 -0.964774
      ESP Fit Center  160 is at  -3.586097 -1.677313 -1.285625
      ESP Fit Center  161 is at  -3.858082  1.362547 -0.916926
      ESP Fit Center  162 is at  -4.934420  1.172760 -0.916926
      ESP Fit Center  163 is at  -5.636950  0.335517 -0.916926
      ESP Fit Center  164 is at  -5.636950 -0.757425 -0.916926
      ESP Fit Center  165 is at  -3.148054 -0.210954 -1.756926
      ESP Fit Center  166 is at  -3.830385  0.728195 -1.756926
      ESP Fit Center  167 is at  -4.934420  0.369472 -1.756926
      ESP Fit Center  168 is at  -4.934420 -0.791380 -1.756926
      ESP Fit Center  169 is at  -3.830385 -1.150103 -1.756926
      ESP Fit Center  170 is at  -4.135533 -0.210954 -2.077777
      ESP Fit Center  171 is at  -2.852039  0.006087  3.159927
      ESP Fit Center  172 is at  -1.872039  0.006087  2.897337
      ESP Fit Center  173 is at  -3.342039  0.854792  2.897337
      ESP Fit Center  174 is at  -2.362039 -0.842618  2.897337
      ESP Fit Center  175 is at  -2.327511 -1.608246  2.179927
      ESP Fit Center  176 is at  -1.478806 -0.991625  2.179927
      ESP Fit Center  177 is at  -1.872039 -1.691323  1.199927
      ESP Fit Center  178 is at  -3.725567  1.369183  2.724239
      ESP Fit Center  179 is at  -2.422440  3.453872  0.905586
      ESP Fit Center  180 is at  -2.240411  1.823229  3.467133
      ESP Fit Center  181 is at  -1.252932  1.823229  3.146282
      ESP Fit Center  182 is at  -1.935263  2.762378  3.146282
      ESP Fit Center  183 is at  -3.039298  2.403655  3.146282
      ESP Fit Center  184 is at  -3.039298  1.242803  3.146282
      ESP Fit Center  185 is at  -1.935263  0.884080  3.146282
      ESP Fit Center  186 is at  -0.642636  1.823229  2.306282
      ESP Fit Center  187 is at  -1.016444  2.850259  2.306282
      ESP Fit Center  188 is at  -1.962960  3.396730  2.306282
      ESP Fit Center  189 is at  -3.039298  3.206943  2.306282
      ESP Fit Center  190 is at  -1.016444  0.796199  2.306282
      ESP Fit Center  191 is at  -1.016444  2.850259  1.267984
      ESP Fit Center  192 is at  -1.962960  3.396730  1.267984
      ESP Fit Center  193 is at  -4.429802  2.424657  2.076331
      ESP Fit Center  194 is at  -3.353464  3.417732  1.236331
      ESP Fit Center  195 is at  -4.429802  3.227945  1.236331
      ESP Fit Center  196 is at  -3.353464  3.417732  0.198033
      ESP Fit Center  197 is at  -4.429802  3.227945  0.198033
      ESP Fit Center  198 is at  -5.132332  2.390702  0.198033
      ESP Fit Center  199 is at  -4.429802  2.424657 -0.641967
      ESP Fit Center  200 is at  -3.491397  2.116874 -1.323866
      ESP Fit Center  201 is at  -0.696412  1.604500 -2.092519
      ESP Fit Center  202 is at  -1.487068  3.593480  0.817632
      ESP Fit Center  203 is at  -0.568249  3.681361 -0.022368
      ESP Fit Center  204 is at  -1.514765  4.227832 -0.022368
      ESP Fit Center  205 is at  -2.591103  4.038045 -0.022368
      ESP Fit Center  206 is at  -0.568249  3.681361 -1.060666
      ESP Fit Center  207 is at  -1.514765  4.227832 -1.060666
      ESP Fit Center  208 is at  -2.591103  4.038045 -1.060666
      ESP Fit Center  209 is at  -3.293633  3.200802 -1.060666
      ESP Fit Center  210 is at  -0.804737  2.654331 -1.900666
      ESP Fit Center  211 is at  -1.487068  3.593480 -1.900666
      ESP Fit Center  212 is at  -2.591103  3.234757 -1.900666
      ESP Fit Center  213 is at  -1.792216  2.654331 -2.221517
      ESP Fit Center  214 is at  -3.577413  1.574911 -1.656742
      ESP Fit Center  215 is at  -2.874883 -0.355274 -1.656742
      ESP Fit Center  216 is at  -1.088517  1.028440 -2.496742
      ESP Fit Center  217 is at  -1.770848  1.967589 -2.496742
      ESP Fit Center  218 is at  -2.874883  1.608866 -2.496742
      ESP Fit Center  219 is at  -2.874883  0.448014 -2.496742
      ESP Fit Center  220 is at  -1.770848  0.089291 -2.496742
      ESP Fit Center  221 is at  -2.075996  1.028440 -2.817593
      ESP Fit Center  222 is at  -0.400417  1.341339  1.960000
      ESP Fit Center  223 is at   0.579583  1.341339  1.697410
      ESP Fit Center  224 is at   0.089583  2.190044  1.697410
      ESP Fit Center  225 is at   0.972816  2.339051  0.980000
      ESP Fit Center  226 is at   0.124111  2.955672  0.980000
      ESP Fit Center  227 is at   1.296993  2.321339  0.000000
      ESP Fit Center  228 is at   0.579583  3.038749  0.000000
      ESP Fit Center  229 is at   0.972816  2.339051 -0.980000
      ESP Fit Center  230 is at   0.124111  2.955672 -0.980000
      ESP Fit Center  231 is at   0.579583  1.341339 -1.697410
      ESP Fit Center  232 is at   0.089583  2.190044 -1.697410
      ESP Fit Center  233 is at  -0.400417  1.341339 -1.960000
      ESP Fit Center  234 is at   0.525000  0.909327  1.818653
      ESP Fit Center  235 is at  -1.571873 -1.392558  0.000000
      ESP Fit Center  236 is at  -0.744670 -1.963534  0.000000
      ESP Fit Center  237 is at   0.525000  0.909327 -1.818653
      ESP Fit Center  238 is at  -1.877399 -1.050584 -0.369369
      ESP Fit Center  239 is at  -1.174869 -1.887827 -0.369369
      ESP Fit Center  240 is at  -1.877399 -1.050584 -1.407667
      ESP Fit Center  241 is at  -1.174869 -1.887827 -1.407667
      ESP Fit Center  242 is at  -0.098531 -2.077614 -1.407667
      ESP Fit Center  243 is at   0.611497 -0.504113 -2.247667
      ESP Fit Center  244 is at  -0.070834  0.435036 -2.247667
      ESP Fit Center  245 is at  -1.174869  0.076313 -2.247667
      ESP Fit Center  246 is at  -1.174869 -1.084539 -2.247667
      ESP Fit Center  247 is at  -0.070834 -1.443262 -2.247667
      ESP Fit Center  248 is at  -0.375982 -0.504113 -2.568518
      ESP Fit Center  249 is at  -0.382454 -0.522760  2.546555
      ESP Fit Center  250 is at   0.605025 -0.522760  2.225704
      ESP Fit Center  251 is at  -0.077306  0.416389  2.225704
      ESP Fit Center  252 is at  -1.181341  0.057666  2.225704
      ESP Fit Center  253 is at  -1.181341 -1.103186  2.225704
      ESP Fit Center  254 is at  -0.077306 -1.461909  2.225704
      ESP Fit Center  255 is at  -1.181341 -1.906474  1.385704
      ESP Fit Center  256 is at  -0.105003 -2.096261  1.385704
      ESP Fit Center  257 is at  -1.181341 -1.906474  0.347406
      ESP Fit Center  258 is at   3.380910  0.975919  0.000000
      ESP Fit Center  259 is at   1.774579  2.084689  0.000000
      ESP Fit Center  260 is at   1.879415  0.486491  2.578849
      ESP Fit Center  261 is at   2.866894  0.486491  2.257998
      ESP Fit Center  262 is at   2.184563  1.425640  2.257998
      ESP Fit Center  263 is at   1.080528  1.066917  2.257998
      ESP Fit Center  264 is at   1.080528 -0.093935  2.257998
      ESP Fit Center  265 is at   2.184563 -0.452658  2.257998
      ESP Fit Center  266 is at   3.103382  1.513521  1.417998
      ESP Fit Center  267 is at   2.156866  2.059992  1.417998
      ESP Fit Center  268 is at   1.080528  1.870205  1.417998
      ESP Fit Center  269 is at   3.103382  1.513521  0.379700
      ESP Fit Center  270 is at   2.156866  2.059992  0.379700
      ESP Fit Center  271 is at   3.098316  1.585247 -0.337374
      ESP Fit Center  272 is at   2.151800  2.131718 -0.337374
      ESP Fit Center  273 is at   3.098316  1.585247 -1.375672
      ESP Fit Center  274 is at   2.151800  2.131718 -1.375672
      ESP Fit Center  275 is at   1.075462  1.941931 -1.375672
      ESP Fit Center  276 is at   2.861828  0.558217 -2.215672
      ESP Fit Center  277 is at   2.179497  1.497366 -2.215672
      ESP Fit Center  278 is at   1.075462  1.138643 -2.215672
      ESP Fit Center  279 is at   1.075462 -0.022209 -2.215672
      ESP Fit Center  280 is at   2.179497 -0.380932 -2.215672
      ESP Fit Center  281 is at   1.874349  0.558217 -2.536523
      ESP Fit Center  282 is at   2.141706 -1.709942  2.402578
      ESP Fit Center  283 is at   2.673214 -0.789344  2.159952
      ESP Fit Center  284 is at   1.610198 -0.789344  2.159952
      ESP Fit Center  285 is at   1.078691 -1.709942  2.159952
      ESP Fit Center  286 is at   1.610198 -2.630540  2.159952
      ESP Fit Center  287 is at   2.673214 -2.630540  2.159952
      ESP Fit Center  288 is at   0.303810 -2.249597  1.480128
      ESP Fit Center  289 is at   0.887329 -3.157571  1.480128
      ESP Fit Center  290 is at   1.869104 -3.605932  1.480128
      ESP Fit Center  291 is at   2.937428 -3.452330  1.480128
      ESP Fit Center  292 is at  -0.010324 -2.746305  0.497754
      ESP Fit Center  293 is at   0.652455 -3.577404  0.497754
      ESP Fit Center  294 is at   1.610198 -4.038629  0.497754
      ESP Fit Center  295 is at   2.673214 -4.038629  0.497754
      ESP Fit Center  296 is at  -0.010324 -2.746305 -0.592598
      ESP Fit Center  297 is at   0.652455 -3.577404 -0.592598
      ESP Fit Center  298 is at   1.610198 -4.038629 -0.592598
      ESP Fit Center  299 is at   2.673214 -4.038629 -0.592598
      ESP Fit Center  300 is at   3.630957 -3.577404 -0.592598
      ESP Fit Center  301 is at   0.303810 -2.249597 -1.574972
      ESP Fit Center  302 is at   0.887329 -3.157571 -1.574972
      ESP Fit Center  303 is at   1.869104 -3.605932 -1.574972
      ESP Fit Center  304 is at   2.937428 -3.452330 -1.574972
      ESP Fit Center  305 is at   2.673214 -0.789344 -2.254796
      ESP Fit Center  306 is at   1.610198 -0.789344 -2.254796
      ESP Fit Center  307 is at   1.078691 -1.709942 -2.254796
      ESP Fit Center  308 is at   1.610198 -2.630540 -2.254796
      ESP Fit Center  309 is at   2.673214 -2.630540 -2.254796
      ESP Fit Center  310 is at   2.141706 -1.709942 -2.497422
      ESP Fit Center  311 is at   3.392854 -2.367325  2.067890
      ESP Fit Center  312 is at   4.051908 -0.830549  2.801215
      ESP Fit Center  313 is at   5.039387 -0.830549  2.480364
      ESP Fit Center  314 is at   4.357056  0.108600  2.480364
      ESP Fit Center  315 is at   3.253021 -0.250123  2.480364
      ESP Fit Center  316 is at   3.253021 -1.410975  2.480364
      ESP Fit Center  317 is at   4.357056 -1.769698  2.480364
      ESP Fit Center  318 is at   5.275875  0.196481  1.640364
      ESP Fit Center  319 is at   4.329359  0.742952  1.640364
      ESP Fit Center  320 is at   4.329359  0.742952  0.602066
      ESP Fit Center  321 is at   4.297429 -2.440826  2.176789
      ESP Fit Center  322 is at   3.498542 -3.021252  1.855938
      ESP Fit Center  323 is at   4.602577 -3.379975  1.855938
      ESP Fit Center  324 is at   3.498542 -3.824540  1.015938
      ESP Fit Center  325 is at   4.574880 -4.014327  1.015938
      ESP Fit Center  326 is at   3.498542 -3.824540 -0.022360
      ESP Fit Center  327 is at   4.602577 -3.379975 -0.862360
      ESP Fit Center  328 is at   5.193643  0.027262 -2.767337
      ESP Fit Center  329 is at   4.571904  1.026633  0.146092
      ESP Fit Center  330 is at   4.544207  1.660985 -0.693908
      ESP Fit Center  331 is at   3.467869  1.471198 -0.693908
      ESP Fit Center  332 is at   4.544207  1.660985 -1.732206
      ESP Fit Center  333 is at   3.467869  1.471198 -1.732206
      ESP Fit Center  334 is at   4.571904  1.026633 -2.572206
      ESP Fit Center  335 is at   3.467869  0.667910 -2.572206
      ESP Fit Center  336 is at   4.266756  0.087484 -2.893057
      ESP Fit Center  337 is at   4.829482 -3.095971 -1.294427
      ESP Fit Center  338 is at   3.050614 -0.975999 -2.332725
      ESP Fit Center  339 is at   3.050614 -2.068941 -2.332725
      ESP Fit Center  340 is at   3.753144 -2.906184 -2.332725
      ESP Fit Center  341 is at   4.829482 -3.095971 -2.332725
      ESP Fit Center  342 is at   5.539510 -1.522470 -3.172725
      ESP Fit Center  343 is at   4.857179 -0.583321 -3.172725
      ESP Fit Center  344 is at   3.753144 -0.942044 -3.172725
      ESP Fit Center  345 is at   3.753144 -2.102896 -3.172725
      ESP Fit Center  346 is at   4.857179 -2.461619 -3.172725
      ESP Fit Center  347 is at   4.552031 -1.522470 -3.493576
      ESP Fit Center  348 is at   6.439315 -0.570579  1.787162
      ESP Fit Center  349 is at   7.502330 -0.570579  1.544536
      ESP Fit Center  350 is at   6.970823  0.350019  1.544536
      ESP Fit Center  351 is at   5.907807  0.350019  1.544536
      ESP Fit Center  352 is at   8.050725  0.465012  0.864712
      ESP Fit Center  353 is at   7.235037  1.171809  0.864712
      ESP Fit Center  354 is at   6.166713  1.325411  0.864712
      ESP Fit Center  355 is at   5.184938  0.877050  0.864712
      ESP Fit Center  356 is at   8.827888 -0.570579 -0.117662
      ESP Fit Center  357 is at   8.591345  0.465784 -0.117662
      ESP Fit Center  358 is at   7.928566  1.296883 -0.117662
      ESP Fit Center  359 is at   6.970823  1.758108 -0.117662
      ESP Fit Center  360 is at   5.907807  1.758108 -0.117662
      ESP Fit Center  361 is at   4.950064  1.296883 -0.117662
      ESP Fit Center  362 is at   8.827888 -0.570579 -1.208014
      ESP Fit Center  363 is at   8.591345  0.465784 -1.208014
      ESP Fit Center  364 is at   7.928566  1.296883 -1.208014
      ESP Fit Center  365 is at   6.970823  1.758108 -1.208014
      ESP Fit Center  366 is at   5.907807  1.758108 -1.208014
      ESP Fit Center  367 is at   8.354802 -0.570579 -2.190388
      ESP Fit Center  368 is at   8.050725  0.465012 -2.190388
      ESP Fit Center  369 is at   7.235037  1.171809 -2.190388
      ESP Fit Center  370 is at   6.166713  1.325411 -2.190388
      ESP Fit Center  371 is at   7.502330 -0.570579 -2.870212
      ESP Fit Center  372 is at   6.970823  0.350019 -2.870212
      ESP Fit Center  373 is at   5.907807  0.350019 -2.870212
      ESP Fit Center  374 is at   5.907807 -1.491177 -2.870212
      ESP Fit Center  375 is at   6.970823 -1.491177 -2.870212
      ESP Fit Center  376 is at   6.439315 -0.570579 -3.112838
      ESP Fit Center  377 is at   7.926246 -3.897623 -1.742381
      ESP Fit Center  378 is at   7.695750 -3.152645 -2.511034
      ESP Fit Center  379 is at   7.170750 -2.243318 -2.792381
      ESP Fit Center  380 is at   9.706918 -2.152233 -0.703483
      ESP Fit Center  381 is at   9.333110 -1.125203 -0.703483
      ESP Fit Center  382 is at   9.706918 -2.152233 -1.741781
      ESP Fit Center  383 is at   9.333110 -1.125203 -1.741781
      ESP Fit Center  384 is at   8.386594 -3.725734 -1.741781
      ESP Fit Center  385 is at   9.333110 -3.179263 -1.741781
      ESP Fit Center  386 is at   9.096622 -2.152233 -2.581781
      ESP Fit Center  387 is at   8.414291 -1.213084 -2.581781
      ESP Fit Center  388 is at   8.414291 -3.091382 -2.581781
      ESP Fit Center  389 is at   8.109143 -2.152233 -2.902632
      ESP Fit Center  390 is at   5.035995 -3.437420 -1.802866
      ESP Fit Center  391 is at   6.814863 -4.464450 -1.802866
      ESP Fit Center  392 is at   5.738525 -3.471375 -2.642866
      ESP Fit Center  393 is at   6.842560 -3.830098 -2.642866
      ESP Fit Center  394 is at   6.537412 -2.890949 -2.963717
      ESP Fit Center  395 is at   7.430710 -2.825138  2.797512
      ESP Fit Center  396 is at   8.051076 -2.141384  2.941352
      ESP Fit Center  397 is at   9.038555 -2.141384  2.620501
      ESP Fit Center  398 is at   8.356224 -1.202235  2.620501
      ESP Fit Center  399 is at   7.252189 -1.560958  2.620501
      ESP Fit Center  400 is at   9.648851 -2.141384  1.780501
      ESP Fit Center  401 is at   9.275043 -1.114354  1.780501
      ESP Fit Center  402 is at   8.328527 -0.567883  1.780501
      ESP Fit Center  403 is at   7.252189 -0.757670  1.780501
      ESP Fit Center  404 is at   9.648851 -2.141384  0.742203
      ESP Fit Center  405 is at   9.275043 -1.114354  0.742203
      ESP Fit Center  406 is at   6.512577 -2.949223  2.936644
      ESP Fit Center  407 is at   6.817725 -2.010074  2.615793
      ESP Fit Center  408 is at   5.713690 -2.368797  2.615793
      ESP Fit Center  409 is at   5.713690 -3.529649  2.615793
      ESP Fit Center  410 is at   6.817725 -3.888372  2.615793
      ESP Fit Center  411 is at   5.713690 -1.565509  1.775793
      ESP Fit Center  412 is at   5.011160 -3.495694  1.775793
      ESP Fit Center  413 is at   8.320678 -4.417506  3.116336
      ESP Fit Center  414 is at   9.383693 -4.417506  2.873710
      ESP Fit Center  415 is at   8.852186 -3.496908  2.873710
      ESP Fit Center  416 is at   7.789170 -3.496908  2.873710
      ESP Fit Center  417 is at   7.257663 -4.417506  2.873710
      ESP Fit Center  418 is at   7.789170 -5.338104  2.873710
      ESP Fit Center  419 is at   8.852186 -5.338104  2.873710
      ESP Fit Center  420 is at  10.236165 -4.417506  2.193886
      ESP Fit Center  421 is at   9.932088 -3.381915  2.193886
      ESP Fit Center  422 is at   9.116400 -6.159894  2.193886
      ESP Fit Center  423 is at   9.932088 -5.453097  2.193886
      ESP Fit Center  424 is at  10.709251 -4.417506  1.211512
      ESP Fit Center  425 is at  10.472708 -3.381143  1.211512
      ESP Fit Center  426 is at   9.809929 -2.550044  1.211512
      ESP Fit Center  427 is at   9.809929 -6.284968  1.211512
      ESP Fit Center  428 is at  10.472708 -5.453869  1.211512
      ESP Fit Center  429 is at  10.709251 -4.417506  0.121160
      ESP Fit Center  430 is at  10.472708 -3.381143  0.121160
      ESP Fit Center  431 is at   9.809929 -2.550044  0.121160
      ESP Fit Center  432 is at   9.809929 -6.284968  0.121160
      ESP Fit Center  433 is at  10.472708 -5.453869  0.121160
      ESP Fit Center  434 is at  10.236165 -4.417506 -0.861214
      ESP Fit Center  435 is at   9.932088 -3.381915 -0.861214
      ESP Fit Center  436 is at   9.116400 -6.159894 -0.861214
      ESP Fit Center  437 is at   9.932088 -5.453097 -0.861214
      ESP Fit Center  438 is at   9.383693 -4.417506 -1.541038
      ESP Fit Center  439 is at   7.257663 -4.417506 -1.541038
      ESP Fit Center  440 is at   8.852186 -5.338104 -1.541038
      ESP Fit Center  441 is at   8.320678 -4.417506 -1.783664
      ESP Fit Center  442 is at   5.798783 -7.017998  1.913010
      ESP Fit Center  443 is at   7.514538 -6.569940  2.744623
      ESP Fit Center  444 is at   8.502017 -6.569940  2.423772
      ESP Fit Center  445 is at   6.715651 -7.150366  2.423772
      ESP Fit Center  446 is at   7.819686 -7.509089  2.423772
      ESP Fit Center  447 is at   9.112313 -6.569940  1.583772
      ESP Fit Center  448 is at   6.715651 -7.953654  1.583772
      ESP Fit Center  449 is at   7.791989 -8.143441  1.583772
      ESP Fit Center  450 is at   8.738505 -7.596970  1.583772
      ESP Fit Center  451 is at   6.715651 -7.953654  0.545474
      ESP Fit Center  452 is at   7.791989 -8.143441  0.545474
      ESP Fit Center  453 is at   8.738505 -7.596970  0.545474
      ESP Fit Center  454 is at   7.819686 -7.509089 -0.294526
      ESP Fit Center  455 is at   6.424744 -5.402002  3.435884
      ESP Fit Center  456 is at   7.412223 -5.402002  3.115033
      ESP Fit Center  457 is at   6.729892 -4.462853  3.115033
      ESP Fit Center  458 is at   5.625857 -4.821576  3.115033
      ESP Fit Center  459 is at   5.625857 -5.982428  3.115033
      ESP Fit Center  460 is at   6.729892 -6.341151  3.115033
      ESP Fit Center  461 is at   5.625857 -4.018288  2.275033
      ESP Fit Center  462 is at   4.923327 -4.855531  2.275033
      ESP Fit Center  463 is at   4.923327 -5.948473  2.275033
      ESP Fit Center  464 is at   5.625857 -6.785716  2.275033
      ESP Fit Center  465 is at   4.923327 -4.855531  1.236735
      ESP Fit Center  466 is at   4.316628 -5.310823  0.716030
      ESP Fit Center  467 is at   7.254549 -7.551463 -0.333970
      ESP Fit Center  468 is at   5.011613 -5.823197 -2.152623
      ESP Fit Center  469 is at   4.567808 -6.055928  1.214757
      ESP Fit Center  470 is at   4.567808 -7.216780  1.214757
      ESP Fit Center  471 is at   5.671843 -7.575503  1.214757
      ESP Fit Center  472 is at   3.865278 -6.089883  0.374757
      ESP Fit Center  473 is at   3.865278 -7.182825  0.374757
      ESP Fit Center  474 is at   4.567808 -8.020068  0.374757
      ESP Fit Center  475 is at   5.644146 -8.209855  0.374757
      ESP Fit Center  476 is at   3.865278 -6.089883 -0.663541
      ESP Fit Center  477 is at   3.865278 -7.182825 -0.663541
      ESP Fit Center  478 is at   4.567808 -8.020068 -0.663541
      ESP Fit Center  479 is at   5.644146 -8.209855 -0.663541
      ESP Fit Center  480 is at   4.567808 -7.216780 -1.503541
      ESP Fit Center  481 is at   5.671843 -7.575503 -1.503541
      ESP Fit Center  482 is at   4.675144 -4.351452  0.834544
      ESP Fit Center  483 is at   3.972614 -4.385407 -0.005456
      ESP Fit Center  484 is at   3.972614 -5.478349 -0.005456
      ESP Fit Center  485 is at   4.675144 -3.548164 -1.043754
      ESP Fit Center  486 is at   3.972614 -4.385407 -1.043754
      ESP Fit Center  487 is at   3.972614 -5.478349 -1.043754
      ESP Fit Center  488 is at   4.675144 -4.351452 -1.883754
      ESP Fit Center  489 is at   4.675144 -5.512304 -1.883754
      ESP Fit Center  490 is at   5.474031 -4.931878 -2.204605
      ESP Fit Center  491 is at   7.847221 -7.082925 -0.712083
      ESP Fit Center  492 is at   8.221029 -6.055895 -1.750381
      ESP Fit Center  493 is at   7.847221 -5.028865 -1.750381
      ESP Fit Center  494 is at   6.900705 -4.482394 -1.750381
      ESP Fit Center  495 is at   5.824367 -7.439609 -1.750381
      ESP Fit Center  496 is at   6.900705 -7.629396 -1.750381
      ESP Fit Center  497 is at   7.847221 -7.082925 -1.750381
      ESP Fit Center  498 is at   7.610733 -6.055895 -2.590381
      ESP Fit Center  499 is at   6.928402 -5.116746 -2.590381
      ESP Fit Center  500 is at   5.824367 -5.475469 -2.590381
      ESP Fit Center  501 is at   5.824367 -6.636321 -2.590381
      ESP Fit Center  502 is at   6.928402 -6.995044 -2.590381
      ESP Fit Center  503 is at   6.623254 -6.055895 -2.911232
      ESP Fit Center  504 is at  -7.301087  2.158171  4.685035
      ESP Fit Center  505 is at  -6.259766  2.158171  4.447360
      ESP Fit Center  506 is at  -7.568126  4.015468  3.781411
      ESP Fit Center  507 is at  -7.821747  4.439334  2.819085
      ESP Fit Center  508 is at  -7.821747  4.439334  1.750985
      ESP Fit Center  509 is at  -8.759945  3.987521  1.750985
      ESP Fit Center  510 is at  -9.409198  3.173384  1.750985
      ESP Fit Center  511 is at  -9.409198  1.142958  1.750985
      ESP Fit Center  512 is at  -5.722563  3.172627  0.788659
      ESP Fit Center  513 is at  -6.519606  2.826375  4.549010
      ESP Fit Center  514 is at  -5.559606  2.826375  4.291779
      ESP Fit Center  515 is at  -6.039606  3.657759  4.291779
      ESP Fit Center  516 is at  -6.999606  3.657759  4.291779
      ESP Fit Center  517 is at  -4.856837  2.826375  3.589010
      ESP Fit Center  518 is at  -5.174398  3.803726  3.589010
      ESP Fit Center  519 is at  -6.005782  4.407762  3.589010
      ESP Fit Center  520 is at  -7.033430  4.407762  3.589010
      ESP Fit Center  521 is at  -4.599606  2.826375  2.629010
      ESP Fit Center  522 is at  -4.856837  3.786375  2.629010
      ESP Fit Center  523 is at  -5.559606  4.489144  2.629010
      ESP Fit Center  524 is at  -6.519606  4.746375  2.629010
      ESP Fit Center  525 is at  -5.174398  3.803726  1.669010
      ESP Fit Center  526 is at  -6.005782  4.407762  1.669010
      ESP Fit Center  527 is at  -7.572973  4.362295  1.274628
      ESP Fit Center  528 is at  -8.532973  4.105064  1.274628
      ESP Fit Center  529 is at  -9.235742  3.402295  1.274628
      ESP Fit Center  530 is at  -9.492973  2.442295  1.274628
      ESP Fit Center  531 is at  -6.227765  3.419646  0.314628
      ESP Fit Center  532 is at  -7.059149  4.023682  0.314628
      ESP Fit Center  533 is at  -8.086797  4.023682  0.314628
      ESP Fit Center  534 is at  -8.918181  3.419646  0.314628
      ESP Fit Center  535 is at  -9.235742  2.442295  0.314628
      ESP Fit Center  536 is at  -8.918181  1.464944  0.314628
      ESP Fit Center  537 is at  -6.612973  2.442295 -0.388141
      ESP Fit Center  538 is at  -7.092973  3.273679 -0.388141
      ESP Fit Center  539 is at  -8.052973  3.273679 -0.388141
      ESP Fit Center  540 is at  -8.532973  2.442295 -0.388141
      ESP Fit Center  541 is at  -8.052973  1.610911 -0.388141
      ESP Fit Center  542 is at  -7.092973  1.610911 -0.388141
      ESP Fit Center  543 is at  -7.572973  2.442295 -0.645372
      ESP Fit Center  544 is at  -8.169044  2.284710  4.844427
      ESP Fit Center  545 is at  -7.689044  3.116094  4.587196
      ESP Fit Center  546 is at  -8.649044  3.116094  4.587196
      ESP Fit Center  547 is at  -9.129044  2.284710  4.587196
      ESP Fit Center  548 is at  -8.649044  1.453326  4.587196
      ESP Fit Center  549 is at  -7.689044  1.453326  4.587196
      ESP Fit Center  550 is at  -8.682868  3.866097  3.884427
      ESP Fit Center  551 is at  -9.514252  3.262061  3.884427
      ESP Fit Center  552 is at  -9.831813  2.284710  3.884427
      ESP Fit Center  553 is at  -9.514252  1.307359  3.884427
      ESP Fit Center  554 is at  -8.682868  0.703323  3.884427
      ESP Fit Center  555 is at  -9.129044  3.947479  2.924427
      ESP Fit Center  556 is at  -9.831813  3.244710  2.924427
      ESP Fit Center  557 is at -10.089044  2.284710  2.924427
      ESP Fit Center  558 is at  -9.831813  1.324710  2.924427
      ESP Fit Center  559 is at  -9.514252  3.262061  1.964427
      ESP Fit Center  560 is at  -9.831813  2.284710  1.964427
      ESP Fit Center  561 is at  -8.621385  0.192111  3.816486
      ESP Fit Center  562 is at  -8.049775 -0.697332  3.816486
      ESP Fit Center  563 is at  -7.862318  0.720753  0.157785
      ESP Fit Center  564 is at  -6.556297  0.431448  5.255875
      ESP Fit Center  565 is at  -5.596297  0.431448  4.998644
      ESP Fit Center  566 is at  -6.076297  1.262832  4.998644
      ESP Fit Center  567 is at  -7.036297  1.262832  4.998644
      ESP Fit Center  568 is at  -7.516297  0.431448  4.998644
      ESP Fit Center  569 is at  -7.036297 -0.399936  4.998644
      ESP Fit Center  570 is at  -6.076297 -0.399936  4.998644
      ESP Fit Center  571 is at  -4.893528  0.431448  4.295875
      ESP Fit Center  572 is at  -5.211089  1.408799  4.295875
      ESP Fit Center  573 is at  -8.219066  0.431448  4.295875
      ESP Fit Center  574 is at  -7.901505 -0.545903  4.295875
      ESP Fit Center  575 is at  -7.070121 -1.149939  4.295875
      ESP Fit Center  576 is at  -6.042473 -1.149939  4.295875
      ESP Fit Center  577 is at  -5.211089 -0.545903  4.295875
      ESP Fit Center  578 is at  -6.556297 -1.488552  3.335875
      ESP Fit Center  579 is at  -9.272401  0.047650  2.945468
      ESP Fit Center  580 is at  -8.954840 -0.929701  2.945468
      ESP Fit Center  581 is at  -8.123456 -1.533737  2.945468
      ESP Fit Center  582 is at  -9.529632  0.047650  1.985468
      ESP Fit Center  583 is at  -9.272401 -0.912350  1.985468
      ESP Fit Center  584 is at  -8.569632 -1.615119  1.985468
      ESP Fit Center  585 is at  -7.609632 -1.872350  1.985468
      ESP Fit Center  586 is at  -9.272401  0.047650  1.025468
      ESP Fit Center  587 is at  -8.954840 -0.929701  1.025468
      ESP Fit Center  588 is at  -8.123456 -1.533737  1.025468
      ESP Fit Center  589 is at  -8.569632  0.047650  0.322699
      ESP Fit Center  590 is at  -8.089632 -0.783734  0.322699
      ESP Fit Center  591 is at  -7.609632  0.047650  0.065468
      ESP Fit Center  592 is at  -4.289083  1.630910  2.880928
      ESP Fit Center  593 is at  -5.219967  1.443210 -0.533859
      ESP Fit Center  594 is at  -6.191867  1.443210 -0.533859
      ESP Fit Center  595 is at  -6.677817  0.601520 -0.533859
      ESP Fit Center  596 is at  -4.640784 -2.962566  1.951693
      ESP Fit Center  597 is at  -7.225669 -2.351849  1.938968
      ESP Fit Center  598 is at  -6.394285 -2.955885  1.938968
      ESP Fit Center  599 is at  -7.543230 -2.334498  0.978968
      ESP Fit Center  600 is at  -6.840461 -3.037267  0.978968
      ESP Fit Center  601 is at  -5.880461 -3.294498  0.978968
      ESP Fit Center  602 is at  -4.920461 -3.037267  0.978968
      ESP Fit Center  603 is at  -7.225669 -0.397147  0.018968
      ESP Fit Center  604 is at  -7.543230 -1.374498  0.018968
      ESP Fit Center  605 is at  -7.225669 -2.351849  0.018968
      ESP Fit Center  606 is at  -6.394285 -2.955885  0.018968
      ESP Fit Center  607 is at  -5.366637 -2.955885  0.018968
      ESP Fit Center  608 is at  -6.360461 -0.543114 -0.683801
      ESP Fit Center  609 is at  -6.840461 -1.374498 -0.683801
      ESP Fit Center  610 is at  -6.360461 -2.205882 -0.683801
      ESP Fit Center  611 is at  -5.400461 -2.205882 -0.683801
      ESP Fit Center  612 is at  -5.880461 -1.374498 -0.941032
      ESP Fit Center  613 is at  -4.909895 -1.042718  4.332398
      ESP Fit Center  614 is at  -3.949895 -1.042718  4.075167
      ESP Fit Center  615 is at  -4.429895 -0.211334  4.075167
      ESP Fit Center  616 is at  -5.389895 -1.874102  4.075167
      ESP Fit Center  617 is at  -4.429895 -1.874102  4.075167
      ESP Fit Center  618 is at  -3.247126 -1.042718  3.372398
      ESP Fit Center  619 is at  -3.564687 -0.065367  3.372398
      ESP Fit Center  620 is at  -4.396071  0.538669  3.372398
      ESP Fit Center  621 is at  -6.255103 -2.020069  3.372398
      ESP Fit Center  622 is at  -5.423719 -2.624105  3.372398
      ESP Fit Center  623 is at  -4.396071 -2.624105  3.372398
      ESP Fit Center  624 is at  -3.564687 -2.020069  3.372398
      ESP Fit Center  625 is at  -4.909895 -2.962718  2.412398
      ESP Fit Center  626 is at  -3.949895 -2.705487  2.412398
      ESP Fit Center  627 is at  -5.708729 -1.184891 -0.929503
      ESP Fit Center  628 is at  -5.137119 -2.074334 -0.929503
      ESP Fit Center  629 is at  -3.387681 -1.558059 -1.595452
      ESP Fit Center  630 is at  -3.106097 -2.508697  2.057144
      ESP Fit Center  631 is at  -4.099921 -3.258700  1.354375
      ESP Fit Center  632 is at  -3.072273 -3.258700  1.354375
      ESP Fit Center  633 is at  -2.240889 -2.654664  1.354375
      ESP Fit Center  634 is at  -4.546097 -3.340082  0.394375
      ESP Fit Center  635 is at  -3.586097 -3.597313  0.394375
      ESP Fit Center  636 is at  -2.626097 -3.340082  0.394375
      ESP Fit Center  637 is at  -1.923328 -2.637313  0.394375
      ESP Fit Center  638 is at  -1.923328 -1.677313 -0.565625
      ESP Fit Center  639 is at  -4.931305 -2.654664 -0.565625
      ESP Fit Center  640 is at  -4.099921 -3.258700 -0.565625
      ESP Fit Center  641 is at  -3.072273 -3.258700 -0.565625
      ESP Fit Center  642 is at  -2.240889 -2.654664 -0.565625
      ESP Fit Center  643 is at  -2.626097 -1.677313 -1.268394
      ESP Fit Center  644 is at  -4.066097 -2.508697 -1.268394
      ESP Fit Center  645 is at  -3.106097 -2.508697 -1.268394
      ESP Fit Center  646 is at  -4.649357  1.370433 -1.357777
      ESP Fit Center  647 is at  -5.480741  0.766397 -1.357777
      ESP Fit Center  648 is at  -5.798302 -0.210954 -1.357777
      ESP Fit Center  649 is at  -5.480741 -1.188305 -1.357777
      ESP Fit Center  650 is at  -4.615533  0.620430 -2.060546
      ESP Fit Center  651 is at  -5.095533 -0.210954 -2.060546
      ESP Fit Center  652 is at  -4.615533 -1.042338 -2.060546
      ESP Fit Center  653 is at  -3.655533 -1.042338 -2.060546
      ESP Fit Center  654 is at  -4.135533 -0.210954 -2.317777
      ESP Fit Center  655 is at  -2.852039  0.006087  3.439927
      ESP Fit Center  656 is at  -1.880139  0.006087  3.218097
      ESP Fit Center  657 is at  -3.337989  0.847777  3.218097
      ESP Fit Center  658 is at  -2.366089 -0.835603  3.218097
      ESP Fit Center  659 is at  -1.100736  0.006087  2.596544
      ESP Fit Center  660 is at  -2.310857 -1.659501  2.596544
      ESP Fit Center  661 is at  -1.435205 -1.023303  2.596544
      ESP Fit Center  662 is at  -1.611477 -1.791177  1.698374
      ESP Fit Center  663 is at  -3.716888  1.369183  3.067911
      ESP Fit Center  664 is at  -3.904345  2.787268  2.401962
      ESP Fit Center  665 is at  -3.196227  3.650346  1.439636
      ESP Fit Center  666 is at  -2.240411  1.823229  3.707133
      ESP Fit Center  667 is at  -1.280411  1.823229  3.449902
      ESP Fit Center  668 is at  -1.760411  2.654613  3.449902
      ESP Fit Center  669 is at  -2.720411  2.654613  3.449902
      ESP Fit Center  670 is at  -3.200411  1.823229  3.449902
      ESP Fit Center  671 is at  -2.720411  0.991845  3.449902
      ESP Fit Center  672 is at  -1.760411  0.991845  3.449902
      ESP Fit Center  673 is at  -0.577642  1.823229  2.747133
      ESP Fit Center  674 is at  -0.895203  2.800580  2.747133
      ESP Fit Center  675 is at  -1.726587  3.404616  2.747133
      ESP Fit Center  676 is at  -2.754235  3.404616  2.747133
      ESP Fit Center  677 is at  -3.585619  2.800580  2.747133
      ESP Fit Center  678 is at  -0.895203  0.845878  2.747133
      ESP Fit Center  679 is at  -0.577642  2.783229  1.787133
      ESP Fit Center  680 is at  -1.280411  3.485998  1.787133
      ESP Fit Center  681 is at  -2.240411  3.743229  1.787133
      ESP Fit Center  682 is at  -4.110915  2.675615  2.379951
      ESP Fit Center  683 is at  -4.144739  3.425618  1.677182
      ESP Fit Center  684 is at  -3.630915  3.764231  0.717182
      ESP Fit Center  685 is at  -4.590915  3.507000  0.717182
      ESP Fit Center  686 is at  -5.293684  2.804231  0.717182
      ESP Fit Center  687 is at  -4.144739  3.425618 -0.242818
      ESP Fit Center  688 is at  -4.976123  2.821582 -0.242818
      ESP Fit Center  689 is at  -4.110915  2.675615 -0.945587
      ESP Fit Center  690 is at  -4.590915  1.844231 -0.945587
      ESP Fit Center  691 is at  -0.966929  3.311329  1.222510
      ESP Fit Center  692 is at  -3.546800  2.133142 -1.770242
      ESP Fit Center  693 is at  -0.705091  1.604500 -2.436191
      ESP Fit Center  694 is at  -1.225752  2.506310 -2.436191
      ESP Fit Center  695 is at  -2.267072  2.506310 -2.436191
      ESP Fit Center  696 is at  -0.447008  3.631682  0.418483
      ESP Fit Center  697 is at  -1.278392  4.235718  0.418483
      ESP Fit Center  698 is at  -2.306040  4.235718  0.418483
      ESP Fit Center  699 is at  -0.129447  3.614331 -0.541517
      ESP Fit Center  700 is at  -0.832216  4.317100 -0.541517
      ESP Fit Center  701 is at  -1.792216  4.574331 -0.541517
      ESP Fit Center  702 is at  -2.752216  4.317100 -0.541517
      ESP Fit Center  703 is at  -3.454985  3.614331 -0.541517
      ESP Fit Center  704 is at  -0.447008  3.631682 -1.501517
      ESP Fit Center  705 is at  -1.278392  4.235718 -1.501517
      ESP Fit Center  706 is at  -2.306040  4.235718 -1.501517
      ESP Fit Center  707 is at  -3.137424  3.631682 -1.501517
      ESP Fit Center  708 is at  -1.312216  3.485715 -2.204286
      ESP Fit Center  709 is at  -2.272216  3.485715 -2.204286
      ESP Fit Center  710 is at  -2.752216  2.654331 -2.204286
      ESP Fit Center  711 is at  -1.792216  2.654331 -2.461517
      ESP Fit Center  712 is at  -3.421204  2.005791 -2.097593
      ESP Fit Center  713 is at  -3.738765  1.028440 -2.097593
      ESP Fit Center  714 is at  -2.589820 -0.552947 -2.097593
      ESP Fit Center  715 is at  -1.115996  1.028440 -2.800362
      ESP Fit Center  716 is at  -1.595996  1.859824 -2.800362
      ESP Fit Center  717 is at  -2.555996  1.859824 -2.800362
      ESP Fit Center  718 is at  -3.035996  1.028440 -2.800362
      ESP Fit Center  719 is at  -2.555996  0.197056 -2.800362
      ESP Fit Center  720 is at  -1.595996  0.197056 -2.800362
      ESP Fit Center  721 is at  -2.075996  1.028440 -3.057593
      ESP Fit Center  722 is at  -0.400417  1.341339  2.240000
      ESP Fit Center  723 is at   0.571483  1.341339  2.018170
      ESP Fit Center  724 is at   0.085533  2.183029  2.018170
      ESP Fit Center  725 is at   1.016417  2.370729  1.396617
      ESP Fit Center  726 is at   0.140765  3.006927  1.396617
      ESP Fit Center  727 is at   1.533276  2.356219  0.498447
      ESP Fit Center  728 is at   0.840145  3.138603  0.498447
      ESP Fit Center  729 is at  -0.137184  3.509255  0.498447
      ESP Fit Center  730 is at   0.840145  3.138603 -0.498447
      ESP Fit Center  731 is at   1.016417  2.370729 -1.396617
      ESP Fit Center  732 is at   0.140765  3.006927 -1.396617
      ESP Fit Center  733 is at   0.085533  2.183029 -2.018170
      ESP Fit Center  734 is at  -2.038751 -1.464113 -0.888518
      ESP Fit Center  735 is at  -1.335982 -2.166882 -0.888518
      ESP Fit Center  736 is at  -1.721190 -1.481464 -1.848518
      ESP Fit Center  737 is at  -0.889806 -2.085500 -1.848518
      ESP Fit Center  738 is at   0.584018 -0.504113 -2.551287
      ESP Fit Center  739 is at   0.104018  0.327271 -2.551287
      ESP Fit Center  740 is at  -0.855982  0.327271 -2.551287
      ESP Fit Center  741 is at  -1.335982 -0.504113 -2.551287
      ESP Fit Center  742 is at  -0.855982 -1.335497 -2.551287
      ESP Fit Center  743 is at   0.104018 -1.335497 -2.551287
      ESP Fit Center  744 is at  -0.375982 -0.504113 -2.808518
      ESP Fit Center  745 is at  -0.382454 -0.522760  2.786555
      ESP Fit Center  746 is at   0.577546 -0.522760  2.529324
      ESP Fit Center  747 is at   0.097546  0.308624  2.529324
      ESP Fit Center  748 is at  -0.862454  0.308624  2.529324
      ESP Fit Center  749 is at  -0.862454 -1.354144  2.529324
      ESP Fit Center  750 is at   0.097546 -1.354144  2.529324
      ESP Fit Center  751 is at  -0.896278 -2.104147  1.826555
      ESP Fit Center  752 is at  -1.342454 -2.185529  0.866555
      ESP Fit Center  753 is at   1.879415  0.486491  2.818849
      ESP Fit Center  754 is at   2.839415  0.486491  2.561618
      ESP Fit Center  755 is at   2.359415  1.317875  2.561618
      ESP Fit Center  756 is at   1.399415  1.317875  2.561618
      ESP Fit Center  757 is at   0.919415  0.486491  2.561618
      ESP Fit Center  758 is at   1.399415 -0.344893  2.561618
      ESP Fit Center  759 is at   2.359415 -0.344893  2.561618
      ESP Fit Center  760 is at   3.224623  1.463842  1.858849
      ESP Fit Center  761 is at   2.393239  2.067878  1.858849
      ESP Fit Center  762 is at   1.365591  2.067878  1.858849
      ESP Fit Center  763 is at   3.542184  1.446491  0.898849
      ESP Fit Center  764 is at   2.839415  2.149260  0.898849
      ESP Fit Center  765 is at   1.879415  2.406491  0.898849
      ESP Fit Center  766 is at   2.834349  2.220986 -0.856523
      ESP Fit Center  767 is at   1.874349  2.478217 -0.856523
      ESP Fit Center  768 is at   2.388173  2.139604 -1.816523
      ESP Fit Center  769 is at   1.360525  2.139604 -1.816523
      ESP Fit Center  770 is at   2.834349  0.558217 -2.519292
      ESP Fit Center  771 is at   2.354349  1.389601 -2.519292
      ESP Fit Center  772 is at   1.394349  1.389601 -2.519292
      ESP Fit Center  773 is at   0.914349  0.558217 -2.519292
      ESP Fit Center  774 is at   1.394349 -0.273167 -2.519292
      ESP Fit Center  775 is at   2.354349 -0.273167 -2.519292
      ESP Fit Center  776 is at   1.874349  0.558217 -2.776523
      ESP Fit Center  777 is at   2.141706 -1.709942  2.752578
      ESP Fit Center  778 is at   2.677463 -0.781984  2.539441
      ESP Fit Center  779 is at   1.605949 -0.781984  2.539441
      ESP Fit Center  780 is at   1.070192 -1.709942  2.539441
      ESP Fit Center  781 is at   1.605949 -2.637900  2.539441
      ESP Fit Center  782 is at   2.677463 -2.637900  2.539441
      ESP Fit Center  783 is at   0.427063 -2.699891  1.932477
      ESP Fit Center  784 is at   1.151757 -3.424585  1.932477
      ESP Fit Center  785 is at   2.141706 -3.689841  1.932477
      ESP Fit Center  786 is at   3.131655 -3.424585  1.932477
      ESP Fit Center  787 is at   0.048890 -3.230462  1.024092
      ESP Fit Center  788 is at   0.848275 -3.950231  1.024092
      ESP Fit Center  789 is at   1.871305 -4.282634  1.024092
      ESP Fit Center  790 is at   2.941091 -4.170195  1.024092
      ESP Fit Center  791 is at  -0.238902 -3.183952 -0.047422
      ESP Fit Center  792 is at   0.454329 -3.944390 -0.047422
      ESP Fit Center  793 is at   1.375450 -4.403054 -0.047422
      ESP Fit Center  794 is at   2.400057 -4.497998 -0.047422
      ESP Fit Center  795 is at   3.389773 -4.216399 -0.047422
      ESP Fit Center  796 is at   0.048890 -3.230462 -1.118936
      ESP Fit Center  797 is at   0.848275 -3.950231 -1.118936
      ESP Fit Center  798 is at   1.871305 -4.282634 -1.118936
      ESP Fit Center  799 is at   2.941091 -4.170195 -1.118936
      ESP Fit Center  800 is at   3.872655 -3.632356 -1.118936
      ESP Fit Center  801 is at   0.427063 -2.699891 -2.027321
      ESP Fit Center  802 is at   1.151757 -3.424585 -2.027321
      ESP Fit Center  803 is at   2.141706 -3.689841 -2.027321
      ESP Fit Center  804 is at   3.131655 -3.424585 -2.027321
      ESP Fit Center  805 is at   2.677463 -0.781984 -2.634285
      ESP Fit Center  806 is at   1.605949 -0.781984 -2.634285
      ESP Fit Center  807 is at   1.070192 -1.709942 -2.634285
      ESP Fit Center  808 is at   1.605949 -2.637900 -2.634285
      ESP Fit Center  809 is at   2.677463 -2.637900 -2.634285
      ESP Fit Center  810 is at   2.141706 -1.709942 -2.847422
      ESP Fit Center  811 is at   3.397194 -2.359808  2.411562
      ESP Fit Center  812 is at   4.438514 -2.359808  2.411562
      ESP Fit Center  813 is at   4.051908 -0.830549  3.041215
      ESP Fit Center  814 is at   5.011908 -0.830549  2.783984
      ESP Fit Center  815 is at   4.531908  0.000835  2.783984
      ESP Fit Center  816 is at   3.571908  0.000835  2.783984
      ESP Fit Center  817 is at   3.091908 -0.830549  2.783984
      ESP Fit Center  818 is at   3.571908 -1.661933  2.783984
      ESP Fit Center  819 is at   4.531908 -1.661933  2.783984
      ESP Fit Center  820 is at   5.714677 -0.830549  2.081215
      ESP Fit Center  821 is at   5.397116  0.146802  2.081215
      ESP Fit Center  822 is at   4.565732  0.750838  2.081215
      ESP Fit Center  823 is at   3.538084  0.750838  2.081215
      ESP Fit Center  824 is at   4.051908  1.089451  1.121215
      ESP Fit Center  825 is at   4.297429 -2.440826  2.416789
      ESP Fit Center  826 is at   3.817429 -3.272210  2.159558
      ESP Fit Center  827 is at   4.777429 -3.272210  2.159558
      ESP Fit Center  828 is at   3.783605 -4.022213  1.456789
      ESP Fit Center  829 is at   4.811253 -4.022213  1.456789
      ESP Fit Center  830 is at   3.783605 -4.022213 -0.463211
      ESP Fit Center  831 is at   4.401604  0.975232  0.547692
      ESP Fit Center  832 is at   5.189303  0.019745 -3.111009
      ESP Fit Center  833 is at   4.780580  1.668871 -0.253057
      ESP Fit Center  834 is at   3.752932  1.668871 -0.253057
      ESP Fit Center  835 is at   4.266756  2.007484 -1.213057
      ESP Fit Center  836 is at   4.780580  1.668871 -2.173057
      ESP Fit Center  837 is at   3.752932  1.668871 -2.173057
      ESP Fit Center  838 is at   4.746756  0.918868 -2.875826
      ESP Fit Center  839 is at   3.786756  0.918868 -2.875826
      ESP Fit Center  840 is at   3.306756  0.087484 -2.875826
      ESP Fit Center  841 is at   4.266756  0.087484 -3.133057
      ESP Fit Center  842 is at   4.552031 -3.442470 -1.813576
      ESP Fit Center  843 is at   2.889262 -1.522470 -2.773576
      ESP Fit Center  844 is at   3.206823 -2.499821 -2.773576
      ESP Fit Center  845 is at   4.038207 -3.103857 -2.773576
      ESP Fit Center  846 is at   5.065855 -3.103857 -2.773576
      ESP Fit Center  847 is at   5.512031 -1.522470 -3.476345
      ESP Fit Center  848 is at   5.032031 -0.691086 -3.476345
      ESP Fit Center  849 is at   4.072031 -0.691086 -3.476345
      ESP Fit Center  850 is at   3.592031 -1.522470 -3.476345
      ESP Fit Center  851 is at   4.072031 -2.353854 -3.476345
      ESP Fit Center  852 is at   5.032031 -2.353854 -3.476345
      ESP Fit Center  853 is at   4.552031 -1.522470 -3.733576
      ESP Fit Center  854 is at   6.439315 -0.570579  2.137162
      ESP Fit Center  855 is at   6.975072  0.357379  1.924025
      ESP Fit Center  856 is at   5.903558  0.357379  1.924025
      ESP Fit Center  857 is at   8.153958  0.419370  1.317061
      ESP Fit Center  858 is at   7.429264  1.144064  1.317061
      ESP Fit Center  859 is at   6.439315  1.409320  1.317061
      ESP Fit Center  860 is at   5.449366  1.144064  1.317061
      ESP Fit Center  861 is at   9.026178 -0.570579  0.408676
      ESP Fit Center  862 is at   8.802532  0.481593  0.408676
      ESP Fit Center  863 is at   8.170264  1.351835  0.408676
      ESP Fit Center  864 is at   7.238700  1.889674  0.408676
      ESP Fit Center  865 is at   6.168914  2.002113  0.408676
      ESP Fit Center  866 is at   5.145884  1.669710  0.408676
      ESP Fit Center  867 is at   9.239315 -0.570579 -0.662838
      ESP Fit Center  868 is at   9.050237  0.440898 -0.662838
      ESP Fit Center  869 is at   8.508540  1.315769 -0.662838
      ESP Fit Center  870 is at   7.687382  1.935878 -0.662838
      ESP Fit Center  871 is at   6.697666  2.217477 -0.662838
      ESP Fit Center  872 is at   5.673059  2.122533 -0.662838
      ESP Fit Center  873 is at   8.802532  0.481593 -1.734352
      ESP Fit Center  874 is at   8.170264  1.351835 -1.734352
      ESP Fit Center  875 is at   7.238700  1.889674 -1.734352
      ESP Fit Center  876 is at   6.168914  2.002113 -1.734352
      ESP Fit Center  877 is at   8.419214 -0.570579 -2.642737
      ESP Fit Center  878 is at   8.153958  0.419370 -2.642737
      ESP Fit Center  879 is at   7.429264  1.144064 -2.642737
      ESP Fit Center  880 is at   6.439315  1.409320 -2.642737
      ESP Fit Center  881 is at   5.449366  1.144064 -2.642737
      ESP Fit Center  882 is at   7.510829 -0.570579 -3.249701
      ESP Fit Center  883 is at   6.975072  0.357379 -3.249701
      ESP Fit Center  884 is at   5.903558  0.357379 -3.249701
      ESP Fit Center  885 is at   5.903558 -1.498537 -3.249701
      ESP Fit Center  886 is at   6.975072 -1.498537 -3.249701
      ESP Fit Center  887 is at   6.439315 -0.570579 -3.462838
      ESP Fit Center  888 is at   7.950233 -3.950147 -2.188757
      ESP Fit Center  889 is at   7.691410 -3.145128 -2.854706
      ESP Fit Center  890 is at   7.170750 -2.243318 -3.092381
      ESP Fit Center  891 is at   9.771912 -2.152233 -0.262632
      ESP Fit Center  892 is at   9.454351 -1.174882 -0.262632
      ESP Fit Center  893 is at  10.029143 -2.152233 -1.222632
      ESP Fit Center  894 is at   9.771912 -1.192233 -1.222632
      ESP Fit Center  895 is at   9.771912 -2.152233 -2.182632
      ESP Fit Center  896 is at   9.454351 -1.174882 -2.182632
      ESP Fit Center  897 is at   8.622967 -3.733620 -2.182632
      ESP Fit Center  898 is at   9.454351 -3.129584 -2.182632
      ESP Fit Center  899 is at   9.069143 -2.152233 -2.885401
      ESP Fit Center  900 is at   8.589143 -1.320849 -2.885401
      ESP Fit Center  901 is at   8.589143 -2.983617 -2.885401
      ESP Fit Center  902 is at   8.109143 -2.152233 -3.142632
      ESP Fit Center  903 is at   5.192204 -3.868300 -2.243717
      ESP Fit Center  904 is at   7.051236 -4.472336 -2.243717
      ESP Fit Center  905 is at   5.577412 -2.890949 -2.946486
      ESP Fit Center  906 is at   6.057412 -3.722333 -2.946486
      ESP Fit Center  907 is at   7.017412 -3.722333 -2.946486
      ESP Fit Center  908 is at   6.537412 -2.890949 -3.203717
      ESP Fit Center  909 is at   7.430710 -2.825138  3.097512
      ESP Fit Center  910 is at   6.910050 -1.923328  2.859837
      ESP Fit Center  911 is at   8.051076 -2.141384  3.181352
      ESP Fit Center  912 is at   9.011076 -2.141384  2.924121
      ESP Fit Center  913 is at   8.531076 -1.310000  2.924121
      ESP Fit Center  914 is at   7.571076 -1.310000  2.924121
      ESP Fit Center  915 is at   9.713845 -2.141384  2.221352
      ESP Fit Center  916 is at   9.396284 -1.164033  2.221352
      ESP Fit Center  917 is at   8.564900 -0.559997  2.221352
      ESP Fit Center  918 is at   7.537252 -0.559997  2.221352
      ESP Fit Center  919 is at   9.971076 -2.141384  1.261352
      ESP Fit Center  920 is at   9.713845 -1.181384  1.261352
      ESP Fit Center  921 is at   9.011076 -0.478615  1.261352
      ESP Fit Center  922 is at   9.396284 -1.164033  0.301352
      ESP Fit Center  923 is at   6.512577 -2.949223  3.176644
      ESP Fit Center  924 is at   6.032577 -2.117839  2.919413
      ESP Fit Center  925 is at   5.552577 -2.949223  2.919413
      ESP Fit Center  926 is at   6.032577 -3.780607  2.919413
      ESP Fit Center  927 is at   5.998753 -1.367836  2.216644
      ESP Fit Center  928 is at   5.167369 -3.926574  2.216644
      ESP Fit Center  929 is at   8.320678 -4.417506  3.466336
      ESP Fit Center  930 is at   9.392192 -4.417506  3.253199
      ESP Fit Center  931 is at   8.856435 -3.489548  3.253199
      ESP Fit Center  932 is at   7.784921 -3.489548  3.253199
      ESP Fit Center  933 is at   7.249164 -4.417506  3.253199
      ESP Fit Center  934 is at   7.784921 -5.345464  3.253199
      ESP Fit Center  935 is at   8.856435 -5.345464  3.253199
      ESP Fit Center  936 is at  10.300577 -4.417506  2.646235
      ESP Fit Center  937 is at  10.035321 -3.427557  2.646235
      ESP Fit Center  938 is at   9.310627 -2.702863  2.646235
      ESP Fit Center  939 is at   9.310627 -6.132149  2.646235
      ESP Fit Center  940 is at  10.035321 -5.407455  2.646235
      ESP Fit Center  941 is at  10.907541 -4.417506  1.737850
      ESP Fit Center  942 is at  10.683895 -3.365334  1.737850
      ESP Fit Center  943 is at  10.051627 -2.495092  1.737850
      ESP Fit Center  944 is at  10.051627 -6.339920  1.737850
      ESP Fit Center  945 is at  10.683895 -5.469678  1.737850
      ESP Fit Center  946 is at  11.120678 -4.417506  0.666336
      ESP Fit Center  947 is at  10.931600 -3.406029  0.666336
      ESP Fit Center  948 is at  10.389903 -2.531158  0.666336
      ESP Fit Center  949 is at   9.568745 -6.923963  0.666336
      ESP Fit Center  950 is at  10.389903 -6.303854  0.666336
      ESP Fit Center  951 is at  10.931600 -5.428983  0.666336
      ESP Fit Center  952 is at  10.907541 -4.417506 -0.405178
      ESP Fit Center  953 is at  10.683895 -3.365334 -0.405178
      ESP Fit Center  954 is at  10.051627 -2.495092 -0.405178
      ESP Fit Center  955 is at   9.120063 -6.877759 -0.405178
      ESP Fit Center  956 is at  10.051627 -6.339920 -0.405178
      ESP Fit Center  957 is at  10.683895 -5.469678 -0.405178
      ESP Fit Center  958 is at  10.300577 -4.417506 -1.313563
      ESP Fit Center  959 is at  10.035321 -3.427557 -1.313563
      ESP Fit Center  960 is at   9.310627 -6.132149 -1.313563
      ESP Fit Center  961 is at  10.035321 -5.407455 -1.313563
      ESP Fit Center  962 is at   9.392192 -4.417506 -1.920527
      ESP Fit Center  963 is at   8.856435 -5.345464 -1.920527
      ESP Fit Center  964 is at   8.320678 -4.417506 -2.133664
      ESP Fit Center  965 is at   7.510408 -6.545362  3.025335
      ESP Fit Center  966 is at   8.474538 -6.569940  2.727392
      ESP Fit Center  967 is at   7.034538 -7.401324  2.727392
      ESP Fit Center  968 is at   7.994538 -7.401324  2.727392
      ESP Fit Center  969 is at   7.000714 -8.151327  2.024623
      ESP Fit Center  970 is at   8.028362 -8.151327  2.024623
      ESP Fit Center  971 is at   8.859746 -7.547291  2.024623
      ESP Fit Center  972 is at   6.554538 -8.232709  1.064623
      ESP Fit Center  973 is at   7.514538 -8.489940  1.064623
      ESP Fit Center  974 is at   8.474538 -8.232709  1.064623
      ESP Fit Center  975 is at   9.177307 -7.529940  1.064623
      ESP Fit Center  976 is at   7.000714 -8.151327  0.104623
      ESP Fit Center  977 is at   8.028362 -8.151327  0.104623
      ESP Fit Center  978 is at   8.859746 -7.547291  0.104623
      ESP Fit Center  979 is at   7.994538 -7.401324 -0.598146
      ESP Fit Center  980 is at   6.424744 -5.402002  3.675884
      ESP Fit Center  981 is at   7.384744 -5.402002  3.418653
      ESP Fit Center  982 is at   6.904744 -4.570618  3.418653
      ESP Fit Center  983 is at   5.944744 -4.570618  3.418653
      ESP Fit Center  984 is at   5.464744 -5.402002  3.418653
      ESP Fit Center  985 is at   5.944744 -6.233386  3.418653
      ESP Fit Center  986 is at   6.904744 -6.233386  3.418653
      ESP Fit Center  987 is at   5.079536 -4.424651  2.715884
      ESP Fit Center  988 is at   4.761975 -5.402002  2.715884
      ESP Fit Center  989 is at   5.079536 -6.379353  2.715884
      ESP Fit Center  990 is at   5.910920 -6.983389  2.715884
      ESP Fit Center  991 is at   4.761975 -4.442002  1.755884
      ESP Fit Center  992 is at   4.504744 -5.402002  1.755884
      ESP Fit Center  993 is at   4.761975 -6.362002  1.755884
      ESP Fit Center  994 is at   4.261225 -5.294555  1.162406
      ESP Fit Center  995 is at   6.582273 -8.104360  0.200080
      ESP Fit Center  996 is at   3.721786 -5.823197 -0.868020
      ESP Fit Center  997 is at   6.582273 -8.104360 -0.868020
      ESP Fit Center  998 is at   4.261225 -6.351839 -1.830346
      ESP Fit Center  999 is at   5.540953 -4.921387 -2.496295
      ESP Fit Center 1000 is at   5.020292 -5.823197 -2.496295
      ESP Fit Center 1001 is at   4.406695 -6.636354  1.518377
      ESP Fit Center 1002 is at   4.886695 -7.467738  1.518377
      ESP Fit Center 1003 is at   3.703926 -6.636354  0.815608
      ESP Fit Center 1004 is at   4.021487 -7.613705  0.815608
      ESP Fit Center 1005 is at   4.852871 -8.217741  0.815608
      ESP Fit Center 1006 is at   5.880519 -8.217741  0.815608
      ESP Fit Center 1007 is at   3.446695 -6.636354 -0.144392
      ESP Fit Center 1008 is at   3.703926 -7.596354 -0.144392
      ESP Fit Center 1009 is at   4.406695 -8.299123 -0.144392
      ESP Fit Center 1010 is at   5.366695 -8.556354 -0.144392
      ESP Fit Center 1011 is at   6.326695 -8.299123 -0.144392
      ESP Fit Center 1012 is at   3.703926 -6.636354 -1.104392
      ESP Fit Center 1013 is at   4.021487 -7.613705 -1.104392
      ESP Fit Center 1014 is at   4.852871 -8.217741 -1.104392
      ESP Fit Center 1015 is at   5.880519 -8.217741 -1.104392
      ESP Fit Center 1016 is at   4.886695 -7.467738 -1.807161
      ESP Fit Center 1017 is at   3.811262 -4.931878  0.435395
      ESP Fit Center 1018 is at   3.554031 -4.931878 -0.524605
      ESP Fit Center 1019 is at   4.128823 -3.954527 -1.484605
      ESP Fit Center 1020 is at   3.811262 -4.931878 -1.484605
      ESP Fit Center 1021 is at   4.994031 -4.100494 -2.187374
      ESP Fit Center 1022 is at   4.514031 -4.931878 -2.187374
      ESP Fit Center 1023 is at   7.583254 -7.718664 -1.231232
      ESP Fit Center 1024 is at   8.286023 -7.015895 -1.231232
      ESP Fit Center 1025 is at   8.286023 -6.055895 -2.191232
      ESP Fit Center 1026 is at   7.968462 -5.078544 -2.191232
      ESP Fit Center 1027 is at   7.137078 -4.474508 -2.191232
      ESP Fit Center 1028 is at   6.109430 -7.637282 -2.191232
      ESP Fit Center 1029 is at   7.137078 -7.637282 -2.191232
      ESP Fit Center 1030 is at   7.968462 -7.033246 -2.191232
      ESP Fit Center 1031 is at   7.583254 -6.055895 -2.894001
      ESP Fit Center 1032 is at   7.103254 -5.224511 -2.894001
      ESP Fit Center 1033 is at   6.143254 -5.224511 -2.894001
      ESP Fit Center 1034 is at   5.663254 -6.055895 -2.894001
      ESP Fit Center 1035 is at   6.143254 -6.887279 -2.894001
      ESP Fit Center 1036 is at   7.103254 -6.887279 -2.894001
      ESP Fit Center 1037 is at   6.623254 -6.055895 -3.151232
      ESP Fit Center 1038 is at  -7.301087  2.158171  4.985035
      ESP Fit Center 1039 is at  -6.267842  2.158171  4.779510
      ESP Fit Center 1040 is at  -6.784464  3.052988  4.779510
      ESP Fit Center 1041 is at  -7.572793  4.047927  4.194223
      ESP Fit Center 1042 is at  -7.856160  4.590104  3.318280
      ESP Fit Center 1043 is at  -7.301087  4.858171  2.285035
      ESP Fit Center 1044 is at  -8.334332  4.652646  2.285035
      ESP Fit Center 1045 is at  -9.210275  4.067359  2.285035
      ESP Fit Center 1046 is at  -6.746014  4.590104  1.251790
      ESP Fit Center 1047 is at  -7.856160  4.590104  1.251790
      ESP Fit Center 1048 is at  -9.795562  2.158171  1.251790
[...]
 1347 Fit       0.000677
 1348 Fit       0.001768
 1349 Fit       0.005646
 1350 Fit       0.003384
 1351 Fit       0.006565
 1352 Fit      -0.001044
 1353 Fit       0.004860
 1354 Fit      -0.001038
 1355 Fit       0.004331
 1356 Fit       0.003455
 1357 Fit      -0.001224
 1358 Fit       0.008588
 1359 Fit       0.001311
 1360 Fit      -0.001275
 1361 Fit       0.001896
 1362 Fit       0.001081
 1363 Fit       0.004536
 1364 Fit       0.007197
 1365 Fit       0.003513
 1366 Fit      -0.008238
 1367 Fit      -0.014119
 1368 Fit      -0.010213
 1369 Fit      -0.011569
 1370 Fit      -0.016382
 1371 Fit      -0.014978
 1372 Fit      -0.007868
 1373 Fit      -0.008368
 1374 Fit      -0.014749
 1375 Fit      -0.016632
 1376 Fit      -0.013804
 1377 Fit      -0.007019
 1378 Fit       0.003192
 1379 Fit       0.001313
 1380 Fit      -0.007396
 1381 Fit      -0.013837
 1382 Fit      -0.016551
 1383 Fit      -0.014811
 1384 Fit      -0.009019
 1385 Fit      -0.000129
 1386 Fit      -0.009099
 1387 Fit      -0.015268
 1388 Fit      -0.017512
 1389 Fit      -0.015152
 1390 Fit      -0.008548
 1391 Fit      -0.013133
 1392 Fit      -0.018203
 1393 Fit      -0.018550
 1394 Fit      -0.013905
 1395 Fit      -0.005011
 1396 Fit      -0.010306
 1397 Fit      -0.017256
 1398 Fit      -0.019436
 1399 Fit      -0.015638
 1400 Fit      -0.007435
 1401 Fit      -0.013292
 1402 Fit      -0.017041
 1403 Fit      -0.011432
 1404 Fit      -0.003482
 1405 Fit      -0.000594
 1406 Fit      -0.005828
 1407 Fit      -0.010806
 1408 Fit      -0.003996
 1409 Fit       0.001218
 1410 Fit       0.000075
 1411 Fit       0.004661
 1412 Fit      -0.000317
 1413 Fit       0.001540
 1414 Fit      -0.000035
 1415 Fit      -0.000178
 1416 Fit      -0.004897
 1417 Fit      -0.000145
 1418 Fit      -0.003880
 1419 Fit      -0.001202
 1420 Fit      -0.000913
 1421 Fit       0.008806
 1422 Fit       0.003687
 1423 Fit       0.005269
 1424 Fit      -0.000387
 1425 Fit       0.001907
 1426 Fit      -0.000944
 1427 Fit      -0.003080
 1428 Fit       0.000031
 1429 Fit      -0.000627
 1430 Fit      -0.003580
 1431 Fit       0.000609
 1432 Fit      -0.000982
 1433 Fit      -0.006610
 1434 Fit       0.001677
 1435 Fit      -0.000336
 1436 Fit       0.005017
 1437 Fit       0.005253
 1438 Fit       0.005089
 1439 Fit       0.010042
 1440 Fit      -0.011956
 1441 Fit      -0.018052
 1442 Fit      -0.013082
 1443 Fit      -0.005876
 1444 Fit      -0.001502
 1445 Fit      -0.005478
 1446 Fit      -0.013830
 1447 Fit      -0.020092
 1448 Fit      -0.016270
 1449 Fit      -0.008417
 1450 Fit      -0.003116
 1451 Fit      -0.011282
 1452 Fit      -0.018124
 1453 Fit      -0.019322
 1454 Fit      -0.015576
 1455 Fit      -0.007845
 1456 Fit      -0.003022
 1457 Fit      -0.012365
 1458 Fit      -0.018182
 1459 Fit      -0.017672
 1460 Fit      -0.013776
 1461 Fit      -0.006395
 1462 Fit      -0.003302
 1463 Fit      -0.012032
 1464 Fit      -0.017082
 1465 Fit      -0.016754
 1466 Fit      -0.012517
 1467 Fit      -0.004896
 1468 Fit       0.004719
 1469 Fit      -0.004209
 1470 Fit      -0.012058
 1471 Fit      -0.016581
 1472 Fit      -0.016901
 1473 Fit      -0.011960
 1474 Fit      -0.002406
 1475 Fit      -0.005217
 1476 Fit      -0.012612
 1477 Fit      -0.016998
 1478 Fit      -0.016947
 1479 Fit      -0.010454
 1480 Fit      -0.011591
 1481 Fit      -0.016943
 1482 Fit      -0.014996
 1483 Fit      -0.012788
 1484 Fit      -0.009518
 1485 Fit       0.001644
 1486 Fit       0.009918
 1487 Fit       0.006057
 1488 Fit       0.003788
 1489 Fit       0.008733
 1490 Fit       0.007949
 1491 Fit       0.006407
 1492 Fit       0.002494
 1493 Fit       0.009536
 1494 Fit       0.008426
 1495 Fit       0.006445
 1496 Fit       0.002417
 1497 Fit       0.008634
 1498 Fit       0.006872
 1499 Fit       0.003044
 1500 Fit       0.005184
 1501 Fit      -0.002293
 1502 Fit       0.001776
 1503 Fit       0.008550
 1504 Fit       0.008655
 1505 Fit       0.006928
 1506 Fit       0.003466
 1507 Fit       0.014307
 1508 Fit       0.011087
 1509 Fit       0.009477
 1510 Fit       0.008604
 1511 Fit       0.013022
 1512 Fit       0.010408
 1513 Fit       0.011220
 1514 Fit       0.003769
 1515 Fit       0.007780
 1516 Fit       0.003188
 1517 Fit       0.004748
 1518 Fit       0.003238
 1519 Fit       0.003535
 1520 Fit       0.006341
 1521 Fit       0.004049
 1522 Fit       0.009247
 1523 Fit       0.009537
 1524 Fit       0.006236
 1525 Fit       0.007104
 1526 Fit       0.008349
 1527 Fit       0.008946
 1528 Fit       0.010373
 1529 Fit       0.003996
 1530 Fit       0.005605
 1531 Fit       0.007106
 1532 Fit       0.007595
 1533 Fit       0.007470
 1534 Fit       0.004593
 1535 Fit       0.005695
 1536 Fit       0.005620
 1537 Fit       0.003953
 1538 Fit       0.003731
 1539 Fit       0.005735
 1540 Fit       0.003643
 1541 Fit       0.013054
 1542 Fit       0.005997
 1543 Fit       0.004626
 1544 Fit       0.000193
 1545 Fit      -0.004975
 1546 Fit       0.004121
 1547 Fit       0.003953
 1548 Fit       0.001373
 1549 Fit       0.001449
 1550 Fit       0.002133
 1551 Fit       0.005060
 1552 Fit       0.004170
 1553 Fit       0.004165
 1554 Fit       0.003838
 1555 Fit       0.003954
 1556 Fit       0.006337
 1557 Fit       0.005069
 1558 Fit       0.004215
 1559 Fit       0.003696
 1560 Fit       0.003005
 1561 Fit       0.002560
 1562 Fit       0.003681
 1563 Fit       0.001851
 1564 Fit       0.002217
 1565 Fit       0.003029
 1566 Fit       0.004093
 1567 Fit       0.006782
 1568 Fit       0.000020
 1569 Fit       0.001136
 1570 Fit       0.005920
 1571 Fit      -0.003135
 1572 Fit       0.003024
 1573 Fit       0.003484
 1574 Fit       0.000583
 1575 Fit       0.002692
 1576 Fit       0.003431
 1577 Fit       0.003287
 1578 Fit      -0.002570
 1579 Fit       0.001708
 1580 Fit       0.003052
 1581 Fit       0.003160
 1582 Fit       0.002772
 1583 Fit       0.001317
 1584 Fit       0.002425
 1585 Fit       0.002416
 1586 Fit       0.000481
 1587 Fit       0.001095
 1588 Fit       0.001700
 1589 Fit       0.002724
 1590 Fit       0.003545
 1591 Fit       0.004236
 1592 Fit       0.004999
 1593 Fit      -0.000941
 1594 Fit       0.001840
 1595 Fit       0.003302
 1596 Fit       0.004241
 1597 Fit       0.004838
 1598 Fit       0.005268
 1599 Fit       0.005221
 1600 Fit      -0.002028
 1601 Fit       0.002083
 1602 Fit       0.003937
 1603 Fit       0.004441
 1604 Fit       0.002895
 1605 Fit      -0.002814
 1606 Fit       0.002356
 1607 Fit       0.006983
 1608 Fit       0.004903
 1609 Fit       0.006163
 1610 Fit       0.007799
 1611 Fit       0.009048
 1612 Fit       0.004509
 1613 Fit       0.006066
 1614 Fit       0.007484
 1615 Fit       0.008682
 1616 Fit       0.010097
 1617 Fit       0.003768
 1618 Fit       0.005194
 1619 Fit       0.006523
 1620 Fit       0.007674
 1621 Fit       0.008926
 1622 Fit       0.010991
 1623 Fit       0.004182
 1624 Fit       0.005437
 1625 Fit       0.006620
 1626 Fit       0.008124
 1627 Fit       0.010544
 1628 Fit      -0.004890
 1629 Fit       0.011014
 1630 Fit       0.010365
 1631 Fit       0.009860
 1632 Fit       0.009925
 1633 Fit       0.001393
 1634 Fit       0.006917
 1635 Fit       0.004764
 1636 Fit       0.005385
 1637 Fit       0.007370
 1638 Fit       0.008522
 1639 Fit       0.008039
 1640 Fit       0.006618
 1641 Fit       0.001005
 1642 Fit       0.001533
 1643 Fit       0.009999
 1644 Fit       0.009120
 1645 Fit       0.008487
 1646 Fit       0.007443
 1647 Fit       0.004354
 1648 Fit       0.009857
 1649 Fit       0.010443
 1650 Fit       0.009949
 1651 Fit       0.009834
 1652 Fit       0.009733
 1653 Fit       0.009890
 1654 Fit       0.010486
 1655 Fit       0.008776
 1656 Fit       0.009273
 1657 Fit       0.009892
 1658 Fit       0.011260
 1659 Fit       0.007245
 1660 Fit       0.008194
 1661 Fit       0.009249
 1662 Fit       0.006037
 1663 Fit       0.007609
 1664 Fit      -0.005070
 1665 Fit      -0.004447
 1666 Fit      -0.001808
 1667 Fit       0.010912
 1668 Fit       0.009781
 1669 Fit       0.010099
 1670 Fit       0.001899
 1671 Fit       0.010516
 1672 Fit       0.011223
 1673 Fit       0.010519
 1674 Fit       0.010527
 1675 Fit       0.010460
 1676 Fit       0.010611
 1677 Fit       0.011055
 1678 Fit       0.012374
 1679 Fit       0.006755
 1680 Fit       0.009366
 1681 Fit       0.010499
 1682 Fit       0.011612
 1683 Fit       0.008591
 1684 Fit       0.010907
 1685 Fit       0.004517
 1686 Fit      -0.001202
 1687 Fit      -0.000161
 1688 Fit       0.006826
 1689 Fit       0.003349
 1690 Fit      -0.010795
 1691 Fit      -0.007555
 1692 Fit       0.008679
 1693 Fit       0.006899
 1694 Fit       0.003734
 1695 Fit      -0.002378
 1696 Fit       0.008783
 1697 Fit       0.006724
 1698 Fit       0.001860
 1699 Fit       0.012967
 1700 Fit       0.011484
 1701 Fit       0.007806
 1702 Fit       0.009717
 1703 Fit       0.007594
 1704 Fit       0.001451
 1705 Fit      -0.007395
 1706 Fit       0.009360
 1707 Fit       0.005383
 1708 Fit       0.000221
 1709 Fit      -0.006065
 1710 Fit       0.012769
 1711 Fit       0.009696
 1712 Fit       0.006545
 1713 Fit       0.002582
 1714 Fit      -0.001061
 1715 Fit       0.011752
 1716 Fit       0.009217
 1717 Fit       0.006432
 1718 Fit       0.004132
 1719 Fit       0.010192
 1720 Fit       0.007946
 1721 Fit       0.009658
 1722 Fit       0.005265
 1723 Fit       0.005489
 1724 Fit       0.008819
 1725 Fit       0.011137
 1726 Fit       0.009466
 1727 Fit       0.009087
 1728 Fit       0.010020
 1729 Fit       0.010068
 1730 Fit       0.010384
 1731 Fit      -0.014575
 1732 Fit      -0.016561
 1733 Fit      -0.016372
 1734 Fit      -0.015704
 1735 Fit      -0.016166
 1736 Fit      -0.017809
 1737 Fit      -0.010334
 1738 Fit      -0.009163
 1739 Fit      -0.002423
 1740 Fit       0.000843
 1741 Fit       0.004034
 1742 Fit       0.004183
 1743 Fit      -0.004552
 1744 Fit      -0.005052
 1745 Fit      -0.001789
 1746 Fit      -0.001415
 1747 Fit      -0.005434
 1748 Fit      -0.011209
 1749 Fit      -0.009940
 1750 Fit      -0.007765
 1751 Fit      -0.004433
 1752 Fit      -0.000829
 1753 Fit       0.000829
 1754 Fit      -0.000219
 1755 Fit      -0.010976
 1756 Fit      -0.004506
 1757 Fit       0.000653
 1758 Fit       0.002527
 1759 Fit       0.003250
 1760 Fit       0.005433
 1761 Fit       0.001028
 1762 Fit       0.003870
 1763 Fit      -0.002528
 1764 Fit      -0.003734
 1765 Fit       0.008376
 1766 Fit       0.009009
 1767 Fit      -0.006100
 1768 Fit       0.006855
 1769 Fit       0.000060
 1770 Fit       0.001117
 1771 Fit       0.004885
 1772 Fit      -0.002283
 1773 Fit       0.003685
 1774 Fit      -0.005755
 1775 Fit       0.000967
 1776 Fit       0.004717
 1777 Fit       0.006960
 1778 Fit      -0.003732
 1779 Fit       0.001765
 1780 Fit       0.004974
 1781 Fit       0.006865
 1782 Fit       0.008186
 1783 Fit      -0.005155
 1784 Fit       0.000708
 1785 Fit       0.004325
 1786 Fit       0.006433
 1787 Fit       0.008087
 1788 Fit       0.001340
 1789 Fit       0.004792
 1790 Fit       0.009524
 1791 Fit       0.009037
 1792 Fit       0.002904
 1793 Fit       0.003122
 1794 Fit       0.006139
 1795 Fit       0.008259
 1796 Fit       0.008231
 1797 Fit       0.005962
 1798 Fit       0.005842
 1799 Fit      -0.012997
 1800 Fit      -0.015512
 1801 Fit      -0.016654
 1802 Fit      -0.015207
 1803 Fit      -0.015859
 1804 Fit      -0.016090
 1805 Fit      -0.014674
 1806 Fit      -0.012486
 1807 Fit      -0.011424
 1808 Fit      -0.007129
 1809 Fit      -0.000789
 1810 Fit       0.004461
 1811 Fit      -0.001626
 1812 Fit       0.008956
 1813 Fit       0.004763
 1814 Fit      -0.000884
 1815 Fit      -0.000949
 1816 Fit       0.000935
 1817 Fit       0.006250
 1818 Fit       0.003027
 1819 Fit      -0.001903
 1820 Fit       0.002402
 1821 Fit      -0.011852
 1822 Fit      -0.007670
 1823 Fit      -0.008881
 1824 Fit      -0.014806
 1825 Fit      -0.011281
 1826 Fit      -0.012291
 1827 Fit      -0.009997
 1828 Fit      -0.000904
 1829 Fit       0.003434
 1830 Fit       0.000393
 1831 Fit      -0.003849
 1832 Fit      -0.005249
 1833 Fit       0.003212
 1834 Fit      -0.000947
 1835 Fit      -0.006720
 1836 Fit       0.000121
 1837 Fit      -0.005606
 1838 Fit       0.001411
 1839 Fit       0.003336
 1840 Fit      -0.003777
 1841 Fit       0.001657
 1842 Fit      -0.003925
 1843 Fit       0.002802
 1844 Fit      -0.000236
 1845 Fit       0.000423
 1846 Fit       0.001503
 1847 Fit      -0.007593
 1848 Fit      -0.001304
 1849 Fit      -0.001188
 1850 Fit      -0.006141
 1851 Fit      -0.011344
 1852 Fit      -0.011597
 1853 Fit      -0.006175
 1854 Fit      -0.014017
 1855 Fit      -0.013015
 1856 Fit      -0.008518
 1857 Fit      -0.001342
 1858 Fit      -0.012613
 1859 Fit      -0.013074
 1860 Fit      -0.011452
 1861 Fit      -0.006284
 1862 Fit       0.002348
 1863 Fit      -0.009222
 1864 Fit      -0.010899
 1865 Fit      -0.010117
 1866 Fit      -0.005883
 1867 Fit       0.001767
 1868 Fit      -0.004963
 1869 Fit      -0.008408
 1870 Fit      -0.009412
 1871 Fit      -0.007291
 1872 Fit      -0.002144
 1873 Fit      -0.004329
 1874 Fit      -0.008273
 1875 Fit      -0.008873
 1876 Fit      -0.005938
 1877 Fit       0.000210
 1878 Fit      -0.003885
 1879 Fit      -0.008507
 1880 Fit      -0.009477
 1881 Fit      -0.006596
 1882 Fit      -0.000110
 1883 Fit      -0.007799
 1884 Fit      -0.010107
 1885 Fit      -0.008262
 1886 Fit      -0.002281
 1887 Fit      -0.002310
 1888 Fit      -0.004126
 1889 Fit      -0.007069
 1890 Fit      -0.009498
 1891 Fit      -0.006028
 1892 Fit      -0.006906
 1893 Fit       0.005743
 1894 Fit       0.002746
 1895 Fit       0.002167
 1896 Fit       0.002146
 1897 Fit       0.003379
 1898 Fit       0.000380
 1899 Fit       0.000655
 1900 Fit       0.004332
 1901 Fit      -0.000045
 1902 Fit       0.004133
 1903 Fit       0.000536
 1904 Fit       0.004618
 1905 Fit       0.010875
 1906 Fit       0.000145
 1907 Fit       0.000643
 1908 Fit       0.003953
 1909 Fit       0.003263
 1910 Fit       0.000068
 1911 Fit       0.003555
 1912 Fit       0.002638
 1913 Fit      -0.001909
 1914 Fit       0.002475
 1915 Fit       0.007403
 1916 Fit      -0.000551
 1917 Fit       0.006226
 1918 Fit       0.000575
 1919 Fit      -0.001358
 1920 Fit       0.001060
 1921 Fit       0.000781
 1922 Fit       0.003218
 1923 Fit       0.004958
 1924 Fit       0.002259
 1925 Fit      -0.005173
 1926 Fit      -0.009955
 1927 Fit      -0.006888
 1928 Fit      -0.008917
 1929 Fit      -0.012425
 1930 Fit      -0.011347
 1931 Fit      -0.005886
 1932 Fit      -0.007073
 1933 Fit      -0.011907
 1934 Fit      -0.013348
 1935 Fit      -0.011354
 1936 Fit      -0.006287
 1937 Fit       0.000392
 1938 Fit      -0.006110
 1939 Fit      -0.010953
 1940 Fit      -0.013358
 1941 Fit      -0.012852
 1942 Fit      -0.009555
 1943 Fit      -0.004016
 1944 Fit       0.003471
 1945 Fit      -0.000507
 1946 Fit      -0.006293
 1947 Fit      -0.010886
 1948 Fit      -0.013517
 1949 Fit      -0.013640
 1950 Fit      -0.011172
 1951 Fit      -0.006437
 1952 Fit       0.000295
 1953 Fit      -0.008456
 1954 Fit      -0.012874
 1955 Fit      -0.014700
 1956 Fit      -0.013475
 1957 Fit      -0.009299
 1958 Fit      -0.002474
 1959 Fit      -0.005358
 1960 Fit      -0.011391
 1961 Fit      -0.014874
 1962 Fit      -0.015010
 1963 Fit      -0.011617
 1964 Fit      -0.005248
 1965 Fit      -0.008886
 1966 Fit      -0.013536
 1967 Fit      -0.014959
 1968 Fit      -0.012282
 1969 Fit      -0.006598
 1970 Fit      -0.010102
 1971 Fit      -0.012649
 1972 Fit      -0.008733
 1973 Fit      -0.003102
 1974 Fit      -0.001001
 1975 Fit      -0.004716
 1976 Fit      -0.008007
 1977 Fit      -0.002365
 1978 Fit       0.000560
 1979 Fit      -0.000625
 1980 Fit       0.000672
 1981 Fit      -0.001842
 1982 Fit      -0.000627
 1983 Fit      -0.001348
 1984 Fit      -0.001936
 1985 Fit      -0.004296
 1986 Fit      -0.001364
 1987 Fit      -0.004498
 1988 Fit      -0.001472
 1989 Fit      -0.001667
 1990 Fit       0.006772
 1991 Fit       0.002944
 1992 Fit       0.003842
 1993 Fit      -0.001001
 1994 Fit       0.001097
 1995 Fit      -0.001717
 1996 Fit      -0.003917
 1997 Fit      -0.001168
 1998 Fit      -0.000977
 1999 Fit      -0.001123
 2000 Fit      -0.001848
 2001 Fit      -0.005006
 2002 Fit      -0.000648
 2003 Fit      -0.001384
 2004 Fit       0.000816
 2005 Fit       0.003850
 2006 Fit       0.003944
 2007 Fit       0.007628
 2008 Fit       0.011753
 2009 Fit      -0.008779
 2010 Fit      -0.013420
 2011 Fit      -0.010028
 2012 Fit      -0.004717
 2013 Fit      -0.001472
 2014 Fit      -0.004279
 2015 Fit      -0.010361
 2016 Fit      -0.015540
 2017 Fit      -0.012992
 2018 Fit      -0.007742
 2019 Fit      -0.003258
 2020 Fit      -0.009215
 2021 Fit      -0.014085
 2022 Fit      -0.015714
 2023 Fit      -0.013164
 2024 Fit      -0.007790
 2025 Fit      -0.003853
 2026 Fit      -0.010537
 2027 Fit      -0.014793
 2028 Fit      -0.014897
 2029 Fit      -0.012372
 2030 Fit      -0.007404
 2031 Fit      -0.004799
 2032 Fit      -0.010905
 2033 Fit      -0.014414
 2034 Fit      -0.014046
 2035 Fit      -0.011565
 2036 Fit      -0.007011
 2037 Fit      -0.001150
 2038 Fit      -0.006179
 2039 Fit      -0.011202
 2040 Fit      -0.013941
 2041 Fit      -0.013666
 2042 Fit      -0.010665
 2043 Fit      -0.005213
 2044 Fit       0.001114
 2045 Fit      -0.005573
 2046 Fit      -0.010808
 2047 Fit      -0.013703
 2048 Fit      -0.013544
 2049 Fit      -0.009814
 2050 Fit      -0.004962
 2051 Fit      -0.010512
 2052 Fit      -0.013676
 2053 Fit      -0.012860
 2054 Fit      -0.008095
 2055 Fit      -0.008823
 2056 Fit      -0.012852
 2057 Fit      -0.010646
 2058 Fit      -0.008858
 2059 Fit      -0.006144
 2060 Fit       0.000894
 2061 Fit       0.005398
 2062 Fit       0.008493
 2063 Fit       0.007720
 2064 Fit       0.002372
 2065 Fit       0.006159
 2066 Fit       0.004461
 2067 Fit       0.000694
 2068 Fit       0.008805
 2069 Fit       0.007549
 2070 Fit       0.006355
 2071 Fit       0.004195
 2072 Fit       0.000054
 2073 Fit       0.007894
 2074 Fit       0.006547
 2075 Fit       0.004343
 2076 Fit       0.005151
 2077 Fit       0.003871
 2078 Fit      -0.001833
 2079 Fit       0.001096
 2080 Fit       0.006319
 2081 Fit       0.006750
 2082 Fit       0.005526
 2083 Fit       0.002618
 2084 Fit       0.010452
 2085 Fit       0.008655
 2086 Fit       0.007682
 2087 Fit       0.007065
 2088 Fit       0.006024
 2089 Fit       0.011855
 2090 Fit       0.008761
 2091 Fit       0.008477
 2092 Fit       0.008730
 2093 Fit       0.006181
 2094 Fit       0.003329
 2095 Fit       0.005400
 2096 Fit       0.005381
 2097 Fit       0.004369
 2098 Fit       0.002708
 2099 Fit       0.004018
 2100 Fit       0.003993
 2101 Fit       0.002909
 2102 Fit       0.003171
 2103 Fit       0.005448
 2104 Fit       0.003694
 2105 Fit       0.008752
 2106 Fit       0.008616
 2107 Fit       0.006189
 2108 Fit       0.006418
 2109 Fit       0.007357
 2110 Fit       0.008058
 2111 Fit       0.004176
 2112 Fit       0.005679
 2113 Fit       0.006674
 2114 Fit       0.007072
 2115 Fit       0.007488
 2116 Fit       0.003257
 2117 Fit       0.004782
 2118 Fit       0.005700
 2119 Fit       0.005886
 2120 Fit       0.005755
 2121 Fit       0.003595
 2122 Fit       0.004425
 2123 Fit       0.004482
 2124 Fit       0.001707
 2125 Fit       0.004189
 2126 Fit       0.010659
 2127 Fit       0.003953
 2128 Fit       0.002682
 2129 Fit      -0.001618
 2130 Fit      -0.003540
 2131 Fit       0.003563
 2132 Fit       0.003062
 2133 Fit       0.000809
 2134 Fit       0.001060
 2135 Fit       0.001864
 2136 Fit       0.004256
 2137 Fit       0.003667
 2138 Fit       0.003474
 2139 Fit       0.002895
 2140 Fit       0.003123
 Job cpu time:       0 days  0 hours  4 minutes 51.7 seconds.
 Normal termination of Gaussian 16 at Sat Jul  8 22:06:23 2023.
