 Copyright (c) 1988-2019, Gaussian, Inc.  All Rights Reserved.
  
 This is part of the Gaussian(R) 16 program.  It is based on
 the Gaussian(R) 09 system (copyright 2009, Gaussian, Inc.),
 the Gaussian(R) 03 system (copyright 2003, Gaussian, Inc.),
 the Gaussian(R) 98 system (copyright 1998, Gaussian, Inc.),
 the Gaussian(R) 94 system (copyright 1995, Gaussian, Inc.),
 the Gaussian 92(TM) system (copyright 1992, Gaussian, Inc.),
 the Gaussian 90(TM) system (copyright 1990, Gaussian, Inc.),
 the Gaussian 88(TM) system (copyright 1988, Gaussian, Inc.),
 the Gaussian 86(TM) system (copyright 1986, Carnegie Mellon
 University), and the Gaussian 82(TM) system (copyright 1983,
 Carnegie Mellon University). Gaussian is a federally registered
 trademark of Gaussian, Inc.
 Cite this work as:
 Gaussian 16, Revision C.01,
 M. J. Frisch, G. W. Trucks, H. B. Schlegel, G. E. Scuseria, 
 M. A. Robb, J. R. Cheeseman, G. Scalmani, V. Barone, 
 G. A. Petersson, H. Nakatsuji, X. Li, M. Caricato, A. V. Marenich, 
 J. Bloino, B. G. Janesko, R. Gomperts, B. Mennucci, H. P. Hratchian, 
 J. V. Ortiz, A. F. Izmaylov, J. L. Sonnenberg, D. Williams-Young, 
 F. Ding, F. Lipparini, F. Egidi, J. Goings, B. Peng, A. Petrone, 
 T. Henderson, D. Ranasinghe, V. G. Zakrzewski, J. Gao, N. Rega, 
 G. Zheng, W. Liang, M. Hada, M. Ehara, K. Toyota, R. Fukuda, 
 J. Hasegawa, M. Ishida, T. Nakajima, Y. Honda, O. Kitao, H. Nakai, 
 T. Vreven, K. Throssell, J. A. Montgomery, Jr., J. E. Peralta, 
 F. Ogliaro, M. J. Bearpark, J. J. Heyd, E. N. Brothers, K. N. Kudin, 
 V. N. Staroverov, T. A. Keith, R. Kobayashi, J. Normand, 
 K. Raghavachari, A. P. Rendell, J. C. Burant, S. S. Iyengar, 
 J. Tomasi, M. Cossi, J. M. Millam, M. Klene, C. Adamo, R. Cammi, 
 J. W. Ochterski, R. L. Martin, K. Morokuma, O. Farkas, 
 J. B. Foresman, and D. J. Fox, Gaussian, Inc., Wallingford CT, 2019.
 
 ******************************************
 Gaussian 16:  EM64L-G16RevC.01  3-Jul-2019
                 8-Jul-2023 
 ******************************************
 ----------------------------------------------------------------------
 #P HF/6-31G(d) SCF(Conver=8,XQC,MaxConventionalCycles=64,MaxCycle=128)
  NoSymm Test Pop=mk IOp(6/33=2) GFInput GFPrint
 ----------------------------------------------------------------------
 1/38=1,172=1/1;
 2/12=2,15=1,17=6,18=5,40=1/2;
 3/5=1,6=6,7=1,11=9,24=110,25=1,30=1/1,2,3;
 4//1;
 5/5=2,6=8,7=128,8=3,13=1,38=5,85=64/2,8;
 6/7=2,8=2,9=2,10=2,15=8,20=1,28=1,33=2/1,2;
 99/5=1,9=1/99;
 -------------------------------------------------
 MEP step - Input generated by PyRED DVE-DMDS-OPLS
 -------------------------------------------------
 Symbolic Z-matrix:
 Charge =  0 Multiplicity = 1
 C                    -5.11558  -3.31336   4.10812 
 H                    -4.40441  -2.98939   4.86194 
 H                    -6.07761  -2.86625   4.34295 
 H                    -5.21127  -4.3915    4.1772 
 C                    -4.66714  -2.91131   2.71021 
 H                    -5.39862  -3.24015   1.98164 
 H                    -4.58128  -1.83472   2.62445 
 O                    -3.45731  -3.52951   2.35305 
 C                    -2.27684  -2.87488   2.71368 
 H                    -1.56426  -3.63313   3.02273 
 H                    -2.43472  -2.20684   3.55575 
 C                    -1.68185  -2.09868   1.55789 
 H                    -0.68211  -1.76525   1.81645 
 H                    -1.60737  -2.75012   0.69154 
 O                    -2.51133  -1.00398   1.2727 
 C                    -2.35523  -0.3859    0.03199 
 H                    -3.29122   0.12068  -0.17476 
 H                    -2.19039  -1.12278  -0.74994 
 C                    -1.24194   0.64249  -0.00261 
 H                    -1.3318    1.30177   0.85809 
 H                    -1.34539   1.2482   -0.90328 
 O                     0.        0.        0. 
 C                     1.09981   0.86006   0. 
 H                     1.08644   1.50075   0.87832 
 H                     1.07166   1.50367  -0.87715 
 C                     2.35326   0.        0. 
 H                     2.34259  -0.6746   -0.8469 
 H                     2.37061  -0.60653   0.89647 
 S                     3.89926   0.95061   0.00597 
 C                     4.03766   1.42973  -1.74587 
 H                     3.99132   0.54007  -2.36103 
 H                     3.21619   2.0783   -2.02032 
 C                     5.36528   2.15035  -1.9649 
 H                     6.1893    1.49074  -1.72213 
 H                     5.42182   3.01962  -1.32263 
 S                     5.49537   2.65169  -3.71002 
 C                     7.19025   3.30979  -3.77265 
 H                     7.43358   3.367    -4.82572 
 H                     7.86712   2.59096  -3.33026 
 C                     7.34493   4.68928  -3.13382 
 H                     6.66516   5.38377  -3.60866 
 H                     7.09595   4.66942  -2.0803 
 S                     9.02172   5.38436  -3.31721 
 C                     9.77832   5.06798  -1.69223 
 H                     10.70283   5.63263  -1.71854 
 H                     9.15668   5.51742  -0.92655 
 C                     10.06921   3.60706  -1.36488 
 H                     10.59289   3.53812  -0.41563 
 H                     9.15721   3.02682  -1.27587 
 H                     10.68732   3.15161  -2.12985 
 
 ITRead=  0  0  0  0  0  0  0  0  0  0  0  0  0  0  0  0  0  0  0  0
 ITRead=  0  0  0  0  0  0  0  0  0  0  0  0  0  0  0  0  0  0  0  0
 ITRead=  0  0  0  0  0  0  0  0  0  0
 MicOpt= -1 -1 -1 -1 -1 -1 -1 -1 -1 -1 -1 -1 -1 -1 -1 -1 -1 -1 -1 -1
 MicOpt= -1 -1 -1 -1 -1 -1 -1 -1 -1 -1 -1 -1 -1 -1 -1 -1 -1 -1 -1 -1
 MicOpt= -1 -1 -1 -1 -1 -1 -1 -1 -1 -1
 NAtoms=     50 NQM=       50 NQMF=       0 NMMI=      0 NMMIF=      0
                NMic=       0 NMicF=      0.
                          Input orientation:                          
 ---------------------------------------------------------------------
 Center     Atomic      Atomic             Coordinates (Angstroms)
 Number     Number       Type             X           Y           Z
 ---------------------------------------------------------------------
      1          6           0       -5.115576   -3.313361    4.108116
      2          1           0       -4.404414   -2.989390    4.861936
      3          1           0       -6.077605   -2.866249    4.342946
      4          1           0       -5.211273   -4.391501    4.177201
      5          6           0       -4.667144   -2.911310    2.710211
      6          1           0       -5.398617   -3.240154    1.981636
      7          1           0       -4.581281   -1.834722    2.624453
      8          8           0       -3.457307   -3.529511    2.353054
      9          6           0       -2.276842   -2.874880    2.713683
     10          1           0       -1.564262   -3.633133    3.022730
     11          1           0       -2.434724   -2.206843    3.555754
     12          6           0       -1.681851   -2.098681    1.557887
     13          1           0       -0.682110   -1.765249    1.816452
     14          1           0       -1.607366   -2.750116    0.691540
     15          8           0       -2.511332   -1.003982    1.272702
     16          6           0       -2.355233   -0.385904    0.031985
     17          1           0       -3.291223    0.120682   -0.174757
     18          1           0       -2.190393   -1.122777   -0.749942
     19          6           0       -1.241937    0.642485   -0.002612
     20          1           0       -1.331802    1.301770    0.858090
     21          1           0       -1.345385    1.248198   -0.903283
     22          8           0        0.000000    0.000000    0.000000
     23          6           0        1.099807    0.860063    0.000000
     24          1           0        1.086439    1.500746    0.878321
     25          1           0        1.071664    1.503670   -0.877146
     26          6           0        2.353256    0.000000    0.000000
     27          1           0        2.342594   -0.674600   -0.846902
     28          1           0        2.370615   -0.606528    0.896473
     29         16           0        3.899261    0.950614    0.005966
     30          6           0        4.037665    1.429727   -1.745872
     31          1           0        3.991317    0.540074   -2.361029
     32          1           0        3.216187    2.078299   -2.020318
     33          6           0        5.365283    2.150350   -1.964904
     34          1           0        6.189295    1.490744   -1.722126
     35          1           0        5.421823    3.019617   -1.322628
     36         16           0        5.495372    2.651692   -3.710017
     37          6           0        7.190247    3.309791   -3.772650
     38          1           0        7.433578    3.366995   -4.825722
     39          1           0        7.867121    2.590955   -3.330264
     40          6           0        7.344926    4.689285   -3.133818
     41          1           0        6.665164    5.383765   -3.608663
     42          1           0        7.095953    4.669424   -2.080297
     43         16           0        9.021718    5.384358   -3.317212
     44          6           0        9.778320    5.067979   -1.692234
     45          1           0       10.702825    5.632628   -1.718542
     46          1           0        9.156680    5.517416   -0.926550
     47          6           0       10.069205    3.607057   -1.364882
     48          1           0       10.592892    3.538121   -0.415631
     49          1           0        9.157213    3.026824   -1.275872
     50          1           0       10.687322    3.151609   -2.129852
 ---------------------------------------------------------------------
 Stoichiometry    C14H30O3S3
 Framework group  C1[X(C14H30O3S3)]
 Standard basis: 6-31G(d) (6D, 7F)
   372 basis functions,   752 primitive gaussians,   372 cartesian basis functions
    93 alpha electrons       93 beta electrons
 Requested convergence on RMS density matrix=1.00D-08 within  64 cycles.
 Requested convergence on MAX density matrix=1.00D-06.
 Requested convergence on             energy=1.00D-06.
 SCF Done:  E(RHF) =  -1964.69369715     A.U. after   13 cycles
            NFock= 13  Conv=0.53D-08     -V/T= 2.0006
 Mulliken charges:
     1  C   -0.493941
     2  H    0.156997
     3  H    0.151876
     4  H    0.170329
     5  C    0.006928
     6  H    0.161809
     7  H    0.167728
     8  O   -0.631170
     9  C   -0.003542
    10  H    0.162097
    11  H    0.150503
    12  C    0.018247
    13  H    0.152740
    14  H    0.152630
    15  O   -0.637304
    16  C    0.003573
    17  H    0.170567
    18  H    0.158983
    19  C    0.004336
    20  H    0.155520
    21  H    0.138951
    22  O   -0.633729
    23  C    0.036549
    24  H    0.159663
    25  H    0.144184
    26  C   -0.497578
    27  H    0.205642
    28  H    0.212689
    29  S    0.119027
    30  C   -0.477670
    31  H    0.208547
    32  H    0.205667
    33  C   -0.480475
    34  H    0.204654
    35  H    0.203086
    36  S    0.125036
    37  C   -0.474951
    38  H    0.216601
    39  H    0.202471
    40  C   -0.478507
    41  H    0.217673
    42  H    0.193115
    43  S    0.114797
    44  C   -0.471657
    45  H    0.201368
    46  H    0.190831
    47  C   -0.476043
    48  H    0.171213
    49  H    0.158781
    50  H    0.181158
 Sum of Mulliken charges =  -0.00000
 Dipole moment (field-independent basis, Debye):
    X=              0.4344    Y=              1.2105    Z=              1.0975  Tot=              1.6907
 Quadrupole moment (field-independent basis, Debye-Ang):
   XX=           -143.5645   YY=           -162.9732   ZZ=           -158.5779
   XY=             -9.9394   XZ=             14.5081   YZ=             10.3829
 Traceless Quadrupole moment (field-independent basis, Debye-Ang):
   XX=             11.4741   YY=             -7.9347   ZZ=             -3.5393
   XY=             -9.9394   XZ=             14.5081   YZ=             10.3829
 Octapole moment (field-independent basis, Debye-Ang**2):
  XXX=          -1162.6366  YYY=           -524.2562  ZZZ=            324.0748  XYY=           -450.8835
  XXY=           -169.2185  XXZ=            203.9402  XZZ=           -504.8118  YZZ=           -216.8254
  YYZ=            140.0324  XYZ=             80.4879
 Hexadecapole moment (field-independent basis, Debye-Ang**3):
 XXXX=         -26528.9853 YYYY=          -8898.6270 ZZZZ=          -5442.3063 XXXY=          -7018.9832
 XXXZ=           6071.1389 YYYX=          -7788.5108 YYYZ=           3366.5278 ZZZX=           5371.6257
 ZZZY=           3034.7331 XXYY=          -6636.4247 XXZZ=          -6290.1903 YYZZ=          -2530.8724
 XXYZ=           1786.7773 YYXZ=           2318.9609 ZZXY=          -2786.6229
 Merz-Kollman atomic radii used.
 Atom Element Radius
    1     6    1.50
    2     1    1.20
    3     1    1.20
    4     1    1.20
    5     6    1.50
    6     1    1.20
    7     1    1.20
    8     8    1.40
    9     6    1.50
   10     1    1.20
   11     1    1.20
   12     6    1.50
   13     1    1.20
   14     1    1.20
   15     8    1.40
   16     6    1.50
   17     1    1.20
   18     1    1.20
   19     6    1.50
   20     1    1.20
   21     1    1.20
   22     8    1.40
   23     6    1.50
   24     1    1.20
   25     1    1.20
   26     6    1.50
   27     1    1.20
   28     1    1.20
   29    16    1.75
   30     6    1.50
   31     1    1.20
   32     1    1.20
   33     6    1.50
   34     1    1.20
   35     1    1.20
   36    16    1.75
   37     6    1.50
   38     1    1.20
   39     1    1.20
   40     6    1.50
   41     1    1.20
   42     1    1.20
   43    16    1.75
   44     6    1.50
   45     1    1.20
   46     1    1.20
   47     6    1.50
   48     1    1.20
   49     1    1.20
   50     1    1.20
 Generate VDW surfaces: Layer= 4 Dens= 1 Start= 1.400 Inc= 0.200
            Electrostatic Properties Using The SCF Density.


       Atomic Center    1 is at  -5.115576 -3.313361  4.108116
       Atomic Center    2 is at  -4.404414 -2.989390  4.861936
       Atomic Center    3 is at  -6.077605 -2.866249  4.342946
       Atomic Center    4 is at  -5.211273 -4.391501  4.177201
       Atomic Center    5 is at  -4.667144 -2.911310  2.710211
       Atomic Center    6 is at  -5.398617 -3.240154  1.981636
       Atomic Center    7 is at  -4.581281 -1.834722  2.624453
       Atomic Center    8 is at  -3.457307 -3.529511  2.353054
       Atomic Center    9 is at  -2.276842 -2.874880  2.713683
       Atomic Center   10 is at  -1.564262 -3.633133  3.022730
       Atomic Center   11 is at  -2.434724 -2.206843  3.555754
       Atomic Center   12 is at  -1.681851 -2.098681  1.557887
       Atomic Center   13 is at  -0.682110 -1.765249  1.816452
       Atomic Center   14 is at  -1.607366 -2.750116  0.691540
       Atomic Center   15 is at  -2.511332 -1.003982  1.272702
       Atomic Center   16 is at  -2.355233 -0.385904  0.031985
       Atomic Center   17 is at  -3.291223  0.120682 -0.174757
       Atomic Center   18 is at  -2.190393 -1.122777 -0.749942
       Atomic Center   19 is at  -1.241937  0.642485 -0.002612
       Atomic Center   20 is at  -1.331802  1.301770  0.858090
       Atomic Center   21 is at  -1.345385  1.248198 -0.903283
       Atomic Center   22 is at   0.000000  0.000000  0.000000
       Atomic Center   23 is at   1.099807  0.860063  0.000000
       Atomic Center   24 is at   1.086439  1.500746  0.878321
       Atomic Center   25 is at   1.071664  1.503670 -0.877146
       Atomic Center   26 is at   2.353256  0.000000  0.000000
       Atomic Center   27 is at   2.342594 -0.674600 -0.846902
       Atomic Center   28 is at   2.370615 -0.606528  0.896473
       Atomic Center   29 is at   3.899261  0.950614  0.005966
       Atomic Center   30 is at   4.037665  1.429727 -1.745872
       Atomic Center   31 is at   3.991317  0.540074 -2.361029
       Atomic Center   32 is at   3.216187  2.078299 -2.020318
       Atomic Center   33 is at   5.365283  2.150350 -1.964904
       Atomic Center   34 is at   6.189295  1.490744 -1.722126
       Atomic Center   35 is at   5.421823  3.019617 -1.322628
       Atomic Center   36 is at   5.495372  2.651692 -3.710017
       Atomic Center   37 is at   7.190247  3.309791 -3.772650
       Atomic Center   38 is at   7.433578  3.366995 -4.825722
       Atomic Center   39 is at   7.867121  2.590955 -3.330264
       Atomic Center   40 is at   7.344926  4.689285 -3.133818
       Atomic Center   41 is at   6.665164  5.383765 -3.608663
       Atomic Center   42 is at   7.095953  4.669424 -2.080297
       Atomic Center   43 is at   9.021718  5.384358 -3.317212
       Atomic Center   44 is at   9.778320  5.067979 -1.692234
       Atomic Center   45 is at  10.702825  5.632628 -1.718542
       Atomic Center   46 is at   9.156680  5.517416 -0.926550
       Atomic Center   47 is at  10.069205  3.607057 -1.364882
       Atomic Center   48 is at  10.592892  3.538121 -0.415631
       Atomic Center   49 is at   9.157213  3.026824 -1.275872
       Atomic Center   50 is at  10.687322  3.151609 -2.129852
      ESP Fit Center   51 is at  -5.640576 -2.404034  5.926769
      ESP Fit Center   52 is at  -5.640576 -4.222688  5.926769
      ESP Fit Center   53 is at  -5.374397 -1.513219  5.158116
      ESP Fit Center   54 is at  -6.860561 -3.825735  3.058116
      ESP Fit Center   55 is at  -4.404414 -2.989390  6.541936
      ESP Fit Center   56 is at  -3.416935 -2.989390  6.221085
      ESP Fit Center   57 is at  -4.099266 -2.050241  6.221085
      ESP Fit Center   58 is at  -5.203301 -2.408964  6.221085
      ESP Fit Center   59 is at  -5.203301 -3.569816  6.221085
      ESP Fit Center   60 is at  -4.099266 -3.928539  6.221085
      ESP Fit Center   61 is at  -2.806639 -2.989390  5.381085
      ESP Fit Center   62 is at  -3.180447 -1.962360  5.381085
      ESP Fit Center   63 is at  -4.126963 -1.415889  5.381085
      ESP Fit Center   64 is at  -5.203301 -1.605676  5.381085
      ESP Fit Center   65 is at  -3.180447 -4.016420  5.381085
      ESP Fit Center   66 is at  -4.126963 -1.415889  4.342787
      ESP Fit Center   67 is at  -6.077605 -2.866249  6.022946
      ESP Fit Center   68 is at  -5.772457 -1.927100  5.702095
      ESP Fit Center   69 is at  -6.876492 -2.285823  5.702095
      ESP Fit Center   70 is at  -6.876492 -3.446675  5.702095
      ESP Fit Center   71 is at  -5.800154 -1.292748  4.862095
      ESP Fit Center   72 is at  -6.876492 -1.482535  4.862095
      ESP Fit Center   73 is at  -7.579022 -2.319778  4.862095
      ESP Fit Center   74 is at  -7.579022 -3.412720  4.862095
      ESP Fit Center   75 is at  -6.876492 -4.249963  4.862095
      ESP Fit Center   76 is at  -5.800154 -1.292748  3.823797
      ESP Fit Center   77 is at  -6.876492 -1.482535  3.823797
      ESP Fit Center   78 is at  -7.579022 -2.319778  3.823797
      ESP Fit Center   79 is at  -7.579022 -3.412720  3.823797
      ESP Fit Center   80 is at  -6.876492 -2.285823  2.983797
      ESP Fit Center   81 is at  -6.010160 -4.971927  5.536350
      ESP Fit Center   82 is at  -4.906125 -5.330650  5.536350
      ESP Fit Center   83 is at  -6.712690 -4.937972  4.696350
      ESP Fit Center   84 is at  -6.010160 -5.775215  4.696350
      ESP Fit Center   85 is at  -4.933822 -5.965002  4.696350
      ESP Fit Center   86 is at  -3.987306 -5.418531  4.696350
      ESP Fit Center   87 is at  -6.712690 -4.937972  3.658052
      ESP Fit Center   88 is at  -6.010160 -5.775215  3.658052
      ESP Fit Center   89 is at  -4.933822 -5.965002  3.658052
      ESP Fit Center   90 is at  -3.987306 -5.418531  3.658052
      ESP Fit Center   91 is at  -6.010160 -4.971927  2.818052
      ESP Fit Center   92 is at  -4.906125 -5.330650  2.818052
      ESP Fit Center   93 is at  -6.239017 -1.518752  2.710211
      ESP Fit Center   94 is at  -6.706122 -2.408747  2.710211
      ESP Fit Center   95 is at  -6.900034 -2.693683  2.500785
      ESP Fit Center   96 is at  -6.900034 -3.786625  2.500785
      ESP Fit Center   97 is at  -6.197504 -4.623868  2.500785
      ESP Fit Center   98 is at  -6.197504 -1.856440  1.462487
      ESP Fit Center   99 is at  -6.900034 -2.693683  1.462487
      ESP Fit Center  100 is at  -6.900034 -3.786625  1.462487
      ESP Fit Center  101 is at  -6.197504 -4.623868  1.462487
      ESP Fit Center  102 is at  -5.121166 -4.813655  1.462487
      ESP Fit Center  103 is at  -4.411138 -3.240154  0.622487
      ESP Fit Center  104 is at  -5.093469 -2.301005  0.622487
      ESP Fit Center  105 is at  -6.197504 -2.659728  0.622487
      ESP Fit Center  106 is at  -6.197504 -3.820580  0.622487
      ESP Fit Center  107 is at  -5.093469 -4.179303  0.622487
      ESP Fit Center  108 is at  -5.398617 -3.240154  0.301636
      ESP Fit Center  109 is at  -4.276133 -0.895573  3.983602
      ESP Fit Center  110 is at  -3.357314 -0.807692  3.143602
      ESP Fit Center  111 is at  -4.303830 -0.261221  3.143602
      ESP Fit Center  112 is at  -5.380168 -0.451008  3.143602
      ESP Fit Center  113 is at  -6.082698 -1.288251  3.143602
      ESP Fit Center  114 is at  -4.303830 -0.261221  2.105304
      ESP Fit Center  115 is at  -5.380168 -0.451008  2.105304
      ESP Fit Center  116 is at  -6.082698 -1.288251  2.105304
      ESP Fit Center  117 is at  -5.380168 -1.254296  1.265304
      ESP Fit Center  118 is at  -2.967307 -4.378216  4.050464
      ESP Fit Center  119 is at  -2.932779 -5.143844  3.333054
      ESP Fit Center  120 is at  -4.437307 -5.226921  2.353054
      ESP Fit Center  121 is at  -3.457307 -5.489511  2.353054
      ESP Fit Center  122 is at  -2.477307 -5.226921  2.353054
      ESP Fit Center  123 is at  -3.981835 -5.143844  1.373054
      ESP Fit Center  124 is at  -2.932779 -5.143844  1.373054
      ESP Fit Center  125 is at  -2.084074 -4.527223  1.373054
      ESP Fit Center  126 is at  -3.947307 -2.680806  0.655644
      ESP Fit Center  127 is at  -3.947307 -4.378216  0.655644
      ESP Fit Center  128 is at  -2.967307 -4.378216  0.655644
      ESP Fit Center  129 is at  -3.457307 -3.529511  0.393054
      ESP Fit Center  130 is at  -1.226842 -2.874880  4.532336
      ESP Fit Center  131 is at  -2.801842 -3.784207  4.532336
      ESP Fit Center  132 is at  -0.746893 -1.891642  3.763683
      ESP Fit Center  133 is at  -1.564262 -3.633133  4.702730
      ESP Fit Center  134 is at  -0.576783 -3.633133  4.381879
      ESP Fit Center  135 is at  -2.363149 -4.213559  4.381879
      ESP Fit Center  136 is at  -1.259114 -4.572282  4.381879
      ESP Fit Center  137 is at   0.033513 -3.633133  3.541879
      ESP Fit Center  138 is at  -0.340295 -2.606103  3.541879
      ESP Fit Center  139 is at  -2.363149 -5.016847  3.541879
      ESP Fit Center  140 is at  -1.286811 -5.206634  3.541879
      ESP Fit Center  141 is at  -0.340295 -4.660163  3.541879
      ESP Fit Center  142 is at   0.033513 -3.633133  2.503581
      ESP Fit Center  143 is at  -1.286811 -5.206634  2.503581
      ESP Fit Center  144 is at  -0.340295 -4.660163  2.503581
      ESP Fit Center  145 is at  -1.259114 -4.572282  1.663581
      ESP Fit Center  146 is at  -2.434724 -2.206843  5.235754
      ESP Fit Center  147 is at  -1.447245 -2.206843  4.914903
      ESP Fit Center  148 is at  -2.129576 -1.267694  4.914903
      ESP Fit Center  149 is at  -3.233611 -1.626417  4.914903
      ESP Fit Center  150 is at  -2.129576 -3.145992  4.914903
      ESP Fit Center  151 is at  -1.210757 -1.179813  4.074903
      ESP Fit Center  152 is at  -2.157273 -0.633342  4.074903
      ESP Fit Center  153 is at  -3.233611 -0.823129  4.074903
      ESP Fit Center  154 is at  -0.488915 -3.826947  1.557887
      ESP Fit Center  155 is at  -3.426836 -2.611055  0.507887
      ESP Fit Center  156 is at   0.305369 -1.765249  3.175601
      ESP Fit Center  157 is at  -0.376962 -0.826100  3.175601
      ESP Fit Center  158 is at   0.915665 -1.765249  2.335601
      ESP Fit Center  159 is at   0.541857 -0.738219  2.335601
      ESP Fit Center  160 is at  -0.404659 -0.191748  2.335601
      ESP Fit Center  161 is at   0.541857 -2.792279  2.335601
      ESP Fit Center  162 is at   0.915665 -1.765249  1.297303
      ESP Fit Center  163 is at   0.541857 -2.792279  1.297303
      ESP Fit Center  164 is at  -1.329915 -4.323617  1.210689
      ESP Fit Center  165 is at  -0.383399 -3.777146  1.210689
      ESP Fit Center  166 is at  -0.009591 -2.750116  0.172391
      ESP Fit Center  167 is at  -3.108783 -3.296587  0.172391
      ESP Fit Center  168 is at  -2.406253 -4.133830  0.172391
      ESP Fit Center  169 is at  -1.329915 -4.323617  0.172391
      ESP Fit Center  170 is at  -0.383399 -3.777146  0.172391
      ESP Fit Center  171 is at  -0.619887 -2.750116 -0.667609
      ESP Fit Center  172 is at  -2.406253 -3.330542 -0.667609
      ESP Fit Center  173 is at  -1.302218 -3.689265 -0.667609
      ESP Fit Center  174 is at  -1.607366 -2.750116 -0.988460
      ESP Fit Center  175 is at  -2.021332 -0.155277  2.970112
      ESP Fit Center  176 is at  -3.001332 -0.155277  2.970112
      ESP Fit Center  177 is at  -1.138099 -0.006270  2.252702
      ESP Fit Center  178 is at  -1.986804  0.610351  2.252702
      ESP Fit Center  179 is at  -3.035860  0.610351  2.252702
      ESP Fit Center  180 is at  -3.884565 -0.006270  2.252702
      ESP Fit Center  181 is at  -4.208742 -0.023982  1.272702
      ESP Fit Center  182 is at  -3.884565 -2.001694  0.292702
      ESP Fit Center  183 is at  -3.927106 -1.778462  0.031985
      ESP Fit Center  184 is at  -2.880233  0.523423 -1.786668
      ESP Fit Center  185 is at  -3.405233 -0.385904 -1.786668
      ESP Fit Center  186 is at  -4.090110  0.701108  1.184392
      ESP Fit Center  187 is at  -4.090110  1.504396  0.344392
      ESP Fit Center  188 is at  -4.792640  0.667153  0.344392
      ESP Fit Center  189 is at  -4.792640 -0.425789  0.344392
      ESP Fit Center  190 is at  -3.013772  1.694183 -0.693906
      ESP Fit Center  191 is at  -4.090110  1.504396 -0.693906
      ESP Fit Center  192 is at  -4.792640  0.667153 -0.693906
      ESP Fit Center  193 is at  -4.792640 -0.425789 -0.693906
      ESP Fit Center  194 is at  -2.986075  1.059831 -1.533906
      ESP Fit Center  195 is at  -4.090110  0.701108 -1.533906
      ESP Fit Center  196 is at  -4.090110 -0.459744 -1.533906
      ESP Fit Center  197 is at  -3.291223  0.120682 -1.854757
      ESP Fit Center  198 is at  -3.691810 -1.669248 -1.269091
      ESP Fit Center  199 is at  -2.989280 -2.506491 -1.269091
      ESP Fit Center  200 is at  -1.912942 -2.696278 -1.269091
      ESP Fit Center  201 is at  -0.966426 -2.149807 -1.269091
      ESP Fit Center  202 is at  -1.202914 -1.122777 -2.109091
      ESP Fit Center  203 is at  -1.885245 -0.183628 -2.109091
      ESP Fit Center  204 is at  -2.989280 -0.542351 -2.109091
      ESP Fit Center  205 is at  -2.989280 -1.703203 -2.109091
      ESP Fit Center  206 is at  -1.885245 -2.061926 -2.109091
      ESP Fit Center  207 is at  -2.190393 -1.122777 -2.429942
      ESP Fit Center  208 is at  -0.988810  2.727174 -0.002612
      ESP Fit Center  209 is at  -1.986607  2.606019 -0.002612
      ESP Fit Center  210 is at  -2.813810  2.035043 -0.002612
      ESP Fit Center  211 is at  -0.716937 -0.266842 -1.821265
      ESP Fit Center  212 is at  -1.331802  1.301770  2.538090
      ESP Fit Center  213 is at  -0.344323  1.301770  2.217239
      ESP Fit Center  214 is at  -1.026654  2.240919  2.217239
      ESP Fit Center  215 is at  -2.130689  1.882196  2.217239
      ESP Fit Center  216 is at  -2.130689  0.721344  2.217239
      ESP Fit Center  217 is at  -1.026654  0.362621  2.217239
      ESP Fit Center  218 is at  -1.054351  2.875271  1.377239
      ESP Fit Center  219 is at  -2.130689  2.685484  1.377239
      ESP Fit Center  220 is at  -2.833219  1.848241  1.377239
      ESP Fit Center  221 is at  -1.054351  2.875271  0.338941
      ESP Fit Center  222 is at  -2.130689  2.685484  0.338941
      ESP Fit Center  223 is at  -1.067934  2.821699 -0.384134
      ESP Fit Center  224 is at  -2.144272  2.631912 -0.384134
      ESP Fit Center  225 is at  -1.067934  2.821699 -1.422432
      ESP Fit Center  226 is at  -2.144272  2.631912 -1.422432
      ESP Fit Center  227 is at  -2.846802  1.794669 -1.422432
      ESP Fit Center  228 is at  -0.357906  1.248198 -2.262432
      ESP Fit Center  229 is at  -1.040237  2.187347 -2.262432
      ESP Fit Center  230 is at  -2.144272  1.828624 -2.262432
      ESP Fit Center  231 is at  -2.144272  0.667772 -2.262432
      ESP Fit Center  232 is at  -1.040237  0.309049 -2.262432
      ESP Fit Center  233 is at  -1.345385  1.248198 -2.583283
      ESP Fit Center  234 is at   0.000000  0.000000  1.960000
      ESP Fit Center  235 is at  -0.000000 -1.960000  0.000000
      ESP Fit Center  236 is at   0.980000 -1.697410  0.000000
      ESP Fit Center  237 is at  -0.524528 -1.614333 -0.980000
      ESP Fit Center  238 is at   0.524528 -1.614333 -0.980000
      ESP Fit Center  239 is at  -0.490000 -0.848705 -1.697410
      ESP Fit Center  240 is at   0.490000 -0.848705 -1.697410
      ESP Fit Center  241 is at   0.000000  0.000000 -1.960000
      ESP Fit Center  242 is at   1.352934  2.944752  0.000000
      ESP Fit Center  243 is at   0.355137  2.823597  0.000000
      ESP Fit Center  244 is at   1.086439  1.500746  2.558321
      ESP Fit Center  245 is at   2.073918  1.500746  2.237470
      ESP Fit Center  246 is at   1.391587  2.439895  2.237470
      ESP Fit Center  247 is at   0.287552  2.081172  2.237470
      ESP Fit Center  248 is at   0.287552  0.920320  2.237470
      ESP Fit Center  249 is at   1.391587  0.561597  2.237470
      ESP Fit Center  250 is at   2.310406  2.527776  1.397470
      ESP Fit Center  251 is at   1.363890  3.074247  1.397470
      ESP Fit Center  252 is at   0.287552  2.884460  1.397470
      ESP Fit Center  253 is at   1.363890  3.074247  0.359172
      ESP Fit Center  254 is at   0.287552  2.884460  0.359172
      ESP Fit Center  255 is at   1.349115  3.077171 -0.357997
      ESP Fit Center  256 is at   0.272777  2.887384 -0.357997
      ESP Fit Center  257 is at   1.349115  3.077171 -1.396295
      ESP Fit Center  258 is at   0.272777  2.887384 -1.396295
      ESP Fit Center  259 is at   1.376812  2.442819 -2.236295
      ESP Fit Center  260 is at   0.272777  2.084096 -2.236295
      ESP Fit Center  261 is at   0.272777  0.923244 -2.236295
      ESP Fit Center  262 is at   1.376812  0.564521 -2.236295
      ESP Fit Center  263 is at   1.071664  1.503670 -2.557146
      ESP Fit Center  264 is at   1.608586 -1.963534  0.000000
      ESP Fit Center  265 is at   3.546192 -1.728266  0.000000
      ESP Fit Center  266 is at   1.543707 -2.058314 -0.327753
      ESP Fit Center  267 is at   2.620045 -2.248101 -0.327753
      ESP Fit Center  268 is at   3.566561 -1.701630 -0.327753
      ESP Fit Center  269 is at   0.841177 -1.221071 -1.366051
      ESP Fit Center  270 is at   1.543707 -2.058314 -1.366051
      ESP Fit Center  271 is at   2.620045 -2.248101 -1.366051
      ESP Fit Center  272 is at   3.566561 -1.701630 -1.366051
      ESP Fit Center  273 is at   1.543707 -0.094174 -2.206051
      ESP Fit Center  274 is at   1.543707 -1.255026 -2.206051
      ESP Fit Center  275 is at   2.647742 -1.613749 -2.206051
      ESP Fit Center  276 is at   2.342594 -0.674600 -2.526902
      ESP Fit Center  277 is at   2.370615 -0.606528  2.576473
      ESP Fit Center  278 is at   3.358094 -0.606528  2.255622
      ESP Fit Center  279 is at   2.675763  0.332621  2.255622
      ESP Fit Center  280 is at   1.571728 -0.026102  2.255622
      ESP Fit Center  281 is at   1.571728 -1.186954  2.255622
      ESP Fit Center  282 is at   2.675763 -1.545677  2.255622
      ESP Fit Center  283 is at   0.869198 -1.152999  1.415622
      ESP Fit Center  284 is at   1.571728 -1.990242  1.415622
      ESP Fit Center  285 is at   2.648066 -2.180029  1.415622
      ESP Fit Center  286 is at   3.594582 -1.633558  1.415622
      ESP Fit Center  287 is at   1.571728 -1.990242  0.377324
      ESP Fit Center  288 is at   2.648066 -2.180029  0.377324
      ESP Fit Center  289 is at   3.899261  0.950614  2.455966
      ESP Fit Center  290 is at   4.962276  0.950614  2.213340
      ESP Fit Center  291 is at   4.430769  1.871212  2.213340
      ESP Fit Center  292 is at   3.367753  1.871212  2.213340
      ESP Fit Center  293 is at   2.836246  0.950614  2.213340
      ESP Fit Center  294 is at   3.367753  0.030016  2.213340
      ESP Fit Center  295 is at   4.430769  0.030016  2.213340
      ESP Fit Center  296 is at   5.814748  0.950614  1.533516
      ESP Fit Center  297 is at   5.510671  1.986205  1.533516
      ESP Fit Center  298 is at   4.694983  2.693002  1.533516
      ESP Fit Center  299 is at   3.626659  2.846604  1.533516
      ESP Fit Center  300 is at   2.644884  2.398243  1.533516
      ESP Fit Center  301 is at   4.694983 -0.791774  1.533516
      ESP Fit Center  302 is at   5.510671 -0.084977  1.533516
      ESP Fit Center  303 is at   6.287834  0.950614  0.551142
      ESP Fit Center  304 is at   6.051291  1.986977  0.551142
      ESP Fit Center  305 is at   5.388512  2.818076  0.551142
      ESP Fit Center  306 is at   4.430769  3.279301  0.551142
      ESP Fit Center  307 is at   3.367753  3.279301  0.551142
      ESP Fit Center  308 is at   2.410010  2.818076  0.551142
      ESP Fit Center  309 is at   4.430769 -1.378073  0.551142
      ESP Fit Center  310 is at   5.388512 -0.916848  0.551142
      ESP Fit Center  311 is at   6.051291 -0.085749  0.551142
      ESP Fit Center  312 is at   3.367753  3.279301 -0.539210
      ESP Fit Center  313 is at   2.410010  2.818076 -0.539210
      ESP Fit Center  314 is at   4.430769 -1.378073 -0.539210
      ESP Fit Center  315 is at   5.388512 -0.916848 -0.539210
      ESP Fit Center  316 is at   6.051291 -0.085749 -0.539210
      ESP Fit Center  317 is at   4.694983 -0.791774 -1.521584
      ESP Fit Center  318 is at   5.510671 -0.084977 -1.521584
      ESP Fit Center  319 is at   2.987665  1.429727 -3.564525
      ESP Fit Center  320 is at   4.268768 -1.033427 -1.841880
      ESP Fit Center  321 is at   5.215284 -0.486956 -1.841880
      ESP Fit Center  322 is at   2.489900 -0.006397 -2.880178
      ESP Fit Center  323 is at   3.192430 -0.843640 -2.880178
      ESP Fit Center  324 is at   4.268768 -1.033427 -2.880178
      ESP Fit Center  325 is at   5.215284 -0.486956 -2.880178
      ESP Fit Center  326 is at   3.192430  1.120500 -3.720178
      ESP Fit Center  327 is at   3.192430 -0.040352 -3.720178
      ESP Fit Center  328 is at   4.296465 -0.399075 -3.720178
      ESP Fit Center  329 is at   3.991317  0.540074 -4.041029
      ESP Fit Center  330 is at   3.493638  3.651800 -1.501169
      ESP Fit Center  331 is at   2.417300  3.462013 -1.501169
      ESP Fit Center  332 is at   3.493638  3.651800 -2.539467
      ESP Fit Center  333 is at   2.417300  3.462013 -2.539467
      ESP Fit Center  334 is at   1.714770  2.624770 -2.539467
      ESP Fit Center  335 is at   1.714770  1.531828 -2.539467
      ESP Fit Center  336 is at   2.417300  2.658725 -3.379467
      ESP Fit Center  337 is at   2.417300  1.497873 -3.379467
      ESP Fit Center  338 is at   6.415283  2.150350 -0.146251
      ESP Fit Center  339 is at   7.176774  1.490744 -0.362977
      ESP Fit Center  340 is at   6.494443  0.551595 -0.362977
      ESP Fit Center  341 is at   7.787070  1.490744 -1.202977
      ESP Fit Center  342 is at   7.413262  2.517774 -1.202977
      ESP Fit Center  343 is at   6.466746 -0.082757 -1.202977
      ESP Fit Center  344 is at   7.413262  0.463714 -1.202977
      ESP Fit Center  345 is at   6.466746 -0.082757 -2.241275
      ESP Fit Center  346 is at   7.413262  0.463714 -2.241275
      ESP Fit Center  347 is at   5.421823  3.019617  0.357372
      ESP Fit Center  348 is at   6.409302  3.019617  0.036521
      ESP Fit Center  349 is at   5.726971  3.958766  0.036521
      ESP Fit Center  350 is at   4.622936  3.600043  0.036521
      ESP Fit Center  351 is at   7.019598  3.019617 -0.803479
      ESP Fit Center  352 is at   5.699274  4.593118 -0.803479
      ESP Fit Center  353 is at   4.622936  4.403331 -0.803479
      ESP Fit Center  354 is at   3.920406  3.566088 -0.803479
      ESP Fit Center  355 is at   4.622936  4.403331 -1.841777
      ESP Fit Center  356 is at   5.222770  4.547682 -2.182467
      ESP Fit Center  357 is at   4.240995  4.099321 -2.182467
      ESP Fit Center  358 is at   4.963864  4.980379 -3.164841
      ESP Fit Center  359 is at   4.006121  4.519154 -3.164841
      ESP Fit Center  360 is at   3.343342  3.688055 -3.164841
      ESP Fit Center  361 is at   6.026880  0.323005 -3.164841
      ESP Fit Center  362 is at   6.984623  0.784230 -3.164841
      ESP Fit Center  363 is at   4.963864  4.980379 -4.255193
      ESP Fit Center  364 is at   4.006121  4.519154 -4.255193
      ESP Fit Center  365 is at   3.343342  3.688055 -4.255193
      ESP Fit Center  366 is at   3.106799  2.651692 -4.255193
      ESP Fit Center  367 is at   3.343342  1.615329 -4.255193
      ESP Fit Center  368 is at   4.006121  0.784230 -4.255193
      ESP Fit Center  369 is at   4.963864  0.323005 -4.255193
      ESP Fit Center  370 is at   6.026880  0.323005 -4.255193
      ESP Fit Center  371 is at   6.984623  0.784230 -4.255193
      ESP Fit Center  372 is at   5.222770  4.547682 -5.237567
      ESP Fit Center  373 is at   4.240995  4.099321 -5.237567
      ESP Fit Center  374 is at   3.657476  3.191347 -5.237567
      ESP Fit Center  375 is at   3.657476  2.112037 -5.237567
      ESP Fit Center  376 is at   4.240995  1.204063 -5.237567
      ESP Fit Center  377 is at   5.222770  0.755702 -5.237567
      ESP Fit Center  378 is at   6.291094  0.909304 -5.237567
      ESP Fit Center  379 is at   7.106782  1.616101 -5.237567
      ESP Fit Center  380 is at   6.026880  3.572290 -5.917391
      ESP Fit Center  381 is at   4.963864  3.572290 -5.917391
      ESP Fit Center  382 is at   4.432357  2.651692 -5.917391
      ESP Fit Center  383 is at   4.963864  1.731094 -5.917391
      ESP Fit Center  384 is at   6.026880  1.731094 -5.917391
      ESP Fit Center  385 is at   5.495372  2.651692 -6.160017
      ESP Fit Center  386 is at   7.945743  1.655486 -4.822650
      ESP Fit Center  387 is at   9.031353  3.366995 -5.344871
      ESP Fit Center  388 is at   7.711029  4.940496 -5.344871
      ESP Fit Center  389 is at   6.634691  4.750709 -5.344871
      ESP Fit Center  390 is at   7.711029  1.793494 -5.344871
      ESP Fit Center  391 is at   8.657545  2.339965 -5.344871
      ESP Fit Center  392 is at   8.421057  3.366995 -6.184871
      ESP Fit Center  393 is at   7.738726  4.306144 -6.184871
      ESP Fit Center  394 is at   6.634691  3.947421 -6.184871
      ESP Fit Center  395 is at   6.634691  2.786569 -6.184871
      ESP Fit Center  396 is at   7.738726  2.427846 -6.184871
      ESP Fit Center  397 is at   7.433578  3.366995 -6.505722
      ESP Fit Center  398 is at   8.172269  1.651806 -1.971115
      ESP Fit Center  399 is at   8.144572  1.017454 -2.811115
      ESP Fit Center  400 is at   9.091088  1.563925 -2.811115
      ESP Fit Center  401 is at   9.464896  2.590955 -3.849413
      ESP Fit Center  402 is at   8.144572  1.017454 -3.849413
      ESP Fit Center  403 is at   9.091088  1.563925 -3.849413
      ESP Fit Center  404 is at   8.172269  1.651806 -4.689413
      ESP Fit Center  405 is at   7.086105  6.489427 -2.083818
      ESP Fit Center  406 is at   6.153961  6.063731 -2.083818
      ESP Fit Center  407 is at   5.866277  5.964191 -2.249514
      ESP Fit Center  408 is at   6.942615  6.957266 -3.089514
      ESP Fit Center  409 is at   5.866277  6.767479 -3.089514
      ESP Fit Center  410 is at   5.163747  5.930236 -3.089514
      ESP Fit Center  411 is at   6.942615  6.957266 -4.127812
      ESP Fit Center  412 is at   5.866277  6.767479 -4.127812
      ESP Fit Center  413 is at   5.163747  5.930236 -4.127812
      ESP Fit Center  414 is at   6.970312  6.322914 -4.967812
      ESP Fit Center  415 is at   5.866277  5.964191 -4.967812
      ESP Fit Center  416 is at   5.866277  4.803339 -4.967812
      ESP Fit Center  417 is at   6.665164  5.383765 -5.288663
      ESP Fit Center  418 is at   7.095953  4.669424 -0.400297
      ESP Fit Center  419 is at   7.401101  5.608573 -0.721148
      ESP Fit Center  420 is at   6.297066  5.249850 -0.721148
      ESP Fit Center  421 is at   7.401101  3.730275 -0.721148
      ESP Fit Center  422 is at   7.373404  6.242925 -1.561148
      ESP Fit Center  423 is at   6.297066  6.053138 -1.561148
      ESP Fit Center  424 is at   5.594536  5.215895 -1.561148
      ESP Fit Center  425 is at   7.373404  3.095923 -1.561148
      ESP Fit Center  426 is at   8.749116  7.280348 -1.789662
      ESP Fit Center  427 is at   7.767341  6.831987 -1.789662
      ESP Fit Center  428 is at  10.510969  7.251820 -2.772036
      ESP Fit Center  429 is at   9.553226  7.713045 -2.772036
      ESP Fit Center  430 is at   8.490210  7.713045 -2.772036
      ESP Fit Center  431 is at   7.532467  7.251820 -2.772036
      ESP Fit Center  432 is at  11.410291  5.384358 -3.862388
      ESP Fit Center  433 is at  11.173748  6.420721 -3.862388
      ESP Fit Center  434 is at  10.510969  7.251820 -3.862388
      ESP Fit Center  435 is at   9.553226  7.713045 -3.862388
      ESP Fit Center  436 is at   8.490210  7.713045 -3.862388
      ESP Fit Center  437 is at   7.532467  7.251820 -3.862388
      ESP Fit Center  438 is at   9.553226  3.055671 -3.862388
      ESP Fit Center  439 is at  10.510969  3.516896 -3.862388
      ESP Fit Center  440 is at  11.173748  4.347995 -3.862388
      ESP Fit Center  441 is at  10.937205  5.384358 -4.844762
      ESP Fit Center  442 is at  10.633128  6.419949 -4.844762
      ESP Fit Center  443 is at   9.817440  7.126746 -4.844762
      ESP Fit Center  444 is at   8.749116  7.280348 -4.844762
      ESP Fit Center  445 is at   7.767341  6.831987 -4.844762
      ESP Fit Center  446 is at   9.817440  3.641970 -4.844762
      ESP Fit Center  447 is at  10.633128  4.348767 -4.844762
      ESP Fit Center  448 is at  10.084733  5.384358 -5.524586
      ESP Fit Center  449 is at   9.553226  6.304956 -5.524586
      ESP Fit Center  450 is at   8.490210  6.304956 -5.524586
      ESP Fit Center  451 is at   7.958703  5.384358 -5.524586
      ESP Fit Center  452 is at   9.553226  4.463760 -5.524586
      ESP Fit Center  453 is at   9.021718  5.384358 -5.767212
      ESP Fit Center  454 is at  11.690304  5.632628 -0.359393
      ESP Fit Center  455 is at  11.007973  6.571777 -0.359393
      ESP Fit Center  456 is at  12.300600  5.632628 -1.199393
      ESP Fit Center  457 is at  11.926792  6.659658 -1.199393
      ESP Fit Center  458 is at  10.980276  7.206129 -1.199393
      ESP Fit Center  459 is at  11.926792  4.605598 -1.199393
      ESP Fit Center  460 is at  12.300600  5.632628 -2.237691
      ESP Fit Center  461 is at  11.926792  6.659658 -2.237691
      ESP Fit Center  462 is at  10.980276  7.206129 -2.237691
      ESP Fit Center  463 is at  11.926792  4.605598 -2.237691
      ESP Fit Center  464 is at  11.690304  5.632628 -3.077691
      ESP Fit Center  465 is at   9.156680  5.517416  0.753450
      ESP Fit Center  466 is at  10.144159  5.517416  0.432599
      ESP Fit Center  467 is at   9.461828  6.456565  0.432599
      ESP Fit Center  468 is at   8.357793  6.097842  0.432599
      ESP Fit Center  469 is at   8.357793  4.936990  0.432599
      ESP Fit Center  470 is at   9.461828  4.578267  0.432599
      ESP Fit Center  471 is at   9.434131  7.090917 -0.407401
      ESP Fit Center  472 is at   8.357793  6.901130 -0.407401
      ESP Fit Center  473 is at   7.655263  6.063887 -0.407401
      ESP Fit Center  474 is at   7.655263  4.970945 -0.407401
      ESP Fit Center  475 is at   8.357793  6.901130 -1.445699
      ESP Fit Center  476 is at   9.019205  3.607057  0.453771
      ESP Fit Center  477 is at   9.810384  1.806915 -0.314882
      ESP Fit Center  478 is at  12.169205  3.607057 -1.364882
      ESP Fit Center  479 is at  10.322332  1.522368 -1.364882
      ESP Fit Center  480 is at  10.592892  3.538121  1.264369
      ESP Fit Center  481 is at  11.580371  3.538121  0.943518
      ESP Fit Center  482 is at  10.898040  4.477270  0.943518
      ESP Fit Center  483 is at   9.794005  4.118547  0.943518
      ESP Fit Center  484 is at   9.794005  2.957695  0.943518
      ESP Fit Center  485 is at  10.898040  2.598972  0.943518
      ESP Fit Center  486 is at  12.190667  3.538121  0.103518
      ESP Fit Center  487 is at  11.816859  4.565151  0.103518
      ESP Fit Center  488 is at  10.870343  5.111622  0.103518
      ESP Fit Center  489 is at  10.870343  1.964620  0.103518
      ESP Fit Center  490 is at  11.816859  2.511091  0.103518
      ESP Fit Center  491 is at  12.190667  3.538121 -0.934780
      ESP Fit Center  492 is at  11.816859  2.511091 -0.934780
      ESP Fit Center  493 is at   8.358326  3.607250  0.083277
      ESP Fit Center  494 is at   8.358326  2.446398  0.083277
      ESP Fit Center  495 is at   9.462361  2.087675  0.083277
      ESP Fit Center  496 is at   7.655796  3.573295 -0.756723
      ESP Fit Center  497 is at   7.655796  2.480353 -0.756723
      ESP Fit Center  498 is at   8.358326  1.643110 -0.756723
      ESP Fit Center  499 is at   9.434664  1.453323 -0.756723
      ESP Fit Center  500 is at   8.358326  1.643110 -1.795021
      ESP Fit Center  501 is at   9.434664  1.453323 -1.795021
      ESP Fit Center  502 is at  12.285097  3.151609 -1.610703
      ESP Fit Center  503 is at  10.964773  1.578108 -1.610703
      ESP Fit Center  504 is at  11.911289  2.124579 -1.610703
      ESP Fit Center  505 is at  12.285097  3.151609 -2.649001
      ESP Fit Center  506 is at  11.911289  4.178639 -2.649001
      ESP Fit Center  507 is at   9.888435  1.767895 -2.649001
      ESP Fit Center  508 is at  10.964773  1.578108 -2.649001
      ESP Fit Center  509 is at  11.911289  2.124579 -2.649001
      ESP Fit Center  510 is at  11.674801  3.151609 -3.489001
      ESP Fit Center  511 is at   9.888435  2.571183 -3.489001
      ESP Fit Center  512 is at  10.992470  2.212460 -3.489001
      ESP Fit Center  513 is at  10.687322  3.151609 -3.809852
      ESP Fit Center  514 is at  -5.636236 -2.411551  6.270441
      ESP Fit Center  515 is at  -6.156897 -3.313361  6.270441
      ESP Fit Center  516 is at  -5.636236 -4.215171  6.270441
      ESP Fit Center  517 is at  -5.382615 -1.456064  5.604492
      ESP Fit Center  518 is at  -4.594916 -1.032198  4.642166
      ESP Fit Center  519 is at  -3.007465 -4.328574  4.642166
      ESP Fit Center  520 is at  -7.223687 -4.328574  3.574066
      ESP Fit Center  521 is at  -4.404414 -2.989390  6.781936
      ESP Fit Center  522 is at  -3.444414 -2.989390  6.524705
      ESP Fit Center  523 is at  -3.924414 -2.158006  6.524705
      ESP Fit Center  524 is at  -4.884414 -2.158006  6.524705
      ESP Fit Center  525 is at  -5.364414 -2.989390  6.524705
      ESP Fit Center  526 is at  -4.884414 -3.820774  6.524705
      ESP Fit Center  527 is at  -3.924414 -3.820774  6.524705
      ESP Fit Center  528 is at  -2.741645 -2.989390  5.821936
      ESP Fit Center  529 is at  -3.059206 -2.012039  5.821936
      ESP Fit Center  530 is at  -3.890590 -1.408003  5.821936
      ESP Fit Center  531 is at  -4.918238 -1.408003  5.821936
      ESP Fit Center  532 is at  -3.890590 -4.570777  5.821936
      ESP Fit Center  533 is at  -3.059206 -3.966741  5.821936
      ESP Fit Center  534 is at  -4.404414 -1.069390  4.861936
      ESP Fit Center  535 is at  -2.741645 -3.949390  4.861936
      ESP Fit Center  536 is at  -6.077605 -2.866249  6.262946
      ESP Fit Center  537 is at  -6.557605 -2.034865  6.005715
      ESP Fit Center  538 is at  -7.037605 -2.866249  6.005715
      ESP Fit Center  539 is at  -6.557605 -3.697633  6.005715
      ESP Fit Center  540 is at  -6.591429 -1.284862  5.302946
      ESP Fit Center  541 is at  -7.422813 -1.888898  5.302946
      ESP Fit Center  542 is at  -7.740374 -2.866249  5.302946
      ESP Fit Center  543 is at  -7.422813 -3.843600  5.302946
      ESP Fit Center  544 is at  -6.077605 -0.946249  4.342946
      ESP Fit Center  545 is at  -7.037605 -1.203480  4.342946
      ESP Fit Center  546 is at  -7.740374 -1.906249  4.342946
      ESP Fit Center  547 is at  -7.997605 -2.866249  4.342946
      ESP Fit Center  548 is at  -7.740374 -3.826249  4.342946
      ESP Fit Center  549 is at  -6.591429 -1.284862  3.382946
      ESP Fit Center  550 is at  -7.422813 -1.888898  3.382946
      ESP Fit Center  551 is at  -7.740374 -2.866249  3.382946
      ESP Fit Center  552 is at  -7.422813 -3.843600  3.382946
      ESP Fit Center  553 is at  -5.691273 -5.222885  5.839970
      ESP Fit Center  554 is at  -4.731273 -5.222885  5.839970
      ESP Fit Center  555 is at  -6.556481 -5.368852  5.137201
      ESP Fit Center  556 is at  -5.725097 -5.972888  5.137201
      ESP Fit Center  557 is at  -4.697449 -5.972888  5.137201
      ESP Fit Center  558 is at  -3.866065 -5.368852  5.137201
      ESP Fit Center  559 is at  -6.874042 -5.351501  4.177201
      ESP Fit Center  560 is at  -6.171273 -6.054270  4.177201
      ESP Fit Center  561 is at  -5.211273 -6.311501  4.177201
      ESP Fit Center  562 is at  -4.251273 -6.054270  4.177201
      ESP Fit Center  563 is at  -3.548504 -5.351501  4.177201
      ESP Fit Center  564 is at  -6.556481 -5.368852  3.217201
      ESP Fit Center  565 is at  -5.725097 -5.972888  3.217201
      ESP Fit Center  566 is at  -4.697449 -5.972888  3.217201
      ESP Fit Center  567 is at  -5.691273 -5.222885  2.514432
      ESP Fit Center  568 is at  -6.775255 -1.896097  2.176161
      ESP Fit Center  569 is at  -5.187804 -5.192473  2.176161
      ESP Fit Center  570 is at  -5.895922 -1.493225  1.213835
      ESP Fit Center  571 is at  -7.061386 -2.280154  1.981636
      ESP Fit Center  572 is at  -7.318617 -3.240154  1.981636
      ESP Fit Center  573 is at  -7.061386 -4.200154  1.981636
      ESP Fit Center  574 is at  -6.358617 -4.902923  1.981636
      ESP Fit Center  575 is at  -5.398617 -5.160154  1.981636
      ESP Fit Center  576 is at  -5.912441 -1.658767  1.021636
      ESP Fit Center  577 is at  -6.743825 -2.262803  1.021636
      ESP Fit Center  578 is at  -7.061386 -3.240154  1.021636
      ESP Fit Center  579 is at  -6.743825 -4.217505  1.021636
      ESP Fit Center  580 is at  -5.912441 -4.821541  1.021636
      ESP Fit Center  581 is at  -4.884793 -4.821541  1.021636
      ESP Fit Center  582 is at  -4.438617 -3.240154  0.318867
      ESP Fit Center  583 is at  -4.918617 -2.408770  0.318867
      ESP Fit Center  584 is at  -5.878617 -2.408770  0.318867
      ESP Fit Center  585 is at  -6.358617 -3.240154  0.318867
      ESP Fit Center  586 is at  -5.878617 -4.071538  0.318867
      ESP Fit Center  587 is at  -4.918617 -4.071538  0.318867
      ESP Fit Center  588 is at  -5.398617 -3.240154  0.061636
      ESP Fit Center  589 is at  -4.101281 -1.003338  4.287222
      ESP Fit Center  590 is at  -4.067457 -0.253335  3.584453
      ESP Fit Center  591 is at  -5.095105 -0.253335  3.584453
      ESP Fit Center  592 is at  -5.926489 -0.857371  3.584453
      ESP Fit Center  593 is at  -4.581281  0.085278  2.624453
      ESP Fit Center  594 is at  -5.541281 -0.171953  2.624453
      ESP Fit Center  595 is at  -6.244050 -0.874722  2.624453
      ESP Fit Center  596 is at  -5.095105 -0.253335  1.664453
      ESP Fit Center  597 is at  -5.926489 -0.857371  1.664453
      ESP Fit Center  598 is at  -5.061281 -1.003338  0.961684
      ESP Fit Center  599 is at  -2.916125 -5.195099  3.749671
      ESP Fit Center  600 is at  -4.231707 -5.571435  2.851501
      ESP Fit Center  601 is at  -3.194074 -5.697427  2.851501
      ESP Fit Center  602 is at  -4.231707 -5.571435  1.854607
      ESP Fit Center  603 is at  -3.194074 -5.697427  1.854607
      ESP Fit Center  604 is at  -2.216745 -5.326775  1.854607
      ESP Fit Center  605 is at  -3.998489 -5.195099  0.956437
      ESP Fit Center  606 is at  -2.916125 -5.195099  0.956437
      ESP Fit Center  607 is at  -3.943257 -2.687821  0.334884
      ESP Fit Center  608 is at  -4.429207 -3.529511  0.334884
      ESP Fit Center  609 is at  -3.943257 -4.371201  0.334884
      ESP Fit Center  610 is at  -2.971357 -4.371201  0.334884
      ESP Fit Center  611 is at  -3.457307 -3.529511  0.113054
      ESP Fit Center  612 is at  -1.564262 -3.633133  4.942730
      ESP Fit Center  613 is at  -0.604262 -3.633133  4.685499
      ESP Fit Center  614 is at  -2.044262 -4.464517  4.685499
      ESP Fit Center  615 is at  -1.084262 -4.464517  4.685499
      ESP Fit Center  616 is at   0.098507 -3.633133  3.982730
      ESP Fit Center  617 is at  -0.219054 -2.655782  3.982730
      ESP Fit Center  618 is at  -2.078086 -5.214520  3.982730
      ESP Fit Center  619 is at  -1.050438 -5.214520  3.982730
      ESP Fit Center  620 is at  -0.219054 -4.610484  3.982730
      ESP Fit Center  621 is at   0.355738 -3.633133  3.022730
      ESP Fit Center  622 is at  -1.564262 -5.553133  3.022730
      ESP Fit Center  623 is at  -0.604262 -5.295902  3.022730
      ESP Fit Center  624 is at   0.098507 -4.593133  3.022730
      ESP Fit Center  625 is at   0.098507 -3.633133  2.062730
      ESP Fit Center  626 is at  -1.050438 -5.214520  2.062730
      ESP Fit Center  627 is at  -0.219054 -4.610484  2.062730
      ESP Fit Center  628 is at  -2.434724 -2.206843  5.475754
      ESP Fit Center  629 is at  -1.474724 -2.206843  5.218523
      ESP Fit Center  630 is at  -1.954724 -1.375459  5.218523
      ESP Fit Center  631 is at  -2.914724 -1.375459  5.218523
      ESP Fit Center  632 is at  -1.954724 -3.038227  5.218523
      ESP Fit Center  633 is at  -0.771955 -2.206843  4.515754
      ESP Fit Center  634 is at  -1.089516 -1.229492  4.515754
      ESP Fit Center  635 is at  -1.920900 -0.625456  4.515754
      ESP Fit Center  636 is at  -2.948548 -0.625456  4.515754
      ESP Fit Center  637 is at  -1.474724 -0.544074  3.555754
      ESP Fit Center  638 is at  -2.434724 -0.286843  3.555754
      ESP Fit Center  639 is at  -3.394724 -0.544074  3.555754
      ESP Fit Center  640 is at  -3.482239 -2.627323  0.061511
      ESP Fit Center  641 is at   0.277890 -1.765249  3.479221
      ESP Fit Center  642 is at  -0.202110 -0.933865  3.479221
      ESP Fit Center  643 is at   0.980659 -1.765249  2.776452
      ESP Fit Center  644 is at   0.663098 -0.787898  2.776452
      ESP Fit Center  645 is at  -0.168286 -0.183862  2.776452
      ESP Fit Center  646 is at   0.663098 -2.742600  2.776452
      ESP Fit Center  647 is at   0.980659 -2.725249  1.816452
      ESP Fit Center  648 is at   0.663098 -2.742600  0.856452
      ESP Fit Center  649 is at  -1.607366 -4.670116  0.691540
      ESP Fit Center  650 is at  -0.647366 -4.412885  0.691540
      ESP Fit Center  651 is at   0.055403 -3.710116  0.691540
      ESP Fit Center  652 is at   0.055403 -2.750116 -0.268460
      ESP Fit Center  653 is at  -3.270135 -2.750116 -0.268460
      ESP Fit Center  654 is at  -2.952574 -3.727467 -0.268460
      ESP Fit Center  655 is at  -2.121190 -4.331503 -0.268460
      ESP Fit Center  656 is at  -1.093542 -4.331503 -0.268460
      ESP Fit Center  657 is at  -0.262158 -3.727467 -0.268460
      ESP Fit Center  658 is at  -0.647366 -2.750116 -0.971229
      ESP Fit Center  659 is at  -2.087366 -3.581500 -0.971229
      ESP Fit Center  660 is at  -1.127366 -3.581500 -0.971229
      ESP Fit Center  661 is at  -2.025382 -0.162292  3.290872
      ESP Fit Center  662 is at  -2.997282 -0.162292  3.290872
      ESP Fit Center  663 is at  -1.094498  0.025408  2.669319
      ESP Fit Center  664 is at  -1.970150  0.661606  2.669319
      ESP Fit Center  665 is at  -3.052514  0.661606  2.669319
      ESP Fit Center  666 is at  -3.928166  0.025408  2.669319
      ESP Fit Center  667 is at  -3.285732  1.037942  1.771149
      ESP Fit Center  668 is at  -4.145959  0.444171  1.771149
      ESP Fit Center  669 is at  -3.584011  1.032181  1.528361
      ESP Fit Center  670 is at  -4.463344 -1.401117 -0.502065
      ESP Fit Center  671 is at  -3.814091 -2.215254 -0.502065
      ESP Fit Center  672 is at  -2.875893  0.515906 -2.130340
      ESP Fit Center  673 is at  -3.396554 -0.385904 -2.130340
      ESP Fit Center  674 is at  -3.771223  0.952066  1.488012
      ESP Fit Center  675 is at  -3.805047  1.702069  0.785243
      ESP Fit Center  676 is at  -4.636431  1.098033  0.785243
      ESP Fit Center  677 is at  -4.953992  0.120682  0.785243
      ESP Fit Center  678 is at  -3.291223  2.040682 -0.174757
      ESP Fit Center  679 is at  -4.251223  1.783451 -0.174757
      ESP Fit Center  680 is at  -4.953992  1.080682 -0.174757
      ESP Fit Center  681 is at  -5.211223  0.120682 -0.174757
      ESP Fit Center  682 is at  -4.953992 -0.839318 -0.174757
      ESP Fit Center  683 is at  -3.805047  1.702069 -1.134757
      ESP Fit Center  684 is at  -4.636431  1.098033 -1.134757
      ESP Fit Center  685 is at  -4.953992  0.120682 -1.134757
      ESP Fit Center  686 is at  -4.636431 -0.856669 -1.134757
      ESP Fit Center  687 is at  -3.771223  0.952066 -1.837526
      ESP Fit Center  688 is at  -4.251223  0.120682 -1.837526
      ESP Fit Center  689 is at  -3.150393 -2.785546 -0.749942
      ESP Fit Center  690 is at  -0.527624 -2.082777 -0.749942
      ESP Fit Center  691 is at  -3.853162 -1.122777 -1.709942
      ESP Fit Center  692 is at  -3.535601 -2.100128 -1.709942
      ESP Fit Center  693 is at  -2.704217 -2.704164 -1.709942
      ESP Fit Center  694 is at  -1.676569 -2.704164 -1.709942
      ESP Fit Center  695 is at  -0.845185 -2.100128 -1.709942
      ESP Fit Center  696 is at  -1.230393 -1.122777 -2.412711
      ESP Fit Center  697 is at  -1.710393 -0.291393 -2.412711
      ESP Fit Center  698 is at  -2.670393 -0.291393 -2.412711
      ESP Fit Center  699 is at  -3.150393 -1.122777 -2.412711
      ESP Fit Center  700 is at  -2.670393 -1.954161 -2.412711
      ESP Fit Center  701 is at  -1.710393 -1.954161 -2.412711
      ESP Fit Center  702 is at  -2.190393 -1.122777 -2.669942
      ESP Fit Center  703 is at  -0.721277 -0.259325 -2.164937
      ESP Fit Center  704 is at  -1.331802  1.301770  2.778090
      ESP Fit Center  705 is at  -0.371802  1.301770  2.520859
      ESP Fit Center  706 is at  -0.851802  2.133154  2.520859
      ESP Fit Center  707 is at  -1.811802  2.133154  2.520859
      ESP Fit Center  708 is at  -2.291802  1.301770  2.520859
      ESP Fit Center  709 is at  -0.851802  0.470386  2.520859
      ESP Fit Center  710 is at  -0.817978  2.883157  1.818090
      ESP Fit Center  711 is at  -1.845626  2.883157  1.818090
      ESP Fit Center  712 is at  -2.677010  2.279121  1.818090
      ESP Fit Center  713 is at  -2.994571  1.301770  1.818090
      ESP Fit Center  714 is at  -0.371802  2.964539  0.858090
      ESP Fit Center  715 is at  -1.331802  3.221770  0.858090
      ESP Fit Center  716 is at  -2.291802  2.964539  0.858090
      ESP Fit Center  717 is at  -2.994571  2.261770  0.858090
      ESP Fit Center  718 is at  -0.385385  2.910967 -0.903283
      ESP Fit Center  719 is at  -1.345385  3.168198 -0.903283
      ESP Fit Center  720 is at  -2.305385  2.910967 -0.903283
      ESP Fit Center  721 is at  -3.008154  2.208198 -0.903283
      ESP Fit Center  722 is at  -0.831561  2.829585 -1.863283
      ESP Fit Center  723 is at  -1.859209  2.829585 -1.863283
      ESP Fit Center  724 is at  -2.690593  2.225549 -1.863283
      ESP Fit Center  725 is at  -3.008154  1.248198 -1.863283
      ESP Fit Center  726 is at  -0.385385  1.248198 -2.566052
      ESP Fit Center  727 is at  -0.865385  2.079582 -2.566052
      ESP Fit Center  728 is at  -1.825385  2.079582 -2.566052
      ESP Fit Center  729 is at  -2.305385  1.248198 -2.566052
      ESP Fit Center  730 is at  -1.825385  0.416814 -2.566052
      ESP Fit Center  731 is at  -0.865385  0.416814 -2.566052
      ESP Fit Center  732 is at  -1.345385  1.248198 -2.823283
      ESP Fit Center  733 is at   0.000000  0.000000  2.240000
      ESP Fit Center  734 is at   0.263233 -2.167916 -0.498447
      ESP Fit Center  735 is at   0.541182 -1.665588 -1.396617
      ESP Fit Center  736 is at  -0.485950 -0.841690 -2.018170
      ESP Fit Center  737 is at   0.485950 -0.841690 -2.018170
      ESP Fit Center  738 is at   0.000000  0.000000 -2.240000
      ESP Fit Center  739 is at   1.086439  1.500746  2.798321
      ESP Fit Center  740 is at   2.046439  1.500746  2.541090
      ESP Fit Center  741 is at   1.566439  2.332130  2.541090
      ESP Fit Center  742 is at   0.606439  2.332130  2.541090
      ESP Fit Center  743 is at   0.126439  1.500746  2.541090
      ESP Fit Center  744 is at   0.606439  0.669362  2.541090
      ESP Fit Center  745 is at   1.566439  0.669362  2.541090
      ESP Fit Center  746 is at   2.431647  2.478097  1.838321
      ESP Fit Center  747 is at   1.600263  3.082133  1.838321
      ESP Fit Center  748 is at   0.572615  3.082133  1.838321
      ESP Fit Center  749 is at   2.046439  3.163515  0.878321
      ESP Fit Center  750 is at   1.086439  3.420746  0.878321
      ESP Fit Center  751 is at   0.126439  3.163515  0.878321
      ESP Fit Center  752 is at   2.031664  3.166439 -0.877146
      ESP Fit Center  753 is at   1.071664  3.423670 -0.877146
      ESP Fit Center  754 is at   0.111664  3.166439 -0.877146
      ESP Fit Center  755 is at   1.585488  3.085057 -1.837146
      ESP Fit Center  756 is at   0.557840  3.085057 -1.837146
      ESP Fit Center  757 is at   0.591664  2.335054 -2.539915
      ESP Fit Center  758 is at   0.111664  1.503670 -2.539915
      ESP Fit Center  759 is at   0.591664  0.672286 -2.539915
      ESP Fit Center  760 is at   1.551664  0.672286 -2.539915
      ESP Fit Center  761 is at   1.071664  1.503670 -2.797146
      ESP Fit Center  762 is at   3.812114 -1.829350  0.534050
      ESP Fit Center  763 is at   1.382594 -2.337369 -0.846902
      ESP Fit Center  764 is at   2.342594 -2.594600 -0.846902
      ESP Fit Center  765 is at   3.302594 -2.337369 -0.846902
      ESP Fit Center  766 is at   0.997386 -1.651951 -1.806902
      ESP Fit Center  767 is at   1.828770 -2.255987 -1.806902
      ESP Fit Center  768 is at   2.856418 -2.255987 -1.806902
      ESP Fit Center  769 is at   3.687802 -1.651951 -1.806902
      ESP Fit Center  770 is at   1.862594  0.156784 -2.509671
      ESP Fit Center  771 is at   1.382594 -0.674600 -2.509671
      ESP Fit Center  772 is at   1.862594 -1.505984 -2.509671
      ESP Fit Center  773 is at   2.822594 -1.505984 -2.509671
      ESP Fit Center  774 is at   2.342594 -0.674600 -2.766902
      ESP Fit Center  775 is at   2.370615 -0.606528  2.816473
      ESP Fit Center  776 is at   3.330615 -0.606528  2.559242
      ESP Fit Center  777 is at   2.850615  0.224856  2.559242
      ESP Fit Center  778 is at   1.890615  0.224856  2.559242
      ESP Fit Center  779 is at   1.410615 -0.606528  2.559242
      ESP Fit Center  780 is at   1.890615 -1.437912  2.559242
      ESP Fit Center  781 is at   2.850615 -1.437912  2.559242
      ESP Fit Center  782 is at   1.856791 -2.187915  1.856473
      ESP Fit Center  783 is at   2.884439 -2.187915  1.856473
      ESP Fit Center  784 is at   3.715823 -1.583879  1.856473
      ESP Fit Center  785 is at   1.410615 -2.269297  0.896473
      ESP Fit Center  786 is at   2.370615 -2.526528  0.896473
      ESP Fit Center  787 is at   3.330615 -2.269297  0.896473
      ESP Fit Center  788 is at   3.899261  0.950614  2.805966
      ESP Fit Center  789 is at   4.970775  0.950614  2.592829
      ESP Fit Center  790 is at   4.435018  1.878572  2.592829
      ESP Fit Center  791 is at   3.363504  1.878572  2.592829
      ESP Fit Center  792 is at   2.827747  0.950614  2.592829
      ESP Fit Center  793 is at   3.363504  0.022656  2.592829
      ESP Fit Center  794 is at   4.435018  0.022656  2.592829
      ESP Fit Center  795 is at   5.879160  0.950614  1.985865
      ESP Fit Center  796 is at   5.613904  1.940563  1.985865
      ESP Fit Center  797 is at   4.889210  2.665257  1.985865
      ESP Fit Center  798 is at   3.899261  2.930513  1.985865
      ESP Fit Center  799 is at   2.909312  2.665257  1.985865
      ESP Fit Center  800 is at   3.899261 -1.029285  1.985865
      ESP Fit Center  801 is at   4.889210 -0.764029  1.985865
      ESP Fit Center  802 is at   5.613904 -0.039335  1.985865
      ESP Fit Center  803 is at   6.486124  0.950614  1.077480
      ESP Fit Center  804 is at   6.262478  2.002786  1.077480
      ESP Fit Center  805 is at   5.630210  2.873028  1.077480
      ESP Fit Center  806 is at   4.698646  3.410867  1.077480
      ESP Fit Center  807 is at   3.628860  3.523306  1.077480
      ESP Fit Center  808 is at   2.605830  3.190903  1.077480
      ESP Fit Center  809 is at   4.698646 -1.509639  1.077480
      ESP Fit Center  810 is at   5.630210 -0.971800  1.077480
      ESP Fit Center  811 is at   6.262478 -0.101558  1.077480
      ESP Fit Center  812 is at   4.157612  3.738670  0.005966
      ESP Fit Center  813 is at   3.133005  3.643726  0.005966
      ESP Fit Center  814 is at   2.211884  3.185062  0.005966
      ESP Fit Center  815 is at   4.157612 -1.837442  0.005966
      ESP Fit Center  816 is at   5.147328 -1.555843  0.005966
      ESP Fit Center  817 is at   5.968486 -0.935734  0.005966
      ESP Fit Center  818 is at   6.510183 -0.060863  0.005966
      ESP Fit Center  819 is at   4.698646 -1.509639 -1.065548
      ESP Fit Center  820 is at   5.630210 -0.971800 -1.065548
      ESP Fit Center  821 is at   2.237277  0.901085 -3.242248
      ESP Fit Center  822 is at   3.991317 -1.379926 -2.361029
      ESP Fit Center  823 is at   4.951317 -1.122695 -2.361029
      ESP Fit Center  824 is at   5.654086 -0.419926 -2.361029
      ESP Fit Center  825 is at   2.328548  0.540074 -3.321029
      ESP Fit Center  826 is at   2.646109 -0.437277 -3.321029
      ESP Fit Center  827 is at   3.477493 -1.041313 -3.321029
      ESP Fit Center  828 is at   4.505141 -1.041313 -3.321029
      ESP Fit Center  829 is at   5.336525 -0.437277 -3.321029
      ESP Fit Center  830 is at   3.031317  0.540074 -4.023798
      ESP Fit Center  831 is at   3.511317 -0.291310 -4.023798
      ESP Fit Center  832 is at   4.471317 -0.291310 -4.023798
      ESP Fit Center  833 is at   2.702363  3.659686 -1.060318
      ESP Fit Center  834 is at   3.216187  3.998299 -2.020318
      ESP Fit Center  835 is at   2.256187  3.741068 -2.020318
      ESP Fit Center  836 is at   1.553418  3.038299 -2.020318
      ESP Fit Center  837 is at   2.702363  3.659686 -2.980318
      ESP Fit Center  838 is at   1.870979  3.055650 -2.980318
      ESP Fit Center  839 is at   1.553418  2.078299 -2.980318
      ESP Fit Center  840 is at   1.870979  1.100948 -2.980318
      ESP Fit Center  841 is at   2.256187  2.078299 -3.683087
      ESP Fit Center  842 is at   7.149295  1.490744 -0.059357
      ESP Fit Center  843 is at   7.852064  1.490744 -0.762126
      ESP Fit Center  844 is at   6.703119 -0.090643 -0.762126
      ESP Fit Center  845 is at   7.534503  0.513393 -0.762126
      ESP Fit Center  846 is at   6.189295 -0.429256 -1.722126
      ESP Fit Center  847 is at   7.149295 -0.172025 -1.722126
      ESP Fit Center  848 is at   7.852064  0.530744 -1.722126
      ESP Fit Center  849 is at   6.703119 -0.090643 -2.682126
      ESP Fit Center  850 is at   7.534503  0.513393 -2.682126
      ESP Fit Center  851 is at   6.381823  3.019617  0.340141
      ESP Fit Center  852 is at   5.901823  3.851001  0.340141
      ESP Fit Center  853 is at   4.941823  3.851001  0.340141
      ESP Fit Center  854 is at   7.084592  3.019617 -0.362628
      ESP Fit Center  855 is at   5.935647  4.601004 -0.362628
      ESP Fit Center  856 is at   4.907999  4.601004 -0.362628
      ESP Fit Center  857 is at   4.076615  3.996968 -0.362628
      ESP Fit Center  858 is at   4.461823  4.682386 -1.322628
      ESP Fit Center  859 is at   3.759054  3.979617 -1.322628
      ESP Fit Center  860 is at   4.201941  4.891981 -2.638503
      ESP Fit Center  861 is at   3.402556  4.172212 -2.638503
      ESP Fit Center  862 is at   4.729116  5.344804 -3.710017
      ESP Fit Center  863 is at   3.807995  4.886140 -3.710017
      ESP Fit Center  864 is at   3.114764  4.125702 -3.710017
      ESP Fit Center  865 is at   2.743047  3.166191 -3.710017
      ESP Fit Center  866 is at   5.753723 -0.136364 -3.710017
      ESP Fit Center  867 is at   6.743439  0.145235 -3.710017
      ESP Fit Center  868 is at   4.201941  4.891981 -4.781531
      ESP Fit Center  869 is at   3.402556  4.172212 -4.781531
      ESP Fit Center  870 is at   2.965038  3.189531 -4.781531
      ESP Fit Center  871 is at   2.965038  2.113853 -4.781531
      ESP Fit Center  872 is at   3.402556  1.131172 -4.781531
      ESP Fit Center  873 is at   4.201941  0.411403 -4.781531
      ESP Fit Center  874 is at   5.224971  0.079000 -4.781531
      ESP Fit Center  875 is at   6.294757  0.191439 -4.781531
      ESP Fit Center  876 is at   7.226321  0.729278 -4.781531
      ESP Fit Center  877 is at   5.495372  4.631591 -5.689916
      ESP Fit Center  878 is at   4.505423  4.366335 -5.689916
      ESP Fit Center  879 is at   3.780729  3.641641 -5.689916
      ESP Fit Center  880 is at   3.515473  2.651692 -5.689916
      ESP Fit Center  881 is at   3.780729  1.661743 -5.689916
      ESP Fit Center  882 is at   4.505423  0.937049 -5.689916
      ESP Fit Center  883 is at   5.495372  0.671793 -5.689916
      ESP Fit Center  884 is at   6.485321  0.937049 -5.689916
      ESP Fit Center  885 is at   7.210015  1.661743 -5.689916
      ESP Fit Center  886 is at   6.031129  3.579650 -6.296880
      ESP Fit Center  887 is at   4.959615  3.579650 -6.296880
      ESP Fit Center  888 is at   4.423858  2.651692 -6.296880
      ESP Fit Center  889 is at   4.959615  1.723734 -6.296880
      ESP Fit Center  890 is at   6.031129  1.723734 -6.296880
      ESP Fit Center  891 is at   5.495372  2.651692 -6.510017
      ESP Fit Center  892 is at   9.096347  3.366995 -5.785722
      ESP Fit Center  893 is at   6.919754  4.948382 -5.785722
      ESP Fit Center  894 is at   7.947402  1.785608 -5.785722
      ESP Fit Center  895 is at   8.778786  2.389644 -5.785722
      ESP Fit Center  896 is at   8.393578  3.366995 -6.488491
      ESP Fit Center  897 is at   7.913578  4.198379 -6.488491
      ESP Fit Center  898 is at   6.953578  4.198379 -6.488491
      ESP Fit Center  899 is at   6.473578  3.366995 -6.488491
      ESP Fit Center  900 is at   6.953578  2.535611 -6.488491
      ESP Fit Center  901 is at   7.913578  2.535611 -6.488491
      ESP Fit Center  902 is at   7.433578  3.366995 -6.745722
      ESP Fit Center  903 is at   8.380945  1.009568 -2.370264
      ESP Fit Center  904 is at   7.867121  0.670955 -3.330264
      ESP Fit Center  905 is at   8.827121  0.928186 -3.330264
      ESP Fit Center  906 is at   9.529890  1.630955 -3.330264
      ESP Fit Center  907 is at   9.529890  2.590955 -4.290264
      ESP Fit Center  908 is at   8.380945  1.009568 -4.290264
      ESP Fit Center  909 is at   9.212329  1.613604 -4.290264
      ESP Fit Center  910 is at   7.077887  6.546582 -1.637442
      ESP Fit Center  911 is at   6.151340  6.965152 -2.648663
      ESP Fit Center  912 is at   5.319956  6.361116 -2.648663
      ESP Fit Center  913 is at   5.002395  5.383765 -2.648663
      ESP Fit Center  914 is at   6.665164  7.303765 -3.608663
      ESP Fit Center  915 is at   5.705164  7.046534 -3.608663
      ESP Fit Center  916 is at   5.002395  6.343765 -3.608663
      ESP Fit Center  917 is at   4.745164  5.383765 -3.608663
      ESP Fit Center  918 is at   6.151340  6.965152 -4.568663
      ESP Fit Center  919 is at   5.319956  6.361116 -4.568663
      ESP Fit Center  920 is at   5.002395  5.383765 -4.568663
      ESP Fit Center  921 is at   7.145164  6.215149 -5.271432
      ESP Fit Center  922 is at   6.185164  6.215149 -5.271432
      ESP Fit Center  923 is at   5.705164  5.383765 -5.271432
      ESP Fit Center  924 is at   6.665164  5.383765 -5.528663
      ESP Fit Center  925 is at   7.095953  4.669424 -0.160297
      ESP Fit Center  926 is at   6.615953  5.500808 -0.417528
      ESP Fit Center  927 is at   6.135953  4.669424 -0.417528
      ESP Fit Center  928 is at   7.575953  3.838040 -0.417528
      ESP Fit Center  929 is at   6.582129  6.250811 -1.120297
      ESP Fit Center  930 is at   5.750745  5.646775 -1.120297
      ESP Fit Center  931 is at   8.031769  7.099001 -1.337313
      ESP Fit Center  932 is at   9.821103  7.844611 -2.245698
      ESP Fit Center  933 is at   8.751317  7.957050 -2.245698
      ESP Fit Center  934 is at   7.728287  7.624647 -2.245698
      ESP Fit Center  935 is at   6.928902  6.904878 -2.245698
      ESP Fit Center  936 is at  11.821718  5.384358 -3.317212
      ESP Fit Center  937 is at  11.632640  6.395835 -3.317212
      ESP Fit Center  938 is at  11.090943  7.270706 -3.317212
      ESP Fit Center  939 is at  10.269785  7.890815 -3.317212
      ESP Fit Center  940 is at   9.280069  8.172414 -3.317212
      ESP Fit Center  941 is at   8.255462  8.077470 -3.317212
      ESP Fit Center  942 is at   7.334341  7.618806 -3.317212
      ESP Fit Center  943 is at  11.632640  4.372881 -3.317212
      ESP Fit Center  944 is at  11.608581  5.384358 -4.388726
      ESP Fit Center  945 is at  11.384935  6.436530 -4.388726
      ESP Fit Center  946 is at  10.752667  7.306772 -4.388726
      ESP Fit Center  947 is at   9.821103  7.844611 -4.388726
      ESP Fit Center  948 is at   8.751317  7.957050 -4.388726
      ESP Fit Center  949 is at   7.728287  7.624647 -4.388726
      ESP Fit Center  950 is at   9.821103  2.924105 -4.388726
      ESP Fit Center  951 is at  10.752667  3.461944 -4.388726
      ESP Fit Center  952 is at  11.384935  4.332186 -4.388726
      ESP Fit Center  953 is at  11.001617  5.384358 -5.297111
      ESP Fit Center  954 is at  10.736361  6.374307 -5.297111
      ESP Fit Center  955 is at  10.011667  7.099001 -5.297111
      ESP Fit Center  956 is at   9.021718  7.364257 -5.297111
      ESP Fit Center  957 is at   8.031769  7.099001 -5.297111
      ESP Fit Center  958 is at   7.307075  6.374307 -5.297111
      ESP Fit Center  959 is at  10.011667  3.669715 -5.297111
      ESP Fit Center  960 is at  10.736361  4.394409 -5.297111
      ESP Fit Center  961 is at  10.093232  5.384358 -5.904075
      ESP Fit Center  962 is at   9.557475  6.312316 -5.904075
      ESP Fit Center  963 is at   8.485961  6.312316 -5.904075
      ESP Fit Center  964 is at   7.950204  5.384358 -5.904075
      ESP Fit Center  965 is at   9.557475  4.456400 -5.904075
      ESP Fit Center  966 is at   9.021718  5.384358 -6.117212
      ESP Fit Center  967 is at  11.662825  5.632628 -0.055773
      ESP Fit Center  968 is at  11.182825  6.464012 -0.055773
      ESP Fit Center  969 is at  12.365594  5.632628 -0.758542
      ESP Fit Center  970 is at  12.048033  6.609979 -0.758542
      ESP Fit Center  971 is at  11.216649  7.214015 -0.758542
      ESP Fit Center  972 is at  12.622825  5.632628 -1.718542
      ESP Fit Center  973 is at  12.365594  6.592628 -1.718542
      ESP Fit Center  974 is at  11.662825  7.295397 -1.718542
      ESP Fit Center  975 is at  10.702825  7.552628 -1.718542
      ESP Fit Center  976 is at  12.365594  4.672628 -1.718542
      ESP Fit Center  977 is at  12.365594  5.632628 -2.678542
      ESP Fit Center  978 is at  12.048033  6.609979 -2.678542
      ESP Fit Center  979 is at  11.216649  7.214015 -2.678542
      ESP Fit Center  980 is at  12.048033  4.655277 -2.678542
      ESP Fit Center  981 is at   9.156680  5.517416  0.993450
      ESP Fit Center  982 is at  10.116680  5.517416  0.736219
      ESP Fit Center  983 is at   9.636680  6.348800  0.736219
      ESP Fit Center  984 is at   8.676680  6.348800  0.736219
      ESP Fit Center  985 is at   8.196680  5.517416  0.736219
      ESP Fit Center  986 is at   8.676680  4.686032  0.736219
      ESP Fit Center  987 is at   9.670504  7.098803  0.033450
      ESP Fit Center  988 is at   8.642856  7.098803  0.033450
      ESP Fit Center  989 is at   7.811472  6.494767  0.033450
      ESP Fit Center  990 is at   7.493911  5.517416  0.033450
      ESP Fit Center  991 is at   7.811472  4.540065  0.033450
      ESP Fit Center  992 is at   9.156680  7.437416 -0.926550
      ESP Fit Center  993 is at   8.196680  7.180185 -0.926550
      ESP Fit Center  994 is at   7.493911  6.477416 -0.926550
      ESP Fit Center  995 is at   9.027884  3.607057  0.797443
      ESP Fit Center  996 is at   8.268817  4.135699  0.131494
      ESP Fit Center  997 is at   9.802166  1.749760  0.131494
      ESP Fit Center  998 is at  12.177316  4.622270 -0.830832
      ESP Fit Center  999 is at  10.589865  1.325894 -0.830832
      ESP Fit Center 1000 is at  11.528063  1.777707 -0.830832
      ESP Fit Center 1001 is at  10.592892  3.538121  1.504369
      ESP Fit Center 1002 is at  11.552892  3.538121  1.247138
      ESP Fit Center 1003 is at  11.072892  4.369505  1.247138
      ESP Fit Center 1004 is at  10.112892  4.369505  1.247138
      ESP Fit Center 1005 is at   9.632892  3.538121  1.247138
      ESP Fit Center 1006 is at  10.112892  2.706737  1.247138
      ESP Fit Center 1007 is at  11.072892  2.706737  1.247138
      ESP Fit Center 1008 is at  12.255661  3.538121  0.544369
      ESP Fit Center 1009 is at  11.938100  4.515472  0.544369
      ESP Fit Center 1010 is at  11.106716  5.119508  0.544369
      ESP Fit Center 1011 is at  10.079068  1.956734  0.544369
      ESP Fit Center 1012 is at  11.106716  1.956734  0.544369
      ESP Fit Center 1013 is at  11.938100  2.560770  0.544369
      ESP Fit Center 1014 is at  12.512892  3.538121 -0.415631
      ESP Fit Center 1015 is at  12.255661  4.498121 -0.415631
      ESP Fit Center 1016 is at  11.552892  1.875352 -0.415631
      ESP Fit Center 1017 is at  12.255661  2.578121 -0.415631
      ESP Fit Center 1018 is at   8.197213  3.026824  0.386897
      ESP Fit Center 1019 is at   8.677213  2.195440  0.386897
      ESP Fit Center 1020 is at   7.812005  4.004175 -0.315872
      ESP Fit Center 1021 is at   7.494444  3.026824 -0.315872
      ESP Fit Center 1022 is at   7.812005  2.049473 -0.315872
      ESP Fit Center 1023 is at   8.643389  1.445437 -0.315872
      ESP Fit Center 1024 is at   9.671037  1.445437 -0.315872
      ESP Fit Center 1025 is at   8.197213  1.364055 -1.275872
      ESP Fit Center 1026 is at   9.157213  1.106824 -1.275872
      ESP Fit Center 1027 is at  12.032530  2.174258 -1.169852
      ESP Fit Center 1028 is at  12.607322  3.151609 -2.129852
      ESP Fit Center 1029 is at  12.350091  4.111609 -2.129852
      ESP Fit Center 1030 is at  10.687322  1.231609 -2.129852
      ESP Fit Center 1031 is at  11.647322  1.488840 -2.129852
      ESP Fit Center 1032 is at  12.350091  2.191609 -2.129852
      ESP Fit Center 1033 is at  12.350091  3.151609 -3.089852
      ESP Fit Center 1034 is at  12.032530  4.128960 -3.089852
      ESP Fit Center 1035 is at  10.173498  1.570222 -3.089852
      ESP Fit Center 1036 is at  11.201146  1.570222 -3.089852
      ESP Fit Center 1037 is at  12.032530  2.174258 -3.089852
      ESP Fit Center 1038 is at  11.647322  3.151609 -3.792621
      ESP Fit Center 1039 is at  10.207322  2.320225 -3.792621
      ESP Fit Center 1040 is at  11.167322  2.320225 -3.792621
      ESP Fit Center 1041 is at  10.687322  3.151609 -4.049852
      ESP Fit Center 1042 is at  -5.632199 -2.418544  6.602591
      ESP Fit Center 1043 is at  -6.148821 -3.313361  6.602591
      ESP Fit Center 1044 is at  -5.632199 -4.208178  6.602591
      ESP Fit Center 1045 is at  -5.387282 -1.423605  6.017304
      ESP Fit Center 1046 is at  -6.365828 -4.756229  6.017304
      ESP Fit Center 1047 is at  -5.670649 -0.881428  5.141361
      ESP Fit Center 1048 is at  -7.363020 -4.395673  3.074871
[...]
 1367 Fit       0.004080
 1368 Fit       0.008276
 1369 Fit       0.013552
 1370 Fit       0.004912
 1371 Fit       0.005632
 1372 Fit       0.011841
 1373 Fit       0.009515
 1374 Fit       0.010962
 1375 Fit       0.003383
 1376 Fit       0.012413
 1377 Fit       0.006691
 1378 Fit       0.009333
 1379 Fit       0.007498
 1380 Fit       0.001633
 1381 Fit       0.001362
 1382 Fit      -0.007044
 1383 Fit      -0.006088
 1384 Fit       0.001167
 1385 Fit       0.003244
 1386 Fit      -0.010348
 1387 Fit      -0.011306
 1388 Fit      -0.006944
 1389 Fit      -0.001204
 1390 Fit       0.001662
 1391 Fit      -0.005334
 1392 Fit      -0.008390
 1393 Fit      -0.005788
 1394 Fit      -0.008011
 1395 Fit      -0.012097
 1396 Fit      -0.011234
 1397 Fit      -0.008534
 1398 Fit      -0.007240
 1399 Fit      -0.008470
 1400 Fit      -0.011456
 1401 Fit      -0.013644
 1402 Fit      -0.011874
 1403 Fit      -0.005646
 1404 Fit      -0.000279
 1405 Fit      -0.007603
 1406 Fit      -0.010781
 1407 Fit      -0.011070
 1408 Fit      -0.011657
 1409 Fit      -0.013423
 1410 Fit      -0.013903
 1411 Fit      -0.009944
 1412 Fit      -0.001195
 1413 Fit       0.002164
 1414 Fit      -0.005275
 1415 Fit      -0.009583
 1416 Fit      -0.010942
 1417 Fit      -0.007162
 1418 Fit      -0.005002
 1419 Fit      -0.000484
 1420 Fit      -0.004875
 1421 Fit       0.007050
 1422 Fit       0.001909
 1423 Fit       0.001053
 1424 Fit       0.002411
 1425 Fit       0.003318
 1426 Fit       0.005616
 1427 Fit       0.003871
 1428 Fit       0.002221
 1429 Fit       0.003541
 1430 Fit       0.004862
 1431 Fit       0.014544
 1432 Fit       0.008210
 1433 Fit       0.009157
 1434 Fit       0.007803
 1435 Fit       0.004320
 1436 Fit       0.003661
 1437 Fit       0.005612
 1438 Fit       0.000876
 1439 Fit       0.004509
 1440 Fit       0.002891
 1441 Fit       0.002154
 1442 Fit       0.003321
 1443 Fit      -0.001851
 1444 Fit       0.001048
 1445 Fit       0.003362
 1446 Fit      -0.000640
 1447 Fit       0.003860
 1448 Fit       0.002283
 1449 Fit       0.007102
 1450 Fit       0.019444
 1451 Fit       0.015813
 1452 Fit       0.010071
 1453 Fit       0.010937
 1454 Fit       0.013860
 1455 Fit      -0.003483
 1456 Fit      -0.008267
 1457 Fit      -0.007282
 1458 Fit      -0.000941
 1459 Fit      -0.007577
 1460 Fit      -0.013802
 1461 Fit      -0.015354
 1462 Fit      -0.011183
 1463 Fit      -0.002064
 1464 Fit      -0.002121
 1465 Fit      -0.002729
 1466 Fit      -0.006848
 1467 Fit      -0.012723
 1468 Fit      -0.017187
 1469 Fit      -0.017465
 1470 Fit      -0.012207
 1471 Fit      -0.003278
 1472 Fit      -0.010628
 1473 Fit      -0.010668
 1474 Fit      -0.013125
 1475 Fit      -0.016282
 1476 Fit      -0.017057
 1477 Fit      -0.013136
 1478 Fit      -0.004230
 1479 Fit      -0.009061
 1480 Fit      -0.012242
 1481 Fit      -0.012014
 1482 Fit      -0.015175
 1483 Fit      -0.014889
 1484 Fit      -0.015461
 1485 Fit      -0.014260
 1486 Fit      -0.008776
 1487 Fit      -0.000121
 1488 Fit      -0.012696
 1489 Fit      -0.015625
 1490 Fit      -0.014550
 1491 Fit      -0.013358
 1492 Fit      -0.008018
 1493 Fit      -0.000423
 1494 Fit      -0.011100
 1495 Fit      -0.008973
 1496 Fit       0.008812
 1497 Fit       0.005175
 1498 Fit       0.011769
 1499 Fit       0.009694
 1500 Fit       0.010933
 1501 Fit       0.009826
 1502 Fit       0.007796
 1503 Fit       0.005514
 1504 Fit       0.009570
 1505 Fit       0.008806
 1506 Fit       0.006660
 1507 Fit       0.002601
 1508 Fit       0.009620
 1509 Fit       0.006574
 1510 Fit       0.005499
 1511 Fit       0.001467
 1512 Fit       0.006558
 1513 Fit       0.012168
 1514 Fit       0.012064
 1515 Fit       0.010259
 1516 Fit       0.011302
 1517 Fit       0.013600
 1518 Fit       0.013726
 1519 Fit       0.007559
 1520 Fit       0.007653
 1521 Fit       0.010101
 1522 Fit       0.014454
 1523 Fit       0.018880
 1524 Fit       0.001392
 1525 Fit       0.001599
 1526 Fit       0.006632
 1527 Fit       0.010323
 1528 Fit       0.015275
 1529 Fit       0.006936
 1530 Fit       0.005897
 1531 Fit       0.006829
 1532 Fit       0.007086
 1533 Fit       0.005707
 1534 Fit       0.010345
 1535 Fit       0.009910
 1536 Fit       0.010017
 1537 Fit       0.010994
 1538 Fit       0.011313
 1539 Fit       0.009683
 1540 Fit       0.008272
 1541 Fit       0.008839
 1542 Fit       0.009232
 1543 Fit       0.010646
 1544 Fit       0.012077
 1545 Fit       0.006863
 1546 Fit       0.007260
 1547 Fit       0.008126
 1548 Fit       0.007782
 1549 Fit       0.010351
 1550 Fit       0.005911
 1551 Fit       0.006518
 1552 Fit       0.011835
 1553 Fit       0.008814
 1554 Fit       0.021130
 1555 Fit       0.012902
 1556 Fit       0.009206
 1557 Fit       0.015165
 1558 Fit       0.009290
 1559 Fit       0.005958
 1560 Fit       0.007613
 1561 Fit       0.006177
 1562 Fit       0.005891
 1563 Fit       0.005834
 1564 Fit       0.004342
 1565 Fit       0.003395
 1566 Fit       0.006142
 1567 Fit       0.005471
 1568 Fit       0.005148
 1569 Fit      -0.000615
 1570 Fit       0.000704
 1571 Fit       0.001846
 1572 Fit      -0.001230
 1573 Fit      -0.002124
 1574 Fit      -0.002962
 1575 Fit      -0.002632
 1576 Fit      -0.000333
 1577 Fit      -0.002131
 1578 Fit      -0.003151
 1579 Fit      -0.004057
 1580 Fit       0.000018
 1581 Fit      -0.002754
 1582 Fit      -0.006121
 1583 Fit      -0.000027
 1584 Fit       0.000814
 1585 Fit      -0.002468
 1586 Fit      -0.011467
 1587 Fit      -0.002326
 1588 Fit       0.000218
 1589 Fit      -0.002288
 1590 Fit      -0.000246
 1591 Fit       0.001109
 1592 Fit       0.001475
 1593 Fit      -0.000083
 1594 Fit      -0.001161
 1595 Fit       0.002205
 1596 Fit       0.003426
 1597 Fit       0.002397
 1598 Fit       0.000696
 1599 Fit      -0.003467
 1600 Fit      -0.000771
 1601 Fit       0.001641
 1602 Fit      -0.000276
 1603 Fit      -0.000637
 1604 Fit       0.000444
 1605 Fit       0.001269
 1606 Fit       0.001102
 1607 Fit      -0.000223
 1608 Fit       0.001376
 1609 Fit       0.002164
 1610 Fit       0.002183
 1611 Fit       0.001281
 1612 Fit      -0.000459
 1613 Fit       0.002026
 1614 Fit       0.002588
 1615 Fit       0.002483
 1616 Fit       0.001511
 1617 Fit      -0.000288
 1618 Fit       0.002814
 1619 Fit       0.002347
 1620 Fit       0.000966
 1621 Fit      -0.003344
 1622 Fit      -0.004009
 1623 Fit      -0.002686
 1624 Fit      -0.003112
 1625 Fit      -0.004514
 1626 Fit      -0.005923
 1627 Fit      -0.002659
 1628 Fit      -0.002637
 1629 Fit      -0.003429
 1630 Fit      -0.005414
 1631 Fit      -0.008420
 1632 Fit      -0.002852
 1633 Fit      -0.003517
 1634 Fit      -0.005263
 1635 Fit      -0.008964
 1636 Fit      -0.015629
 1637 Fit      -0.005289
 1638 Fit      -0.009627
 1639 Fit       0.001772
 1640 Fit      -0.012247
 1641 Fit      -0.000209
 1642 Fit      -0.003602
 1643 Fit      -0.007744
 1644 Fit      -0.012685
 1645 Fit       0.001458
 1646 Fit      -0.000657
 1647 Fit       0.001209
 1648 Fit       0.000805
 1649 Fit      -0.000746
 1650 Fit      -0.003709
 1651 Fit      -0.009308
 1652 Fit      -0.001218
 1653 Fit      -0.000247
 1654 Fit      -0.001146
 1655 Fit      -0.004136
 1656 Fit      -0.010374
 1657 Fit      -0.004055
 1658 Fit      -0.002989
 1659 Fit      -0.006561
 1660 Fit      -0.014535
 1661 Fit      -0.007767
 1662 Fit      -0.003263
 1663 Fit      -0.000993
 1664 Fit      -0.009494
 1665 Fit      -0.002613
 1666 Fit       0.000447
 1667 Fit      -0.004678
 1668 Fit      -0.000818
 1669 Fit      -0.002653
 1670 Fit      -0.017565
 1671 Fit      -0.021250
 1672 Fit      -0.022439
 1673 Fit      -0.018063
 1674 Fit      -0.020324
 1675 Fit      -0.023862
 1676 Fit      -0.021822
 1677 Fit      -0.021231
 1678 Fit      -0.023115
 1679 Fit      -0.018955
 1680 Fit      -0.020180
 1681 Fit       0.000731
 1682 Fit       0.004711
 1683 Fit      -0.006565
 1684 Fit       0.006469
 1685 Fit      -0.010714
 1686 Fit       0.003272
 1687 Fit       0.000597
 1688 Fit       0.004847
 1689 Fit      -0.005596
 1690 Fit      -0.000437
 1691 Fit       0.002850
 1692 Fit       0.006019
 1693 Fit      -0.011827
 1694 Fit      -0.003856
 1695 Fit       0.000867
 1696 Fit       0.003843
 1697 Fit       0.006410
 1698 Fit      -0.005918
 1699 Fit      -0.000005
 1700 Fit       0.003615
 1701 Fit      -0.004086
 1702 Fit       0.001979
 1703 Fit       0.004026
 1704 Fit       0.004088
 1705 Fit       0.002525
 1706 Fit       0.004462
 1707 Fit       0.002804
 1708 Fit       0.001635
 1709 Fit       0.001564
 1710 Fit      -0.002783
 1711 Fit      -0.004879
 1712 Fit       0.000957
 1713 Fit       0.002252
 1714 Fit      -0.002148
 1715 Fit       0.006612
 1716 Fit       0.004464
 1717 Fit       0.007054
 1718 Fit       0.005763
 1719 Fit       0.002460
 1720 Fit       0.007271
 1721 Fit       0.006400
 1722 Fit       0.003502
 1723 Fit      -0.013607
 1724 Fit      -0.004740
 1725 Fit      -0.000484
 1726 Fit       0.000051
 1727 Fit      -0.005985
 1728 Fit      -0.009582
 1729 Fit      -0.009915
 1730 Fit      -0.005520
 1731 Fit      -0.001638
 1732 Fit      -0.000858
 1733 Fit      -0.001834
 1734 Fit      -0.001550
 1735 Fit      -0.000328
 1736 Fit      -0.005605
 1737 Fit      -0.008527
 1738 Fit      -0.010448
 1739 Fit      -0.006863
 1740 Fit       0.003107
 1741 Fit      -0.006586
 1742 Fit      -0.012216
 1743 Fit      -0.000989
 1744 Fit       0.005022
 1745 Fit       0.011223
 1746 Fit       0.008123
 1747 Fit       0.001709
 1748 Fit      -0.002038
 1749 Fit       0.009928
 1750 Fit       0.006791
 1751 Fit       0.004166
 1752 Fit       0.000880
 1753 Fit      -0.004462
 1754 Fit       0.012169
 1755 Fit       0.009185
 1756 Fit       0.006771
 1757 Fit       0.004009
 1758 Fit       0.000348
 1759 Fit       0.013482
 1760 Fit       0.010080
 1761 Fit       0.007438
 1762 Fit       0.004656
 1763 Fit       0.011104
 1764 Fit       0.007940
 1765 Fit      -0.004769
 1766 Fit       0.002973
 1767 Fit       0.001163
 1768 Fit       0.001373
 1769 Fit       0.001668
 1770 Fit      -0.000623
 1771 Fit       0.004130
 1772 Fit       0.008547
 1773 Fit       0.006071
 1774 Fit       0.004128
 1775 Fit       0.003741
 1776 Fit       0.006229
 1777 Fit       0.010450
 1778 Fit       0.012181
 1779 Fit       0.004696
 1780 Fit      -0.000265
 1781 Fit       0.004065
 1782 Fit       0.005400
 1783 Fit       0.003026
 1784 Fit      -0.005332
 1785 Fit      -0.002902
 1786 Fit       0.008410
 1787 Fit       0.007147
 1788 Fit       0.005006
 1789 Fit      -0.000717
 1790 Fit       0.009689
 1791 Fit       0.008874
 1792 Fit       0.008031
 1793 Fit       0.006171
 1794 Fit       0.010751
 1795 Fit       0.012237
 1796 Fit       0.011491
 1797 Fit       0.011928
 1798 Fit       0.013504
 1799 Fit       0.012620
 1800 Fit       0.011479
 1801 Fit       0.011618
 1802 Fit       0.012433
 1803 Fit       0.010403
 1804 Fit       0.011265
 1805 Fit       0.010979
 1806 Fit       0.010979
 1807 Fit       0.009775
 1808 Fit       0.007608
 1809 Fit       0.009936
 1810 Fit      -0.004878
 1811 Fit       0.000437
 1812 Fit       0.000708
 1813 Fit       0.004330
 1814 Fit       0.005885
 1815 Fit       0.005583
 1816 Fit       0.003905
 1817 Fit       0.004214
 1818 Fit       0.006402
 1819 Fit       0.005460
 1820 Fit       0.004604
 1821 Fit       0.006914
 1822 Fit       0.002247
 1823 Fit       0.006439
 1824 Fit       0.008646
 1825 Fit       0.003661
 1826 Fit       0.007809
 1827 Fit       0.011583
 1828 Fit       0.011566
 1829 Fit       0.012314
 1830 Fit       0.013170
 1831 Fit       0.012044
 1832 Fit       0.011303
 1833 Fit       0.008946
 1834 Fit       0.011609
 1835 Fit       0.000857
 1836 Fit       0.001560
 1837 Fit       0.001181
 1838 Fit       0.003211
 1839 Fit      -0.002869
 1840 Fit       0.002616
 1841 Fit       0.004571
 1842 Fit       0.004239
 1843 Fit       0.002250
 1844 Fit       0.005501
 1845 Fit       0.007309
 1846 Fit       0.007586
 1847 Fit       0.007386
 1848 Fit       0.010166
 1849 Fit       0.007211
 1850 Fit       0.007381
 1851 Fit       0.007160
 1852 Fit       0.007965
 1853 Fit       0.006724
 1854 Fit       0.007036
 1855 Fit       0.005610
 1856 Fit       0.002663
 1857 Fit       0.004626
 1858 Fit       0.004492
 1859 Fit       0.002052
 1860 Fit      -0.001873
 1861 Fit      -0.004950
 1862 Fit      -0.005316
 1863 Fit      -0.002756
 1864 Fit       0.002297
 1865 Fit       0.003025
 1866 Fit      -0.001913
 1867 Fit      -0.006344
 1868 Fit      -0.005882
 1869 Fit      -0.006297
 1870 Fit      -0.006356
 1871 Fit      -0.003360
 1872 Fit       0.002669
 1873 Fit      -0.003400
 1874 Fit      -0.006237
 1875 Fit      -0.005405
 1876 Fit      -0.003198
 1877 Fit      -0.002792
 1878 Fit      -0.004433
 1879 Fit      -0.005987
 1880 Fit      -0.004364
 1881 Fit      -0.004167
 1882 Fit      -0.007625
 1883 Fit      -0.007610
 1884 Fit      -0.001536
 1885 Fit       0.002560
 1886 Fit       0.004777
 1887 Fit       0.003824
 1888 Fit      -0.000095
 1889 Fit      -0.003110
 1890 Fit      -0.002079
 1891 Fit      -0.003708
 1892 Fit      -0.007841
 1893 Fit      -0.008555
 1894 Fit      -0.005967
 1895 Fit       0.001448
 1896 Fit       0.003441
 1897 Fit      -0.000890
 1898 Fit      -0.005392
 1899 Fit      -0.007390
 1900 Fit      -0.005838
 1901 Fit      -0.000734
 1902 Fit      -0.000796
 1903 Fit      -0.003484
 1904 Fit      -0.001641
 1905 Fit       0.003292
 1906 Fit       0.002752
 1907 Fit       0.011643
 1908 Fit       0.006007
 1909 Fit       0.009285
 1910 Fit       0.005984
 1911 Fit       0.003728
 1912 Fit       0.007788
 1913 Fit       0.007457
 1914 Fit       0.005689
 1915 Fit       0.002276
 1916 Fit       0.001459
 1917 Fit       0.006922
 1918 Fit       0.010692
 1919 Fit       0.008399
 1920 Fit       0.003710
 1921 Fit       0.008825
 1922 Fit       0.010262
 1923 Fit       0.009591
 1924 Fit       0.006263
 1925 Fit       0.000941
 1926 Fit       0.006234
 1927 Fit       0.011132
 1928 Fit       0.004401
 1929 Fit       0.007435
 1930 Fit       0.012553
 1931 Fit       0.007828
 1932 Fit       0.015348
 1933 Fit       0.009642
 1934 Fit       0.003741
 1935 Fit       0.010244
 1936 Fit       0.006856
 1937 Fit       0.005395
 1938 Fit       0.004786
 1939 Fit      -0.000890
 1940 Fit      -0.001596
 1941 Fit      -0.005584
 1942 Fit      -0.005917
 1943 Fit      -0.002328
 1944 Fit      -0.001339
 1945 Fit      -0.001612
 1946 Fit       0.001791
 1947 Fit      -0.005681
 1948 Fit      -0.008422
 1949 Fit      -0.007241
 1950 Fit      -0.004079
 1951 Fit      -0.001420
 1952 Fit      -0.000629
 1953 Fit      -0.001294
 1954 Fit      -0.003677
 1955 Fit      -0.006653
 1956 Fit      -0.007333
 1957 Fit      -0.004702
 1958 Fit       0.000163
 1959 Fit       0.000932
 1960 Fit      -0.005382
 1961 Fit      -0.008452
 1962 Fit      -0.008397
 1963 Fit      -0.007070
 1964 Fit      -0.006486
 1965 Fit      -0.007382
 1966 Fit      -0.009198
 1967 Fit      -0.010274
 1968 Fit      -0.008730
 1969 Fit      -0.004298
 1970 Fit      -0.000534
 1971 Fit      -0.005464
 1972 Fit      -0.007916
 1973 Fit      -0.008487
 1974 Fit      -0.009020
 1975 Fit      -0.010019
 1976 Fit      -0.009992
 1977 Fit      -0.007082
 1978 Fit      -0.001171
 1979 Fit       0.000547
 1980 Fit       0.000647
 1981 Fit      -0.004266
 1982 Fit      -0.007332
 1983 Fit      -0.008157
 1984 Fit      -0.005418
 1985 Fit      -0.004185
 1986 Fit       0.001647
 1987 Fit      -0.001591
 1988 Fit      -0.003434
 1989 Fit       0.003985
 1990 Fit       0.001066
 1991 Fit       0.000530
 1992 Fit       0.001396
 1993 Fit       0.001964
 1994 Fit       0.003621
 1995 Fit       0.001180
 1996 Fit       0.002197
 1997 Fit       0.003069
 1998 Fit       0.009644
 1999 Fit       0.009317
 2000 Fit       0.004618
 2001 Fit       0.005820
 2002 Fit       0.004465
 2003 Fit       0.002269
 2004 Fit       0.001865
 2005 Fit       0.004958
 2006 Fit       0.006695
 2007 Fit       0.004567
 2008 Fit      -0.000179
 2009 Fit       0.002699
 2010 Fit       0.001354
 2011 Fit      -0.000270
 2012 Fit       0.002098
 2013 Fit      -0.000048
 2014 Fit       0.000118
 2015 Fit       0.001911
 2016 Fit      -0.001149
 2017 Fit       0.002466
 2018 Fit       0.005302
 2019 Fit       0.016922
 2020 Fit       0.014266
 2021 Fit       0.010533
 2022 Fit       0.010609
 2023 Fit       0.007619
 2024 Fit      -0.003171
 2025 Fit      -0.002295
 2026 Fit       0.002217
 2027 Fit      -0.002394
 2028 Fit      -0.007468
 2029 Fit      -0.009477
 2030 Fit      -0.007829
 2031 Fit      -0.002846
 2032 Fit       0.002826
 2033 Fit       0.002149
 2034 Fit      -0.001044
 2035 Fit      -0.005697
 2036 Fit      -0.010054
 2037 Fit      -0.012616
 2038 Fit      -0.012333
 2039 Fit      -0.008822
 2040 Fit      -0.002379
 2041 Fit      -0.004440
 2042 Fit      -0.004930
 2043 Fit      -0.007218
 2044 Fit      -0.010552
 2045 Fit      -0.013242
 2046 Fit      -0.013611
 2047 Fit      -0.010671
 2048 Fit      -0.004344
 2049 Fit      -0.004632
 2050 Fit      -0.004886
 2051 Fit      -0.009660
 2052 Fit      -0.009864
 2053 Fit      -0.011295
 2054 Fit      -0.012917
 2055 Fit      -0.012858
 2056 Fit      -0.009739
 2057 Fit      -0.003574
 2058 Fit      -0.006584
 2059 Fit      -0.009594
 2060 Fit      -0.010100
 2061 Fit      -0.012034
 2062 Fit      -0.012064
 2063 Fit      -0.012217
 2064 Fit      -0.010987
 2065 Fit      -0.006996
 2066 Fit      -0.001088
 2067 Fit       0.004486
 2068 Fit      -0.008933
 2069 Fit      -0.011704
 2070 Fit      -0.011079
 2071 Fit      -0.010460
 2072 Fit      -0.006621
 2073 Fit      -0.001159
 2074 Fit      -0.008084
 2075 Fit      -0.007062
 2076 Fit       0.009701
 2077 Fit       0.008277
 2078 Fit       0.005911
 2079 Fit       0.000219
 2080 Fit       0.009826
 2081 Fit       0.008650
 2082 Fit       0.007139
 2083 Fit       0.008741
 2084 Fit       0.007974
 2085 Fit       0.006454
 2086 Fit       0.003996
 2087 Fit       0.006959
 2088 Fit       0.006185
 2089 Fit       0.004223
 2090 Fit       0.000292
 2091 Fit       0.007245
 2092 Fit       0.003511
 2093 Fit       0.010803
 2094 Fit       0.009389
 2095 Fit       0.009982
 2096 Fit       0.011674
 2097 Fit       0.011987
 2098 Fit       0.007427
 2099 Fit       0.007455
 2100 Fit       0.009238
 2101 Fit       0.012293
 2102 Fit       0.015135
 2103 Fit       0.003827
 2104 Fit       0.003608
 2105 Fit       0.006039
 2106 Fit       0.011062
 2107 Fit       0.009335
 2108 Fit       0.012717
 2109 Fit       0.009911
 2110 Fit       0.007501
 2111 Fit       0.006496
 2112 Fit       0.006235
 2113 Fit       0.005668
 2114 Fit       0.006759
 2115 Fit       0.009166
 2116 Fit       0.005861
 2117 Fit       0.005127
 2118 Fit       0.005200
 2119 Fit       0.005664
 2120 Fit       0.006309
 2121 Fit       0.008014
 2122 Fit       0.008739
 2123 Fit       0.008772
 2124 Fit       0.009628
 2125 Fit       0.009974
 2126 Fit       0.008772
 2127 Fit       0.007558
 2128 Fit       0.007864
 2129 Fit       0.008371
 2130 Fit       0.009437
 2131 Fit       0.010494
 2132 Fit       0.006477
 2133 Fit       0.006797
 2134 Fit       0.007489
 2135 Fit       0.007547
 2136 Fit       0.009132
 2137 Fit       0.005991
 2138 Fit       0.006582
 2139 Fit       0.010064
 2140 Fit       0.007641
 2141 Fit       0.016584
 2142 Fit       0.009336
 2143 Fit       0.007450
 2144 Fit       0.010074
 2145 Fit       0.013118
 2146 Fit       0.005723
 2147 Fit       0.005156
 2148 Fit       0.005227
 2149 Fit       0.004718
 2150 Fit       0.005381
 2151 Fit       0.006806
 2152 Fit       0.005320
 2153 Fit       0.004996
 2154 Fit       0.004820
 2155 Fit       0.002337
 2156 Fit       0.004689
 2157 Fit       0.003916
 2158 Fit       0.003411
 2159 Fit      -0.002665
 2160 Fit      -0.000008
 Job cpu time:       0 days  0 hours  4 minutes 40.9 seconds.
 Normal termination of Gaussian 16 at Sat Jul  8 22:13:17 2023.
