 Copyright (c) 1988-2019, Gaussian, Inc.  All Rights Reserved.
  
 This is part of the Gaussian(R) 16 program.  It is based on
 the Gaussian(R) 09 system (copyright 2009, Gaussian, Inc.),
 the Gaussian(R) 03 system (copyright 2003, Gaussian, Inc.),
 the Gaussian(R) 98 system (copyright 1998, Gaussian, Inc.),
 the Gaussian(R) 94 system (copyright 1995, Gaussian, Inc.),
 the Gaussian 92(TM) system (copyright 1992, Gaussian, Inc.),
 the Gaussian 90(TM) system (copyright 1990, Gaussian, Inc.),
 the Gaussian 88(TM) system (copyright 1988, Gaussian, Inc.),
 the Gaussian 86(TM) system (copyright 1986, Carnegie Mellon
 University), and the Gaussian 82(TM) system (copyright 1983,
 Carnegie Mellon University). Gaussian is a federally registered
 trademark of Gaussian, Inc.
 Cite this work as:
 Gaussian 16, Revision C.01,
 M. J. Frisch, G. W. Trucks, H. B. Schlegel, G. E. Scuseria, 
 M. A. Robb, J. R. Cheeseman, G. Scalmani, V. Barone, 
 G. A. Petersson, H. Nakatsuji, X. Li, M. Caricato, A. V. Marenich, 
 J. Bloino, B. G. Janesko, R. Gomperts, B. Mennucci, H. P. Hratchian, 
 J. V. Ortiz, A. F. Izmaylov, J. L. Sonnenberg, D. Williams-Young, 
 F. Ding, F. Lipparini, F. Egidi, J. Goings, B. Peng, A. Petrone, 
 T. Henderson, D. Ranasinghe, V. G. Zakrzewski, J. Gao, N. Rega, 
 G. Zheng, W. Liang, M. Hada, M. Ehara, K. Toyota, R. Fukuda, 
 J. Hasegawa, M. Ishida, T. Nakajima, Y. Honda, O. Kitao, H. Nakai, 
 T. Vreven, K. Throssell, J. A. Montgomery, Jr., J. E. Peralta, 
 F. Ogliaro, M. J. Bearpark, J. J. Heyd, E. N. Brothers, K. N. Kudin, 
 V. N. Staroverov, T. A. Keith, R. Kobayashi, J. Normand, 
 K. Raghavachari, A. P. Rendell, J. C. Burant, S. S. Iyengar, 
 J. Tomasi, M. Cossi, J. M. Millam, M. Klene, C. Adamo, R. Cammi, 
 J. W. Ochterski, R. L. Martin, K. Morokuma, O. Farkas, 
 J. B. Foresman, and D. J. Fox, Gaussian, Inc., Wallingford CT, 2019.
 
 ******************************************
 Gaussian 16:  EM64L-G16RevC.01  3-Jul-2019
                 8-Jul-2023 
 ******************************************
 ----------------------------------------------------------------------
 #P HF/6-31G(d) SCF(Conver=8,XQC,MaxConventionalCycles=64,MaxCycle=128)
  NoSymm Test Pop=mk IOp(6/33=2) GFInput GFPrint
 ----------------------------------------------------------------------
 1/38=1,172=1/1;
 2/12=2,15=1,17=6,18=5,40=1/2;
 3/5=1,6=6,7=1,11=9,24=110,25=1,30=1/1,2,3;
 4//1;
 5/5=2,6=8,7=128,8=3,13=1,38=5,85=64/2,8;
 6/7=2,8=2,9=2,10=2,15=8,20=1,28=1,33=2/1,2;
 99/5=1,9=1/99;
 -------------------------------------------------
 MEP step - Input generated by PyRED DVE-DMDS-OPLS
 -------------------------------------------------
 Symbolic Z-matrix:
 Charge =  0 Multiplicity = 1
 C                    -7.48941  -2.05676   3.03906 
 H                    -7.31766  -2.10266   1.96905 
 H                    -7.05066  -2.93905   3.49218 
 H                    -8.56259  -2.08473   3.20302 
 C                    -6.89954  -0.79752   3.6599 
 H                    -7.32585   0.09073   3.19618 
 H                    -7.14188  -0.7624    4.71447 
 O                    -5.50124  -0.74915   3.59003 
 C                    -4.95204  -0.39673   2.35729 
 H                    -5.3666    0.55048   2.01491 
 H                    -5.15742  -1.14181   1.59367 
 C                    -3.44827  -0.28978   2.55554 
 H                    -3.22868   0.44759   3.32201 
 H                    -3.07005  -1.24452   2.89538 
 O                    -2.78946   0.01471   1.35766 
 C                    -2.66098   1.37282   1.04857 
 H                    -2.19016   1.90721   1.86998 
 H                    -3.63637   1.82302   0.86956 
 C                    -1.81924   1.53356  -0.20246 
 H                    -1.91749   2.55532  -0.5506 
 H                    -2.19829   0.87362  -0.97927 
 O                    -0.45256   1.32631   0. 
 C                     0.        0.        0. 
 H                    -0.34795  -0.50398  -0.90176 
 H                    -0.38105  -0.54185   0.85434 
 C                     1.51844   0.        0. 
 H                     1.88903   0.59278  -0.82786 
 H                     1.8658   -1.01696  -0.14424 
 S                     2.31289   0.55201   1.53888 
 C                     2.20237   2.3679    1.41406 
 H                     2.62289   2.66985   0.46286 
 H                     1.16892   2.67312   1.43785 
 C                     2.9746    2.99104   2.5734 
 H                     4.00632   2.66463   2.57825 
 H                     2.54218   2.67888   3.51635 
 S                     2.90049   4.80647   2.62677 
 C                     3.87985   5.31198   1.18059 
 H                     3.7972    6.3917    1.16751 
 H                     3.40827   4.94517   0.2769 
 C                     5.35331   4.90717   1.16309 
 H                     5.45138   3.82956   1.14642 
 H                     5.78882   5.28666   0.24443 
 S                     6.28386   5.60293   2.56398 
 C                     7.98719   5.4498    1.94711 
 H                     8.06161   5.94854   0.98697 
 H                     8.58263   6.02347   2.64769 
 C                     8.51887   4.02202   1.85849 
 H                     7.9591    3.42855   1.14378 
 H                     9.55669   4.03049   1.53713 
 H                     8.46381   3.5281    2.82166 
 
 ITRead=  0  0  0  0  0  0  0  0  0  0  0  0  0  0  0  0  0  0  0  0
 ITRead=  0  0  0  0  0  0  0  0  0  0  0  0  0  0  0  0  0  0  0  0
 ITRead=  0  0  0  0  0  0  0  0  0  0
 MicOpt= -1 -1 -1 -1 -1 -1 -1 -1 -1 -1 -1 -1 -1 -1 -1 -1 -1 -1 -1 -1
 MicOpt= -1 -1 -1 -1 -1 -1 -1 -1 -1 -1 -1 -1 -1 -1 -1 -1 -1 -1 -1 -1
 MicOpt= -1 -1 -1 -1 -1 -1 -1 -1 -1 -1
 NAtoms=     50 NQM=       50 NQMF=       0 NMMI=      0 NMMIF=      0
                NMic=       0 NMicF=      0.
                          Input orientation:                          
 ---------------------------------------------------------------------
 Center     Atomic      Atomic             Coordinates (Angstroms)
 Number     Number       Type             X           Y           Z
 ---------------------------------------------------------------------
      1          6           0       -7.489412   -2.056761    3.039062
      2          1           0       -7.317665   -2.102656    1.969050
      3          1           0       -7.050657   -2.939050    3.492176
      4          1           0       -8.562595   -2.084731    3.203020
      5          6           0       -6.899540   -0.797518    3.659903
      6          1           0       -7.325853    0.090734    3.196179
      7          1           0       -7.141876   -0.762404    4.714473
      8          8           0       -5.501244   -0.749150    3.590029
      9          6           0       -4.952043   -0.396729    2.357285
     10          1           0       -5.366597    0.550478    2.014914
     11          1           0       -5.157421   -1.141814    1.593673
     12          6           0       -3.448272   -0.289778    2.555543
     13          1           0       -3.228678    0.447593    3.322008
     14          1           0       -3.070046   -1.244518    2.895376
     15          8           0       -2.789458    0.014711    1.357662
     16          6           0       -2.660981    1.372822    1.048572
     17          1           0       -2.190162    1.907212    1.869975
     18          1           0       -3.636366    1.823020    0.869556
     19          6           0       -1.819238    1.533556   -0.202460
     20          1           0       -1.917486    2.555316   -0.550601
     21          1           0       -2.198286    0.873618   -0.979272
     22          8           0       -0.452555    1.326310    0.000000
     23          6           0        0.000000    0.000000    0.000000
     24          1           0       -0.347951   -0.503981   -0.901758
     25          1           0       -0.381053   -0.541846    0.854343
     26          6           0        1.518444    0.000000    0.000000
     27          1           0        1.889034    0.592779   -0.827857
     28          1           0        1.865797   -1.016956   -0.144243
     29         16           0        2.312889    0.552009    1.538884
     30          6           0        2.202372    2.367897    1.414059
     31          1           0        2.622890    2.669854    0.462856
     32          1           0        1.168921    2.673115    1.437848
     33          6           0        2.974600    2.991041    2.573400
     34          1           0        4.006317    2.664632    2.578246
     35          1           0        2.542182    2.678877    3.516354
     36         16           0        2.900485    4.806469    2.626766
     37          6           0        3.879852    5.311976    1.180588
     38          1           0        3.797200    6.391704    1.167507
     39          1           0        3.408273    4.945173    0.276900
     40          6           0        5.353312    4.907169    1.163091
     41          1           0        5.451382    3.829563    1.146418
     42          1           0        5.788817    5.286659    0.244429
     43         16           0        6.283856    5.602931    2.563980
     44          6           0        7.987194    5.449796    1.947112
     45          1           0        8.061615    5.948540    0.986972
     46          1           0        8.582634    6.023468    2.647690
     47          6           0        8.518875    4.022022    1.858493
     48          1           0        7.959101    3.428547    1.143781
     49          1           0        9.556686    4.030487    1.537126
     50          1           0        8.463806    3.528100    2.821660
 ---------------------------------------------------------------------
 Stoichiometry    C14H30O3S3
 Framework group  C1[X(C14H30O3S3)]
 Standard basis: 6-31G(d) (6D, 7F)
   372 basis functions,   752 primitive gaussians,   372 cartesian basis functions
    93 alpha electrons       93 beta electrons
 Requested convergence on RMS density matrix=1.00D-08 within  64 cycles.
 Requested convergence on MAX density matrix=1.00D-06.
 Requested convergence on             energy=1.00D-06.
 SCF Done:  E(RHF) =  -1964.69116702     A.U. after   13 cycles
            NFock= 13  Conv=0.56D-08     -V/T= 2.0006
 Mulliken charges:
     1  C   -0.504573
     2  H    0.163210
     3  H    0.176228
     4  H    0.160220
     5  C    0.016256
     6  H    0.138925
     7  H    0.173591
     8  O   -0.633488
     9  C    0.008024
    10  H    0.136255
    11  H    0.152378
    12  C    0.001388
    13  H    0.159850
    14  H    0.185999
    15  O   -0.642290
    16  C    0.001459
    17  H    0.162127
    18  H    0.136852
    19  C    0.001068
    20  H    0.172733
    21  H    0.155310
    22  O   -0.635409
    23  C    0.032140
    24  H    0.141586
    25  H    0.189304
    26  C   -0.498550
    27  H    0.195908
    28  H    0.197752
    29  S    0.106722
    30  C   -0.449953
    31  H    0.179690
    32  H    0.233274
    33  C   -0.505254
    34  H    0.211927
    35  H    0.216044
    36  S    0.137870
    37  C   -0.487983
    38  H    0.215832
    39  H    0.198972
    40  C   -0.463333
    41  H    0.195059
    42  H    0.189432
    43  S    0.140307
    44  C   -0.480523
    45  H    0.184559
    46  H    0.198619
    47  C   -0.476451
    48  H    0.163582
    49  H    0.165944
    50  H    0.181412
 Sum of Mulliken charges =  -0.00000
 Dipole moment (field-independent basis, Debye):
    X=             -2.0605    Y=             -0.7351    Z=             -4.1110  Tot=              4.6569
 Quadrupole moment (field-independent basis, Debye-Ang):
   XX=           -117.2734   YY=           -158.7064   ZZ=           -163.1075
   XY=             -0.6592   XZ=            -15.3227   YZ=            -15.2134
 Traceless Quadrupole moment (field-independent basis, Debye-Ang):
   XX=             29.0891   YY=            -12.3440   ZZ=            -16.7451
   XY=             -0.6592   XZ=            -15.3227   YZ=            -15.2134
 Octapole moment (field-independent basis, Debye-Ang**2):
  XXX=           -402.9645  YYY=          -1019.6702  ZZZ=           -845.6602  XYY=           -158.5376
  XXY=           -235.4269  XXZ=           -257.2532  XZZ=           -188.9006  YZZ=           -367.9339
  YYZ=           -366.4757  XYZ=            -61.3904
 Hexadecapole moment (field-independent basis, Debye-Ang**3):
 XXXX=         -17281.1902 YYYY=         -10189.7555 ZZZZ=          -4330.0317 XXXY=          -4319.0782
 XXXZ=           -694.3386 YYYX=          -5491.0482 YYYZ=          -2286.3139 ZZZX=           -451.1971
 ZZZY=          -1850.4218 XXYY=          -4688.7822 XXZZ=          -4112.4997 YYZZ=          -2658.9035
 XXYZ=           -752.9733 YYXZ=           -497.2140 ZZXY=          -2003.4011
 Merz-Kollman atomic radii used.
 Atom Element Radius
    1     6    1.50
    2     1    1.20
    3     1    1.20
    4     1    1.20
    5     6    1.50
    6     1    1.20
    7     1    1.20
    8     8    1.40
    9     6    1.50
   10     1    1.20
   11     1    1.20
   12     6    1.50
   13     1    1.20
   14     1    1.20
   15     8    1.40
   16     6    1.50
   17     1    1.20
   18     1    1.20
   19     6    1.50
   20     1    1.20
   21     1    1.20
   22     8    1.40
   23     6    1.50
   24     1    1.20
   25     1    1.20
   26     6    1.50
   27     1    1.20
   28     1    1.20
   29    16    1.75
   30     6    1.50
   31     1    1.20
   32     1    1.20
   33     6    1.50
   34     1    1.20
   35     1    1.20
   36    16    1.75
   37     6    1.50
   38     1    1.20
   39     1    1.20
   40     6    1.50
   41     1    1.20
   42     1    1.20
   43    16    1.75
   44     6    1.50
   45     1    1.20
   46     1    1.20
   47     6    1.50
   48     1    1.20
   49     1    1.20
   50     1    1.20
 Generate VDW surfaces: Layer= 4 Dens= 1 Start= 1.400 Inc= 0.200
            Electrostatic Properties Using The SCF Density.


       Atomic Center    1 is at  -7.489412 -2.056761  3.039062
       Atomic Center    2 is at  -7.317665 -2.102656  1.969050
       Atomic Center    3 is at  -7.050657 -2.939050  3.492176
       Atomic Center    4 is at  -8.562595 -2.084731  3.203020
       Atomic Center    5 is at  -6.899540 -0.797518  3.659903
       Atomic Center    6 is at  -7.325853  0.090734  3.196179
       Atomic Center    7 is at  -7.141876 -0.762404  4.714473
       Atomic Center    8 is at  -5.501244 -0.749150  3.590029
       Atomic Center    9 is at  -4.952043 -0.396729  2.357285
       Atomic Center   10 is at  -5.366597  0.550478  2.014914
       Atomic Center   11 is at  -5.157421 -1.141814  1.593673
       Atomic Center   12 is at  -3.448272 -0.289778  2.555543
       Atomic Center   13 is at  -3.228678  0.447593  3.322008
       Atomic Center   14 is at  -3.070046 -1.244518  2.895376
       Atomic Center   15 is at  -2.789458  0.014711  1.357662
       Atomic Center   16 is at  -2.660981  1.372822  1.048572
       Atomic Center   17 is at  -2.190162  1.907212  1.869975
       Atomic Center   18 is at  -3.636366  1.823020  0.869556
       Atomic Center   19 is at  -1.819238  1.533556 -0.202460
       Atomic Center   20 is at  -1.917486  2.555316 -0.550601
       Atomic Center   21 is at  -2.198286  0.873618 -0.979272
       Atomic Center   22 is at  -0.452555  1.326310  0.000000
       Atomic Center   23 is at   0.000000  0.000000  0.000000
       Atomic Center   24 is at  -0.347951 -0.503981 -0.901758
       Atomic Center   25 is at  -0.381053 -0.541846  0.854343
       Atomic Center   26 is at   1.518444  0.000000  0.000000
       Atomic Center   27 is at   1.889034  0.592779 -0.827857
       Atomic Center   28 is at   1.865797 -1.016956 -0.144243
       Atomic Center   29 is at   2.312889  0.552009  1.538884
       Atomic Center   30 is at   2.202372  2.367897  1.414059
       Atomic Center   31 is at   2.622890  2.669854  0.462856
       Atomic Center   32 is at   1.168921  2.673115  1.437848
       Atomic Center   33 is at   2.974600  2.991041  2.573400
       Atomic Center   34 is at   4.006317  2.664632  2.578246
       Atomic Center   35 is at   2.542182  2.678877  3.516354
       Atomic Center   36 is at   2.900485  4.806469  2.626766
       Atomic Center   37 is at   3.879852  5.311976  1.180588
       Atomic Center   38 is at   3.797200  6.391704  1.167507
       Atomic Center   39 is at   3.408273  4.945173  0.276900
       Atomic Center   40 is at   5.353312  4.907169  1.163091
       Atomic Center   41 is at   5.451382  3.829563  1.146418
       Atomic Center   42 is at   5.788817  5.286659  0.244429
       Atomic Center   43 is at   6.283856  5.602931  2.563980
       Atomic Center   44 is at   7.987194  5.449796  1.947112
       Atomic Center   45 is at   8.061615  5.948540  0.986972
       Atomic Center   46 is at   8.582634  6.023468  2.647690
       Atomic Center   47 is at   8.518875  4.022022  1.858493
       Atomic Center   48 is at   7.959101  3.428547  1.143781
       Atomic Center   49 is at   9.556686  4.030487  1.537126
       Atomic Center   50 is at   8.463806  3.528100  2.821660
      ESP Fit Center   51 is at  -8.680377 -0.682315  1.989062
      ESP Fit Center   52 is at  -8.680377 -3.431207  1.989062
      ESP Fit Center   53 is at  -7.748233 -3.856903  1.989062
      ESP Fit Center   54 is at  -6.733916 -3.711066  1.989062
      ESP Fit Center   55 is at  -7.040214 -0.529155  1.449901
      ESP Fit Center   56 is at  -8.116552 -0.718942  1.449901
      ESP Fit Center   57 is at  -8.819082 -1.556185  1.449901
      ESP Fit Center   58 is at  -8.819082 -2.649127  1.449901
      ESP Fit Center   59 is at  -8.116552 -3.486370  1.449901
      ESP Fit Center   60 is at  -7.040214 -3.676157  1.449901
      ESP Fit Center   61 is at  -6.093698 -3.129686  1.449901
      ESP Fit Center   62 is at  -6.330186 -2.102656  0.609901
      ESP Fit Center   63 is at  -7.012517 -1.163507  0.609901
      ESP Fit Center   64 is at  -8.116552 -1.522230  0.609901
      ESP Fit Center   65 is at  -8.116552 -2.683082  0.609901
      ESP Fit Center   66 is at  -7.012517 -3.041805  0.609901
      ESP Fit Center   67 is at  -7.317665 -2.102656  0.289050
      ESP Fit Center   68 is at  -7.050657 -2.939050  5.172176
      ESP Fit Center   69 is at  -6.063178 -2.939050  4.851325
      ESP Fit Center   70 is at  -7.849544 -3.519476  4.851325
      ESP Fit Center   71 is at  -6.745509 -3.878199  4.851325
      ESP Fit Center   72 is at  -5.452882 -2.939050  4.011325
      ESP Fit Center   73 is at  -7.849544 -4.322764  4.011325
      ESP Fit Center   74 is at  -6.773206 -4.512551  4.011325
      ESP Fit Center   75 is at  -5.826690 -3.966080  4.011325
      ESP Fit Center   76 is at  -5.452882 -2.939050  2.973027
      ESP Fit Center   77 is at  -7.849544 -4.322764  2.973027
      ESP Fit Center   78 is at  -6.773206 -4.512551  2.973027
      ESP Fit Center   79 is at  -5.826690 -3.966080  2.973027
      ESP Fit Center   80 is at  -6.745509 -3.878199  2.133027
      ESP Fit Center   81 is at  -8.562595 -2.084731  4.883020
      ESP Fit Center   82 is at  -9.361482 -1.504305  4.562169
      ESP Fit Center   83 is at  -9.361482 -2.665157  4.562169
      ESP Fit Center   84 is at  -9.361482 -0.701017  3.722169
      ESP Fit Center   85 is at -10.064012 -1.538260  3.722169
      ESP Fit Center   86 is at -10.064012 -2.631202  3.722169
      ESP Fit Center   87 is at  -9.361482 -3.468445  3.722169
      ESP Fit Center   88 is at  -9.361482 -0.701017  2.683871
      ESP Fit Center   89 is at -10.064012 -1.538260  2.683871
      ESP Fit Center   90 is at -10.064012 -2.631202  2.683871
      ESP Fit Center   91 is at  -9.361482 -3.468445  2.683871
      ESP Fit Center   92 is at  -9.361482 -1.504305  1.843871
      ESP Fit Center   93 is at  -9.361482 -2.665157  1.843871
      ESP Fit Center   94 is at  -6.144044  0.856787  4.709903
      ESP Fit Center   95 is at  -7.158361  1.002624  4.709903
      ESP Fit Center   96 is at  -8.938518 -0.294955  3.659903
      ESP Fit Center   97 is at  -8.124740  0.671160  4.555328
      ESP Fit Center   98 is at  -7.048402  1.664235  3.715328
      ESP Fit Center   99 is at  -8.124740  1.474448  3.715328
      ESP Fit Center  100 is at  -8.827270  0.637205  3.715328
      ESP Fit Center  101 is at  -7.048402  1.664235  2.677030
      ESP Fit Center  102 is at  -8.124740  1.474448  2.677030
      ESP Fit Center  103 is at  -8.827270  0.637205  2.677030
      ESP Fit Center  104 is at  -8.827270 -0.455737  2.677030
      ESP Fit Center  105 is at  -7.020705  1.029883  1.837030
      ESP Fit Center  106 is at  -8.124740  0.671160  1.837030
      ESP Fit Center  107 is at  -7.325853  0.090734  1.516179
      ESP Fit Center  108 is at  -7.141876 -0.762404  6.394473
      ESP Fit Center  109 is at  -6.154397 -0.762404  6.073622
      ESP Fit Center  110 is at  -6.836728  0.176745  6.073622
      ESP Fit Center  111 is at  -7.940763 -0.181978  6.073622
      ESP Fit Center  112 is at  -7.940763 -1.342830  6.073622
      ESP Fit Center  113 is at  -6.836728 -1.701553  6.073622
      ESP Fit Center  114 is at  -5.917909  0.264626  5.233622
      ESP Fit Center  115 is at  -6.864425  0.811097  5.233622
      ESP Fit Center  116 is at  -7.940763  0.621310  5.233622
      ESP Fit Center  117 is at  -8.643293 -0.215933  5.233622
      ESP Fit Center  118 is at  -8.643293 -1.308875  5.233622
      ESP Fit Center  119 is at  -7.940763 -2.146118  5.233622
      ESP Fit Center  120 is at  -6.864425 -2.335905  5.233622
      ESP Fit Center  121 is at  -5.917909 -1.789434  5.233622
      ESP Fit Center  122 is at  -5.501244 -0.749150  5.550029
      ESP Fit Center  123 is at  -4.521244 -0.749150  5.287439
      ESP Fit Center  124 is at  -5.011244  0.099555  5.287439
      ESP Fit Center  125 is at  -5.011244 -1.597855  5.287439
      ESP Fit Center  126 is at  -4.976716  0.865183  4.570029
      ESP Fit Center  127 is at  -4.976716 -2.363483  4.570029
      ESP Fit Center  128 is at  -4.128011 -1.746862  4.570029
      ESP Fit Center  129 is at  -4.521244 -2.446560  3.590029
      ESP Fit Center  130 is at  -5.061449  1.489627  3.374063
      ESP Fit Center  131 is at  -5.089146  2.123979  2.534063
      ESP Fit Center  132 is at  -6.165484  1.934192  2.534063
      ESP Fit Center  133 is at  -6.165484  1.934192  1.495765
      ESP Fit Center  134 is at  -6.868014  1.096949  1.495765
      ESP Fit Center  135 is at  -6.868014  0.004007  1.495765
      ESP Fit Center  136 is at  -6.165484  1.130904  0.655765
      ESP Fit Center  137 is at  -6.165484 -0.029948  0.655765
      ESP Fit Center  138 is at  -5.366597  0.550478  0.334914
      ESP Fit Center  139 is at  -4.879970 -2.715315  2.112822
      ESP Fit Center  140 is at  -6.658838 -0.595343  1.074524
      ESP Fit Center  141 is at  -5.956308 -2.525528  1.074524
      ESP Fit Center  142 is at  -4.879970 -2.715315  1.074524
      ESP Fit Center  143 is at  -3.933454 -2.168844  1.074524
      ESP Fit Center  144 is at  -4.169942 -1.141814  0.234524
      ESP Fit Center  145 is at  -4.852273 -0.202665  0.234524
      ESP Fit Center  146 is at  -5.956308 -0.561388  0.234524
      ESP Fit Center  147 is at  -5.956308 -1.722240  0.234524
      ESP Fit Center  148 is at  -4.852273 -2.080963  0.234524
      ESP Fit Center  149 is at  -5.157421 -1.141814 -0.086327
      ESP Fit Center  150 is at  -1.629619 -0.289778  3.605543
      ESP Fit Center  151 is at  -4.192942  1.673756  2.555543
      ESP Fit Center  152 is at  -3.707093 -2.089920  1.505543
      ESP Fit Center  153 is at  -3.228678  0.447593  5.002008
      ESP Fit Center  154 is at  -2.241199  0.447593  4.681157
      ESP Fit Center  155 is at  -2.923530  1.386742  4.681157
      ESP Fit Center  156 is at  -4.027565  1.028019  4.681157
      ESP Fit Center  157 is at  -2.923530 -0.491556  4.681157
      ESP Fit Center  158 is at  -1.630903  0.447593  3.841157
      ESP Fit Center  159 is at  -2.004711  1.474623  3.841157
      ESP Fit Center  160 is at  -2.951227  2.021094  3.841157
      ESP Fit Center  161 is at  -4.027565  1.831307  3.841157
      ESP Fit Center  162 is at  -4.027565  1.831307  2.802859
      ESP Fit Center  163 is at  -3.070046 -1.244518  4.575376
      ESP Fit Center  164 is at  -2.082567 -1.244518  4.254525
      ESP Fit Center  165 is at  -3.868933 -1.824944  4.254525
      ESP Fit Center  166 is at  -2.764898 -2.183667  4.254525
      ESP Fit Center  167 is at  -1.472271 -1.244518  3.414525
      ESP Fit Center  168 is at  -3.868933 -2.628232  3.414525
      ESP Fit Center  169 is at  -2.792595 -2.818019  3.414525
      ESP Fit Center  170 is at  -1.846079 -2.271548  3.414525
      ESP Fit Center  171 is at  -1.472271 -1.244518  2.376227
      ESP Fit Center  172 is at  -3.868933 -2.628232  2.376227
      ESP Fit Center  173 is at  -2.792595 -2.818019  2.376227
      ESP Fit Center  174 is at  -1.846079 -2.271548  2.376227
      ESP Fit Center  175 is at  -2.764898 -2.183667  1.536227
      ESP Fit Center  176 is at  -1.092048  0.014711  2.337662
      ESP Fit Center  177 is at  -1.416225 -0.983001  2.337662
      ESP Fit Center  178 is at  -2.789458 -1.945289  1.357662
      ESP Fit Center  179 is at  -1.809458 -1.682699  1.357662
      ESP Fit Center  180 is at  -3.313986 -1.599622  0.377662
      ESP Fit Center  181 is at  -2.264930 -1.599622  0.377662
      ESP Fit Center  182 is at  -3.769458  0.014711 -0.339748
      ESP Fit Center  183 is at  -3.279458 -0.833994 -0.339748
      ESP Fit Center  184 is at  -2.299458 -0.833994 -0.339748
      ESP Fit Center  185 is at  -2.407854  3.457511  1.048572
      ESP Fit Center  186 is at  -2.190162  1.907212  3.549975
      ESP Fit Center  187 is at  -1.202683  1.907212  3.229124
      ESP Fit Center  188 is at  -1.885014  2.846361  3.229124
      ESP Fit Center  189 is at  -2.989049  2.487638  3.229124
      ESP Fit Center  190 is at  -0.592387  1.907212  2.389124
      ESP Fit Center  191 is at  -0.966195  2.934242  2.389124
      ESP Fit Center  192 is at  -1.912711  3.480713  2.389124
      ESP Fit Center  193 is at  -2.989049  3.290926  2.389124
      ESP Fit Center  194 is at  -0.966195  0.880182  2.389124
      ESP Fit Center  195 is at  -0.966195  2.934242  1.350826
      ESP Fit Center  196 is at  -1.912711  3.480713  1.350826
      ESP Fit Center  197 is at  -4.435253  2.403446  2.228705
      ESP Fit Center  198 is at  -3.358915  3.396521  1.388705
      ESP Fit Center  199 is at  -4.435253  3.206734  1.388705
      ESP Fit Center  200 is at  -5.137783  2.369491  1.388705
      ESP Fit Center  201 is at  -3.358915  3.396521  0.350407
      ESP Fit Center  202 is at  -4.435253  3.206734  0.350407
      ESP Fit Center  203 is at  -5.137783  2.369491  0.350407
      ESP Fit Center  204 is at  -5.137783  1.276549  0.350407
      ESP Fit Center  205 is at  -4.435253  0.439306  0.350407
      ESP Fit Center  206 is at  -4.435253  2.403446 -0.489593
      ESP Fit Center  207 is at  -4.435253  1.242594 -0.489593
      ESP Fit Center  208 is at  -1.063742  3.187861  0.847540
      ESP Fit Center  209 is at  -3.564223  2.045930 -1.252460
      ESP Fit Center  210 is at  -0.769238  1.533556 -2.021113
      ESP Fit Center  211 is at  -1.612338  3.494465  0.808548
      ESP Fit Center  212 is at  -0.693519  3.582346 -0.031452
      ESP Fit Center  213 is at  -1.640035  4.128817 -0.031452
      ESP Fit Center  214 is at  -2.716373  3.939030 -0.031452
      ESP Fit Center  215 is at  -0.693519  3.582346 -1.069750
      ESP Fit Center  216 is at  -1.640035  4.128817 -1.069750
      ESP Fit Center  217 is at  -2.716373  3.939030 -1.069750
      ESP Fit Center  218 is at  -3.418903  3.101787 -1.069750
      ESP Fit Center  219 is at  -0.930007  2.555316 -1.909750
      ESP Fit Center  220 is at  -1.612338  3.494465 -1.909750
      ESP Fit Center  221 is at  -2.716373  3.135742 -1.909750
      ESP Fit Center  222 is at  -1.917486  2.555316 -2.230601
      ESP Fit Center  223 is at  -3.699703  0.327147 -0.460123
      ESP Fit Center  224 is at  -3.699703  1.420089 -1.498421
      ESP Fit Center  225 is at  -3.699703  0.327147 -1.498421
      ESP Fit Center  226 is at  -2.997173 -0.510096 -1.498421
      ESP Fit Center  227 is at  -1.920835 -0.699883 -1.498421
      ESP Fit Center  228 is at  -1.210807  0.873618 -2.338421
      ESP Fit Center  229 is at  -1.893138  1.812767 -2.338421
      ESP Fit Center  230 is at  -2.997173  1.454044 -2.338421
      ESP Fit Center  231 is at  -2.997173  0.293192 -2.338421
      ESP Fit Center  232 is at  -1.893138 -0.065531 -2.338421
      ESP Fit Center  233 is at  -2.198286  0.873618 -2.659272
      ESP Fit Center  234 is at  -0.452555  1.326310  1.960000
      ESP Fit Center  235 is at  -0.452555  3.286310  0.000000
      ESP Fit Center  236 is at   0.920678  2.324022 -0.980000
      ESP Fit Center  237 is at   0.071973  2.940643 -0.980000
      ESP Fit Center  238 is at   0.527445  1.326310 -1.697410
      ESP Fit Center  239 is at   0.037445  2.175015 -1.697410
      ESP Fit Center  240 is at  -0.452555  1.326310 -1.960000
      ESP Fit Center  241 is at  -1.571873 -1.392558  0.000000
      ESP Fit Center  242 is at  -0.744670 -1.963534  0.000000
      ESP Fit Center  243 is at   0.253127 -2.084689  0.000000
      ESP Fit Center  244 is at   0.525000  0.909327 -1.818653
      ESP Fit Center  245 is at  -1.849368 -1.050452 -0.382609
      ESP Fit Center  246 is at  -1.146838 -1.887695 -0.382609
      ESP Fit Center  247 is at  -0.070500 -2.077482 -0.382609
      ESP Fit Center  248 is at  -1.849368 -1.050452 -1.420907
      ESP Fit Center  249 is at  -1.146838 -1.887695 -1.420907
      ESP Fit Center  250 is at  -0.070500 -2.077482 -1.420907
      ESP Fit Center  251 is at   0.876016 -1.531011 -1.420907
      ESP Fit Center  252 is at   0.639528 -0.503981 -2.260907
      ESP Fit Center  253 is at  -0.042803  0.435168 -2.260907
      ESP Fit Center  254 is at  -1.146838  0.076445 -2.260907
      ESP Fit Center  255 is at  -1.146838 -1.084407 -2.260907
      ESP Fit Center  256 is at  -0.042803 -1.443130 -2.260907
      ESP Fit Center  257 is at  -0.347951 -0.503981 -2.581758
      ESP Fit Center  258 is at  -0.381053 -0.541846  2.534343
      ESP Fit Center  259 is at  -0.075905  0.397303  2.213492
      ESP Fit Center  260 is at  -1.179940 -1.122272  2.213492
      ESP Fit Center  261 is at  -0.075905 -1.480995  2.213492
      ESP Fit Center  262 is at  -1.179940 -1.925560  1.373492
      ESP Fit Center  263 is at  -0.103602 -2.115347  1.373492
      ESP Fit Center  264 is at   0.842914 -1.568876  1.373492
      ESP Fit Center  265 is at  -1.179940 -1.925560  0.335194
      ESP Fit Center  266 is at  -0.103602 -2.115347  0.335194
      ESP Fit Center  267 is at   2.043444 -0.909327 -1.818653
      ESP Fit Center  268 is at   3.486809  0.592779 -1.347006
      ESP Fit Center  269 is at   3.113001  1.619809 -1.347006
      ESP Fit Center  270 is at   2.166485  2.166280 -1.347006
      ESP Fit Center  271 is at   1.090147  1.976493 -1.347006
      ESP Fit Center  272 is at   3.113001 -0.434251 -1.347006
      ESP Fit Center  273 is at   2.876513  0.592779 -2.187006
      ESP Fit Center  274 is at   2.194182  1.531928 -2.187006
      ESP Fit Center  275 is at   1.090147  1.173205 -2.187006
      ESP Fit Center  276 is at   1.090147  0.012353 -2.187006
      ESP Fit Center  277 is at   2.194182 -0.346370 -2.187006
      ESP Fit Center  278 is at   1.889034  0.592779 -2.507857
      ESP Fit Center  279 is at   2.170945 -1.956105  1.214906
      ESP Fit Center  280 is at   1.066910 -2.400670  0.374906
      ESP Fit Center  281 is at   2.143248 -2.590457  0.374906
      ESP Fit Center  282 is at   3.089764 -2.043986  0.374906
      ESP Fit Center  283 is at   3.463572 -1.016956 -0.663392
      ESP Fit Center  284 is at   1.066910 -2.400670 -0.663392
      ESP Fit Center  285 is at   2.143248 -2.590457 -0.663392
      ESP Fit Center  286 is at   3.089764 -2.043986 -0.663392
      ESP Fit Center  287 is at   2.853276 -1.016956 -1.503392
      ESP Fit Center  288 is at   1.066910 -1.597382 -1.503392
      ESP Fit Center  289 is at   2.170945 -1.956105 -1.503392
      ESP Fit Center  290 is at   1.865797 -1.016956 -1.824243
      ESP Fit Center  291 is at   2.312889  0.552009  3.988884
      ESP Fit Center  292 is at   3.375904  0.552009  3.746258
      ESP Fit Center  293 is at   1.249874  0.552009  3.746258
      ESP Fit Center  294 is at   1.781381 -0.368589  3.746258
      ESP Fit Center  295 is at   2.844397 -0.368589  3.746258
      ESP Fit Center  296 is at   4.228376  0.552009  3.066434
      ESP Fit Center  297 is at   0.474993  1.091664  3.066434
      ESP Fit Center  298 is at   0.474993  0.012354  3.066434
      ESP Fit Center  299 is at   1.058512 -0.895620  3.066434
      ESP Fit Center  300 is at   2.040287 -1.343981  3.066434
      ESP Fit Center  301 is at   3.108611 -1.190379  3.066434
      ESP Fit Center  302 is at   3.924299 -0.483582  3.066434
      ESP Fit Center  303 is at   4.701462  0.552009  2.084060
      ESP Fit Center  304 is at   0.823638 -1.315453  2.084060
      ESP Fit Center  305 is at   1.781381 -1.776678  2.084060
      ESP Fit Center  306 is at   2.844397 -1.776678  2.084060
      ESP Fit Center  307 is at   3.802140 -1.315453  2.084060
      ESP Fit Center  308 is at   4.464919 -0.484354  2.084060
      ESP Fit Center  309 is at   4.701462  0.552009  0.993708
      ESP Fit Center  310 is at   4.464919  1.588372  0.993708
      ESP Fit Center  311 is at   2.844397 -1.776678  0.993708
      ESP Fit Center  312 is at   3.802140 -1.315453  0.993708
      ESP Fit Center  313 is at   4.464919 -0.484354  0.993708
      ESP Fit Center  314 is at   4.228376  0.552009  0.011334
      ESP Fit Center  315 is at   3.924299  1.587600  0.011334
      ESP Fit Center  316 is at   3.924299 -0.483582  0.011334
      ESP Fit Center  317 is at   4.220665  2.669854 -0.056293
      ESP Fit Center  318 is at   1.824003  4.053568 -0.056293
      ESP Fit Center  319 is at   3.846857  1.642824 -0.056293
      ESP Fit Center  320 is at   3.610369  2.669854 -0.896293
      ESP Fit Center  321 is at   2.928038  3.609003 -0.896293
      ESP Fit Center  322 is at   1.824003  3.250280 -0.896293
      ESP Fit Center  323 is at   2.622890  2.669854 -1.217144
      ESP Fit Center  324 is at   0.370034  3.253541  2.796997
      ESP Fit Center  325 is at   0.370034  2.092689  2.796997
      ESP Fit Center  326 is at   0.370034  4.056829  1.956997
      ESP Fit Center  327 is at  -0.332496  3.219586  1.956997
      ESP Fit Center  328 is at  -0.332496  2.126644  1.956997
      ESP Fit Center  329 is at   0.370034  4.056829  0.918699
      ESP Fit Center  330 is at  -0.332496  3.219586  0.918699
      ESP Fit Center  331 is at   0.370034  3.253541  0.078699
      ESP Fit Center  332 is at   4.024600  2.991041  4.392053
      ESP Fit Center  333 is at   3.730096  1.336736  3.623400
      ESP Fit Center  334 is at   4.993796  2.664632  3.937395
      ESP Fit Center  335 is at   4.311465  1.725483  3.937395
      ESP Fit Center  336 is at   5.604092  2.664632  3.097395
      ESP Fit Center  337 is at   4.283768  1.091131  3.097395
      ESP Fit Center  338 is at   5.230284  1.637602  3.097395
      ESP Fit Center  339 is at   5.230284  1.637602  2.059097
      ESP Fit Center  340 is at   2.542182  2.678877  5.196354
      ESP Fit Center  341 is at   3.529661  2.678877  4.875503
      ESP Fit Center  342 is at   2.847330  3.618026  4.875503
      ESP Fit Center  343 is at   1.743295  3.259303  4.875503
      ESP Fit Center  344 is at   1.743295  2.098451  4.875503
      ESP Fit Center  345 is at   2.847330  1.739728  4.875503
      ESP Fit Center  346 is at   1.040765  3.225348  4.035503
      ESP Fit Center  347 is at   1.040765  2.132406  4.035503
      ESP Fit Center  348 is at   1.743295  1.295163  4.035503
      ESP Fit Center  349 is at   2.819633  1.105376  4.035503
      ESP Fit Center  350 is at   3.766149  1.651847  4.035503
      ESP Fit Center  351 is at   2.900485  4.806469  5.076766
      ESP Fit Center  352 is at   3.963500  4.806469  4.834140
      ESP Fit Center  353 is at   3.431993  5.727067  4.834140
      ESP Fit Center  354 is at   2.368977  5.727067  4.834140
      ESP Fit Center  355 is at   1.837470  4.806469  4.834140
      ESP Fit Center  356 is at   2.368977  3.885871  4.834140
      ESP Fit Center  357 is at   3.431993  3.885871  4.834140
      ESP Fit Center  358 is at   3.696207  6.548857  4.154316
      ESP Fit Center  359 is at   2.627883  6.702459  4.154316
      ESP Fit Center  360 is at   1.646108  6.254098  4.154316
      ESP Fit Center  361 is at   1.062589  5.346124  4.154316
      ESP Fit Center  362 is at   1.062589  4.266814  4.154316
      ESP Fit Center  363 is at   4.511895  3.770878  4.154316
      ESP Fit Center  364 is at   3.431993  7.135156  3.171942
      ESP Fit Center  365 is at   2.368977  7.135156  3.171942
      ESP Fit Center  366 is at   1.411234  6.673931  3.171942
      ESP Fit Center  367 is at   0.748455  5.842832  3.171942
      ESP Fit Center  368 is at   0.511912  4.806469  3.171942
      ESP Fit Center  369 is at   0.748455  3.770106  3.171942
      ESP Fit Center  370 is at   2.368977  7.135156  2.081590
      ESP Fit Center  371 is at   1.411234  6.673931  2.081590
      ESP Fit Center  372 is at   0.748455  5.842832  2.081590
      ESP Fit Center  373 is at   0.511912  4.806469  2.081590
      ESP Fit Center  374 is at   1.646108  6.254098  1.099216
      ESP Fit Center  375 is at   1.062589  5.346124  1.099216
      ESP Fit Center  376 is at   4.404852  6.221303 -0.638065
      ESP Fit Center  377 is at   4.102348  7.330853  2.526656
      ESP Fit Center  378 is at   4.074651  7.965205  1.686656
      ESP Fit Center  379 is at   2.998313  7.775418  1.686656
      ESP Fit Center  380 is at   5.021167  7.418734  0.648358
      ESP Fit Center  381 is at   4.074651  7.965205  0.648358
      ESP Fit Center  382 is at   2.998313  7.775418  0.648358
      ESP Fit Center  383 is at   2.295783  6.938175  0.648358
      ESP Fit Center  384 is at   4.102348  7.330853 -0.191642
      ESP Fit Center  385 is at   2.998313  6.972130 -0.191642
      ESP Fit Center  386 is at   2.609386  6.328887 -0.242249
      ESP Fit Center  387 is at   1.906856  5.491644 -0.242249
      ESP Fit Center  388 is at   1.906856  4.398702 -0.242249
      ESP Fit Center  389 is at   4.395752  4.945173 -1.082249
      ESP Fit Center  390 is at   3.713421  5.884322 -1.082249
      ESP Fit Center  391 is at   2.609386  5.525599 -1.082249
      ESP Fit Center  392 is at   2.609386  4.364747 -1.082249
      ESP Fit Center  393 is at   3.713421  4.006024 -1.082249
      ESP Fit Center  394 is at   3.408273  4.945173 -1.403100
      ESP Fit Center  395 is at   4.828312  3.997842 -0.655562
      ESP Fit Center  396 is at   5.756530  2.890414  2.505567
      ESP Fit Center  397 is at   5.728833  2.256062  1.665567
      ESP Fit Center  398 is at   4.652495  2.445849  0.627269
      ESP Fit Center  399 is at   5.728833  2.256062  0.627269
      ESP Fit Center  400 is at   4.652495  3.249137 -0.212731
      ESP Fit Center  401 is at   5.756530  2.890414 -0.212731
      ESP Fit Center  402 is at   7.012784  6.313689 -0.274720
      ESP Fit Center  403 is at   6.066268  6.860160 -0.274720
      ESP Fit Center  404 is at   4.989930  6.670373 -0.274720
      ESP Fit Center  405 is at   7.012784  4.259629 -0.274720
      ESP Fit Center  406 is at   6.776296  5.286659 -1.114720
      ESP Fit Center  407 is at   6.093965  6.225808 -1.114720
      ESP Fit Center  408 is at   4.989930  5.867085 -1.114720
      ESP Fit Center  409 is at   4.989930  4.706233 -1.114720
      ESP Fit Center  410 is at   6.093965  4.347510 -1.114720
      ESP Fit Center  411 is at   5.788817  5.286659 -1.435571
      ESP Fit Center  412 is at   6.283856  5.602931  5.013980
      ESP Fit Center  413 is at   7.346871  5.602931  4.771354
      ESP Fit Center  414 is at   6.815364  6.523529  4.771354
      ESP Fit Center  415 is at   5.752348  6.523529  4.771354
      ESP Fit Center  416 is at   5.220841  5.602931  4.771354
      ESP Fit Center  417 is at   5.752348  4.682333  4.771354
      ESP Fit Center  418 is at   6.815364  4.682333  4.771354
      ESP Fit Center  419 is at   7.895266  6.638522  4.091530
      ESP Fit Center  420 is at   7.079578  7.345319  4.091530
      ESP Fit Center  421 is at   6.011254  7.498921  4.091530
      ESP Fit Center  422 is at   5.029479  7.050560  4.091530
      ESP Fit Center  423 is at   4.445960  6.142586  4.091530
      ESP Fit Center  424 is at   5.029479  4.155302  4.091530
      ESP Fit Center  425 is at   6.011254  3.706941  4.091530
      ESP Fit Center  426 is at   7.079578  3.860543  4.091530
      ESP Fit Center  427 is at   7.895266  4.567340  4.091530
      ESP Fit Center  428 is at   7.773107  7.470393  3.109156
      ESP Fit Center  429 is at   6.815364  7.931618  3.109156
      ESP Fit Center  430 is at   5.752348  7.931618  3.109156
      ESP Fit Center  431 is at   4.794605  7.470393  3.109156
      ESP Fit Center  432 is at   5.752348  3.274244  3.109156
      ESP Fit Center  433 is at   6.815364  3.274244  3.109156
      ESP Fit Center  434 is at   6.815364  7.931618  2.018804
      ESP Fit Center  435 is at   5.752348  7.931618  2.018804
      ESP Fit Center  436 is at   4.794605  7.470393  2.018804
      ESP Fit Center  437 is at   7.079578  7.345319  1.036430
      ESP Fit Center  438 is at   6.011254  7.498921  1.036430
      ESP Fit Center  439 is at   8.240321  7.534485  1.947112
      ESP Fit Center  440 is at   8.339066  7.522041  1.506121
      ESP Fit Center  441 is at   9.659390  5.948540  0.467823
      ESP Fit Center  442 is at   9.285582  6.975570  0.467823
      ESP Fit Center  443 is at   8.339066  7.522041  0.467823
      ESP Fit Center  444 is at   7.262728  7.332254  0.467823
      ESP Fit Center  445 is at   9.049094  5.948540 -0.372177
      ESP Fit Center  446 is at   8.366763  6.887689 -0.372177
      ESP Fit Center  447 is at   7.262728  6.528966 -0.372177
      ESP Fit Center  448 is at   8.366763  5.009391 -0.372177
      ESP Fit Center  449 is at   8.061615  5.948540 -0.693028
      ESP Fit Center  450 is at   8.582634  6.023468  4.327690
      ESP Fit Center  451 is at   9.570113  6.023468  4.006839
      ESP Fit Center  452 is at   8.887782  6.962617  4.006839
      ESP Fit Center  453 is at   8.887782  5.084319  4.006839
      ESP Fit Center  454 is at  10.180409  6.023468  3.166839
      ESP Fit Center  455 is at   9.806601  7.050498  3.166839
      ESP Fit Center  456 is at   8.860085  7.596969  3.166839
      ESP Fit Center  457 is at  10.180409  6.023468  2.128541
      ESP Fit Center  458 is at   9.806601  7.050498  2.128541
      ESP Fit Center  459 is at   8.860085  7.596969  2.128541
      ESP Fit Center  460 is at  10.048824  5.005260  2.908493
      ESP Fit Center  461 is at   8.772002  1.937333  1.858493
      ESP Fit Center  462 is at   9.711811  2.293756  1.858493
      ESP Fit Center  463 is at   9.274371  2.367717  0.808493
      ESP Fit Center  464 is at   9.043875  4.931349  0.039840
      ESP Fit Center  465 is at   7.160214  2.044833  1.662930
      ESP Fit Center  466 is at   8.236552  1.855046  1.662930
      ESP Fit Center  467 is at   7.160214  2.044833  0.624632
      ESP Fit Center  468 is at   8.236552  1.855046  0.624632
      ESP Fit Center  469 is at   9.183068  2.401517  0.624632
      ESP Fit Center  470 is at   8.946580  3.428547 -0.215368
      ESP Fit Center  471 is at   8.264249  4.367696 -0.215368
      ESP Fit Center  472 is at   7.160214  4.008973 -0.215368
      ESP Fit Center  473 is at   7.160214  2.848121 -0.215368
      ESP Fit Center  474 is at   8.264249  2.489398 -0.215368
      ESP Fit Center  475 is at   7.959101  3.428547 -0.536219
      ESP Fit Center  476 is at  10.544165  4.030487  2.896275
      ESP Fit Center  477 is at  11.154461  4.030487  2.056275
      ESP Fit Center  478 is at  10.780653  5.057517  2.056275
      ESP Fit Center  479 is at  10.780653  3.003457  2.056275
      ESP Fit Center  480 is at  11.154461  4.030487  1.017977
      ESP Fit Center  481 is at  10.780653  5.057517  1.017977
      ESP Fit Center  482 is at   9.834137  2.456986  1.017977
      ESP Fit Center  483 is at  10.780653  3.003457  1.017977
      ESP Fit Center  484 is at  10.544165  4.030487  0.177977
      ESP Fit Center  485 is at   9.861834  4.969636  0.177977
      ESP Fit Center  486 is at   9.861834  3.091338  0.177977
      ESP Fit Center  487 is at   9.556686  4.030487 -0.142874
      ESP Fit Center  488 is at   8.463806  3.528100  4.501660
      ESP Fit Center  489 is at   9.451285  3.528100  4.180809
      ESP Fit Center  490 is at   8.768954  4.467249  4.180809
      ESP Fit Center  491 is at   7.664919  4.108526  4.180809
      ESP Fit Center  492 is at   7.664919  2.947674  4.180809
      ESP Fit Center  493 is at   8.768954  2.588951  4.180809
      ESP Fit Center  494 is at  10.061581  3.528100  3.340809
      ESP Fit Center  495 is at   6.962389  2.981629  3.340809
      ESP Fit Center  496 is at   7.664919  2.144386  3.340809
      ESP Fit Center  497 is at   8.741257  1.954599  3.340809
      ESP Fit Center  498 is at   9.687773  2.501070  3.340809
      ESP Fit Center  499 is at   7.664919  2.144386  2.302511
      ESP Fit Center  500 is at   8.741257  1.954599  2.302511
      ESP Fit Center  501 is at  -8.530733 -2.056761  5.201387
      ESP Fit Center  502 is at  -8.010072 -2.958571  5.201387
      ESP Fit Center  503 is at  -8.718190 -3.474846  4.535438
      ESP Fit Center  504 is at  -8.948270 -3.886111  2.505012
      ESP Fit Center  505 is at  -8.010072 -4.337924  2.505012
      ESP Fit Center  506 is at  -5.381301 -3.071974  2.505012
      ESP Fit Center  507 is at  -8.718190 -0.638676  1.542686
      ESP Fit Center  508 is at  -8.718190 -3.474846  1.542686
      ESP Fit Center  509 is at  -7.831489 -0.521269  1.009050
      ESP Fit Center  510 is at  -8.662873 -1.125305  1.009050
      ESP Fit Center  511 is at  -8.980434 -2.102656  1.009050
      ESP Fit Center  512 is at  -8.662873 -3.080007  1.009050
      ESP Fit Center  513 is at  -7.831489 -3.684043  1.009050
      ESP Fit Center  514 is at  -6.803841 -3.684043  1.009050
      ESP Fit Center  515 is at  -5.972457 -3.080007  1.009050
      ESP Fit Center  516 is at  -6.357665 -2.102656  0.306281
      ESP Fit Center  517 is at  -6.837665 -1.271272  0.306281
      ESP Fit Center  518 is at  -7.797665 -1.271272  0.306281
      ESP Fit Center  519 is at  -8.277665 -2.102656  0.306281
      ESP Fit Center  520 is at  -7.797665 -2.934040  0.306281
      ESP Fit Center  521 is at  -6.837665 -2.934040  0.306281
      ESP Fit Center  522 is at  -7.317665 -2.102656  0.049050
      ESP Fit Center  523 is at  -7.050657 -2.939050  5.412176
      ESP Fit Center  524 is at  -6.090657 -2.939050  5.154945
      ESP Fit Center  525 is at  -7.530657 -3.770434  5.154945
      ESP Fit Center  526 is at  -6.570657 -3.770434  5.154945
      ESP Fit Center  527 is at  -5.387888 -2.939050  4.452176
      ESP Fit Center  528 is at  -8.395865 -3.916401  4.452176
      ESP Fit Center  529 is at  -7.564481 -4.520437  4.452176
      ESP Fit Center  530 is at  -6.536833 -4.520437  4.452176
      ESP Fit Center  531 is at  -5.705449 -3.916401  4.452176
      ESP Fit Center  532 is at  -8.010657 -4.601819  3.492176
      ESP Fit Center  533 is at  -7.050657 -4.859050  3.492176
      ESP Fit Center  534 is at  -6.090657 -4.601819  3.492176
      ESP Fit Center  535 is at  -5.387888 -3.899050  3.492176
      ESP Fit Center  536 is at  -7.564481 -4.520437  2.532176
      ESP Fit Center  537 is at  -6.536833 -4.520437  2.532176
      ESP Fit Center  538 is at  -5.705449 -3.916401  2.532176
      ESP Fit Center  539 is at  -9.042595 -1.253347  4.865789
      ESP Fit Center  540 is at  -9.522595 -2.084731  4.865789
      ESP Fit Center  541 is at  -9.042595 -2.916115  4.865789
      ESP Fit Center  542 is at  -9.907803 -1.107380  4.163020
      ESP Fit Center  543 is at -10.225364 -2.084731  4.163020
      ESP Fit Center  544 is at  -9.907803 -3.062082  4.163020
      ESP Fit Center  545 is at  -9.076419 -3.666118  4.163020
      ESP Fit Center  546 is at  -9.522595 -0.421962  3.203020
      ESP Fit Center  547 is at -10.225364 -1.124731  3.203020
      ESP Fit Center  548 is at -10.482595 -2.084731  3.203020
      ESP Fit Center  549 is at -10.225364 -3.044731  3.203020
      ESP Fit Center  550 is at  -9.522595 -3.747500  3.203020
      ESP Fit Center  551 is at  -9.907803 -1.107380  2.243020
      ESP Fit Center  552 is at -10.225364 -2.084731  2.243020
      ESP Fit Center  553 is at  -9.907803 -3.062082  2.243020
      ESP Fit Center  554 is at  -9.522595 -2.084731  1.540251
      ESP Fit Center  555 is at  -6.120057  0.909311  5.156279
      ESP Fit Center  556 is at  -6.120057 -2.504347  5.156279
      ESP Fit Center  557 is at  -6.378880  1.483645  4.193953
      ESP Fit Center  558 is at  -9.007651  0.217695  4.193953
      ESP Fit Center  559 is at  -6.812029  1.672121  4.156179
      ESP Fit Center  560 is at  -7.839677  1.672121  4.156179
      ESP Fit Center  561 is at  -8.671061  1.068085  4.156179
      ESP Fit Center  562 is at  -6.365853  1.753503  3.196179
      ESP Fit Center  563 is at  -7.325853  2.010734  3.196179
      ESP Fit Center  564 is at  -8.285853  1.753503  3.196179
      ESP Fit Center  565 is at  -8.988622  1.050734  3.196179
      ESP Fit Center  566 is at  -9.245853  0.090734  3.196179
      ESP Fit Center  567 is at  -7.839677  1.672121  2.236179
      ESP Fit Center  568 is at  -8.671061  1.068085  2.236179
      ESP Fit Center  569 is at  -8.988622  0.090734  2.236179
      ESP Fit Center  570 is at  -7.805853  0.922118  1.533410
      ESP Fit Center  571 is at  -8.285853  0.090734  1.533410
      ESP Fit Center  572 is at  -7.325853  0.090734  1.276179
      ESP Fit Center  573 is at  -7.141876 -0.762404  6.634473
      ESP Fit Center  574 is at  -6.181876 -0.762404  6.377242
      ESP Fit Center  575 is at  -6.661876  0.068980  6.377242
      ESP Fit Center  576 is at  -7.621876  0.068980  6.377242
      ESP Fit Center  577 is at  -8.101876 -0.762404  6.377242
      ESP Fit Center  578 is at  -7.621876 -1.593788  6.377242
      ESP Fit Center  579 is at  -6.661876 -1.593788  6.377242
      ESP Fit Center  580 is at  -5.796668  0.214947  5.674473
      ESP Fit Center  581 is at  -6.628052  0.818983  5.674473
      ESP Fit Center  582 is at  -7.655700  0.818983  5.674473
      ESP Fit Center  583 is at  -8.487084  0.214947  5.674473
      ESP Fit Center  584 is at  -8.804645 -0.762404  5.674473
      ESP Fit Center  585 is at  -8.487084 -1.739755  5.674473
      ESP Fit Center  586 is at  -7.655700 -2.343791  5.674473
      ESP Fit Center  587 is at  -6.628052 -2.343791  5.674473
      ESP Fit Center  588 is at  -5.796668 -1.739755  5.674473
      ESP Fit Center  589 is at  -9.061876 -0.762404  4.714473
      ESP Fit Center  590 is at  -5.501244 -0.749150  5.830029
      ESP Fit Center  591 is at  -4.529344 -0.749150  5.608199
      ESP Fit Center  592 is at  -5.015294  0.092540  5.608199
      ESP Fit Center  593 is at  -5.015294 -1.590840  5.608199
      ESP Fit Center  594 is at  -3.749941 -0.749150  4.986646
      ESP Fit Center  595 is at  -4.960062  0.916438  4.986646
      ESP Fit Center  596 is at  -4.960062 -2.414738  4.986646
      ESP Fit Center  597 is at  -4.084410 -1.778540  4.986646
      ESP Fit Center  598 is at  -5.238011  1.418766  4.088476
      ESP Fit Center  599 is at  -4.260682 -2.546414  4.088476
      ESP Fit Center  600 is at  -5.219082  1.460568  3.853661
      ESP Fit Center  601 is at  -4.431383 -2.677892  2.891335
      ESP Fit Center  602 is at  -4.852773  2.131865  2.974914
      ESP Fit Center  603 is at  -5.880421  2.131865  2.974914
      ESP Fit Center  604 is at  -5.366597  2.470478  2.014914
      ESP Fit Center  605 is at  -6.326597  2.213247  2.014914
      ESP Fit Center  606 is at  -5.880421  2.131865  1.054914
      ESP Fit Center  607 is at  -6.711805  1.527829  1.054914
      ESP Fit Center  608 is at  -7.029366  0.550478  1.054914
      ESP Fit Center  609 is at  -5.846597  1.381862  0.352145
      ESP Fit Center  610 is at  -6.326597  0.550478  0.352145
      ESP Fit Center  611 is at  -5.366597  0.550478  0.094914
      ESP Fit Center  612 is at  -5.157421 -3.061814  1.593673
      ESP Fit Center  613 is at  -4.197421 -2.804583  1.593673
      ESP Fit Center  614 is at  -5.671245 -2.723201  0.633673
      ESP Fit Center  615 is at  -4.643597 -2.723201  0.633673
      ESP Fit Center  616 is at  -3.812213 -2.119165  0.633673
      ESP Fit Center  617 is at  -4.197421 -1.141814 -0.069096
      ESP Fit Center  618 is at  -4.677421 -0.310430 -0.069096
      ESP Fit Center  619 is at  -5.637421 -0.310430 -0.069096
      ESP Fit Center  620 is at  -6.117421 -1.141814 -0.069096
      ESP Fit Center  621 is at  -5.637421 -1.973198 -0.069096
      ESP Fit Center  622 is at  -4.677421 -1.973198 -0.069096
      ESP Fit Center  623 is at  -5.157421 -1.141814 -0.326327
      ESP Fit Center  624 is at  -1.571876 -0.289778  4.051919
      ESP Fit Center  625 is at  -1.108445 -0.289778  3.089593
      ESP Fit Center  626 is at  -3.228678  0.447593  5.242008
      ESP Fit Center  627 is at  -2.268678  0.447593  4.984777
      ESP Fit Center  628 is at  -2.748678  1.278977  4.984777
      ESP Fit Center  629 is at  -3.708678  1.278977  4.984777
      ESP Fit Center  630 is at  -4.188678  0.447593  4.984777
      ESP Fit Center  631 is at  -3.708678 -0.383791  4.984777
      ESP Fit Center  632 is at  -2.748678 -0.383791  4.984777
      ESP Fit Center  633 is at  -1.565909  0.447593  4.282008
      ESP Fit Center  634 is at  -1.883470  1.424944  4.282008
      ESP Fit Center  635 is at  -2.714854  2.028980  4.282008
      ESP Fit Center  636 is at  -3.742502  2.028980  4.282008
      ESP Fit Center  637 is at  -4.573886  1.424944  4.282008
      ESP Fit Center  638 is at  -4.188678  2.110362  3.322008
      ESP Fit Center  639 is at  -3.070046 -1.244518  4.815376
      ESP Fit Center  640 is at  -2.110046 -1.244518  4.558145
      ESP Fit Center  641 is at  -3.550046 -2.075902  4.558145
      ESP Fit Center  642 is at  -2.590046 -2.075902  4.558145
      ESP Fit Center  643 is at  -1.407277 -1.244518  3.855376
      ESP Fit Center  644 is at  -3.583870 -2.825905  3.855376
      ESP Fit Center  645 is at  -2.556222 -2.825905  3.855376
      ESP Fit Center  646 is at  -1.724838 -2.221869  3.855376
      ESP Fit Center  647 is at  -1.150046 -1.244518  2.895376
      ESP Fit Center  648 is at  -4.030046 -2.907287  2.895376
      ESP Fit Center  649 is at  -3.070046 -3.164518  2.895376
      ESP Fit Center  650 is at  -2.110046 -2.907287  2.895376
      ESP Fit Center  651 is at  -1.407277 -2.204518  2.895376
      ESP Fit Center  652 is at  -3.583870 -2.825905  1.935376
      ESP Fit Center  653 is at  -2.556222 -2.825905  1.935376
      ESP Fit Center  654 is at  -1.724838 -2.221869  1.935376
      ESP Fit Center  655 is at  -1.038155  0.014711  2.754279
      ESP Fit Center  656 is at  -3.563858 -2.027213  0.859215
      ESP Fit Center  657 is at  -2.526225 -2.153205  0.859215
      ESP Fit Center  658 is at  -4.540761  0.014711 -0.038955
      ESP Fit Center  659 is at  -3.330640 -1.650877 -0.038955
      ESP Fit Center  660 is at  -2.248276 -1.650877 -0.038955
      ESP Fit Center  661 is at  -3.275408 -0.826979 -0.660508
      ESP Fit Center  662 is at  -3.889759  2.790907  2.544948
      ESP Fit Center  663 is at  -3.181641  3.653985  1.582622
      ESP Fit Center  664 is at  -1.230162  1.907212  3.532744
      ESP Fit Center  665 is at  -1.710162  2.738596  3.532744
      ESP Fit Center  666 is at  -2.670162  2.738596  3.532744
      ESP Fit Center  667 is at  -0.527393  1.907212  2.829975
      ESP Fit Center  668 is at  -0.844954  2.884563  2.829975
      ESP Fit Center  669 is at  -1.676338  3.488599  2.829975
      ESP Fit Center  670 is at  -2.703986  3.488599  2.829975
      ESP Fit Center  671 is at  -3.535370  2.884563  2.829975
      ESP Fit Center  672 is at  -0.844954  0.929861  2.829975
      ESP Fit Center  673 is at  -1.230162  3.569981  1.869975
      ESP Fit Center  674 is at  -2.190162  3.827212  1.869975
      ESP Fit Center  675 is at  -4.116366  2.654404  2.532325
      ESP Fit Center  676 is at  -4.150190  3.404407  1.829556
      ESP Fit Center  677 is at  -4.981574  2.800371  1.829556
      ESP Fit Center  678 is at  -3.636366  3.743020  0.869556
      ESP Fit Center  679 is at  -4.596366  3.485789  0.869556
      ESP Fit Center  680 is at  -5.299135  2.783020  0.869556
      ESP Fit Center  681 is at  -4.150190  3.404407 -0.090444
      ESP Fit Center  682 is at  -4.981574  2.800371 -0.090444
      ESP Fit Center  683 is at  -5.299135  1.823020 -0.090444
      ESP Fit Center  684 is at  -4.981574  0.845669 -0.090444
      ESP Fit Center  685 is at  -4.116366  2.654404 -0.793213
      ESP Fit Center  686 is at  -4.596366  1.823020 -0.793213
      ESP Fit Center  687 is at  -3.619626  2.062198 -1.698836
      ESP Fit Center  688 is at  -0.777917  1.533556 -2.364785
      ESP Fit Center  689 is at  -1.298578  2.435366 -2.364785
      ESP Fit Center  690 is at  -0.572278  3.532667  0.409399
      ESP Fit Center  691 is at  -1.403662  4.136703  0.409399
      ESP Fit Center  692 is at  -2.431310  4.136703  0.409399
      ESP Fit Center  693 is at  -0.254717  3.515316 -0.550601
      ESP Fit Center  694 is at  -0.957486  4.218085 -0.550601
      ESP Fit Center  695 is at  -1.917486  4.475316 -0.550601
      ESP Fit Center  696 is at  -2.877486  4.218085 -0.550601
      ESP Fit Center  697 is at  -3.580255  3.515316 -0.550601
      ESP Fit Center  698 is at  -0.572278  3.532667 -1.510601
      ESP Fit Center  699 is at  -1.403662  4.136703 -1.510601
      ESP Fit Center  700 is at  -2.431310  4.136703 -1.510601
      ESP Fit Center  701 is at  -3.262694  3.532667 -1.510601
      ESP Fit Center  702 is at  -3.580255  2.555316 -1.510601
      ESP Fit Center  703 is at  -0.957486  2.555316 -2.213370
      ESP Fit Center  704 is at  -1.437486  3.386700 -2.213370
      ESP Fit Center  705 is at  -2.397486  3.386700 -2.213370
      ESP Fit Center  706 is at  -2.877486  2.555316 -2.213370
      ESP Fit Center  707 is at  -1.917486  2.555316 -2.470601
      ESP Fit Center  708 is at  -4.118286  0.873618 -0.979272
      ESP Fit Center  709 is at  -3.861055 -0.086382 -0.979272
      ESP Fit Center  710 is at  -3.158286 -0.789151 -0.979272
      ESP Fit Center  711 is at  -2.198286 -1.046382 -0.979272
      ESP Fit Center  712 is at  -3.543494  1.850969 -1.939272
      ESP Fit Center  713 is at  -3.861055  0.873618 -1.939272
      ESP Fit Center  714 is at  -3.543494 -0.103733 -1.939272
      ESP Fit Center  715 is at  -2.712110 -0.707769 -1.939272
      ESP Fit Center  716 is at  -1.238286  0.873618 -2.642041
      ESP Fit Center  717 is at  -1.718286  1.705002 -2.642041
      ESP Fit Center  718 is at  -2.678286  1.705002 -2.642041
      ESP Fit Center  719 is at  -3.158286  0.873618 -2.642041
      ESP Fit Center  720 is at  -2.678286  0.042234 -2.642041
      ESP Fit Center  721 is at  -1.718286  0.042234 -2.642041
      ESP Fit Center  722 is at  -2.198286  0.873618 -2.899272
      ESP Fit Center  723 is at   0.788007  3.123574 -0.498447
      ESP Fit Center  724 is at  -0.189322  3.494226 -0.498447
      ESP Fit Center  725 is at   0.964279  2.355700 -1.396617
      ESP Fit Center  726 is at   0.088627  2.991898 -1.396617
      ESP Fit Center  727 is at   0.519345  1.326310 -2.018170
      ESP Fit Center  728 is at   0.033395  2.168000 -2.018170
      ESP Fit Center  729 is at  -0.452555  1.326310 -2.240000
      ESP Fit Center  730 is at   0.520660 -2.281163  0.534050
      ESP Fit Center  731 is at   0.520660  0.901810 -2.162325
      ESP Fit Center  732 is at  -2.010720 -1.463981 -0.901758
      ESP Fit Center  733 is at  -1.307951 -2.166750 -0.901758
      ESP Fit Center  734 is at  -0.347951 -2.423981 -0.901758
      ESP Fit Center  735 is at  -1.693159 -1.481332 -1.861758
      ESP Fit Center  736 is at  -0.861775 -2.085368 -1.861758
      ESP Fit Center  737 is at   0.165873 -2.085368 -1.861758
      ESP Fit Center  738 is at   0.997257 -1.481332 -1.861758
      ESP Fit Center  739 is at   0.612049 -0.503981 -2.564527
      ESP Fit Center  740 is at   0.132049  0.327403 -2.564527
      ESP Fit Center  741 is at  -0.827951  0.327403 -2.564527
      ESP Fit Center  742 is at  -1.307951 -0.503981 -2.564527
      ESP Fit Center  743 is at  -0.827951 -1.335365 -2.564527
      ESP Fit Center  744 is at   0.132049 -1.335365 -2.564527
      ESP Fit Center  745 is at  -0.347951 -0.503981 -2.821758
      ESP Fit Center  746 is at  -0.381053 -0.541846  2.774343
      ESP Fit Center  747 is at  -0.861053  0.289538  2.517112
      ESP Fit Center  748 is at  -0.861053 -1.373230  2.517112
      ESP Fit Center  749 is at   0.098947 -1.373230  2.517112
      ESP Fit Center  750 is at  -0.894877 -2.123233  1.814343
      ESP Fit Center  751 is at   0.132771 -2.123233  1.814343
      ESP Fit Center  752 is at  -1.341053 -2.204615  0.854343
      ESP Fit Center  753 is at  -0.381053 -2.461846  0.854343
      ESP Fit Center  754 is at   0.578947 -2.204615  0.854343
      ESP Fit Center  755 is at   2.039104 -0.901810 -2.162325
      ESP Fit Center  756 is at   3.809034  0.592779 -0.827857
      ESP Fit Center  757 is at   3.551803  1.552779 -0.827857
      ESP Fit Center  758 is at   3.551803  0.592779 -1.787857
      ESP Fit Center  759 is at   3.234242  1.570130 -1.787857
      ESP Fit Center  760 is at   2.402858  2.174166 -1.787857
      ESP Fit Center  761 is at   1.375210  2.174166 -1.787857
      ESP Fit Center  762 is at   3.234242 -0.384572 -1.787857
      ESP Fit Center  763 is at   2.849034  0.592779 -2.490626
      ESP Fit Center  764 is at   2.369034  1.424163 -2.490626
      ESP Fit Center  765 is at   1.409034  1.424163 -2.490626
      ESP Fit Center  766 is at   0.929034  0.592779 -2.490626
      ESP Fit Center  767 is at   1.409034 -0.238605 -2.490626
      ESP Fit Center  768 is at   2.369034 -0.238605 -2.490626
      ESP Fit Center  769 is at   1.889034  0.592779 -2.747857
      ESP Fit Center  770 is at   1.351973 -2.598343  0.815757
      ESP Fit Center  771 is at   2.379621 -2.598343  0.815757
      ESP Fit Center  772 is at   0.905797 -2.679725 -0.144243
      ESP Fit Center  773 is at   1.865797 -2.936956 -0.144243
      ESP Fit Center  774 is at   2.825797 -2.679725 -0.144243
      ESP Fit Center  775 is at   3.528566 -1.976956 -0.144243
      ESP Fit Center  776 is at   3.528566 -1.016956 -1.104243
      ESP Fit Center  777 is at   1.351973 -2.598343 -1.104243
      ESP Fit Center  778 is at   2.379621 -2.598343 -1.104243
      ESP Fit Center  779 is at   3.211005 -1.994307 -1.104243
      ESP Fit Center  780 is at   2.825797 -1.016956 -1.807012
      ESP Fit Center  781 is at   1.385797 -1.848340 -1.807012
      ESP Fit Center  782 is at   2.345797 -1.848340 -1.807012
      ESP Fit Center  783 is at   2.312889  0.552009  4.338884
      ESP Fit Center  784 is at   3.384403  0.552009  4.125747
      ESP Fit Center  785 is at   1.241375  0.552009  4.125747
      ESP Fit Center  786 is at   1.777132 -0.375949  4.125747
      ESP Fit Center  787 is at   2.848646 -0.375949  4.125747
      ESP Fit Center  788 is at   4.292788  0.552009  3.518783
      ESP Fit Center  789 is at   0.598246  1.541958  3.518783
      ESP Fit Center  790 is at   0.332990  0.552009  3.518783
      ESP Fit Center  791 is at   0.598246 -0.437940  3.518783
      ESP Fit Center  792 is at   1.322940 -1.162634  3.518783
      ESP Fit Center  793 is at   2.312889 -1.427890  3.518783
      ESP Fit Center  794 is at   3.302838 -1.162634  3.518783
      ESP Fit Center  795 is at   4.027532 -0.437940  3.518783
      ESP Fit Center  796 is at   4.899752  0.552009  2.610398
      ESP Fit Center  797 is at  -0.217445  1.089848  2.610398
      ESP Fit Center  798 is at   1.019458 -1.688280  2.610398
      ESP Fit Center  799 is at   2.042488 -2.020683  2.610398
      ESP Fit Center  800 is at   3.112274 -1.908244  2.610398
      ESP Fit Center  801 is at   4.043838 -1.370405  2.610398
      ESP Fit Center  802 is at   4.676106 -0.500163  2.610398
      ESP Fit Center  803 is at   5.112889  0.552009  1.538884
      ESP Fit Center  804 is at   1.546633 -2.141103  1.538884
      ESP Fit Center  805 is at   2.571240 -2.236047  1.538884
      ESP Fit Center  806 is at   3.560956 -1.954448  1.538884
      ESP Fit Center  807 is at   4.382114 -1.334339  1.538884
      ESP Fit Center  808 is at   4.923811 -0.459468  1.538884
      ESP Fit Center  809 is at   4.899752  0.552009  0.467370
      ESP Fit Center  810 is at   4.676106  1.604181  0.467370
      ESP Fit Center  811 is at   4.043838 -1.370405  0.467370
      ESP Fit Center  812 is at   4.676106 -0.500163  0.467370
      ESP Fit Center  813 is at   4.292788  0.552009 -0.441015
      ESP Fit Center  814 is at   4.027532  1.541958 -0.441015
      ESP Fit Center  815 is at   4.027532 -0.437940 -0.441015
      ESP Fit Center  816 is at   4.285659  2.669854 -0.497144
      ESP Fit Center  817 is at   1.277682  3.647205 -0.497144
      ESP Fit Center  818 is at   3.968098  1.692503 -0.497144
      ESP Fit Center  819 is at   3.582890  2.669854 -1.199913
      ESP Fit Center  820 is at   3.102890  3.501238 -1.199913
      ESP Fit Center  821 is at   2.142890  3.501238 -1.199913
      ESP Fit Center  822 is at   1.662890  2.669854 -1.199913
      ESP Fit Center  823 is at   2.622890  2.669854 -1.457144
      ESP Fit Center  824 is at   0.208921  2.673115  3.100617
      ESP Fit Center  825 is at  -0.176287  3.650466  2.397848
      ESP Fit Center  826 is at  -0.493848  2.673115  2.397848
      ESP Fit Center  827 is at  -0.176287  1.695764  2.397848
      ESP Fit Center  828 is at   0.208921  4.335884  1.437848
      ESP Fit Center  829 is at  -0.493848  3.633115  1.437848
      ESP Fit Center  830 is at   0.655097  4.254502  0.477848
      ESP Fit Center  831 is at  -0.176287  3.650466  0.477848
      ESP Fit Center  832 is at   0.688921  3.504499 -0.224921
      ESP Fit Center  833 is at   4.015921  2.991041  4.735725
      ESP Fit Center  834 is at   3.754083  1.284212  4.069776
      ESP Fit Center  835 is at   4.966317  2.664632  4.241015
      ESP Fit Center  836 is at   4.486317  1.833248  4.241015
      ESP Fit Center  837 is at   5.669086  2.664632  3.538246
      ESP Fit Center  838 is at   4.520141  1.083245  3.538246
      ESP Fit Center  839 is at   5.351525  1.687281  3.538246
      ESP Fit Center  840 is at   4.966317  1.001863  2.578246
      ESP Fit Center  841 is at   5.669086  1.704632  2.578246
      ESP Fit Center  842 is at   5.351525  1.687281  1.618246
      ESP Fit Center  843 is at   2.542182  2.678877  5.436354
      ESP Fit Center  844 is at   3.502182  2.678877  5.179123
      ESP Fit Center  845 is at   3.022182  3.510261  5.179123
      ESP Fit Center  846 is at   2.062182  3.510261  5.179123
      ESP Fit Center  847 is at   1.582182  2.678877  5.179123
      ESP Fit Center  848 is at   2.062182  1.847493  5.179123
      ESP Fit Center  849 is at   3.022182  1.847493  5.179123
      ESP Fit Center  850 is at   0.879413  2.678877  4.476354
      ESP Fit Center  851 is at   1.196974  1.701526  4.476354
      ESP Fit Center  852 is at   2.028358  1.097490  4.476354
      ESP Fit Center  853 is at   3.056006  1.097490  4.476354
      ESP Fit Center  854 is at   3.887390  1.701526  4.476354
      ESP Fit Center  855 is at   0.622182  2.678877  3.516354
      ESP Fit Center  856 is at   2.900485  4.806469  5.426766
      ESP Fit Center  857 is at   3.971999  4.806469  5.213629
      ESP Fit Center  858 is at   3.436242  5.734427  5.213629
      ESP Fit Center  859 is at   2.364728  5.734427  5.213629
      ESP Fit Center  860 is at   1.828971  4.806469  5.213629
      ESP Fit Center  861 is at   2.364728  3.878511  5.213629
      ESP Fit Center  862 is at   3.436242  3.878511  5.213629
      ESP Fit Center  863 is at   3.890434  6.521112  4.606665
      ESP Fit Center  864 is at   2.900485  6.786368  4.606665
      ESP Fit Center  865 is at   1.910536  6.521112  4.606665
      ESP Fit Center  866 is at   1.185842  5.796418  4.606665
      ESP Fit Center  867 is at   0.920586  4.806469  4.606665
      ESP Fit Center  868 is at   1.185842  3.816520  4.606665
      ESP Fit Center  869 is at   4.615128  3.816520  4.606665
      ESP Fit Center  870 is at   3.699870  7.266722  3.698280
      ESP Fit Center  871 is at   2.630084  7.379161  3.698280
      ESP Fit Center  872 is at   1.607054  7.046758  3.698280
      ESP Fit Center  873 is at   0.807669  6.326989  3.698280
      ESP Fit Center  874 is at   0.370151  5.344308  3.698280
      ESP Fit Center  875 is at   0.370151  4.268630  3.698280
      ESP Fit Center  876 is at   3.158836  7.594525  2.626766
      ESP Fit Center  877 is at   2.134229  7.499581  2.626766
      ESP Fit Center  878 is at   1.213108  7.040917  2.626766
      ESP Fit Center  879 is at   0.519877  6.280479  2.626766
      ESP Fit Center  880 is at   0.148160  5.320968  2.626766
      ESP Fit Center  881 is at   0.148160  4.291970  2.626766
      ESP Fit Center  882 is at   1.607054  7.046758  1.555252
      ESP Fit Center  883 is at   0.807669  6.326989  1.555252
      ESP Fit Center  884 is at   0.370151  5.344308  1.555252
      ESP Fit Center  885 is at   1.185842  5.796418  0.646867
      ESP Fit Center  886 is at   0.920586  4.806469  0.646867
      ESP Fit Center  887 is at   4.400512  6.213786 -0.981737
      ESP Fit Center  888 is at   4.311024  7.973091  2.127507
      ESP Fit Center  889 is at   3.283376  7.973091  2.127507
      ESP Fit Center  890 is at   4.757200  8.054473  1.167507
      ESP Fit Center  891 is at   3.797200  8.311704  1.167507
      ESP Fit Center  892 is at   2.837200  8.054473  1.167507
      ESP Fit Center  893 is at   2.134431  7.351704  1.167507
      ESP Fit Center  894 is at   5.142408  7.369055  0.207507
      ESP Fit Center  895 is at   4.311024  7.973091  0.207507
      ESP Fit Center  896 is at   3.283376  7.973091  0.207507
      ESP Fit Center  897 is at   2.451992  7.369055  0.207507
      ESP Fit Center  898 is at   4.277200  7.223088 -0.495262
      ESP Fit Center  899 is at   3.317200  7.223088 -0.495262
      ESP Fit Center  900 is at   2.894449  6.526560 -0.683100
      ESP Fit Center  901 is at   2.063065  5.922524 -0.683100
      ESP Fit Center  902 is at   1.745504  4.945173 -0.683100
      ESP Fit Center  903 is at   4.368273  4.945173 -1.385869
      ESP Fit Center  904 is at   3.888273  5.776557 -1.385869
      ESP Fit Center  905 is at   2.928273  5.776557 -1.385869
      ESP Fit Center  906 is at   2.448273  4.945173 -1.385869
      ESP Fit Center  907 is at   2.928273  4.113789 -1.385869
      ESP Fit Center  908 is at   3.888273  4.113789 -1.385869
      ESP Fit Center  909 is at   3.408273  4.945173 -1.643100
      ESP Fit Center  910 is at   4.832652  4.005359 -0.999234
      ESP Fit Center  911 is at   5.965206  2.248176  2.106418
      ESP Fit Center  912 is at   5.451382  1.909563  1.146418
      ESP Fit Center  913 is at   6.411382  2.166794  1.146418
      ESP Fit Center  914 is at   4.937558  2.248176  0.186418
      ESP Fit Center  915 is at   5.965206  2.248176  0.186418
      ESP Fit Center  916 is at   4.971382  2.998179 -0.516351
      ESP Fit Center  917 is at   5.931382  2.998179 -0.516351
      ESP Fit Center  918 is at   5.788817  7.206659  0.244429
      ESP Fit Center  919 is at   7.451586  5.286659 -0.715571
      ESP Fit Center  920 is at   7.134025  6.264010 -0.715571
      ESP Fit Center  921 is at   6.302641  6.868046 -0.715571
      ESP Fit Center  922 is at   5.274993  6.868046 -0.715571
      ESP Fit Center  923 is at   6.302641  3.705272 -0.715571
      ESP Fit Center  924 is at   7.134025  4.309308 -0.715571
      ESP Fit Center  925 is at   6.748817  5.286659 -1.418340
      ESP Fit Center  926 is at   6.268817  6.118043 -1.418340
      ESP Fit Center  927 is at   5.308817  6.118043 -1.418340
      ESP Fit Center  928 is at   4.828817  5.286659 -1.418340
      ESP Fit Center  929 is at   5.308817  4.455275 -1.418340
      ESP Fit Center  930 is at   6.268817  4.455275 -1.418340
      ESP Fit Center  931 is at   5.788817  5.286659 -1.675571
      ESP Fit Center  932 is at   6.283856  5.602931  5.363980
      ESP Fit Center  933 is at   7.355370  5.602931  5.150843
      ESP Fit Center  934 is at   6.819613  6.530889  5.150843
      ESP Fit Center  935 is at   5.748099  6.530889  5.150843
      ESP Fit Center  936 is at   5.212342  5.602931  5.150843
      ESP Fit Center  937 is at   5.748099  4.674973  5.150843
      ESP Fit Center  938 is at   6.819613  4.674973  5.150843
      ESP Fit Center  939 is at   8.263755  5.602931  4.543879
      ESP Fit Center  940 is at   7.998499  6.592880  4.543879
      ESP Fit Center  941 is at   7.273805  7.317574  4.543879
      ESP Fit Center  942 is at   6.283856  7.582830  4.543879
      ESP Fit Center  943 is at   5.293907  7.317574  4.543879
      ESP Fit Center  944 is at   4.569213  6.592880  4.543879
      ESP Fit Center  945 is at   5.293907  3.888288  4.543879
      ESP Fit Center  946 is at   6.283856  3.623032  4.543879
      ESP Fit Center  947 is at   7.273805  3.888288  4.543879
      ESP Fit Center  948 is at   7.998499  4.612982  4.543879
      ESP Fit Center  949 is at   7.083241  8.063184  3.635494
      ESP Fit Center  950 is at   6.013455  8.175623  3.635494
      ESP Fit Center  951 is at   4.990425  7.843220  3.635494
      ESP Fit Center  952 is at   4.191040  7.123451  3.635494
      ESP Fit Center  953 is at   6.013455  3.030239  3.635494
      ESP Fit Center  954 is at   7.531923  8.109388  2.563980
      ESP Fit Center  955 is at   6.542207  8.390987  2.563980
      ESP Fit Center  956 is at   5.517600  8.296043  2.563980
      ESP Fit Center  957 is at   4.596479  7.837379  2.563980
      ESP Fit Center  958 is at   6.542207  2.814875  2.563980
      ESP Fit Center  959 is at   7.083241  8.063184  1.492466
      ESP Fit Center  960 is at   6.013455  8.175623  1.492466
      ESP Fit Center  961 is at   6.283856  7.582830  0.584081
      ESP Fit Center  962 is at  10.095305  6.465009  1.413062
      ESP Fit Center  963 is at   9.446052  7.279146  1.413062
      ESP Fit Center  964 is at   9.724384  6.908540  0.986972
      ESP Fit Center  965 is at   9.021615  7.611309  0.986972
      ESP Fit Center  966 is at   8.061615  7.868540  0.986972
      ESP Fit Center  967 is at   9.724384  5.948540  0.026972
      ESP Fit Center  968 is at   9.406823  6.925891  0.026972
      ESP Fit Center  969 is at   8.575439  7.529927  0.026972
      ESP Fit Center  970 is at   7.547791  7.529927  0.026972
      ESP Fit Center  971 is at   9.021615  5.948540 -0.675797
      ESP Fit Center  972 is at   8.541615  6.779924 -0.675797
      ESP Fit Center  973 is at   7.581615  6.779924 -0.675797
      ESP Fit Center  974 is at   7.581615  5.117156 -0.675797
      ESP Fit Center  975 is at   8.541615  5.117156 -0.675797
      ESP Fit Center  976 is at   8.061615  5.948540 -0.933028
      ESP Fit Center  977 is at   8.582634  6.023468  4.567690
      ESP Fit Center  978 is at   9.542634  6.023468  4.310459
      ESP Fit Center  979 is at   9.062634  6.854852  4.310459
      ESP Fit Center  980 is at   8.102634  6.854852  4.310459
      ESP Fit Center  981 is at   9.062634  5.192084  4.310459
      ESP Fit Center  982 is at  10.245403  6.023468  3.607690
      ESP Fit Center  983 is at   9.927842  7.000819  3.607690
      ESP Fit Center  984 is at   9.096458  7.604855  3.607690
      ESP Fit Center  985 is at   8.068810  7.604855  3.607690
      ESP Fit Center  986 is at   9.927842  5.046117  3.607690
      ESP Fit Center  987 is at  10.502634  6.023468  2.647690
      ESP Fit Center  988 is at  10.245403  6.983468  2.647690
      ESP Fit Center  989 is at   9.542634  7.686237  2.647690
      ESP Fit Center  990 is at   8.582634  7.943468  2.647690
      ESP Fit Center  991 is at   9.927842  7.000819  1.687690
      ESP Fit Center  992 is at   9.096458  7.604855  1.687690
      ESP Fit Center  993 is at  10.395271  4.022022  3.354869
      ESP Fit Center  994 is at  10.097399  5.036478  3.354869
      ESP Fit Center  995 is at   7.060017  2.192672  2.392543
      ESP Fit Center  996 is at   9.039535  1.740859  2.392543
      ESP Fit Center  997 is at   9.977733  2.192672  2.392543
      ESP Fit Center  998 is at   9.039535  1.740859  1.324443
      ESP Fit Center  999 is at   6.613893  2.451196  2.103781
      ESP Fit Center 1000 is at   7.445277  1.847160  2.103781
      ESP Fit Center 1001 is at   6.999101  1.765778  1.143781
      ESP Fit Center 1002 is at   7.959101  1.508547  1.143781
      ESP Fit Center 1003 is at   8.919101  1.765778  1.143781
      ESP Fit Center 1004 is at   6.613893  2.451196  0.183781
      ESP Fit Center 1005 is at   7.445277  1.847160  0.183781
      ESP Fit Center 1006 is at   8.472925  1.847160  0.183781
      ESP Fit Center 1007 is at   9.304309  2.451196  0.183781
      ESP Fit Center 1008 is at   8.919101  3.428547 -0.518988
      ESP Fit Center 1009 is at   7.479101  4.259931 -0.518988
      ESP Fit Center 1010 is at   6.999101  3.428547 -0.518988
      ESP Fit Center 1011 is at   7.479101  2.597163 -0.518988
      ESP Fit Center 1012 is at   8.439101  2.597163 -0.518988
      ESP Fit Center 1013 is at   7.959101  3.428547 -0.776219
      ESP Fit Center 1014 is at  10.516686  4.030487  3.199895
      ESP Fit Center 1015 is at  11.219455  4.030487  2.497126
      ESP Fit Center 1016 is at  10.901894  5.007838  2.497126
      ESP Fit Center 1017 is at  10.901894  3.053136  2.497126
      ESP Fit Center 1018 is at  11.476686  4.030487  1.537126
      ESP Fit Center 1019 is at  11.219455  4.990487  1.537126
      ESP Fit Center 1020 is at  10.516686  5.693256  1.537126
      ESP Fit Center 1021 is at  10.516686  2.367718  1.537126
      ESP Fit Center 1022 is at  11.219455  3.070487  1.537126
      ESP Fit Center 1023 is at  11.219455  4.030487  0.577126
      ESP Fit Center 1024 is at  10.901894  5.007838  0.577126
      ESP Fit Center 1025 is at  10.070510  5.611874  0.577126
      ESP Fit Center 1026 is at  10.070510  2.449100  0.577126
      ESP Fit Center 1027 is at  10.901894  3.053136  0.577126
      ESP Fit Center 1028 is at  10.516686  4.030487 -0.125643
      ESP Fit Center 1029 is at  10.036686  4.861871 -0.125643
      ESP Fit Center 1030 is at  10.036686  3.199103 -0.125643
      ESP Fit Center 1031 is at   9.556686  4.030487 -0.382874
      ESP Fit Center 1032 is at   8.463806  3.528100  4.741660
      ESP Fit Center 1033 is at   9.423806  3.528100  4.484429
      ESP Fit Center 1034 is at   8.943806  4.359484  4.484429
      ESP Fit Center 1035 is at   7.983806  4.359484  4.484429
      ESP Fit Center 1036 is at   7.503806  3.528100  4.484429
      ESP Fit Center 1037 is at   7.983806  2.696716  4.484429
      ESP Fit Center 1038 is at   8.943806  2.696716  4.484429
      ESP Fit Center 1039 is at  10.126575  3.528100  3.781660
      ESP Fit Center 1040 is at   7.118598  2.550749  3.781660
      ESP Fit Center 1041 is at   7.949982  1.946713  3.781660
      ESP Fit Center 1042 is at   8.977630  1.946713  3.781660
      ESP Fit Center 1043 is at   9.809014  2.550749  3.781660
      ESP Fit Center 1044 is at   6.801037  2.568100  2.821660
      ESP Fit Center 1045 is at   7.503806  1.865331  2.821660
      ESP Fit Center 1046 is at   8.463806  1.608100  2.821660
      ESP Fit Center 1047 is at   9.423806  1.865331  2.821660
      ESP Fit Center 1048 is at  -8.006035 -2.951578  5.533537
[...]
 1365 Fit      -0.002483
 1366 Fit       0.000871
 1367 Fit      -0.005561
 1368 Fit      -0.009416
 1369 Fit      -0.003457
 1370 Fit      -0.004762
 1371 Fit      -0.006128
 1372 Fit      -0.003729
 1373 Fit      -0.004401
 1374 Fit      -0.009816
 1375 Fit      -0.009867
 1376 Fit      -0.006568
 1377 Fit      -0.022166
 1378 Fit      -0.029341
 1379 Fit      -0.029466
 1380 Fit      -0.023723
 1381 Fit      -0.016888
 1382 Fit      -0.011890
 1383 Fit      -0.018469
 1384 Fit      -0.032471
 1385 Fit      -0.026633
 1386 Fit      -0.023174
 1387 Fit      -0.019888
 1388 Fit      -0.014511
 1389 Fit      -0.007300
 1390 Fit      -0.027056
 1391 Fit      -0.028094
 1392 Fit      -0.022097
 1393 Fit      -0.020789
 1394 Fit      -0.020914
 1395 Fit      -0.019410
 1396 Fit      -0.014715
 1397 Fit      -0.007717
 1398 Fit      -0.015492
 1399 Fit      -0.014291
 1400 Fit      -0.017096
 1401 Fit      -0.019934
 1402 Fit      -0.019923
 1403 Fit      -0.015700
 1404 Fit      -0.008460
 1405 Fit      -0.005748
 1406 Fit      -0.012236
 1407 Fit      -0.017540
 1408 Fit      -0.019202
 1409 Fit      -0.015789
 1410 Fit      -0.011569
 1411 Fit      -0.015427
 1412 Fit      -0.014203
 1413 Fit      -0.007006
 1414 Fit      -0.008538
 1415 Fit      -0.002546
 1416 Fit       0.010403
 1417 Fit       0.005762
 1418 Fit       0.012642
 1419 Fit      -0.006296
 1420 Fit      -0.007376
 1421 Fit      -0.001040
 1422 Fit       0.000721
 1423 Fit      -0.001179
 1424 Fit       0.005033
 1425 Fit       0.003911
 1426 Fit       0.004506
 1427 Fit       0.003530
 1428 Fit       0.000963
 1429 Fit       0.008653
 1430 Fit       0.006724
 1431 Fit       0.004785
 1432 Fit       0.003405
 1433 Fit       0.003910
 1434 Fit       0.015045
 1435 Fit       0.011890
 1436 Fit       0.009048
 1437 Fit       0.009116
 1438 Fit       0.012703
 1439 Fit       0.014778
 1440 Fit       0.012196
 1441 Fit       0.015037
 1442 Fit       0.001178
 1443 Fit       0.002273
 1444 Fit       0.005773
 1445 Fit       0.008763
 1446 Fit       0.012938
 1447 Fit       0.011363
 1448 Fit       0.010817
 1449 Fit       0.009852
 1450 Fit       0.013724
 1451 Fit       0.013665
 1452 Fit       0.012956
 1453 Fit       0.012812
 1454 Fit       0.014626
 1455 Fit       0.013970
 1456 Fit       0.013010
 1457 Fit       0.013424
 1458 Fit      -0.024910
 1459 Fit      -0.016595
 1460 Fit      -0.019067
 1461 Fit      -0.026212
 1462 Fit      -0.031690
 1463 Fit      -0.029620
 1464 Fit      -0.022792
 1465 Fit      -0.006252
 1466 Fit      -0.007319
 1467 Fit      -0.014103
 1468 Fit      -0.021533
 1469 Fit      -0.026985
 1470 Fit      -0.033240
 1471 Fit      -0.030001
 1472 Fit      -0.025075
 1473 Fit      -0.018150
 1474 Fit      -0.010796
 1475 Fit      -0.014139
 1476 Fit      -0.021656
 1477 Fit      -0.025472
 1478 Fit      -0.027908
 1479 Fit      -0.018729
 1480 Fit      -0.009526
 1481 Fit      -0.018433
 1482 Fit      -0.022837
 1483 Fit      -0.022194
 1484 Fit      -0.008062
 1485 Fit      -0.015888
 1486 Fit      -0.018665
 1487 Fit      -0.014077
 1488 Fit      -0.005742
 1489 Fit      -0.010604
 1490 Fit      -0.007292
 1491 Fit       0.000713
 1492 Fit       0.006732
 1493 Fit       0.003807
 1494 Fit       0.000445
 1495 Fit       0.008490
 1496 Fit       0.007352
 1497 Fit       0.006271
 1498 Fit       0.005068
 1499 Fit       0.005944
 1500 Fit       0.009843
 1501 Fit       0.009520
 1502 Fit       0.011093
 1503 Fit       0.010891
 1504 Fit       0.012241
 1505 Fit      -0.002222
 1506 Fit       0.002990
 1507 Fit       0.001294
 1508 Fit       0.000565
 1509 Fit       0.005524
 1510 Fit       0.004935
 1511 Fit       0.002313
 1512 Fit      -0.003589
 1513 Fit       0.006841
 1514 Fit       0.005816
 1515 Fit       0.003789
 1516 Fit      -0.000366
 1517 Fit       0.005629
 1518 Fit       0.001356
 1519 Fit      -0.000121
 1520 Fit      -0.000797
 1521 Fit      -0.000201
 1522 Fit       0.001475
 1523 Fit       0.006354
 1524 Fit      -0.000953
 1525 Fit       0.001831
 1526 Fit       0.001032
 1527 Fit       0.008099
 1528 Fit       0.004946
 1529 Fit       0.003585
 1530 Fit       0.006018
 1531 Fit       0.012683
 1532 Fit       0.008872
 1533 Fit       0.006212
 1534 Fit       0.009347
 1535 Fit       0.003978
 1536 Fit       0.005535
 1537 Fit       0.002208
 1538 Fit       0.005784
 1539 Fit       0.006684
 1540 Fit       0.007597
 1541 Fit       0.002335
 1542 Fit       0.004323
 1543 Fit       0.006548
 1544 Fit       0.007384
 1545 Fit       0.008317
 1546 Fit       0.003096
 1547 Fit       0.005040
 1548 Fit       0.006403
 1549 Fit       0.007862
 1550 Fit       0.004638
 1551 Fit      -0.004934
 1552 Fit      -0.000526
 1553 Fit      -0.001760
 1554 Fit      -0.015450
 1555 Fit      -0.005607
 1556 Fit      -0.001381
 1557 Fit       0.000668
 1558 Fit      -0.006857
 1559 Fit      -0.002557
 1560 Fit      -0.000546
 1561 Fit       0.000174
 1562 Fit      -0.004727
 1563 Fit      -0.002984
 1564 Fit      -0.001354
 1565 Fit      -0.000410
 1566 Fit       0.003392
 1567 Fit       0.003327
 1568 Fit       0.002662
 1569 Fit       0.002935
 1570 Fit       0.002892
 1571 Fit       0.002070
 1572 Fit       0.008412
 1573 Fit       0.004058
 1574 Fit       0.002860
 1575 Fit       0.002301
 1576 Fit       0.001987
 1577 Fit       0.001673
 1578 Fit       0.008886
 1579 Fit       0.006746
 1580 Fit       0.005349
 1581 Fit       0.011295
 1582 Fit       0.008982
 1583 Fit       0.006953
 1584 Fit       0.005605
 1585 Fit       0.004766
 1586 Fit       0.004405
 1587 Fit       0.004547
 1588 Fit       0.010170
 1589 Fit       0.009121
 1590 Fit       0.007366
 1591 Fit       0.006499
 1592 Fit       0.006852
 1593 Fit       0.008315
 1594 Fit       0.001018
 1595 Fit      -0.005228
 1596 Fit       0.001940
 1597 Fit      -0.000291
 1598 Fit       0.002486
 1599 Fit       0.002054
 1600 Fit       0.000545
 1601 Fit      -0.003655
 1602 Fit       0.002412
 1603 Fit       0.002362
 1604 Fit       0.001766
 1605 Fit      -0.000202
 1606 Fit      -0.004845
 1607 Fit       0.002141
 1608 Fit       0.001752
 1609 Fit       0.000343
 1610 Fit      -0.002622
 1611 Fit       0.001399
 1612 Fit       0.006918
 1613 Fit       0.009650
 1614 Fit       0.007982
 1615 Fit       0.006507
 1616 Fit       0.004667
 1617 Fit       0.009929
 1618 Fit       0.008544
 1619 Fit       0.007509
 1620 Fit       0.006194
 1621 Fit       0.004482
 1622 Fit       0.009508
 1623 Fit       0.008181
 1624 Fit       0.007225
 1625 Fit       0.005993
 1626 Fit       0.004375
 1627 Fit       0.008287
 1628 Fit       0.007024
 1629 Fit       0.005870
 1630 Fit       0.004378
 1631 Fit      -0.005283
 1632 Fit      -0.004141
 1633 Fit       0.001584
 1634 Fit       0.004938
 1635 Fit       0.007259
 1636 Fit       0.008900
 1637 Fit       0.010183
 1638 Fit       0.003986
 1639 Fit       0.006331
 1640 Fit       0.005294
 1641 Fit       0.006674
 1642 Fit       0.007683
 1643 Fit       0.008767
 1644 Fit       0.009818
 1645 Fit       0.009139
 1646 Fit       0.009184
 1647 Fit       0.009545
 1648 Fit       0.010356
 1649 Fit       0.011435
 1650 Fit       0.010413
 1651 Fit       0.010152
 1652 Fit       0.011728
 1653 Fit       0.010869
 1654 Fit       0.001275
 1655 Fit      -0.004377
 1656 Fit      -0.001298
 1657 Fit       0.002906
 1658 Fit       0.004535
 1659 Fit       0.003075
 1660 Fit      -0.001145
 1661 Fit      -0.011113
 1662 Fit      -0.003432
 1663 Fit       0.001822
 1664 Fit       0.004862
 1665 Fit       0.006449
 1666 Fit       0.006597
 1667 Fit       0.005100
 1668 Fit       0.002264
 1669 Fit      -0.003019
 1670 Fit      -0.011083
 1671 Fit       0.007985
 1672 Fit       0.009027
 1673 Fit      -0.017143
 1674 Fit      -0.014495
 1675 Fit      -0.015240
 1676 Fit      -0.015677
 1677 Fit      -0.012401
 1678 Fit      -0.009730
 1679 Fit      -0.010816
 1680 Fit      -0.016155
 1681 Fit      -0.017082
 1682 Fit      -0.004062
 1683 Fit      -0.012629
 1684 Fit      -0.008528
 1685 Fit       0.002122
 1686 Fit      -0.005127
 1687 Fit       0.010898
 1688 Fit       0.009847
 1689 Fit       0.004996
 1690 Fit       0.009717
 1691 Fit       0.010148
 1692 Fit       0.012973
 1693 Fit       0.011864
 1694 Fit       0.012622
 1695 Fit       0.011859
 1696 Fit       0.013050
 1697 Fit       0.010924
 1698 Fit      -0.000864
 1699 Fit       0.001667
 1700 Fit      -0.001507
 1701 Fit       0.011043
 1702 Fit       0.004977
 1703 Fit       0.000940
 1704 Fit       0.007984
 1705 Fit       0.008255
 1706 Fit       0.006226
 1707 Fit       0.001473
 1708 Fit       0.004401
 1709 Fit      -0.010659
 1710 Fit      -0.006229
 1711 Fit      -0.010156
 1712 Fit      -0.007888
 1713 Fit      -0.004841
 1714 Fit      -0.002833
 1715 Fit      -0.005436
 1716 Fit      -0.008331
 1717 Fit      -0.005440
 1718 Fit      -0.002148
 1719 Fit       0.000525
 1720 Fit       0.000733
 1721 Fit      -0.003356
 1722 Fit       0.005287
 1723 Fit       0.003502
 1724 Fit      -0.006536
 1725 Fit      -0.007028
 1726 Fit      -0.007019
 1727 Fit      -0.006880
 1728 Fit      -0.003925
 1729 Fit      -0.004791
 1730 Fit      -0.010152
 1731 Fit      -0.003747
 1732 Fit      -0.001974
 1733 Fit      -0.002645
 1734 Fit      -0.005461
 1735 Fit      -0.001123
 1736 Fit      -0.001359
 1737 Fit      -0.002707
 1738 Fit      -0.001922
 1739 Fit      -0.004705
 1740 Fit      -0.007834
 1741 Fit      -0.008634
 1742 Fit       0.004979
 1743 Fit      -0.005829
 1744 Fit      -0.007990
 1745 Fit       0.007594
 1746 Fit       0.008496
 1747 Fit       0.006395
 1748 Fit       0.009271
 1749 Fit       0.012179
 1750 Fit      -0.002122
 1751 Fit       0.000672
 1752 Fit       0.003950
 1753 Fit      -0.002903
 1754 Fit      -0.000576
 1755 Fit       0.003131
 1756 Fit       0.006085
 1757 Fit       0.000737
 1758 Fit       0.005328
 1759 Fit       0.010350
 1760 Fit       0.010327
 1761 Fit       0.011360
 1762 Fit       0.012209
 1763 Fit       0.012335
 1764 Fit       0.013313
 1765 Fit       0.013249
 1766 Fit       0.013011
 1767 Fit       0.012083
 1768 Fit       0.013122
 1769 Fit      -0.001529
 1770 Fit       0.012671
 1771 Fit      -0.002621
 1772 Fit       0.010573
 1773 Fit       0.003081
 1774 Fit       0.004195
 1775 Fit       0.007439
 1776 Fit      -0.000438
 1777 Fit       0.006848
 1778 Fit      -0.003792
 1779 Fit       0.002646
 1780 Fit       0.007547
 1781 Fit       0.011647
 1782 Fit      -0.000320
 1783 Fit       0.004488
 1784 Fit       0.008009
 1785 Fit       0.010834
 1786 Fit       0.013440
 1787 Fit      -0.000843
 1788 Fit       0.004312
 1789 Fit       0.007616
 1790 Fit       0.009929
 1791 Fit       0.011573
 1792 Fit       0.004991
 1793 Fit       0.008016
 1794 Fit       0.010344
 1795 Fit       0.005677
 1796 Fit       0.001408
 1797 Fit       0.000621
 1798 Fit       0.010191
 1799 Fit       0.008430
 1800 Fit       0.006529
 1801 Fit       0.006462
 1802 Fit       0.005902
 1803 Fit       0.008196
 1804 Fit       0.008559
 1805 Fit       0.007859
 1806 Fit       0.007831
 1807 Fit       0.007506
 1808 Fit      -0.006773
 1809 Fit      -0.005489
 1810 Fit      -0.002800
 1811 Fit       0.004562
 1812 Fit       0.003118
 1813 Fit       0.007448
 1814 Fit       0.003929
 1815 Fit       0.000493
 1816 Fit       0.002218
 1817 Fit       0.004978
 1818 Fit       0.008016
 1819 Fit       0.005879
 1820 Fit       0.006956
 1821 Fit       0.008584
 1822 Fit       0.007855
 1823 Fit       0.005707
 1824 Fit       0.006520
 1825 Fit       0.007846
 1826 Fit       0.007449
 1827 Fit       0.008030
 1828 Fit       0.007322
 1829 Fit      -0.004851
 1830 Fit      -0.002598
 1831 Fit       0.000317
 1832 Fit       0.001192
 1833 Fit       0.001970
 1834 Fit       0.009390
 1835 Fit       0.005494
 1836 Fit       0.007363
 1837 Fit       0.007123
 1838 Fit       0.005907
 1839 Fit       0.008366
 1840 Fit       0.008498
 1841 Fit       0.003264
 1842 Fit       0.005055
 1843 Fit       0.007132
 1844 Fit       0.007301
 1845 Fit       0.004866
 1846 Fit       0.005899
 1847 Fit       0.007763
 1848 Fit       0.006962
 1849 Fit       0.006955
 1850 Fit       0.000928
 1851 Fit       0.005164
 1852 Fit       0.003797
 1853 Fit       0.000982
 1854 Fit       0.007420
 1855 Fit       0.006180
 1856 Fit       0.004121
 1857 Fit       0.000788
 1858 Fit       0.008281
 1859 Fit       0.006739
 1860 Fit       0.004700
 1861 Fit       0.009211
 1862 Fit       0.007251
 1863 Fit      -0.012342
 1864 Fit      -0.011892
 1865 Fit      -0.014049
 1866 Fit      -0.016732
 1867 Fit      -0.015576
 1868 Fit      -0.012157
 1869 Fit      -0.009230
 1870 Fit      -0.015103
 1871 Fit      -0.017581
 1872 Fit      -0.017499
 1873 Fit      -0.016798
 1874 Fit      -0.016317
 1875 Fit      -0.015166
 1876 Fit      -0.011905
 1877 Fit      -0.009268
 1878 Fit      -0.013869
 1879 Fit      -0.015970
 1880 Fit      -0.015211
 1881 Fit      -0.014243
 1882 Fit      -0.014024
 1883 Fit      -0.014860
 1884 Fit      -0.015843
 1885 Fit      -0.015293
 1886 Fit      -0.011241
 1887 Fit      -0.008154
 1888 Fit      -0.008525
 1889 Fit      -0.010379
 1890 Fit      -0.013164
 1891 Fit      -0.015358
 1892 Fit      -0.015204
 1893 Fit      -0.010134
 1894 Fit      -0.000466
 1895 Fit      -0.002694
 1896 Fit      -0.006606
 1897 Fit      -0.010919
 1898 Fit      -0.013960
 1899 Fit      -0.014157
 1900 Fit      -0.008159
 1901 Fit      -0.004830
 1902 Fit      -0.009995
 1903 Fit      -0.011598
 1904 Fit      -0.004751
 1905 Fit       0.002713
 1906 Fit      -0.003342
 1907 Fit      -0.006823
 1908 Fit       0.000554
 1909 Fit       0.006436
 1910 Fit      -0.004697
 1911 Fit       0.011807
 1912 Fit       0.001279
 1913 Fit       0.011388
 1914 Fit       0.012544
 1915 Fit       0.006780
 1916 Fit       0.009242
 1917 Fit      -0.004521
 1918 Fit      -0.008194
 1919 Fit      -0.017861
 1920 Fit      -0.010142
 1921 Fit      -0.014955
 1922 Fit      -0.010344
 1923 Fit      -0.008860
 1924 Fit      -0.009796
 1925 Fit      -0.005482
 1926 Fit      -0.000582
 1927 Fit      -0.006930
 1928 Fit      -0.010016
 1929 Fit      -0.005063
 1930 Fit      -0.005836
 1931 Fit      -0.007063
 1932 Fit      -0.005016
 1933 Fit      -0.005097
 1934 Fit      -0.008680
 1935 Fit      -0.009492
 1936 Fit      -0.008923
 1937 Fit      -0.004486
 1938 Fit      -0.019244
 1939 Fit      -0.024535
 1940 Fit      -0.024672
 1941 Fit      -0.020307
 1942 Fit      -0.015288
 1943 Fit      -0.012128
 1944 Fit      -0.016847
 1945 Fit      -0.027713
 1946 Fit      -0.023151
 1947 Fit      -0.020009
 1948 Fit      -0.017049
 1949 Fit      -0.013002
 1950 Fit      -0.008215
 1951 Fit      -0.013505
 1952 Fit      -0.023393
 1953 Fit      -0.025946
 1954 Fit      -0.020808
 1955 Fit      -0.018804
 1956 Fit      -0.017834
 1957 Fit      -0.015932
 1958 Fit      -0.012195
 1959 Fit      -0.007352
 1960 Fit      -0.019215
 1961 Fit      -0.015541
 1962 Fit      -0.015564
 1963 Fit      -0.016514
 1964 Fit      -0.016391
 1965 Fit      -0.014000
 1966 Fit      -0.009512
 1967 Fit      -0.005199
 1968 Fit      -0.009104
 1969 Fit      -0.009794
 1970 Fit      -0.012416
 1971 Fit      -0.014796
 1972 Fit      -0.015434
 1973 Fit      -0.013406
 1974 Fit      -0.008853
 1975 Fit      -0.006575
 1976 Fit      -0.011017
 1977 Fit      -0.013251
 1978 Fit      -0.012265
 1979 Fit      -0.007077
 1980 Fit      -0.009621
 1981 Fit      -0.009382
 1982 Fit      -0.003011
 1983 Fit      -0.004687
 1984 Fit       0.000947
 1985 Fit       0.009467
 1986 Fit       0.007163
 1987 Fit       0.005667
 1988 Fit       0.011331
 1989 Fit      -0.006775
 1990 Fit      -0.003268
 1991 Fit      -0.003736
 1992 Fit      -0.000224
 1993 Fit       0.001125
 1994 Fit       0.000438
 1995 Fit       0.004442
 1996 Fit       0.004167
 1997 Fit       0.003366
 1998 Fit       0.006371
 1999 Fit       0.005080
 2000 Fit       0.004084
 2001 Fit       0.004224
 2002 Fit       0.013176
 2003 Fit       0.010741
 2004 Fit       0.008343
 2005 Fit       0.008216
 2006 Fit       0.010929
 2007 Fit       0.012884
 2008 Fit       0.010775
 2009 Fit       0.011781
 2010 Fit       0.010965
 2011 Fit       0.013432
 2012 Fit      -0.000270
 2013 Fit       0.002235
 2014 Fit       0.005954
 2015 Fit       0.007976
 2016 Fit       0.010653
 2017 Fit       0.010018
 2018 Fit       0.009308
 2019 Fit       0.011588
 2020 Fit       0.012099
 2021 Fit       0.012004
 2022 Fit       0.011424
 2023 Fit       0.011411
 2024 Fit       0.012872
 2025 Fit       0.012581
 2026 Fit       0.011763
 2027 Fit       0.011925
 2028 Fit      -0.021212
 2029 Fit      -0.014999
 2030 Fit      -0.017010
 2031 Fit      -0.022536
 2032 Fit      -0.026632
 2033 Fit      -0.024564
 2034 Fit      -0.019200
 2035 Fit      -0.007518
 2036 Fit      -0.008430
 2037 Fit      -0.013125
 2038 Fit      -0.018596
 2039 Fit      -0.023257
 2040 Fit      -0.028576
 2041 Fit      -0.025176
 2042 Fit      -0.020901
 2043 Fit      -0.015671
 2044 Fit      -0.010503
 2045 Fit      -0.005410
 2046 Fit      -0.012430
 2047 Fit      -0.018088
 2048 Fit      -0.021762
 2049 Fit      -0.025308
 2050 Fit      -0.016831
 2051 Fit      -0.006982
 2052 Fit      -0.013925
 2053 Fit      -0.018346
 2054 Fit      -0.020026
 2055 Fit      -0.020476
 2056 Fit      -0.010212
 2057 Fit      -0.014936
 2058 Fit      -0.016604
 2059 Fit      -0.014808
 2060 Fit      -0.009218
 2061 Fit      -0.011758
 2062 Fit      -0.009281
 2063 Fit      -0.001476
 2064 Fit      -0.004769
 2065 Fit       0.003992
 2066 Fit       0.005976
 2067 Fit       0.004402
 2068 Fit       0.001986
 2069 Fit      -0.002454
 2070 Fit       0.006552
 2071 Fit       0.005887
 2072 Fit       0.004402
 2073 Fit       0.002434
 2074 Fit      -0.000434
 2075 Fit       0.007835
 2076 Fit       0.006968
 2077 Fit       0.006162
 2078 Fit       0.005656
 2079 Fit       0.007520
 2080 Fit       0.008975
 2081 Fit       0.008669
 2082 Fit       0.010226
 2083 Fit       0.010107
 2084 Fit       0.010999
 2085 Fit       0.001009
 2086 Fit      -0.000654
 2087 Fit      -0.001247
 2088 Fit       0.003655
 2089 Fit       0.003049
 2090 Fit       0.000606
 2091 Fit       0.005197
 2092 Fit       0.004531
 2093 Fit       0.002896
 2094 Fit      -0.000387
 2095 Fit       0.005083
 2096 Fit       0.003339
 2097 Fit       0.000296
 2098 Fit       0.000873
 2099 Fit       0.004112
 2100 Fit       0.000747
 2101 Fit      -0.002584
 2102 Fit      -0.002535
 2103 Fit      -0.001379
 2104 Fit      -0.000415
 2105 Fit       0.000728
 2106 Fit       0.000060
 2107 Fit       0.000559
 2108 Fit       0.002028
 2109 Fit       0.006320
 2110 Fit       0.009031
 2111 Fit       0.008423
 2112 Fit       0.000514
 2113 Fit      -0.001031
 2114 Fit       0.003969
 2115 Fit       0.001936
 2116 Fit       0.001659
 2117 Fit       0.007442
 2118 Fit       0.004838
 2119 Fit       0.003834
 2120 Fit       0.011519
 2121 Fit       0.008088
 2122 Fit       0.006033
 2123 Fit       0.008744
 2124 Fit       0.002820
 2125 Fit       0.004405
 2126 Fit       0.001380
 2127 Fit       0.004274
 2128 Fit       0.005213
 2129 Fit       0.006456
 2130 Fit       0.001590
 2131 Fit       0.003083
 2132 Fit       0.005271
 2133 Fit       0.006012
 2134 Fit       0.006690
 2135 Fit       0.002750
 2136 Fit       0.004176
 2137 Fit       0.005692
 2138 Fit       0.006532
 2139 Fit       0.007705
 2140 Fit       0.003232
 2141 Fit       0.004524
 2142 Fit       0.005803
 2143 Fit       0.007275
 2144 Fit       0.004629
 2145 Fit      -0.005803
 2146 Fit      -0.001588
 2147 Fit      -0.003150
 2148 Fit      -0.006495
 2149 Fit      -0.002549
 2150 Fit       0.000211
 2151 Fit      -0.007838
 2152 Fit      -0.003525
 2153 Fit      -0.001368
 2154 Fit      -0.000394
 2155 Fit      -0.005736
 2156 Fit      -0.003287
 2157 Fit      -0.001501
 2158 Fit      -0.000472
 Job cpu time:       0 days  0 hours  4 minutes 55.0 seconds.
 Normal termination of Gaussian 16 at Sat Jul  8 22:19:55 2023.
