 Copyright (c) 1988-2019, Gaussian, Inc.  All Rights Reserved.
  
 This is part of the Gaussian(R) 16 program.  It is based on
 the Gaussian(R) 09 system (copyright 2009, Gaussian, Inc.),
 the Gaussian(R) 03 system (copyright 2003, Gaussian, Inc.),
 the Gaussian(R) 98 system (copyright 1998, Gaussian, Inc.),
 the Gaussian(R) 94 system (copyright 1995, Gaussian, Inc.),
 the Gaussian 92(TM) system (copyright 1992, Gaussian, Inc.),
 the Gaussian 90(TM) system (copyright 1990, Gaussian, Inc.),
 the Gaussian 88(TM) system (copyright 1988, Gaussian, Inc.),
 the Gaussian 86(TM) system (copyright 1986, Carnegie Mellon
 University), and the Gaussian 82(TM) system (copyright 1983,
 Carnegie Mellon University). Gaussian is a federally registered
 trademark of Gaussian, Inc.
 Cite this work as:
 Gaussian 16, Revision C.01,
 M. J. Frisch, G. W. Trucks, H. B. Schlegel, G. E. Scuseria, 
 M. A. Robb, J. R. Cheeseman, G. Scalmani, V. Barone, 
 G. A. Petersson, H. Nakatsuji, X. Li, M. Caricato, A. V. Marenich, 
 J. Bloino, B. G. Janesko, R. Gomperts, B. Mennucci, H. P. Hratchian, 
 J. V. Ortiz, A. F. Izmaylov, J. L. Sonnenberg, D. Williams-Young, 
 F. Ding, F. Lipparini, F. Egidi, J. Goings, B. Peng, A. Petrone, 
 T. Henderson, D. Ranasinghe, V. G. Zakrzewski, J. Gao, N. Rega, 
 G. Zheng, W. Liang, M. Hada, M. Ehara, K. Toyota, R. Fukuda, 
 J. Hasegawa, M. Ishida, T. Nakajima, Y. Honda, O. Kitao, H. Nakai, 
 T. Vreven, K. Throssell, J. A. Montgomery, Jr., J. E. Peralta, 
 F. Ogliaro, M. J. Bearpark, J. J. Heyd, E. N. Brothers, K. N. Kudin, 
 V. N. Staroverov, T. A. Keith, R. Kobayashi, J. Normand, 
 K. Raghavachari, A. P. Rendell, J. C. Burant, S. S. Iyengar, 
 J. Tomasi, M. Cossi, J. M. Millam, M. Klene, C. Adamo, R. Cammi, 
 J. W. Ochterski, R. L. Martin, K. Morokuma, O. Farkas, 
 J. B. Foresman, and D. J. Fox, Gaussian, Inc., Wallingford CT, 2019.
 
 ******************************************
 Gaussian 16:  EM64L-G16RevC.01  3-Jul-2019
                 8-Jul-2023 
 ******************************************
 ----------------------------------------------------------------------
 #P HF/6-31G(d) SCF(Conver=8,XQC,MaxConventionalCycles=64,MaxCycle=128)
  NoSymm Test Pop=mk IOp(6/33=2) GFInput GFPrint
 ----------------------------------------------------------------------
 1/38=1,172=1/1;
 2/12=2,15=1,17=6,18=5,40=1/2;
 3/5=1,6=6,7=1,11=9,24=110,25=1,30=1/1,2,3;
 4//1;
 5/5=2,6=8,7=128,8=3,13=1,38=5,85=64/2,8;
 6/7=2,8=2,9=2,10=2,15=8,20=1,28=1,33=2/1,2;
 99/5=1,9=1/99;
 -------------------------------------------------
 MEP step - Input generated by PyRED DVE-DMDS-OPLS
 -------------------------------------------------
 Symbolic Z-matrix:
 Charge =  0 Multiplicity = 1
 C                    -5.4469    0.53822  -1.58921 
 H                    -5.06823  -0.46328  -1.77126 
 H                    -6.52495   0.48672  -1.48319 
 H                    -5.21961   1.15237  -2.45362 
 C                    -4.81461   1.12487  -0.34207 
 H                    -5.04634   0.50846   0.52564 
 H                    -3.73709   1.16372  -0.43652 
 O                    -5.34392   2.41435  -0.15852 
 C                    -5.0433    3.05985   1.0392 
 H                    -5.12816   2.37741   1.88251 
 H                    -5.79115   3.83595   1.15893 
 C                    -3.67343   3.71149   1.06069 
 H                    -3.52321   4.25788   0.13229 
 H                    -3.62805   4.42633   1.88369 
 O                    -2.68841   2.73448   1.22138 
 C                    -1.37855   3.19463   1.10911 
 H                    -1.14603   3.88311   1.92201 
 H                    -1.23344   3.72141   0.1693 
 C                    -0.43512   2.0164    1.17022 
 H                    -0.67087   1.41102   2.04278 
 H                     0.58298   2.38433   1.27149 
 O                    -0.57746   1.26686   0. 
 C                     0.        0.        0. 
 H                    -0.36022  -0.4897   -0.89452 
 H                    -0.34367  -0.57335   0.86001 
 C                     1.52782   0.        0. 
 H                     1.85847  -1.02721  -0.09875 
 H                     1.91938   0.38202   0.93557 
 S                     2.18      0.99809  -1.3744 
 C                     3.9513    0.5919   -1.28541 
 H                     4.44923   1.3887   -1.82291 
 H                     4.28403   0.64867  -0.25654 
 C                     4.30956  -0.76535  -1.88853 
 H                     3.97133  -0.82636  -2.91529 
 H                     3.81794  -1.56253  -1.3461 
 S                     6.08389  -1.16367  -1.8098 
 C                     6.70341  -0.20698  -3.23028 
 H                     6.26926   0.78557  -3.20413 
 H                     6.37765  -0.67978  -4.14846 
 C                     8.2233   -0.04591  -3.21069 
 H                     8.51242   0.59061  -4.03993 
 H                     8.52572   0.45548  -2.29969 
 S                     9.21824  -1.56327  -3.26575 
 C                     8.83396  -2.19899  -4.92548 
 H                     7.79086  -2.48544  -4.97313 
 H                     9.00267  -1.412    -5.65216 
 C                     9.7171   -3.40445  -5.23748 
 H                     9.4808   -3.79109  -6.2235 
 H                     10.76719  -3.13539  -5.22148 
 H                     9.55964  -4.20053  -4.51818 
 
 ITRead=  0  0  0  0  0  0  0  0  0  0  0  0  0  0  0  0  0  0  0  0
 ITRead=  0  0  0  0  0  0  0  0  0  0  0  0  0  0  0  0  0  0  0  0
 ITRead=  0  0  0  0  0  0  0  0  0  0
 MicOpt= -1 -1 -1 -1 -1 -1 -1 -1 -1 -1 -1 -1 -1 -1 -1 -1 -1 -1 -1 -1
 MicOpt= -1 -1 -1 -1 -1 -1 -1 -1 -1 -1 -1 -1 -1 -1 -1 -1 -1 -1 -1 -1
 MicOpt= -1 -1 -1 -1 -1 -1 -1 -1 -1 -1
 NAtoms=     50 NQM=       50 NQMF=       0 NMMI=      0 NMMIF=      0
                NMic=       0 NMicF=      0.
                          Input orientation:                          
 ---------------------------------------------------------------------
 Center     Atomic      Atomic             Coordinates (Angstroms)
 Number     Number       Type             X           Y           Z
 ---------------------------------------------------------------------
      1          6           0       -5.446896    0.538216   -1.589211
      2          1           0       -5.068229   -0.463280   -1.771255
      3          1           0       -6.524947    0.486716   -1.483194
      4          1           0       -5.219613    1.152367   -2.453615
      5          6           0       -4.814614    1.124865   -0.342072
      6          1           0       -5.046339    0.508464    0.525644
      7          1           0       -3.737093    1.163720   -0.436516
      8          8           0       -5.343921    2.414347   -0.158524
      9          6           0       -5.043301    3.059854    1.039205
     10          1           0       -5.128158    2.377412    1.882511
     11          1           0       -5.791145    3.835948    1.158930
     12          6           0       -3.673434    3.711491    1.060687
     13          1           0       -3.523211    4.257880    0.132291
     14          1           0       -3.628047    4.426331    1.883693
     15          8           0       -2.688413    2.734478    1.221381
     16          6           0       -1.378552    3.194625    1.109106
     17          1           0       -1.146027    3.883113    1.922005
     18          1           0       -1.233444    3.721407    0.169297
     19          6           0       -0.435120    2.016403    1.170215
     20          1           0       -0.670867    1.411017    2.042781
     21          1           0        0.582984    2.384328    1.271493
     22          8           0       -0.577458    1.266856    0.000000
     23          6           0        0.000000    0.000000    0.000000
     24          1           0       -0.360217   -0.489702   -0.894518
     25          1           0       -0.343672   -0.573353    0.860011
     26          6           0        1.527819    0.000000    0.000000
     27          1           0        1.858473   -1.027214   -0.098754
     28          1           0        1.919383    0.382017    0.935570
     29         16           0        2.180000    0.998087   -1.374403
     30          6           0        3.951297    0.591898   -1.285414
     31          1           0        4.449227    1.388699   -1.822910
     32          1           0        4.284034    0.648666   -0.256538
     33          6           0        4.309560   -0.765351   -1.888527
     34          1           0        3.971329   -0.826360   -2.915294
     35          1           0        3.817936   -1.562532   -1.346095
     36         16           0        6.083892   -1.163672   -1.809795
     37          6           0        6.703413   -0.206984   -3.230283
     38          1           0        6.269258    0.785570   -3.204128
     39          1           0        6.377647   -0.679778   -4.148457
     40          6           0        8.223299   -0.045910   -3.210693
     41          1           0        8.512422    0.590614   -4.039926
     42          1           0        8.525720    0.455482   -2.299686
     43         16           0        9.218238   -1.563272   -3.265746
     44          6           0        8.833961   -2.198988   -4.925475
     45          1           0        7.790864   -2.485438   -4.973132
     46          1           0        9.002670   -1.412004   -5.652163
     47          6           0        9.717103   -3.404452   -5.237484
     48          1           0        9.480803   -3.791089   -6.223503
     49          1           0       10.767194   -3.135388   -5.221482
     50          1           0        9.559645   -4.200530   -4.518180
 ---------------------------------------------------------------------
 Stoichiometry    C14H30O3S3
 Framework group  C1[X(C14H30O3S3)]
 Standard basis: 6-31G(d) (6D, 7F)
   372 basis functions,   752 primitive gaussians,   372 cartesian basis functions
    93 alpha electrons       93 beta electrons
 Requested convergence on RMS density matrix=1.00D-08 within  64 cycles.
 Requested convergence on MAX density matrix=1.00D-06.
 Requested convergence on             energy=1.00D-06.
 SCF Done:  E(RHF) =  -1964.69194032     A.U. after   13 cycles
            NFock= 13  Conv=0.34D-08     -V/T= 2.0006
 Mulliken charges:
     1  C   -0.487927
     2  H    0.150621
     3  H    0.165710
     4  H    0.170713
     5  C    0.011426
     6  H    0.129120
     7  H    0.184237
     8  O   -0.630896
     9  C    0.005877
    10  H    0.150582
    11  H    0.167022
    12  C    0.004851
    13  H    0.156755
    14  H    0.133035
    15  O   -0.626258
    16  C    0.015421
    17  H    0.138028
    18  H    0.164818
    19  C    0.004990
    20  H    0.152707
    21  H    0.152598
    22  O   -0.611751
    23  C    0.006271
    24  H    0.191918
    25  H    0.157787
    26  C   -0.499049
    27  H    0.189817
    28  H    0.189608
    29  S    0.137013
    30  C   -0.479154
    31  H    0.199801
    32  H    0.204304
    33  C   -0.482581
    34  H    0.205418
    35  H    0.200803
    36  S    0.142919
    37  C   -0.460528
    38  H    0.191701
    39  H    0.193788
    40  C   -0.492056
    41  H    0.197919
    42  H    0.214943
    43  S    0.135340
    44  C   -0.461000
    45  H    0.192360
    46  H    0.181982
    47  C   -0.495819
    48  H    0.171961
    49  H    0.180434
    50  H    0.182423
 Sum of Mulliken charges =  -0.00000
 Dipole moment (field-independent basis, Debye):
    X=              0.9471    Y=              0.6012    Z=              0.3495  Tot=              1.1750
 Quadrupole moment (field-independent basis, Debye-Ang):
   XX=           -176.0083   YY=           -143.4202   ZZ=           -132.2570
   XY=             12.9364   XZ=            -20.0953   YZ=              7.7014
 Traceless Quadrupole moment (field-independent basis, Debye-Ang):
   XX=            -25.4465   YY=              7.1416   ZZ=             18.3049
   XY=             12.9364   XZ=            -20.0953   YZ=              7.7014
 Octapole moment (field-independent basis, Debye-Ang**2):
  XXX=          -1184.9451  YYY=           -139.3023  ZZZ=            507.4622  XYY=           -354.0040
  XXY=             12.5445  XXZ=            121.6618  XZZ=           -210.4044  YZZ=            -76.7012
  YYZ=            211.8069  XYZ=            -11.4519
 Hexadecapole moment (field-independent basis, Debye-Ang**3):
 XXXX=         -31673.0082 YYYY=          -3236.4112 ZZZZ=          -4652.7422 XXXY=           3975.6150
 XXXZ=           4236.6720 YYYX=           2940.3675 YYYZ=          -1051.3256 ZZZX=           4247.7159
 ZZZY=          -1000.3776 XXYY=          -5267.2670 XXZZ=          -4584.4940 YYZZ=          -1329.2960
 XXYZ=           -194.4046 YYXZ=           1495.6181 ZZXY=            824.6745
 Merz-Kollman atomic radii used.
 Atom Element Radius
    1     6    1.50
    2     1    1.20
    3     1    1.20
    4     1    1.20
    5     6    1.50
    6     1    1.20
    7     1    1.20
    8     8    1.40
    9     6    1.50
   10     1    1.20
   11     1    1.20
   12     6    1.50
   13     1    1.20
   14     1    1.20
   15     8    1.40
   16     6    1.50
   17     1    1.20
   18     1    1.20
   19     6    1.50
   20     1    1.20
   21     1    1.20
   22     8    1.40
   23     6    1.50
   24     1    1.20
   25     1    1.20
   26     6    1.50
   27     1    1.20
   28     1    1.20
   29    16    1.75
   30     6    1.50
   31     1    1.20
   32     1    1.20
   33     6    1.50
   34     1    1.20
   35     1    1.20
   36    16    1.75
   37     6    1.50
   38     1    1.20
   39     1    1.20
   40     6    1.50
   41     1    1.20
   42     1    1.20
   43    16    1.75
   44     6    1.50
   45     1    1.20
   46     1    1.20
   47     6    1.50
   48     1    1.20
   49     1    1.20
   50     1    1.20
 Generate VDW surfaces: Layer= 4 Dens= 1 Start= 1.400 Inc= 0.200
            Electrostatic Properties Using The SCF Density.


       Atomic Center    1 is at  -5.446896  0.538216 -1.589211
       Atomic Center    2 is at  -5.068229 -0.463280 -1.771255
       Atomic Center    3 is at  -6.524947  0.486716 -1.483194
       Atomic Center    4 is at  -5.219613  1.152367 -2.453615
       Atomic Center    5 is at  -4.814614  1.124865 -0.342072
       Atomic Center    6 is at  -5.046339  0.508464  0.525644
       Atomic Center    7 is at  -3.737093  1.163720 -0.436516
       Atomic Center    8 is at  -5.343921  2.414347 -0.158524
       Atomic Center    9 is at  -5.043301  3.059854  1.039205
       Atomic Center   10 is at  -5.128158  2.377412  1.882511
       Atomic Center   11 is at  -5.791145  3.835948  1.158930
       Atomic Center   12 is at  -3.673434  3.711491  1.060687
       Atomic Center   13 is at  -3.523211  4.257880  0.132291
       Atomic Center   14 is at  -3.628047  4.426331  1.883693
       Atomic Center   15 is at  -2.688413  2.734478  1.221381
       Atomic Center   16 is at  -1.378552  3.194625  1.109106
       Atomic Center   17 is at  -1.146027  3.883113  1.922005
       Atomic Center   18 is at  -1.233444  3.721407  0.169297
       Atomic Center   19 is at  -0.435120  2.016403  1.170215
       Atomic Center   20 is at  -0.670867  1.411017  2.042781
       Atomic Center   21 is at   0.582984  2.384328  1.271493
       Atomic Center   22 is at  -0.577458  1.266856  0.000000
       Atomic Center   23 is at   0.000000  0.000000  0.000000
       Atomic Center   24 is at  -0.360217 -0.489702 -0.894518
       Atomic Center   25 is at  -0.343672 -0.573353  0.860011
       Atomic Center   26 is at   1.527819  0.000000  0.000000
       Atomic Center   27 is at   1.858473 -1.027214 -0.098754
       Atomic Center   28 is at   1.919383  0.382017  0.935570
       Atomic Center   29 is at   2.180000  0.998087 -1.374403
       Atomic Center   30 is at   3.951297  0.591898 -1.285414
       Atomic Center   31 is at   4.449227  1.388699 -1.822910
       Atomic Center   32 is at   4.284034  0.648666 -0.256538
       Atomic Center   33 is at   4.309560 -0.765351 -1.888527
       Atomic Center   34 is at   3.971329 -0.826360 -2.915294
       Atomic Center   35 is at   3.817936 -1.562532 -1.346095
       Atomic Center   36 is at   6.083892 -1.163672 -1.809795
       Atomic Center   37 is at   6.703413 -0.206984 -3.230283
       Atomic Center   38 is at   6.269258  0.785570 -3.204128
       Atomic Center   39 is at   6.377647 -0.679778 -4.148457
       Atomic Center   40 is at   8.223299 -0.045910 -3.210693
       Atomic Center   41 is at   8.512422  0.590614 -4.039926
       Atomic Center   42 is at   8.525720  0.455482 -2.299686
       Atomic Center   43 is at   9.218238 -1.563272 -3.265746
       Atomic Center   44 is at   8.833961 -2.198988 -4.925475
       Atomic Center   45 is at   7.790864 -2.485438 -4.973132
       Atomic Center   46 is at   9.002670 -1.412004 -5.652163
       Atomic Center   47 is at   9.717103 -3.404452 -5.237484
       Atomic Center   48 is at   9.480803 -3.791089 -6.223503
       Atomic Center   49 is at  10.767194 -3.135388 -5.221482
       Atomic Center   50 is at   9.559645 -4.200530 -4.518180
      ESP Fit Center   51 is at  -3.628243  0.538216 -2.639211
      ESP Fit Center   52 is at  -6.637861 -0.836230 -2.639211
      ESP Fit Center   53 is at  -6.496896  0.538216 -3.407864
      ESP Fit Center   54 is at  -5.971896 -0.371111 -3.407864
      ESP Fit Center   55 is at  -4.763081 -1.402429 -0.412106
      ESP Fit Center   56 is at  -3.470454 -0.463280 -1.252106
      ESP Fit Center   57 is at  -5.867116 -1.846994 -1.252106
      ESP Fit Center   58 is at  -4.790778 -2.036781 -1.252106
      ESP Fit Center   59 is at  -3.844262 -1.490310 -1.252106
      ESP Fit Center   60 is at  -3.470454 -0.463280 -2.290404
      ESP Fit Center   61 is at  -5.867116 -1.846994 -2.290404
      ESP Fit Center   62 is at  -4.790778 -2.036781 -2.290404
      ESP Fit Center   63 is at  -3.844262 -1.490310 -2.290404
      ESP Fit Center   64 is at  -4.080750 -0.463280 -3.130404
      ESP Fit Center   65 is at  -5.867116 -1.043706 -3.130404
      ESP Fit Center   66 is at  -4.763081 -1.402429 -3.130404
      ESP Fit Center   67 is at  -5.068229 -0.463280 -3.451255
      ESP Fit Center   68 is at  -7.323834  1.067142 -0.124045
      ESP Fit Center   69 is at  -7.323834 -0.093710 -0.124045
      ESP Fit Center   70 is at  -7.323834  1.870430 -0.964045
      ESP Fit Center   71 is at  -8.026364  1.033187 -0.964045
      ESP Fit Center   72 is at  -8.026364 -0.059755 -0.964045
      ESP Fit Center   73 is at  -7.323834 -0.896998 -0.964045
      ESP Fit Center   74 is at  -7.323834  1.870430 -2.002343
      ESP Fit Center   75 is at  -8.026364  1.033187 -2.002343
      ESP Fit Center   76 is at  -8.026364 -0.059755 -2.002343
      ESP Fit Center   77 is at  -7.323834 -0.896998 -2.002343
      ESP Fit Center   78 is at  -7.323834  1.067142 -2.842343
      ESP Fit Center   79 is at  -7.323834 -0.093710 -2.842343
      ESP Fit Center   80 is at  -3.621838  1.152367 -2.972764
      ESP Fit Center   81 is at  -3.995646  2.179397 -2.972764
      ESP Fit Center   82 is at  -4.942162  2.725868 -2.972764
      ESP Fit Center   83 is at  -6.018500  2.536081 -2.972764
      ESP Fit Center   84 is at  -6.721030  1.698838 -2.972764
      ESP Fit Center   85 is at  -4.232134  1.152367 -3.812764
      ESP Fit Center   86 is at  -4.914465  2.091516 -3.812764
      ESP Fit Center   87 is at  -6.018500  1.732793 -3.812764
      ESP Fit Center   88 is at  -6.018500  0.571941 -3.812764
      ESP Fit Center   89 is at  -4.914465  0.213218 -3.812764
      ESP Fit Center   90 is at  -5.219613  1.152367 -4.133615
      ESP Fit Center   91 is at  -3.621678 -0.603401 -0.342072
      ESP Fit Center   92 is at  -5.046339  0.508464  2.205644
      ESP Fit Center   93 is at  -4.058860  0.508464  1.884793
      ESP Fit Center   94 is at  -5.845226 -0.071962  1.884793
      ESP Fit Center   95 is at  -4.741191 -0.430685  1.884793
      ESP Fit Center   96 is at  -6.547756  1.054935  1.044793
      ESP Fit Center   97 is at  -6.547756 -0.038007  1.044793
      ESP Fit Center   98 is at  -5.845226 -0.875250  1.044793
      ESP Fit Center   99 is at  -4.768888 -1.065037  1.044793
      ESP Fit Center  100 is at  -3.822372 -0.518566  1.044793
      ESP Fit Center  101 is at  -5.845226 -0.875250  0.006495
      ESP Fit Center  102 is at  -4.768888 -1.065037  0.006495
      ESP Fit Center  103 is at  -2.513126  0.136690  0.082633
      ESP Fit Center  104 is at  -2.513126  2.190750 -0.955665
      ESP Fit Center  105 is at  -3.459642  2.737221 -0.955665
      ESP Fit Center  106 is at  -3.459642 -0.409781 -0.955665
      ESP Fit Center  107 is at  -2.513126  0.136690 -0.955665
      ESP Fit Center  108 is at  -2.749614  1.163720 -1.795665
      ESP Fit Center  109 is at  -3.431945  2.102869 -1.795665
      ESP Fit Center  110 is at  -7.041331  2.414347  0.821476
      ESP Fit Center  111 is at  -6.717154  1.416635  0.821476
      ESP Fit Center  112 is at  -7.041331  3.394347 -0.158524
      ESP Fit Center  113 is at  -7.303921  2.414347 -0.158524
      ESP Fit Center  114 is at  -7.041331  1.434347 -0.158524
      ESP Fit Center  115 is at  -4.819393  4.028680 -1.138524
      ESP Fit Center  116 is at  -5.868449  4.028680 -1.138524
      ESP Fit Center  117 is at  -6.717154  3.412059 -1.138524
      ESP Fit Center  118 is at  -7.041331  2.414347 -1.138524
      ESP Fit Center  119 is at  -4.853921  3.263052 -1.855934
      ESP Fit Center  120 is at  -5.833921  3.263052 -1.855934
      ESP Fit Center  121 is at  -5.568301  3.969181  2.857858
      ESP Fit Center  122 is at  -6.788286  2.547480  2.089205
      ESP Fit Center  123 is at  -7.082279  2.557291  1.039205
      ESP Fit Center  124 is at  -5.128158  2.377412  3.562511
      ESP Fit Center  125 is at  -4.140679  2.377412  3.241660
      ESP Fit Center  126 is at  -4.823010  3.316561  3.241660
      ESP Fit Center  127 is at  -5.927045  2.957838  3.241660
      ESP Fit Center  128 is at  -5.927045  1.796986  3.241660
      ESP Fit Center  129 is at  -4.823010  1.438263  3.241660
      ESP Fit Center  130 is at  -6.629575  1.830941  2.401660
      ESP Fit Center  131 is at  -5.927045  0.993698  2.401660
      ESP Fit Center  132 is at  -4.850707  0.803911  2.401660
      ESP Fit Center  133 is at  -3.904191  1.350382  2.401660
      ESP Fit Center  134 is at  -5.485997  4.775097  2.518079
      ESP Fit Center  135 is at  -6.590032  4.416374  2.518079
      ESP Fit Center  136 is at  -6.590032  3.255522  2.518079
      ESP Fit Center  137 is at  -5.513694  5.409449  1.678079
      ESP Fit Center  138 is at  -6.590032  5.219662  1.678079
      ESP Fit Center  139 is at  -7.292562  4.382419  1.678079
      ESP Fit Center  140 is at  -7.292562  3.289477  1.678079
      ESP Fit Center  141 is at  -5.513694  5.409449  0.639781
      ESP Fit Center  142 is at  -6.590032  5.219662  0.639781
      ESP Fit Center  143 is at  -7.292562  4.382419  0.639781
      ESP Fit Center  144 is at  -7.292562  3.289477  0.639781
      ESP Fit Center  145 is at  -5.485997  4.775097 -0.200219
      ESP Fit Center  146 is at  -6.590032  4.416374 -0.200219
      ESP Fit Center  147 is at  -2.480498  5.439757  1.060687
      ESP Fit Center  148 is at  -4.418104  5.675025  1.060687
      ESP Fit Center  149 is at  -3.148434  2.802164 -0.757966
      ESP Fit Center  150 is at  -2.299244  5.284910  0.651440
      ESP Fit Center  151 is at  -3.245760  5.831381  0.651440
      ESP Fit Center  152 is at  -2.299244  5.284910 -0.386858
      ESP Fit Center  153 is at  -3.245760  5.831381 -0.386858
      ESP Fit Center  154 is at  -4.322098  5.641594 -0.386858
      ESP Fit Center  155 is at  -5.024628  4.804351 -0.386858
      ESP Fit Center  156 is at  -2.535732  4.257880 -1.226858
      ESP Fit Center  157 is at  -3.218063  5.197029 -1.226858
      ESP Fit Center  158 is at  -4.322098  4.838306 -1.226858
      ESP Fit Center  159 is at  -3.218063  3.318731 -1.226858
      ESP Fit Center  160 is at  -3.523211  4.257880 -1.547709
      ESP Fit Center  161 is at  -3.628047  4.426331  3.563693
      ESP Fit Center  162 is at  -2.640568  4.426331  3.242842
      ESP Fit Center  163 is at  -3.322899  5.365480  3.242842
      ESP Fit Center  164 is at  -4.426934  5.006757  3.242842
      ESP Fit Center  165 is at  -4.426934  3.845905  3.242842
      ESP Fit Center  166 is at  -3.322899  3.487182  3.242842
      ESP Fit Center  167 is at  -2.404080  5.453361  2.402842
      ESP Fit Center  168 is at  -3.350596  5.999832  2.402842
      ESP Fit Center  169 is at  -4.426934  5.810045  2.402842
      ESP Fit Center  170 is at  -5.129464  4.972802  2.402842
      ESP Fit Center  171 is at  -2.404080  5.453361  1.364544
      ESP Fit Center  172 is at  -3.350596  5.999832  1.364544
      ESP Fit Center  173 is at  -4.426934  5.810045  1.364544
      ESP Fit Center  174 is at  -2.688413  2.734478  3.181381
      ESP Fit Center  175 is at  -3.178413  1.885773  2.918791
      ESP Fit Center  176 is at  -2.198413  1.885773  2.918791
      ESP Fit Center  177 is at  -3.212941  1.120145  2.201381
      ESP Fit Center  178 is at  -2.688413  0.774478  1.221381
      ESP Fit Center  179 is at  -2.688413  2.734478 -0.738619
      ESP Fit Center  180 is at   0.480906  4.170544  1.109106
      ESP Fit Center  181 is at  -2.123222  5.158159  1.109106
      ESP Fit Center  182 is at  -1.146027  3.883113  3.602005
      ESP Fit Center  183 is at  -0.158548  3.883113  3.281154
      ESP Fit Center  184 is at  -0.840879  4.822262  3.281154
      ESP Fit Center  185 is at  -1.944914  4.463539  3.281154
      ESP Fit Center  186 is at  -1.944914  3.302687  3.281154
      ESP Fit Center  187 is at  -0.840879  2.943964  3.281154
      ESP Fit Center  188 is at   0.451748  3.883113  2.441154
      ESP Fit Center  189 is at   0.077940  4.910143  2.441154
      ESP Fit Center  190 is at  -0.868576  5.456614  2.441154
      ESP Fit Center  191 is at  -1.944914  5.266827  2.441154
      ESP Fit Center  192 is at   0.077940  4.910143  1.402856
      ESP Fit Center  193 is at  -0.868576  5.456614  1.402856
      ESP Fit Center  194 is at  -1.944914  5.266827  1.402856
      ESP Fit Center  195 is at  -0.009477  4.748437  0.688446
      ESP Fit Center  196 is at  -0.955993  5.294908  0.688446
      ESP Fit Center  197 is at   0.364331  3.721407 -0.349852
      ESP Fit Center  198 is at  -0.009477  4.748437 -0.349852
      ESP Fit Center  199 is at  -0.955993  5.294908 -0.349852
      ESP Fit Center  200 is at  -2.032331  5.105121 -0.349852
      ESP Fit Center  201 is at  -0.245965  3.721407 -1.189852
      ESP Fit Center  202 is at  -0.928296  4.660556 -1.189852
      ESP Fit Center  203 is at  -2.032331  4.301833 -1.189852
      ESP Fit Center  204 is at  -2.032331  3.140981 -1.189852
      ESP Fit Center  205 is at  -1.233444  3.721407 -1.510703
      ESP Fit Center  206 is at   0.614880  2.016403  2.988868
      ESP Fit Center  207 is at   0.089880  2.925730  2.988868
      ESP Fit Center  208 is at  -0.670867  1.411017  3.722781
      ESP Fit Center  209 is at   0.316612  1.411017  3.401930
      ESP Fit Center  210 is at  -0.365719  2.350166  3.401930
      ESP Fit Center  211 is at  -1.469754  1.991443  3.401930
      ESP Fit Center  212 is at  -1.469754  0.830591  3.401930
      ESP Fit Center  213 is at  -0.365719  0.471868  3.401930
      ESP Fit Center  214 is at  -2.172284  0.864546  2.561930
      ESP Fit Center  215 is at  -1.469754  0.027303  2.561930
      ESP Fit Center  216 is at  -0.393416 -0.162484  2.561930
      ESP Fit Center  217 is at   0.553100  0.383987  2.561930
      ESP Fit Center  218 is at  -2.172284  0.864546  1.523632
      ESP Fit Center  219 is at   1.570463  2.384328  2.630642
      ESP Fit Center  220 is at   0.888132  3.323477  2.630642
      ESP Fit Center  221 is at   2.180759  2.384328  1.790642
      ESP Fit Center  222 is at   1.806951  3.411358  1.790642
      ESP Fit Center  223 is at   0.860435  3.957829  1.790642
      ESP Fit Center  224 is at   2.180759  2.384328  0.752344
      ESP Fit Center  225 is at   1.806951  3.411358  0.752344
      ESP Fit Center  226 is at   0.860435  3.957829  0.752344
      ESP Fit Center  227 is at   0.888132  3.323477 -0.087656
      ESP Fit Center  228 is at  -1.950691  0.269144  0.980000
      ESP Fit Center  229 is at  -2.274868  0.286856  0.000000
      ESP Fit Center  230 is at  -0.052930  2.881189 -0.980000
      ESP Fit Center  231 is at  -1.950691  2.264568 -0.980000
      ESP Fit Center  232 is at  -1.950691  0.269144 -0.980000
      ESP Fit Center  233 is at  -0.087458  2.115561 -1.697410
      ESP Fit Center  234 is at  -1.067458  2.115561 -1.697410
      ESP Fit Center  235 is at  -1.557458  1.266856 -1.697410
      ESP Fit Center  236 is at  -0.577458  1.266856 -1.960000
      ESP Fit Center  237 is at  -2.038978 -0.502563  0.000000
      ESP Fit Center  238 is at  -1.571873 -1.392558  0.000000
      ESP Fit Center  239 is at  -0.744670 -1.963534  0.000000
      ESP Fit Center  240 is at   0.253127 -2.084689  0.000000
      ESP Fit Center  241 is at  -1.861634 -1.036173 -0.375369
      ESP Fit Center  242 is at  -1.159104 -1.873416 -0.375369
      ESP Fit Center  243 is at  -1.861634  0.056769 -1.413667
      ESP Fit Center  244 is at  -1.861634 -1.036173 -1.413667
      ESP Fit Center  245 is at  -1.159104 -1.873416 -1.413667
      ESP Fit Center  246 is at  -0.082766 -2.063203 -1.413667
      ESP Fit Center  247 is at   0.863750 -1.516732 -1.413667
      ESP Fit Center  248 is at  -0.055069  0.449447 -2.253667
      ESP Fit Center  249 is at  -1.159104  0.090724 -2.253667
      ESP Fit Center  250 is at  -1.159104 -1.070128 -2.253667
      ESP Fit Center  251 is at  -0.055069 -1.428851 -2.253667
      ESP Fit Center  252 is at  -0.360217 -0.489702 -2.574518
      ESP Fit Center  253 is at  -0.343672 -0.573353  2.540011
      ESP Fit Center  254 is at   0.643807 -0.573353  2.219160
      ESP Fit Center  255 is at  -1.142559 -1.153779  2.219160
      ESP Fit Center  256 is at  -0.038524 -1.512502  2.219160
      ESP Fit Center  257 is at  -1.845089 -0.026882  1.379160
      ESP Fit Center  258 is at  -1.845089 -1.119824  1.379160
      ESP Fit Center  259 is at  -1.142559 -1.957067  1.379160
      ESP Fit Center  260 is at  -0.066221 -2.146854  1.379160
      ESP Fit Center  261 is at   0.880295 -1.600383  1.379160
      ESP Fit Center  262 is at  -1.845089 -1.119824  0.340862
      ESP Fit Center  263 is at  -1.142559 -1.957067  0.340862
      ESP Fit Center  264 is at  -0.066221 -2.146854  0.340862
      ESP Fit Center  265 is at   1.002819 -0.909327  1.818653
      ESP Fit Center  266 is at   2.163621 -1.966363  1.260395
      ESP Fit Center  267 is at   3.456248 -1.027214  0.420395
      ESP Fit Center  268 is at   1.059586 -2.410928  0.420395
      ESP Fit Center  269 is at   2.135924 -2.600715  0.420395
      ESP Fit Center  270 is at   3.082440 -2.054244  0.420395
      ESP Fit Center  271 is at   1.059586 -2.410928 -0.617903
      ESP Fit Center  272 is at   2.135924 -2.600715 -0.617903
      ESP Fit Center  273 is at   1.059586 -1.607640 -1.457903
      ESP Fit Center  274 is at   2.163621 -1.966363 -1.457903
      ESP Fit Center  275 is at   1.919383  0.382017  2.615570
      ESP Fit Center  276 is at   2.906862  0.382017  2.294719
      ESP Fit Center  277 is at   2.224531  1.321166  2.294719
      ESP Fit Center  278 is at   1.120496  0.962443  2.294719
      ESP Fit Center  279 is at   1.120496 -0.198409  2.294719
      ESP Fit Center  280 is at   2.224531 -0.557132  2.294719
      ESP Fit Center  281 is at   3.517158  0.382017  1.454719
      ESP Fit Center  282 is at   3.143350  1.409047  1.454719
      ESP Fit Center  283 is at   3.143350 -0.645013  1.454719
      ESP Fit Center  284 is at   2.711508  1.918685  0.832971
      ESP Fit Center  285 is at   2.975722  2.740475  0.153147
      ESP Fit Center  286 is at   1.907398  2.894077  0.153147
      ESP Fit Center  287 is at   3.669251  2.865549 -0.829227
      ESP Fit Center  288 is at   2.711508  3.326774 -0.829227
      ESP Fit Center  289 is at   1.648492  3.326774 -0.829227
      ESP Fit Center  290 is at   0.690749  2.865549 -0.829227
      ESP Fit Center  291 is at   2.711508  3.326774 -1.919579
      ESP Fit Center  292 is at   1.648492  3.326774 -1.919579
      ESP Fit Center  293 is at   0.690749  2.865549 -1.919579
      ESP Fit Center  294 is at   0.027970  2.034450 -1.919579
      ESP Fit Center  295 is at  -0.208573  0.998087 -1.919579
      ESP Fit Center  296 is at   1.648492 -1.330600 -1.919579
      ESP Fit Center  297 is at   2.975722  2.740475 -2.901953
      ESP Fit Center  298 is at   1.907398  2.894077 -2.901953
      ESP Fit Center  299 is at   0.925623  2.445716 -2.901953
      ESP Fit Center  300 is at   0.342104  1.537742 -2.901953
      ESP Fit Center  301 is at   0.342104  0.458432 -2.901953
      ESP Fit Center  302 is at   0.925623 -0.449542 -2.901953
      ESP Fit Center  303 is at   1.907398 -0.897903 -2.901953
      ESP Fit Center  304 is at   3.243015  0.998087 -3.581777
      ESP Fit Center  305 is at   2.711508  1.918685 -3.581777
      ESP Fit Center  306 is at   1.648492  1.918685 -3.581777
      ESP Fit Center  307 is at   1.116985  0.998087 -3.581777
      ESP Fit Center  308 is at   1.648492  0.077489 -3.581777
      ESP Fit Center  309 is at   2.711508  0.077489 -3.581777
      ESP Fit Center  310 is at   2.180000  0.998087 -3.824403
      ESP Fit Center  311 is at   6.047002  1.388699 -1.303761
      ESP Fit Center  312 is at   5.673194  2.415729 -1.303761
      ESP Fit Center  313 is at   4.726678  2.962200 -1.303761
      ESP Fit Center  314 is at   5.673194  2.415729 -2.342059
      ESP Fit Center  315 is at   4.726678  2.962200 -2.342059
      ESP Fit Center  316 is at   3.650340  2.772413 -2.342059
      ESP Fit Center  317 is at   4.754375  2.327848 -3.182059
      ESP Fit Center  318 is at   3.650340  1.969125 -3.182059
      ESP Fit Center  319 is at   4.449227  1.388699 -3.502910
      ESP Fit Center  320 is at   4.284034  0.648666  1.423462
      ESP Fit Center  321 is at   5.271513  0.648666  1.102611
      ESP Fit Center  322 is at   4.589182  1.587815  1.102611
      ESP Fit Center  323 is at   3.485147  1.229092  1.102611
      ESP Fit Center  324 is at   4.589182 -0.290483  1.102611
      ESP Fit Center  325 is at   5.881809  0.648666  0.262611
      ESP Fit Center  326 is at   5.508001  1.675696  0.262611
      ESP Fit Center  327 is at   4.561485  2.222167  0.262611
      ESP Fit Center  328 is at   4.561485 -0.924835  0.262611
      ESP Fit Center  329 is at   4.050739 -2.565493 -2.938527
      ESP Fit Center  330 is at   4.248780  0.747141 -3.434443
      ESP Fit Center  331 is at   2.469912 -1.372831 -3.434443
      ESP Fit Center  332 is at   3.172442 -2.210074 -3.434443
      ESP Fit Center  333 is at   4.248780 -2.399861 -3.434443
      ESP Fit Center  334 is at   4.276477  0.112789 -4.274443
      ESP Fit Center  335 is at   3.172442 -0.245934 -4.274443
      ESP Fit Center  336 is at   3.172442 -1.406786 -4.274443
      ESP Fit Center  337 is at   4.276477 -1.765509 -4.274443
      ESP Fit Center  338 is at   3.971329 -0.826360 -4.595294
      ESP Fit Center  339 is at   3.817936 -1.562532  0.333905
      ESP Fit Center  340 is at   4.123084 -2.501681  0.013054
      ESP Fit Center  341 is at   3.019049 -2.946246 -0.826946
      ESP Fit Center  342 is at   4.095387 -3.136033 -0.826946
      ESP Fit Center  343 is at   2.316519 -2.109003 -1.865244
      ESP Fit Center  344 is at   3.019049 -2.946246 -1.865244
      ESP Fit Center  345 is at   4.095387 -3.136033 -1.865244
      ESP Fit Center  346 is at   6.083892 -1.163672  0.640205
      ESP Fit Center  347 is at   7.146907 -1.163672  0.397579
      ESP Fit Center  348 is at   6.615400 -0.243074  0.397579
      ESP Fit Center  349 is at   5.552384 -0.243074  0.397579
      ESP Fit Center  350 is at   5.020877 -1.163672  0.397579
      ESP Fit Center  351 is at   5.552384 -2.084270  0.397579
      ESP Fit Center  352 is at   6.615400 -2.084270  0.397579
      ESP Fit Center  353 is at   7.999379 -1.163672 -0.282245
      ESP Fit Center  354 is at   7.695302 -0.128081 -0.282245
      ESP Fit Center  355 is at   6.879614  0.578716 -0.282245
      ESP Fit Center  356 is at   4.829515 -2.611301 -0.282245
      ESP Fit Center  357 is at   5.811290 -3.059662 -0.282245
      ESP Fit Center  358 is at   6.879614 -2.906060 -0.282245
      ESP Fit Center  359 is at   7.695302 -2.199263 -0.282245
      ESP Fit Center  360 is at   6.615400  1.165015 -1.264619
      ESP Fit Center  361 is at   5.552384 -3.492359 -1.264619
      ESP Fit Center  362 is at   6.615400 -3.492359 -1.264619
      ESP Fit Center  363 is at   7.573143 -3.031134 -1.264619
      ESP Fit Center  364 is at   4.594641 -3.031134 -2.354971
      ESP Fit Center  365 is at   5.552384 -3.492359 -2.354971
      ESP Fit Center  366 is at   6.615400 -3.492359 -2.354971
      ESP Fit Center  367 is at   4.829515 -2.611301 -3.337345
      ESP Fit Center  368 is at   5.811290 -3.059662 -3.337345
      ESP Fit Center  369 is at   6.879614 -2.906060 -3.337345
      ESP Fit Center  370 is at   4.958428  0.305390 -4.280283
      ESP Fit Center  371 is at   6.574406  1.724719 -1.844979
      ESP Fit Center  372 is at   6.546709  2.359071 -2.684979
      ESP Fit Center  373 is at   6.546709  2.359071 -3.723277
      ESP Fit Center  374 is at   5.470371  2.169284 -3.723277
      ESP Fit Center  375 is at   4.767841  1.332041 -3.723277
      ESP Fit Center  376 is at   6.574406  1.724719 -4.563277
      ESP Fit Center  377 is at   5.470371  1.365996 -4.563277
      ESP Fit Center  378 is at   4.876230 -0.133307 -4.667606
      ESP Fit Center  379 is at   4.876230 -1.226249 -4.667606
      ESP Fit Center  380 is at   5.578760 -2.063492 -4.667606
      ESP Fit Center  381 is at   7.365126 -0.679778 -5.507606
      ESP Fit Center  382 is at   6.682795  0.259371 -5.507606
      ESP Fit Center  383 is at   5.578760 -0.099352 -5.507606
      ESP Fit Center  384 is at   5.578760 -1.260204 -5.507606
      ESP Fit Center  385 is at   6.377647 -0.679778 -5.828457
      ESP Fit Center  386 is at  10.082757  0.930009 -3.210693
      ESP Fit Center  387 is at   9.736389  1.617644 -3.520777
      ESP Fit Center  388 is at   8.789873  2.164115 -3.520777
      ESP Fit Center  389 is at   7.713535  1.974328 -3.520777
      ESP Fit Center  390 is at  10.110197  0.590614 -4.559075
      ESP Fit Center  391 is at   9.736389  1.617644 -4.559075
      ESP Fit Center  392 is at   8.789873  2.164115 -4.559075
      ESP Fit Center  393 is at   7.713535  1.974328 -4.559075
      ESP Fit Center  394 is at   9.499901  0.590614 -5.399075
      ESP Fit Center  395 is at   8.817570  1.529763 -5.399075
      ESP Fit Center  396 is at   7.713535  1.171040 -5.399075
      ESP Fit Center  397 is at   7.713535  0.010188 -5.399075
      ESP Fit Center  398 is at   8.512422  0.590614 -5.719926
      ESP Fit Center  399 is at   8.525720  0.455482 -0.619686
      ESP Fit Center  400 is at   9.513199  0.455482 -0.940537
      ESP Fit Center  401 is at   8.830868  1.394631 -0.940537
      ESP Fit Center  402 is at   7.726833  1.035908 -0.940537
      ESP Fit Center  403 is at   8.830868 -0.483667 -0.940537
      ESP Fit Center  404 is at  10.123495  0.455482 -1.780537
      ESP Fit Center  405 is at   9.749687  1.482512 -1.780537
      ESP Fit Center  406 is at   8.803171  2.028983 -1.780537
      ESP Fit Center  407 is at   7.726833  1.839196 -1.780537
      ESP Fit Center  408 is at   9.749687  1.482512 -2.818835
      ESP Fit Center  409 is at   8.803171  2.028983 -2.818835
      ESP Fit Center  410 is at   9.218238 -1.563272 -0.815746
      ESP Fit Center  411 is at  10.281253 -1.563272 -1.058372
      ESP Fit Center  412 is at   9.749746 -0.642674 -1.058372
      ESP Fit Center  413 is at   8.686730 -2.483870 -1.058372
      ESP Fit Center  414 is at   9.749746 -2.483870 -1.058372
      ESP Fit Center  415 is at  11.133725 -1.563272 -1.738196
      ESP Fit Center  416 is at  10.829648 -0.527681 -1.738196
      ESP Fit Center  417 is at   7.963861 -3.010901 -1.738196
      ESP Fit Center  418 is at   8.945636 -3.459262 -1.738196
      ESP Fit Center  419 is at  10.013960 -3.305660 -1.738196
      ESP Fit Center  420 is at  10.829648 -2.598863 -1.738196
      ESP Fit Center  421 is at  11.606811 -1.563272 -2.720570
      ESP Fit Center  422 is at  11.370268 -0.526909 -2.720570
      ESP Fit Center  423 is at  10.707489  0.304190 -2.720570
      ESP Fit Center  424 is at   7.728987 -3.430734 -2.720570
      ESP Fit Center  425 is at   8.686730 -3.891959 -2.720570
      ESP Fit Center  426 is at   9.749746 -3.891959 -2.720570
      ESP Fit Center  427 is at  10.707489 -3.430734 -2.720570
      ESP Fit Center  428 is at  11.370268 -2.599635 -2.720570
      ESP Fit Center  429 is at  11.606811 -1.563272 -3.810922
      ESP Fit Center  430 is at  11.370268 -0.526909 -3.810922
      ESP Fit Center  431 is at  10.707489  0.304190 -3.810922
      ESP Fit Center  432 is at  10.829648 -0.527681 -4.793296
      ESP Fit Center  433 is at  10.013960  0.179116 -4.793296
      ESP Fit Center  434 is at   7.783961 -2.198988 -6.744128
      ESP Fit Center  435 is at   6.991977 -3.065864 -3.613983
      ESP Fit Center  436 is at   6.289447 -3.031909 -4.453983
      ESP Fit Center  437 is at   6.991977 -3.869152 -4.453983
      ESP Fit Center  438 is at   6.289447 -1.938967 -5.492281
      ESP Fit Center  439 is at   6.289447 -3.031909 -5.492281
      ESP Fit Center  440 is at   6.991977 -3.869152 -5.492281
      ESP Fit Center  441 is at   6.991977 -1.905012 -6.332281
      ESP Fit Center  442 is at   6.991977 -3.065864 -6.332281
      ESP Fit Center  443 is at  10.600445 -1.412004 -6.171312
      ESP Fit Center  444 is at  10.226637 -0.384974 -6.171312
      ESP Fit Center  445 is at   9.280121  0.161497 -6.171312
      ESP Fit Center  446 is at   8.203783 -0.028290 -6.171312
      ESP Fit Center  447 is at   7.501253 -0.865533 -6.171312
      ESP Fit Center  448 is at   9.990149 -1.412004 -7.011312
      ESP Fit Center  449 is at   9.307818 -0.472855 -7.011312
      ESP Fit Center  450 is at   8.203783 -0.831578 -7.011312
      ESP Fit Center  451 is at   8.203783 -1.992430 -7.011312
      ESP Fit Center  452 is at   9.002670 -1.412004 -7.332163
      ESP Fit Center  453 is at  11.247052 -4.387690 -4.187484
      ESP Fit Center  454 is at   8.145230 -4.797010 -5.237484
      ESP Fit Center  455 is at  10.910039 -5.132718 -5.237484
      ESP Fit Center  456 is at  11.247052 -4.387690 -6.287484
      ESP Fit Center  457 is at  10.242103 -2.495125 -7.056137
      ESP Fit Center  458 is at   8.681916 -5.174803 -5.704354
      ESP Fit Center  459 is at   7.979386 -3.244618 -6.742652
      ESP Fit Center  460 is at   7.979386 -4.337560 -6.742652
      ESP Fit Center  461 is at   8.681916 -5.174803 -6.742652
      ESP Fit Center  462 is at   9.758254 -5.364590 -6.742652
      ESP Fit Center  463 is at  10.704770 -4.818119 -6.742652
      ESP Fit Center  464 is at  10.468282 -3.791089 -7.582652
      ESP Fit Center  465 is at   9.785951 -2.851940 -7.582652
      ESP Fit Center  466 is at   8.681916 -3.210663 -7.582652
      ESP Fit Center  467 is at   8.681916 -4.371515 -7.582652
      ESP Fit Center  468 is at   9.785951 -4.730238 -7.582652
      ESP Fit Center  469 is at   9.480803 -3.791089 -7.903503
      ESP Fit Center  470 is at  11.754673 -3.135388 -3.862333
      ESP Fit Center  471 is at  12.364969 -3.135388 -4.702333
      ESP Fit Center  472 is at  11.991161 -2.108358 -4.702333
      ESP Fit Center  473 is at  11.991161 -4.162418 -4.702333
      ESP Fit Center  474 is at  12.364969 -3.135388 -5.740631
      ESP Fit Center  475 is at  11.991161 -2.108358 -5.740631
      ESP Fit Center  476 is at  11.044645 -1.561887 -5.740631
      ESP Fit Center  477 is at  11.991161 -4.162418 -5.740631
      ESP Fit Center  478 is at  11.754673 -3.135388 -6.580631
      ESP Fit Center  479 is at  11.072342 -2.196239 -6.580631
      ESP Fit Center  480 is at   9.559645 -4.200530 -2.838180
      ESP Fit Center  481 is at  10.547124 -4.200530 -3.159031
      ESP Fit Center  482 is at   8.760758 -4.780956 -3.159031
      ESP Fit Center  483 is at   9.864793 -5.139679 -3.159031
      ESP Fit Center  484 is at   8.058228 -4.747001 -3.999031
      ESP Fit Center  485 is at   8.760758 -5.584244 -3.999031
      ESP Fit Center  486 is at   9.837096 -5.774031 -3.999031
      ESP Fit Center  487 is at  10.783612 -5.227560 -3.999031
      ESP Fit Center  488 is at   8.058228 -4.747001 -5.037329
      ESP Fit Center  489 is at   8.760758 -5.584244 -5.037329
      ESP Fit Center  490 is at   9.837096 -5.774031 -5.037329
      ESP Fit Center  491 is at  10.783612 -5.227560 -5.037329
      ESP Fit Center  492 is at  -6.675674 -0.879869 -0.092835
      ESP Fit Center  493 is at  -5.713935 -1.319081 -0.092835
      ESP Fit Center  494 is at  -6.905754  2.367566 -2.123261
      ESP Fit Center  495 is at  -6.905754 -1.291134 -2.123261
      ESP Fit Center  496 is at  -6.675674 -0.879869 -3.085587
      ESP Fit Center  497 is at  -5.967556 -0.363594 -3.751536
      ESP Fit Center  498 is at  -4.926236 -0.363594 -3.751536
      ESP Fit Center  499 is at  -4.588229 -1.294664 -0.108486
      ESP Fit Center  500 is at  -5.582053 -2.044667 -0.811255
      ESP Fit Center  501 is at  -4.554405 -2.044667 -0.811255
      ESP Fit Center  502 is at  -3.723021 -1.440631 -0.811255
      ESP Fit Center  503 is at  -3.148229 -0.463280 -1.771255
      ESP Fit Center  504 is at  -6.028229 -2.126049 -1.771255
      ESP Fit Center  505 is at  -5.068229 -2.383280 -1.771255
      ESP Fit Center  506 is at  -4.108229 -2.126049 -1.771255
      ESP Fit Center  507 is at  -3.405460 -1.423280 -1.771255
      ESP Fit Center  508 is at  -3.405460 -0.463280 -2.731255
      ESP Fit Center  509 is at  -6.413437 -1.440631 -2.731255
      ESP Fit Center  510 is at  -5.582053 -2.044667 -2.731255
      ESP Fit Center  511 is at  -4.554405 -2.044667 -2.731255
      ESP Fit Center  512 is at  -3.723021 -1.440631 -2.731255
      ESP Fit Center  513 is at  -4.108229 -0.463280 -3.434024
      ESP Fit Center  514 is at  -5.548229 -1.294664 -3.434024
      ESP Fit Center  515 is at  -4.588229 -1.294664 -3.434024
      ESP Fit Center  516 is at  -7.484947  0.486716  0.179575
      ESP Fit Center  517 is at  -7.004947 -0.344668  0.179575
      ESP Fit Center  518 is at  -7.870155  1.464067 -0.523194
      ESP Fit Center  519 is at  -8.187716  0.486716 -0.523194
      ESP Fit Center  520 is at  -7.870155 -0.490635 -0.523194
      ESP Fit Center  521 is at  -7.038771 -1.094671 -0.523194
      ESP Fit Center  522 is at  -7.484947  2.149485 -1.483194
      ESP Fit Center  523 is at  -8.187716  1.446716 -1.483194
      ESP Fit Center  524 is at  -8.444947  0.486716 -1.483194
      ESP Fit Center  525 is at  -8.187716 -0.473284 -1.483194
      ESP Fit Center  526 is at  -7.484947 -1.176053 -1.483194
      ESP Fit Center  527 is at  -7.870155  1.464067 -2.443194
      ESP Fit Center  528 is at  -8.187716  0.486716 -2.443194
      ESP Fit Center  529 is at  -7.870155 -0.490635 -2.443194
      ESP Fit Center  530 is at  -7.038771 -1.094671 -2.443194
      ESP Fit Center  531 is at  -7.484947  0.486716 -3.145963
      ESP Fit Center  532 is at  -3.556844  2.112367 -2.453615
      ESP Fit Center  533 is at  -4.259613  2.815136 -2.453615
      ESP Fit Center  534 is at  -5.219613  3.072367 -2.453615
      ESP Fit Center  535 is at  -6.179613  2.815136 -2.453615
      ESP Fit Center  536 is at  -3.556844  1.152367 -3.413615
      ESP Fit Center  537 is at  -3.874405  2.129718 -3.413615
      ESP Fit Center  538 is at  -4.705789  2.733754 -3.413615
      ESP Fit Center  539 is at  -5.733437  2.733754 -3.413615
      ESP Fit Center  540 is at  -6.564821  2.129718 -3.413615
      ESP Fit Center  541 is at  -6.882382  1.152367 -3.413615
      ESP Fit Center  542 is at  -3.874405  0.175016 -3.413615
      ESP Fit Center  543 is at  -4.259613  1.152367 -4.116384
      ESP Fit Center  544 is at  -4.739613  1.983751 -4.116384
      ESP Fit Center  545 is at  -5.699613  1.983751 -4.116384
      ESP Fit Center  546 is at  -6.179613  1.152367 -4.116384
      ESP Fit Center  547 is at  -5.699613  0.320983 -4.116384
      ESP Fit Center  548 is at  -4.739613  0.320983 -4.116384
      ESP Fit Center  549 is at  -5.219613  1.152367 -4.373615
      ESP Fit Center  550 is at  -3.236090  0.110409  1.154304
      ESP Fit Center  551 is at  -3.355756 -0.704485  0.191978
      ESP Fit Center  552 is at  -3.355756 -0.704485 -0.876122
      ESP Fit Center  553 is at  -5.046339  0.508464  2.445644
      ESP Fit Center  554 is at  -4.086339  0.508464  2.188413
      ESP Fit Center  555 is at  -6.006339  0.508464  2.188413
      ESP Fit Center  556 is at  -5.526339 -0.322920  2.188413
      ESP Fit Center  557 is at  -4.566339 -0.322920  2.188413
      ESP Fit Center  558 is at  -3.383570  0.508464  1.485644
      ESP Fit Center  559 is at  -6.709108  0.508464  1.485644
      ESP Fit Center  560 is at  -6.391547 -0.468887  1.485644
      ESP Fit Center  561 is at  -5.560163 -1.072923  1.485644
      ESP Fit Center  562 is at  -4.532515 -1.072923  1.485644
      ESP Fit Center  563 is at  -3.701131 -0.468887  1.485644
      ESP Fit Center  564 is at  -6.966339  0.508464  0.525644
      ESP Fit Center  565 is at  -6.709108 -0.451536  0.525644
      ESP Fit Center  566 is at  -6.006339 -1.154305  0.525644
      ESP Fit Center  567 is at  -5.046339 -1.411536  0.525644
      ESP Fit Center  568 is at  -4.086339 -1.154305  0.525644
      ESP Fit Center  569 is at  -2.777093 -0.499049 -0.436516
      ESP Fit Center  570 is at  -2.391885  2.141071 -1.396516
      ESP Fit Center  571 is at  -3.223269  2.745107 -1.396516
      ESP Fit Center  572 is at  -2.391885  0.186369 -1.396516
      ESP Fit Center  573 is at  -2.777093  1.163720 -2.099285
      ESP Fit Center  574 is at  -3.257093  1.995104 -2.099285
      ESP Fit Center  575 is at  -6.760755  1.384957  1.238093
      ESP Fit Center  576 is at  -7.464301  2.936974  0.339923
      ESP Fit Center  577 is at  -7.464301  1.891720  0.339923
      ESP Fit Center  578 is at  -6.118321  4.456271 -0.656971
      ESP Fit Center  579 is at  -6.978548  3.862500 -0.656971
      ESP Fit Center  580 is at  -7.464301  2.936974 -0.656971
      ESP Fit Center  581 is at  -4.802739  4.079935 -1.555141
      ESP Fit Center  582 is at  -5.885103  4.079935 -1.555141
      ESP Fit Center  583 is at  -6.760755  3.443737 -1.555141
      ESP Fit Center  584 is at  -7.095224  2.414347 -1.555141
      ESP Fit Center  585 is at  -4.857971  3.256037 -2.176694
      ESP Fit Center  586 is at  -5.829871  3.256037 -2.176694
      ESP Fit Center  587 is at  -5.563961  3.961664  3.201530
      ESP Fit Center  588 is at  -7.151412  2.044641  1.573255
      ESP Fit Center  589 is at  -5.310340  4.917151 -0.457171
      ESP Fit Center  590 is at  -5.128158  2.377412  3.802511
      ESP Fit Center  591 is at  -4.168158  2.377412  3.545280
      ESP Fit Center  592 is at  -4.648158  3.208796  3.545280
      ESP Fit Center  593 is at  -5.608158  3.208796  3.545280
      ESP Fit Center  594 is at  -6.088158  2.377412  3.545280
      ESP Fit Center  595 is at  -5.608158  1.546028  3.545280
      ESP Fit Center  596 is at  -4.648158  1.546028  3.545280
      ESP Fit Center  597 is at  -6.790927  2.377412  2.842511
      ESP Fit Center  598 is at  -6.473366  1.400061  2.842511
      ESP Fit Center  599 is at  -5.641982  0.796025  2.842511
      ESP Fit Center  600 is at  -4.614334  0.796025  2.842511
      ESP Fit Center  601 is at  -3.782950  1.400061  2.842511
      ESP Fit Center  602 is at  -6.790927  1.417412  1.882511
      ESP Fit Center  603 is at  -5.311145  4.667332  2.821699
      ESP Fit Center  604 is at  -6.271145  4.667332  2.821699
      ESP Fit Center  605 is at  -6.751145  3.835948  2.821699
      ESP Fit Center  606 is at  -5.277321  5.417335  2.118930
      ESP Fit Center  607 is at  -6.304969  5.417335  2.118930
      ESP Fit Center  608 is at  -7.136353  4.813299  2.118930
      ESP Fit Center  609 is at  -7.453914  3.835948  2.118930
      ESP Fit Center  610 is at  -5.791145  5.755948  1.158930
      ESP Fit Center  611 is at  -6.751145  5.498717  1.158930
      ESP Fit Center  612 is at  -7.453914  4.795948  1.158930
      ESP Fit Center  613 is at  -7.711145  3.835948  1.158930
      ESP Fit Center  614 is at  -7.453914  2.875948  1.158930
      ESP Fit Center  615 is at  -5.277321  5.417335  0.198930
      ESP Fit Center  616 is at  -6.304969  5.417335  0.198930
      ESP Fit Center  617 is at  -7.136353  4.813299  0.198930
      ESP Fit Center  618 is at  -7.453914  3.835948  0.198930
      ESP Fit Center  619 is at  -6.271145  4.667332 -0.503839
      ESP Fit Center  620 is at  -5.132292  5.540841  0.526637
      ESP Fit Center  621 is at  -2.563211  5.920649  0.132291
      ESP Fit Center  622 is at  -3.523211  6.177880  0.132291
      ESP Fit Center  623 is at  -4.483211  5.920649  0.132291
      ESP Fit Center  624 is at  -2.178003  5.235231 -0.827709
      ESP Fit Center  625 is at  -3.009387  5.839267 -0.827709
      ESP Fit Center  626 is at  -4.037035  5.839267 -0.827709
      ESP Fit Center  627 is at  -4.868419  5.235231 -0.827709
      ESP Fit Center  628 is at  -2.563211  4.257880 -1.530478
      ESP Fit Center  629 is at  -3.043211  5.089264 -1.530478
      ESP Fit Center  630 is at  -4.003211  5.089264 -1.530478
      ESP Fit Center  631 is at  -4.483211  4.257880 -1.530478
      ESP Fit Center  632 is at  -3.043211  3.426496 -1.530478
      ESP Fit Center  633 is at  -3.523211  4.257880 -1.787709
      ESP Fit Center  634 is at  -3.628047  4.426331  3.803693
      ESP Fit Center  635 is at  -2.668047  4.426331  3.546462
      ESP Fit Center  636 is at  -3.148047  5.257715  3.546462
      ESP Fit Center  637 is at  -4.108047  5.257715  3.546462
      ESP Fit Center  638 is at  -4.588047  4.426331  3.546462
      ESP Fit Center  639 is at  -4.108047  3.594947  3.546462
      ESP Fit Center  640 is at  -3.148047  3.594947  3.546462
      ESP Fit Center  641 is at  -2.282839  5.403682  2.843693
      ESP Fit Center  642 is at  -3.114223  6.007718  2.843693
      ESP Fit Center  643 is at  -4.141871  6.007718  2.843693
      ESP Fit Center  644 is at  -4.973255  5.403682  2.843693
      ESP Fit Center  645 is at  -2.668047  6.089100  1.883693
      ESP Fit Center  646 is at  -3.628047  6.346331  1.883693
      ESP Fit Center  647 is at  -4.588047  6.089100  1.883693
      ESP Fit Center  648 is at  -2.688413  2.734478  3.461381
      ESP Fit Center  649 is at  -3.174363  1.892788  3.239551
      ESP Fit Center  650 is at  -2.202463  1.892788  3.239551
      ESP Fit Center  651 is at  -3.229595  1.068890  2.617998
      ESP Fit Center  652 is at  -3.462813  0.692554  1.719828
      ESP Fit Center  653 is at  -2.425180  0.566562  1.719828
      ESP Fit Center  654 is at  -2.688413  2.734478 -1.018619
      ESP Fit Center  655 is at  -1.899212  2.292815  3.271431
      ESP Fit Center  656 is at   0.729559  4.209838  0.575056
      ESP Fit Center  657 is at  -1.146027  3.883113  3.842005
      ESP Fit Center  658 is at  -0.186027  3.883113  3.584774
      ESP Fit Center  659 is at  -0.666027  4.714497  3.584774
      ESP Fit Center  660 is at  -1.626027  4.714497  3.584774
      ESP Fit Center  661 is at  -2.106027  3.883113  3.584774
      ESP Fit Center  662 is at  -1.626027  3.051729  3.584774
      ESP Fit Center  663 is at  -0.666027  3.051729  3.584774
      ESP Fit Center  664 is at   0.516742  3.883113  2.882005
      ESP Fit Center  665 is at   0.199181  4.860464  2.882005
      ESP Fit Center  666 is at  -0.632203  5.464500  2.882005
      ESP Fit Center  667 is at  -1.659851  5.464500  2.882005
      ESP Fit Center  668 is at   0.516742  4.843113  1.922005
      ESP Fit Center  669 is at  -0.186027  5.545882  1.922005
      ESP Fit Center  670 is at  -1.146027  5.803113  1.922005
      ESP Fit Center  671 is at   0.429325  4.681407  0.169297
      ESP Fit Center  672 is at  -0.273444  5.384176  0.169297
      ESP Fit Center  673 is at  -1.233444  5.641407  0.169297
      ESP Fit Center  674 is at   0.429325  3.721407 -0.790703
      ESP Fit Center  675 is at   0.111764  4.698758 -0.790703
      ESP Fit Center  676 is at  -0.719620  5.302794 -0.790703
      ESP Fit Center  677 is at  -1.747268  5.302794 -0.790703
      ESP Fit Center  678 is at  -0.273444  3.721407 -1.493472
      ESP Fit Center  679 is at  -0.753444  4.552791 -1.493472
      ESP Fit Center  680 is at  -1.713444  4.552791 -1.493472
      ESP Fit Center  681 is at  -2.193444  3.721407 -1.493472
      ESP Fit Center  682 is at  -1.713444  2.890023 -1.493472
      ESP Fit Center  683 is at  -1.233444  3.721407 -1.750703
      ESP Fit Center  684 is at   0.085540  2.918213  3.332540
      ESP Fit Center  685 is at   1.143404  1.001947  2.666591
      ESP Fit Center  686 is at  -0.670867  1.411017  3.962781
      ESP Fit Center  687 is at   0.289133  1.411017  3.705550
      ESP Fit Center  688 is at  -0.190867  2.242401  3.705550
      ESP Fit Center  689 is at  -1.150867  2.242401  3.705550
      ESP Fit Center  690 is at  -1.630867  1.411017  3.705550
      ESP Fit Center  691 is at  -1.150867  0.579633  3.705550
      ESP Fit Center  692 is at  -0.190867  0.579633  3.705550
      ESP Fit Center  693 is at   0.991902  1.411017  3.002781
      ESP Fit Center  694 is at  -2.333636  1.411017  3.002781
      ESP Fit Center  695 is at  -2.016075  0.433666  3.002781
      ESP Fit Center  696 is at  -1.184691 -0.170370  3.002781
      ESP Fit Center  697 is at  -0.157043 -0.170370  3.002781
      ESP Fit Center  698 is at   0.674341  0.433666  3.002781
      ESP Fit Center  699 is at  -2.333636  0.451017  2.042781
      ESP Fit Center  700 is at   1.542984  2.384328  2.934262
      ESP Fit Center  701 is at   1.062984  3.215712  2.934262
      ESP Fit Center  702 is at   2.245753  2.384328  2.231493
      ESP Fit Center  703 is at   1.928192  3.361679  2.231493
      ESP Fit Center  704 is at   1.096808  3.965715  2.231493
      ESP Fit Center  705 is at   2.502984  2.384328  1.271493
      ESP Fit Center  706 is at   2.245753  3.344328  1.271493
      ESP Fit Center  707 is at   1.542984  4.047097  1.271493
      ESP Fit Center  708 is at   1.928192  3.361679  0.311493
      ESP Fit Center  709 is at   1.096808  3.965715  0.311493
      ESP Fit Center  710 is at  -0.036276  2.932444 -1.396617
      ESP Fit Center  711 is at  -1.994292  2.296246 -1.396617
      ESP Fit Center  712 is at  -1.063408  2.108546 -2.018170
      ESP Fit Center  713 is at  -1.549358  1.266856 -2.018170
      ESP Fit Center  714 is at  -0.577458  1.266856 -2.240000
      ESP Fit Center  715 is at   0.520660 -2.281163  0.534050
      ESP Fit Center  716 is at  -2.280217 -0.489702 -0.894518
      ESP Fit Center  717 is at  -2.022986 -1.449702 -0.894518
      ESP Fit Center  718 is at  -1.320217 -2.152471 -0.894518
      ESP Fit Center  719 is at  -0.360217 -2.409702 -0.894518
      ESP Fit Center  720 is at  -1.705425  0.487649 -1.854518
      ESP Fit Center  721 is at  -2.022986 -0.489702 -1.854518
      ESP Fit Center  722 is at  -1.705425 -1.467053 -1.854518
      ESP Fit Center  723 is at  -0.874041 -2.071089 -1.854518
      ESP Fit Center  724 is at   0.153607 -2.071089 -1.854518
      ESP Fit Center  725 is at  -0.840217  0.341682 -2.557287
      ESP Fit Center  726 is at  -1.320217 -0.489702 -2.557287
      ESP Fit Center  727 is at  -0.840217 -1.321086 -2.557287
      ESP Fit Center  728 is at   0.119783 -1.321086 -2.557287
      ESP Fit Center  729 is at  -0.360217 -0.489702 -2.814518
      ESP Fit Center  730 is at  -0.343672 -0.573353  2.780011
      ESP Fit Center  731 is at   0.616328 -0.573353  2.522780
      ESP Fit Center  732 is at  -1.303672 -0.573353  2.522780
      ESP Fit Center  733 is at  -0.823672 -1.404737  2.522780
      ESP Fit Center  734 is at   0.136328 -1.404737  2.522780
      ESP Fit Center  735 is at  -2.006441 -0.573353  1.820011
      ESP Fit Center  736 is at  -1.688880 -1.550704  1.820011
      ESP Fit Center  737 is at  -0.857496 -2.154740  1.820011
      ESP Fit Center  738 is at   0.170152 -2.154740  1.820011
      ESP Fit Center  739 is at   1.001536 -1.550704  1.820011
      ESP Fit Center  740 is at  -2.263672 -0.573353  0.860011
      ESP Fit Center  741 is at  -2.006441 -1.533353  0.860011
      ESP Fit Center  742 is at  -1.303672 -2.236122  0.860011
      ESP Fit Center  743 is at  -0.343672 -2.493353  0.860011
      ESP Fit Center  744 is at   0.616328 -2.236122  0.860011
      ESP Fit Center  745 is at   1.378473 -1.858598  1.564015
      ESP Fit Center  746 is at   2.338473 -1.858598  1.564015
      ESP Fit Center  747 is at   3.521242 -1.027214  0.861246
      ESP Fit Center  748 is at   1.344649 -2.608601  0.861246
      ESP Fit Center  749 is at   2.372297 -2.608601  0.861246
      ESP Fit Center  750 is at   3.203681 -2.004565  0.861246
      ESP Fit Center  751 is at   0.898473 -2.689983 -0.098754
      ESP Fit Center  752 is at   1.858473 -2.947214 -0.098754
      ESP Fit Center  753 is at   2.818473 -2.689983 -0.098754
      ESP Fit Center  754 is at   1.344649 -2.608601 -1.058754
      ESP Fit Center  755 is at   1.378473 -1.858598 -1.761523
      ESP Fit Center  756 is at   1.919383  0.382017  2.855570
      ESP Fit Center  757 is at   2.879383  0.382017  2.598339
      ESP Fit Center  758 is at   2.399383  1.213401  2.598339
      ESP Fit Center  759 is at   1.439383  1.213401  2.598339
      ESP Fit Center  760 is at   0.959383  0.382017  2.598339
      ESP Fit Center  761 is at   1.439383 -0.449367  2.598339
      ESP Fit Center  762 is at   2.399383 -0.449367  2.598339
      ESP Fit Center  763 is at   3.582152  0.382017  1.895570
      ESP Fit Center  764 is at   3.264591  1.359368  1.895570
      ESP Fit Center  765 is at   2.433207  1.963404  1.895570
      ESP Fit Center  766 is at   2.433207 -1.199370  1.895570
      ESP Fit Center  767 is at   3.264591 -0.595334  1.895570
      ESP Fit Center  768 is at   3.169949  2.712730  0.605496
      ESP Fit Center  769 is at   3.910949  2.920501 -0.302889
      ESP Fit Center  770 is at   2.979385  3.458340 -0.302889
      ESP Fit Center  771 is at   1.909599  3.570779 -0.302889
      ESP Fit Center  772 is at   3.428067  3.504544 -1.374403
      ESP Fit Center  773 is at   2.438351  3.786143 -1.374403
      ESP Fit Center  774 is at   1.413744  3.691199 -1.374403
      ESP Fit Center  775 is at   0.492623  3.232535 -1.374403
      ESP Fit Center  776 is at   2.979385  3.458340 -2.445917
      ESP Fit Center  777 is at   1.909599  3.570779 -2.445917
      ESP Fit Center  778 is at   0.886569  3.238376 -2.445917
      ESP Fit Center  779 is at   0.087184  2.518607 -2.445917
      ESP Fit Center  780 is at  -0.350334  1.535926 -2.445917
      ESP Fit Center  781 is at   0.886569 -1.242202 -2.445917
      ESP Fit Center  782 is at   1.909599 -1.574605 -2.445917
      ESP Fit Center  783 is at   3.169949  2.712730 -3.354302
      ESP Fit Center  784 is at   2.180000  2.977986 -3.354302
      ESP Fit Center  785 is at   1.190051  2.712730 -3.354302
      ESP Fit Center  786 is at   0.465357  1.988036 -3.354302
      ESP Fit Center  787 is at   0.200101  0.998087 -3.354302
      ESP Fit Center  788 is at   0.465357  0.008138 -3.354302
      ESP Fit Center  789 is at   1.190051 -0.716556 -3.354302
      ESP Fit Center  790 is at   3.251514  0.998087 -3.961266
      ESP Fit Center  791 is at   2.715757  1.926045 -3.961266
      ESP Fit Center  792 is at   1.644243  1.926045 -3.961266
      ESP Fit Center  793 is at   1.108486  0.998087 -3.961266
      ESP Fit Center  794 is at   1.644243  0.070129 -3.961266
      ESP Fit Center  795 is at   2.180000  0.998087 -4.174403
      ESP Fit Center  796 is at   6.059408  1.607111 -0.751364
      ESP Fit Center  797 is at   5.794435  2.366050 -0.862910
      ESP Fit Center  798 is at   4.963051  2.970086 -0.862910
      ESP Fit Center  799 is at   6.111996  2.348699 -1.822910
      ESP Fit Center  800 is at   5.409227  3.051468 -1.822910
      ESP Fit Center  801 is at   4.449227  3.308699 -1.822910
      ESP Fit Center  802 is at   4.963051  2.970086 -2.782910
      ESP Fit Center  803 is at   3.935403  2.970086 -2.782910
      ESP Fit Center  804 is at   4.929227  2.220083 -3.485679
      ESP Fit Center  805 is at   3.969227  2.220083 -3.485679
      ESP Fit Center  806 is at   4.449227  1.388699 -3.742910
      ESP Fit Center  807 is at   4.284034  0.648666  1.663462
      ESP Fit Center  808 is at   5.244034  0.648666  1.406231
      ESP Fit Center  809 is at   4.764034  1.480050  1.406231
      ESP Fit Center  810 is at   3.804034  1.480050  1.406231
      ESP Fit Center  811 is at   3.804034 -0.182718  1.406231
      ESP Fit Center  812 is at   4.764034 -0.182718  1.406231
      ESP Fit Center  813 is at   5.946803  0.648666  0.703462
      ESP Fit Center  814 is at   5.629242  1.626017  0.703462
      ESP Fit Center  815 is at   4.797858  2.230053  0.703462
      ESP Fit Center  816 is at   3.770210  2.230053  0.703462
      ESP Fit Center  817 is at   3.770210 -0.932721  0.703462
      ESP Fit Center  818 is at   4.797858 -0.932721  0.703462
      ESP Fit Center  819 is at   5.946803  1.608666 -0.256538
      ESP Fit Center  820 is at   2.201449 -1.780564 -2.422577
      ESP Fit Center  821 is at   2.308560 -1.786360 -2.915294
      ESP Fit Center  822 is at   3.457505  0.755027 -3.875294
      ESP Fit Center  823 is at   2.308560 -0.826360 -3.875294
      ESP Fit Center  824 is at   2.626121 -1.803711 -3.875294
      ESP Fit Center  825 is at   3.457505 -2.407747 -3.875294
      ESP Fit Center  826 is at   4.485153 -2.407747 -3.875294
      ESP Fit Center  827 is at   4.451329  0.005024 -4.578063
      ESP Fit Center  828 is at   3.491329  0.005024 -4.578063
      ESP Fit Center  829 is at   3.011329 -0.826360 -4.578063
      ESP Fit Center  830 is at   3.491329 -1.657744 -4.578063
      ESP Fit Center  831 is at   4.451329 -1.657744 -4.578063
      ESP Fit Center  832 is at   3.971329 -0.826360 -4.835294
      ESP Fit Center  833 is at   3.817936 -1.562532  0.573905
      ESP Fit Center  834 is at   3.337936 -2.393916  0.316674
      ESP Fit Center  835 is at   4.297936 -2.393916  0.316674
      ESP Fit Center  836 is at   3.304112 -3.143919 -0.386095
      ESP Fit Center  837 is at   4.331760 -3.143919 -0.386095
      ESP Fit Center  838 is at   2.155167 -2.522532 -1.346095
      ESP Fit Center  839 is at   2.857936 -3.225301 -1.346095
      ESP Fit Center  840 is at   3.817936 -3.482532 -1.346095
      ESP Fit Center  841 is at   2.472728 -2.539883 -2.306095
      ESP Fit Center  842 is at   3.304112 -3.143919 -2.306095
      ESP Fit Center  843 is at   6.083892 -1.163672  0.990205
      ESP Fit Center  844 is at   7.155406 -1.163672  0.777068
      ESP Fit Center  845 is at   6.619649 -0.235714  0.777068
      ESP Fit Center  846 is at   5.012378 -1.163672  0.777068
      ESP Fit Center  847 is at   5.548135 -2.091630  0.777068
      ESP Fit Center  848 is at   6.619649 -2.091630  0.777068
      ESP Fit Center  849 is at   8.063791 -1.163672  0.170104
      ESP Fit Center  850 is at   7.798535 -0.173723  0.170104
      ESP Fit Center  851 is at   7.073841  0.550971  0.170104
      ESP Fit Center  852 is at   5.093943 -2.878315  0.170104
      ESP Fit Center  853 is at   6.083892 -3.143571  0.170104
      ESP Fit Center  854 is at   7.073841 -2.878315  0.170104
      ESP Fit Center  855 is at   7.798535 -2.153621  0.170104
      ESP Fit Center  856 is at   6.883277  1.296581 -0.738281
      ESP Fit Center  857 is at   4.790461 -3.403961 -0.738281
      ESP Fit Center  858 is at   5.813491 -3.736364 -0.738281
      ESP Fit Center  859 is at   6.883277 -3.623925 -0.738281
      ESP Fit Center  860 is at   7.814841 -3.086086 -0.738281
      ESP Fit Center  861 is at   4.396515 -3.398120 -1.809795
      ESP Fit Center  862 is at   5.317636 -3.856784 -1.809795
      ESP Fit Center  863 is at   6.342243 -3.951728 -1.809795
      ESP Fit Center  864 is at   7.331959 -3.670129 -1.809795
      ESP Fit Center  865 is at   4.790461 -3.403961 -2.881309
      ESP Fit Center  866 is at   5.813491 -3.736364 -2.881309
      ESP Fit Center  867 is at   6.883277 -3.623925 -2.881309
      ESP Fit Center  868 is at   5.093943 -2.878315 -3.789694
      ESP Fit Center  869 is at   6.083892 -3.143571 -3.789694
      ESP Fit Center  870 is at   6.749258  1.616954 -1.541359
      ESP Fit Center  871 is at   6.783082  2.366957 -2.244128
      ESP Fit Center  872 is at   7.229258  2.448339 -3.204128
      ESP Fit Center  873 is at   6.269258  2.705570 -3.204128
      ESP Fit Center  874 is at   5.309258  2.448339 -3.204128
      ESP Fit Center  875 is at   6.783082  2.366957 -4.164128
      ESP Fit Center  876 is at   5.755434  2.366957 -4.164128
      ESP Fit Center  877 is at   4.924050  1.762921 -4.164128
      ESP Fit Center  878 is at   4.606489  0.785570 -4.164128
      ESP Fit Center  879 is at   6.749258  1.616954 -4.866897
      ESP Fit Center  880 is at   5.789258  1.616954 -4.866897
      ESP Fit Center  881 is at   5.032439  0.297573 -5.108457
      ESP Fit Center  882 is at   4.714878 -0.679778 -5.108457
      ESP Fit Center  883 is at   5.032439 -1.657129 -5.108457
      ESP Fit Center  884 is at   5.863823 -2.261165 -5.108457
      ESP Fit Center  885 is at   6.857647  0.151606 -5.811226
      ESP Fit Center  886 is at   5.897647  0.151606 -5.811226
      ESP Fit Center  887 is at   5.417647 -0.679778 -5.811226
      ESP Fit Center  888 is at   5.897647 -1.511162 -5.811226
      ESP Fit Center  889 is at   6.377647 -0.679778 -6.068457
      ESP Fit Center  890 is at   7.702639  2.235253 -2.676643
      ESP Fit Center  891 is at  10.175191  1.550614 -4.039926
      ESP Fit Center  892 is at   9.472422  2.253383 -4.039926
      ESP Fit Center  893 is at   8.512422  2.510614 -4.039926
      ESP Fit Center  894 is at   7.552422  2.253383 -4.039926
      ESP Fit Center  895 is at  10.175191  0.590614 -4.999926
      ESP Fit Center  896 is at   9.857630  1.567965 -4.999926
      ESP Fit Center  897 is at   9.026246  2.172001 -4.999926
      ESP Fit Center  898 is at   7.998598  2.172001 -4.999926
      ESP Fit Center  899 is at   7.167214  1.567965 -4.999926
      ESP Fit Center  900 is at   9.472422  0.590614 -5.702695
      ESP Fit Center  901 is at   8.992422  1.421998 -5.702695
      ESP Fit Center  902 is at   8.032422  1.421998 -5.702695
      ESP Fit Center  903 is at   7.552422  0.590614 -5.702695
      ESP Fit Center  904 is at   8.512422  0.590614 -5.959926
      ESP Fit Center  905 is at   8.525720  0.455482 -0.379686
      ESP Fit Center  906 is at   9.485720  0.455482 -0.636917
      ESP Fit Center  907 is at   9.005720  1.286866 -0.636917
      ESP Fit Center  908 is at   8.045720  1.286866 -0.636917
      ESP Fit Center  909 is at   9.005720 -0.375902 -0.636917
      ESP Fit Center  910 is at  10.188489  0.455482 -1.339686
      ESP Fit Center  911 is at   9.870928  1.432833 -1.339686
      ESP Fit Center  912 is at   9.039544  2.036869 -1.339686
      ESP Fit Center  913 is at   8.011896  2.036869 -1.339686
      ESP Fit Center  914 is at   7.180512  1.432833 -1.339686
      ESP Fit Center  915 is at  10.188489  1.415482 -2.299686
      ESP Fit Center  916 is at   9.485720  2.118251 -2.299686
      ESP Fit Center  917 is at   8.525720  2.375482 -2.299686
      ESP Fit Center  918 is at   7.565720  2.118251 -2.299686
      ESP Fit Center  919 is at   9.218238 -1.563272 -0.465746
      ESP Fit Center  920 is at  10.289752 -1.563272 -0.678883
      ESP Fit Center  921 is at   9.753995 -0.635314 -0.678883
      ESP Fit Center  922 is at   8.682481 -0.635314 -0.678883
      ESP Fit Center  923 is at   8.682481 -2.491230 -0.678883
      ESP Fit Center  924 is at   9.753995 -2.491230 -0.678883
      ESP Fit Center  925 is at  11.198137 -1.563272 -1.285847
      ESP Fit Center  926 is at  10.932881 -0.573323 -1.285847
      ESP Fit Center  927 is at  10.208187  0.151371 -1.285847
      ESP Fit Center  928 is at   8.228289 -3.277915 -1.285847
      ESP Fit Center  929 is at   9.218238 -3.543171 -1.285847
      ESP Fit Center  930 is at  10.208187 -3.277915 -1.285847
      ESP Fit Center  931 is at  10.932881 -2.553221 -1.285847
      ESP Fit Center  932 is at  11.805101 -1.563272 -2.194232
      ESP Fit Center  933 is at  11.581455 -0.511100 -2.194232
      ESP Fit Center  934 is at  10.949187  0.359142 -2.194232
      ESP Fit Center  935 is at   7.924807 -3.803561 -2.194232
      ESP Fit Center  936 is at   8.947837 -4.135964 -2.194232
      ESP Fit Center  937 is at  10.017623 -4.023525 -2.194232
      ESP Fit Center  938 is at  10.949187 -3.485686 -2.194232
      ESP Fit Center  939 is at  11.581455 -2.615444 -2.194232
      ESP Fit Center  940 is at  12.018238 -1.563272 -3.265746
      ESP Fit Center  941 is at  11.829160 -0.551795 -3.265746
      ESP Fit Center  942 is at  11.287463  0.323076 -3.265746
      ESP Fit Center  943 is at  10.466305  0.943185 -3.265746
      ESP Fit Center  944 is at   7.530861 -3.797720 -3.265746
      ESP Fit Center  945 is at  11.287463 -3.449620 -3.265746
      ESP Fit Center  946 is at  11.829160 -2.574749 -3.265746
      ESP Fit Center  947 is at  11.805101 -1.563272 -4.337260
      ESP Fit Center  948 is at  11.581455 -0.511100 -4.337260
      ESP Fit Center  949 is at  10.949187  0.359142 -4.337260
      ESP Fit Center  950 is at  10.932881 -0.573323 -5.245645
      ESP Fit Center  951 is at  10.208187  0.151371 -5.245645
      ESP Fit Center  952 is at  10.942072 -1.183775 -5.459525
      ESP Fit Center  953 is at   7.792640 -2.198988 -7.087800
      ESP Fit Center  954 is at   6.445656 -3.462789 -4.013132
      ESP Fit Center  955 is at   7.277040 -4.066825 -4.013132
      ESP Fit Center  956 is at   5.870864 -2.485438 -4.973132
      ESP Fit Center  957 is at   6.128095 -3.445438 -4.973132
      ESP Fit Center  958 is at   6.830864 -4.148207 -4.973132
      ESP Fit Center  959 is at   6.445656 -1.508087 -5.933132
      ESP Fit Center  960 is at   6.128095 -2.485438 -5.933132
      ESP Fit Center  961 is at   6.445656 -3.462789 -5.933132
      ESP Fit Center  962 is at   7.277040 -4.066825 -5.933132
      ESP Fit Center  963 is at   6.830864 -2.485438 -6.635901
      ESP Fit Center  964 is at   7.310864 -3.316822 -6.635901
      ESP Fit Center  965 is at  10.665439 -0.452004 -5.652163
      ESP Fit Center  966 is at   9.962670  0.250765 -5.652163
      ESP Fit Center  967 is at  10.665439 -1.412004 -6.612163
      ESP Fit Center  968 is at  10.347878 -0.434653 -6.612163
      ESP Fit Center  969 is at   9.516494  0.169383 -6.612163
      ESP Fit Center  970 is at   8.488846  0.169383 -6.612163
      ESP Fit Center  971 is at   7.657462 -0.434653 -6.612163
      ESP Fit Center  972 is at   9.962670 -1.412004 -7.314932
      ESP Fit Center  973 is at   9.482670 -0.580620 -7.314932
      ESP Fit Center  974 is at   8.522670 -0.580620 -7.314932
      ESP Fit Center  975 is at   8.042670 -1.412004 -7.314932
      ESP Fit Center  976 is at   8.522670 -2.243388 -7.314932
      ESP Fit Center  977 is at   9.002670 -1.412004 -7.572163
      ESP Fit Center  978 is at   7.608992 -4.419665 -4.703434
      ESP Fit Center  979 is at  11.175961 -5.233802 -4.703434
      ESP Fit Center  980 is at   7.608992 -4.419665 -5.771534
      ESP Fit Center  981 is at   8.258245 -5.233802 -5.771534
      ESP Fit Center  982 is at   9.196443 -5.685615 -5.771534
      ESP Fit Center  983 is at  10.237763 -5.685615 -5.771534
      ESP Fit Center  984 is at  11.175961 -5.233802 -5.771534
      ESP Fit Center  985 is at  11.295627 -4.418908 -6.733860
      ESP Fit Center  986 is at   7.818034 -4.751089 -6.223503
      ESP Fit Center  987 is at   8.520803 -5.453858 -6.223503
      ESP Fit Center  988 is at   9.480803 -5.711089 -6.223503
      ESP Fit Center  989 is at  11.143572 -3.791089 -7.183503
      ESP Fit Center  990 is at   8.135595 -2.813738 -7.183503
      ESP Fit Center  991 is at   7.818034 -3.791089 -7.183503
      ESP Fit Center  992 is at   8.135595 -4.768440 -7.183503
      ESP Fit Center  993 is at   8.966979 -5.372476 -7.183503
      ESP Fit Center  994 is at   9.994627 -5.372476 -7.183503
      ESP Fit Center  995 is at  10.826011 -4.768440 -7.183503
      ESP Fit Center  996 is at  10.440803 -3.791089 -7.886272
      ESP Fit Center  997 is at   9.960803 -2.959705 -7.886272
      ESP Fit Center  998 is at   9.000803 -2.959705 -7.886272
      ESP Fit Center  999 is at   8.520803 -3.791089 -7.886272
      ESP Fit Center 1000 is at   9.000803 -4.622473 -7.886272
      ESP Fit Center 1001 is at   9.960803 -4.622473 -7.886272
      ESP Fit Center 1002 is at   9.480803 -3.791089 -8.143503
      ESP Fit Center 1003 is at  11.727194 -3.135388 -3.558713
      ESP Fit Center 1004 is at  12.429963 -3.135388 -4.261482
      ESP Fit Center 1005 is at  12.112402 -2.158037 -4.261482
      ESP Fit Center 1006 is at  12.112402 -4.112739 -4.261482
      ESP Fit Center 1007 is at  12.687194 -3.135388 -5.221482
      ESP Fit Center 1008 is at  12.429963 -2.175388 -5.221482
      ESP Fit Center 1009 is at  11.727194 -1.472619 -5.221482
      ESP Fit Center 1010 is at  11.727194 -4.798157 -5.221482
      ESP Fit Center 1011 is at  12.429963 -4.095388 -5.221482
      ESP Fit Center 1012 is at  12.429963 -3.135388 -6.181482
      ESP Fit Center 1013 is at  12.112402 -2.158037 -6.181482
      ESP Fit Center 1014 is at  11.281018 -1.554001 -6.181482
      ESP Fit Center 1015 is at  12.112402 -4.112739 -6.181482
      ESP Fit Center 1016 is at  11.727194 -3.135388 -6.884251
      ESP Fit Center 1017 is at  11.247194 -2.304004 -6.884251
      ESP Fit Center 1018 is at  10.519645 -4.200530 -2.855411
      ESP Fit Center 1019 is at   9.079645 -5.031914 -2.855411
      ESP Fit Center 1020 is at  10.039645 -5.031914 -2.855411
      ESP Fit Center 1021 is at   7.896876 -4.200530 -3.558180
      ESP Fit Center 1022 is at   8.214437 -5.177881 -3.558180
      ESP Fit Center 1023 is at   9.045821 -5.781917 -3.558180
      ESP Fit Center 1024 is at  10.073469 -5.781917 -3.558180
      ESP Fit Center 1025 is at  10.904853 -5.177881 -3.558180
      ESP Fit Center 1026 is at   7.896876 -5.160530 -4.518180
      ESP Fit Center 1027 is at   8.599645 -5.863299 -4.518180
      ESP Fit Center 1028 is at   9.559645 -6.120530 -4.518180
      ESP Fit Center 1029 is at  10.519645 -5.863299 -4.518180
      ESP Fit Center 1030 is at  11.222414 -5.160530 -4.518180
      ESP Fit Center 1031 is at   9.045821 -5.781917 -5.478180
      ESP Fit Center 1032 is at  10.073469 -5.781917 -5.478180
      ESP Fit Center 1033 is at  -6.697148 -0.904652  0.319977
      ESP Fit Center 1034 is at  -7.002176 -1.412043 -0.555966
      ESP Fit Center 1035 is at  -2.952421  0.538216 -2.622456
      ESP Fit Center 1036 is at  -7.002176  2.488475 -2.622456
      ESP Fit Center 1037 is at  -7.002176 -1.412043 -2.622456
      ESP Fit Center 1038 is at  -7.278749  1.076097 -3.498399
      ESP Fit Center 1039 is at  -7.278749  0.000335 -3.498399
      ESP Fit Center 1040 is at  -6.697148 -0.904652 -3.498399
      ESP Fit Center 1041 is at  -5.963519 -0.356601 -4.083686
      ESP Fit Center 1042 is at  -4.930273 -0.356601 -4.083686
      ESP Fit Center 1043 is at  -6.293221 -1.876996 -0.691255
      ESP Fit Center 1044 is at  -5.334445 -2.314855 -0.691255
      ESP Fit Center 1045 is at  -4.291147 -2.164851 -0.691255
      ESP Fit Center 1046 is at  -3.494568 -1.474611 -0.691255
      ESP Fit Center 1047 is at  -2.908229 -0.463280 -1.771255
      ESP Fit Center 1048 is at  -6.685012 -1.895625 -1.771255
[...]
 1311 Fit      -0.009395
 1312 Fit      -0.016196
 1313 Fit      -0.019894
 1314 Fit      -0.019737
 1315 Fit      -0.016533
 1316 Fit      -0.012241
 1317 Fit       0.003983
 1318 Fit      -0.003399
 1319 Fit      -0.012914
 1320 Fit      -0.016504
 1321 Fit      -0.012429
 1322 Fit      -0.008553
 1323 Fit       0.001025
 1324 Fit       0.006333
 1325 Fit       0.002965
 1326 Fit       0.007585
 1327 Fit       0.007122
 1328 Fit       0.012589
 1329 Fit       0.007764
 1330 Fit       0.015371
 1331 Fit       0.008509
 1332 Fit       0.010495
 1333 Fit       0.013264
 1334 Fit       0.006110
 1335 Fit       0.009421
 1336 Fit       0.013637
 1337 Fit       0.008714
 1338 Fit      -0.004533
 1339 Fit       0.003632
 1340 Fit       0.006565
 1341 Fit       0.005248
 1342 Fit       0.016702
 1343 Fit       0.001151
 1344 Fit       0.005851
 1345 Fit       0.001679
 1346 Fit      -0.000322
 1347 Fit       0.005141
 1348 Fit       0.005371
 1349 Fit       0.008381
 1350 Fit       0.005625
 1351 Fit       0.008821
 1352 Fit       0.013074
 1353 Fit       0.012835
 1354 Fit       0.017072
 1355 Fit       0.009710
 1356 Fit       0.011075
 1357 Fit       0.014652
 1358 Fit       0.009733
 1359 Fit       0.002237
 1360 Fit       0.007674
 1361 Fit       0.003529
 1362 Fit      -0.008081
 1363 Fit      -0.015925
 1364 Fit      -0.011696
 1365 Fit       0.004267
 1366 Fit      -0.003523
 1367 Fit      -0.013071
 1368 Fit      -0.018638
 1369 Fit      -0.015196
 1370 Fit      -0.011490
 1371 Fit      -0.000351
 1372 Fit      -0.010850
 1373 Fit      -0.017756
 1374 Fit      -0.020393
 1375 Fit      -0.004045
 1376 Fit      -0.004503
 1377 Fit      -0.014689
 1378 Fit      -0.021553
 1379 Fit      -0.025993
 1380 Fit      -0.025875
 1381 Fit       0.008656
 1382 Fit      -0.003459
 1383 Fit      -0.014548
 1384 Fit      -0.022241
 1385 Fit      -0.029157
 1386 Fit      -0.007118
 1387 Fit      -0.016331
 1388 Fit      -0.022722
 1389 Fit      -0.000498
 1390 Fit      -0.009154
 1391 Fit      -0.014521
 1392 Fit       0.000656
 1393 Fit       0.014914
 1394 Fit       0.016560
 1395 Fit       0.016530
 1396 Fit       0.018409
 1397 Fit       0.017350
 1398 Fit       0.016192
 1399 Fit       0.015948
 1400 Fit       0.015936
 1401 Fit       0.015472
 1402 Fit       0.014859
 1403 Fit       0.014611
 1404 Fit       0.012645
 1405 Fit       0.017882
 1406 Fit       0.015248
 1407 Fit       0.014776
 1408 Fit       0.015649
 1409 Fit       0.016317
 1410 Fit       0.004607
 1411 Fit       0.009508
 1412 Fit       0.013117
 1413 Fit       0.003353
 1414 Fit       0.008664
 1415 Fit       0.011954
 1416 Fit       0.015707
 1417 Fit       0.008682
 1418 Fit       0.012033
 1419 Fit       0.014571
 1420 Fit       0.017389
 1421 Fit       0.014224
 1422 Fit       0.016398
 1423 Fit       0.018908
 1424 Fit      -0.004166
 1425 Fit      -0.000227
 1426 Fit       0.004012
 1427 Fit       0.001650
 1428 Fit       0.003836
 1429 Fit       0.007324
 1430 Fit       0.008939
 1431 Fit       0.008192
 1432 Fit       0.001575
 1433 Fit       0.006900
 1434 Fit       0.010181
 1435 Fit       0.013858
 1436 Fit      -0.018353
 1437 Fit      -0.016154
 1438 Fit      -0.009407
 1439 Fit      -0.026687
 1440 Fit      -0.021575
 1441 Fit      -0.017112
 1442 Fit      -0.012018
 1443 Fit      -0.003147
 1444 Fit      -0.031586
 1445 Fit      -0.025344
 1446 Fit      -0.021397
 1447 Fit      -0.019320
 1448 Fit      -0.018784
 1449 Fit      -0.016233
 1450 Fit      -0.009204
 1451 Fit      -0.027060
 1452 Fit      -0.020662
 1453 Fit      -0.017514
 1454 Fit      -0.017125
 1455 Fit      -0.018234
 1456 Fit      -0.018808
 1457 Fit      -0.018550
 1458 Fit      -0.013401
 1459 Fit      -0.003876
 1460 Fit      -0.020101
 1461 Fit      -0.009756
 1462 Fit      -0.012375
 1463 Fit      -0.015789
 1464 Fit      -0.015082
 1465 Fit      -0.016774
 1466 Fit      -0.012679
 1467 Fit      -0.003328
 1468 Fit      -0.010122
 1469 Fit      -0.005752
 1470 Fit       0.012825
 1471 Fit       0.011182
 1472 Fit      -0.006749
 1473 Fit       0.007679
 1474 Fit       0.004328
 1475 Fit       0.003466
 1476 Fit       0.014863
 1477 Fit       0.010600
 1478 Fit       0.008290
 1479 Fit       0.011466
 1480 Fit       0.010483
 1481 Fit       0.007602
 1482 Fit       0.006669
 1483 Fit       0.007969
 1484 Fit       0.011577
 1485 Fit       0.014870
 1486 Fit       0.015575
 1487 Fit       0.014491
 1488 Fit       0.009334
 1489 Fit       0.011175
 1490 Fit       0.012592
 1491 Fit       0.011740
 1492 Fit       0.010943
 1493 Fit       0.002375
 1494 Fit       0.000769
 1495 Fit       0.000057
 1496 Fit       0.002246
 1497 Fit       0.001496
 1498 Fit       0.004670
 1499 Fit       0.003328
 1500 Fit       0.002567
 1501 Fit       0.010727
 1502 Fit       0.008518
 1503 Fit       0.006732
 1504 Fit       0.005531
 1505 Fit       0.004515
 1506 Fit       0.003641
 1507 Fit       0.005980
 1508 Fit       0.007600
 1509 Fit       0.009736
 1510 Fit       0.009336
 1511 Fit       0.007913
 1512 Fit       0.006578
 1513 Fit       0.008204
 1514 Fit      -0.003581
 1515 Fit      -0.008842
 1516 Fit      -0.002378
 1517 Fit       0.000911
 1518 Fit      -0.000613
 1519 Fit      -0.003765
 1520 Fit       0.000239
 1521 Fit       0.000918
 1522 Fit       0.002875
 1523 Fit       0.002781
 1524 Fit       0.003321
 1525 Fit       0.002270
 1526 Fit       0.003417
 1527 Fit       0.004683
 1528 Fit      -0.007438
 1529 Fit      -0.005758
 1530 Fit      -0.007050
 1531 Fit      -0.002320
 1532 Fit      -0.000497
 1533 Fit      -0.000841
 1534 Fit      -0.002880
 1535 Fit       0.000939
 1536 Fit       0.000800
 1537 Fit       0.001371
 1538 Fit       0.001292
 1539 Fit       0.000355
 1540 Fit       0.001924
 1541 Fit      -0.003054
 1542 Fit      -0.004080
 1543 Fit      -0.004642
 1544 Fit      -0.005224
 1545 Fit      -0.010796
 1546 Fit      -0.013919
 1547 Fit      -0.005978
 1548 Fit      -0.004894
 1549 Fit      -0.009427
 1550 Fit      -0.007558
 1551 Fit      -0.006253
 1552 Fit      -0.006129
 1553 Fit      -0.007697
 1554 Fit      -0.006641
 1555 Fit      -0.006314
 1556 Fit      -0.000216
 1557 Fit       0.001179
 1558 Fit      -0.002867
 1559 Fit      -0.000560
 1560 Fit       0.001040
 1561 Fit       0.001681
 1562 Fit       0.000594
 1563 Fit      -0.003238
 1564 Fit      -0.001028
 1565 Fit       0.000361
 1566 Fit       0.000631
 1567 Fit      -0.000847
 1568 Fit      -0.004130
 1569 Fit      -0.002022
 1570 Fit      -0.001276
 1571 Fit      -0.002553
 1572 Fit      -0.004814
 1573 Fit      -0.003978
 1574 Fit      -0.008707
 1575 Fit      -0.010595
 1576 Fit      -0.005809
 1577 Fit      -0.004178
 1578 Fit      -0.011593
 1579 Fit      -0.006602
 1580 Fit      -0.004505
 1581 Fit      -0.004025
 1582 Fit      -0.017575
 1583 Fit      -0.010300
 1584 Fit      -0.006437
 1585 Fit      -0.004790
 1586 Fit      -0.004569
 1587 Fit      -0.013198
 1588 Fit      -0.008645
 1589 Fit      -0.006278
 1590 Fit      -0.005766
 1591 Fit      -0.014253
 1592 Fit      -0.014526
 1593 Fit      -0.017204
 1594 Fit      -0.019612
 1595 Fit      -0.018906
 1596 Fit      -0.009057
 1597 Fit      -0.009599
 1598 Fit      -0.010065
 1599 Fit      -0.011076
 1600 Fit      -0.011253
 1601 Fit      -0.010262
 1602 Fit      -0.006880
 1603 Fit      -0.007306
 1604 Fit      -0.007755
 1605 Fit      -0.007494
 1606 Fit      -0.006790
 1607 Fit      -0.006432
 1608 Fit      -0.006465
 1609 Fit      -0.003915
 1610 Fit       0.000773
 1611 Fit       0.000350
 1612 Fit      -0.000378
 1613 Fit      -0.001829
 1614 Fit      -0.002458
 1615 Fit      -0.000825
 1616 Fit      -0.000015
 1617 Fit      -0.000666
 1618 Fit      -0.004950
 1619 Fit      -0.003746
 1620 Fit      -0.001611
 1621 Fit      -0.000179
 1622 Fit       0.000413
 1623 Fit      -0.000770
 1624 Fit      -0.019010
 1625 Fit      -0.014163
 1626 Fit      -0.019760
 1627 Fit      -0.018741
 1628 Fit      -0.014081
 1629 Fit      -0.018680
 1630 Fit      -0.022430
 1631 Fit      -0.023780
 1632 Fit      -0.018418
 1633 Fit      -0.018384
 1634 Fit      -0.021014
 1635 Fit      -0.023888
 1636 Fit      -0.025431
 1637 Fit       0.005701
 1638 Fit       0.002708
 1639 Fit      -0.002534
 1640 Fit      -0.008111
 1641 Fit      -0.008795
 1642 Fit       0.002441
 1643 Fit      -0.000651
 1644 Fit       0.003951
 1645 Fit       0.004239
 1646 Fit       0.002430
 1647 Fit       0.001578
 1648 Fit      -0.000151
 1649 Fit       0.001485
 1650 Fit       0.000301
 1651 Fit       0.000459
 1652 Fit       0.000119
 1653 Fit      -0.002995
 1654 Fit      -0.003211
 1655 Fit      -0.001579
 1656 Fit       0.005811
 1657 Fit       0.003304
 1658 Fit       0.006921
 1659 Fit       0.004354
 1660 Fit       0.001864
 1661 Fit      -0.000476
 1662 Fit       0.005157
 1663 Fit       0.002773
 1664 Fit       0.000150
 1665 Fit      -0.003033
 1666 Fit       0.002138
 1667 Fit      -0.000595
 1668 Fit      -0.004024
 1669 Fit      -0.008954
 1670 Fit      -0.003176
 1671 Fit      -0.007090
 1672 Fit      -0.013564
 1673 Fit       0.006229
 1674 Fit       0.005434
 1675 Fit       0.005047
 1676 Fit       0.004600
 1677 Fit       0.003639
 1678 Fit       0.002673
 1679 Fit       0.000769
 1680 Fit       0.000940
 1681 Fit      -0.000444
 1682 Fit      -0.004617
 1683 Fit      -0.007428
 1684 Fit      -0.003788
 1685 Fit      -0.007020
 1686 Fit      -0.015603
 1687 Fit      -0.011137
 1688 Fit       0.005506
 1689 Fit       0.006136
 1690 Fit       0.007239
 1691 Fit       0.007018
 1692 Fit       0.006380
 1693 Fit       0.003677
 1694 Fit       0.001588
 1695 Fit       0.008005
 1696 Fit       0.007554
 1697 Fit       0.007631
 1698 Fit       0.008054
 1699 Fit       0.008626
 1700 Fit       0.007451
 1701 Fit       0.007249
 1702 Fit       0.007774
 1703 Fit       0.006660
 1704 Fit       0.006566
 1705 Fit      -0.002654
 1706 Fit      -0.007102
 1707 Fit      -0.008187
 1708 Fit      -0.011168
 1709 Fit       0.000505
 1710 Fit       0.005329
 1711 Fit       0.006119
 1712 Fit       0.006495
 1713 Fit       0.007829
 1714 Fit       0.010425
 1715 Fit       0.009223
 1716 Fit       0.008020
 1717 Fit       0.004933
 1718 Fit       0.009802
 1719 Fit       0.012544
 1720 Fit       0.010387
 1721 Fit       0.009321
 1722 Fit       0.008968
 1723 Fit       0.010503
 1724 Fit       0.009079
 1725 Fit       0.008582
 1726 Fit       0.008871
 1727 Fit       0.007895
 1728 Fit       0.007617
 1729 Fit      -0.001279
 1730 Fit       0.002503
 1731 Fit       0.003921
 1732 Fit       0.004806
 1733 Fit      -0.005120
 1734 Fit      -0.000295
 1735 Fit       0.001124
 1736 Fit      -0.015748
 1737 Fit      -0.005881
 1738 Fit      -0.004747
 1739 Fit      -0.011389
 1740 Fit      -0.012916
 1741 Fit       0.011712
 1742 Fit       0.013442
 1743 Fit       0.008217
 1744 Fit       0.011181
 1745 Fit       0.010538
 1746 Fit       0.006384
 1747 Fit       0.003069
 1748 Fit       0.006637
 1749 Fit       0.010214
 1750 Fit      -0.004392
 1751 Fit       0.003209
 1752 Fit       0.009227
 1753 Fit       0.012813
 1754 Fit       0.014199
 1755 Fit       0.001302
 1756 Fit       0.012873
 1757 Fit       0.012795
 1758 Fit       0.012587
 1759 Fit       0.010703
 1760 Fit       0.011723
 1761 Fit       0.010607
 1762 Fit       0.007219
 1763 Fit       0.007687
 1764 Fit       0.001221
 1765 Fit      -0.025753
 1766 Fit      -0.022034
 1767 Fit       0.001995
 1768 Fit       0.014603
 1769 Fit       0.001783
 1770 Fit       0.009948
 1771 Fit       0.013677
 1772 Fit       0.001364
 1773 Fit       0.005033
 1774 Fit       0.007858
 1775 Fit       0.010688
 1776 Fit      -0.010023
 1777 Fit      -0.001745
 1778 Fit       0.002801
 1779 Fit       0.005111
 1780 Fit       0.005306
 1781 Fit      -0.014208
 1782 Fit      -0.005568
 1783 Fit      -0.000455
 1784 Fit      -0.002446
 1785 Fit      -0.008413
 1786 Fit       0.015767
 1787 Fit       0.010186
 1788 Fit       0.013043
 1789 Fit       0.003822
 1790 Fit       0.007946
 1791 Fit       0.010890
 1792 Fit       0.013564
 1793 Fit      -0.004972
 1794 Fit       0.003065
 1795 Fit       0.007210
 1796 Fit       0.010311
 1797 Fit       0.013511
 1798 Fit       0.006799
 1799 Fit       0.010493
 1800 Fit       0.016148
 1801 Fit       0.015183
 1802 Fit       0.013716
 1803 Fit       0.013580
 1804 Fit       0.014387
 1805 Fit       0.013539
 1806 Fit       0.013479
 1807 Fit       0.014229
 1808 Fit       0.014112
 1809 Fit       0.013606
 1810 Fit       0.011928
 1811 Fit       0.014656
 1812 Fit       0.013385
 1813 Fit       0.014404
 1814 Fit       0.015203
 1815 Fit       0.013541
 1816 Fit       0.013043
 1817 Fit       0.012977
 1818 Fit       0.013518
 1819 Fit       0.013494
 1820 Fit       0.012692
 1821 Fit       0.006004
 1822 Fit       0.002931
 1823 Fit      -0.001145
 1824 Fit      -0.001408
 1825 Fit      -0.006068
 1826 Fit      -0.007354
 1827 Fit      -0.004537
 1828 Fit      -0.009284
 1829 Fit      -0.011478
 1830 Fit       0.002767
 1831 Fit      -0.005569
 1832 Fit      -0.010974
 1833 Fit      -0.014527
 1834 Fit      -0.018822
 1835 Fit       0.003835
 1836 Fit      -0.001001
 1837 Fit      -0.008392
 1838 Fit      -0.013493
 1839 Fit      -0.017412
 1840 Fit      -0.019850
 1841 Fit      -0.017632
 1842 Fit      -0.011544
 1843 Fit      -0.006933
 1844 Fit      -0.003825
 1845 Fit       0.009617
 1846 Fit       0.000791
 1847 Fit      -0.007019
 1848 Fit      -0.012575
 1849 Fit      -0.015670
 1850 Fit      -0.015567
 1851 Fit      -0.012739
 1852 Fit      -0.008606
 1853 Fit       0.003956
 1854 Fit      -0.002180
 1855 Fit      -0.009623
 1856 Fit      -0.012125
 1857 Fit      -0.008287
 1858 Fit      -0.005646
 1859 Fit       0.003848
 1860 Fit       0.010126
 1861 Fit       0.009361
 1862 Fit       0.006075
 1863 Fit       0.013706
 1864 Fit       0.009007
 1865 Fit       0.014376
 1866 Fit       0.007865
 1867 Fit       0.011826
 1868 Fit       0.005804
 1869 Fit       0.008605
 1870 Fit       0.007999
 1871 Fit      -0.002020
 1872 Fit       0.003638
 1873 Fit       0.006282
 1874 Fit       0.006577
 1875 Fit       0.013749
 1876 Fit      -0.000080
 1877 Fit       0.004816
 1878 Fit       0.004230
 1879 Fit      -0.000344
 1880 Fit       0.004257
 1881 Fit       0.000521
 1882 Fit       0.004695
 1883 Fit       0.005566
 1884 Fit       0.007690
 1885 Fit       0.005322
 1886 Fit       0.007989
 1887 Fit       0.011396
 1888 Fit       0.010164
 1889 Fit       0.013656
 1890 Fit       0.007999
 1891 Fit       0.009026
 1892 Fit       0.004880
 1893 Fit      -0.005336
 1894 Fit      -0.011690
 1895 Fit      -0.007671
 1896 Fit       0.004114
 1897 Fit      -0.002377
 1898 Fit      -0.009810
 1899 Fit      -0.014769
 1900 Fit      -0.011651
 1901 Fit      -0.007851
 1902 Fit       0.009117
 1903 Fit      -0.000017
 1904 Fit      -0.008226
 1905 Fit      -0.013797
 1906 Fit      -0.016053
 1907 Fit      -0.015482
 1908 Fit      -0.009122
 1909 Fit      -0.005484
 1910 Fit      -0.003235
 1911 Fit      -0.002631
 1912 Fit      -0.010826
 1913 Fit      -0.016604
 1914 Fit      -0.020280
 1915 Fit      -0.020460
 1916 Fit       0.004577
 1917 Fit      -0.004044
 1918 Fit      -0.012068
 1919 Fit      -0.018052
 1920 Fit      -0.023553
 1921 Fit      -0.003463
 1922 Fit      -0.010936
 1923 Fit      -0.016584
 1924 Fit      -0.021810
 1925 Fit      -0.000026
 1926 Fit      -0.007083
 1927 Fit      -0.012571
 1928 Fit      -0.016497
 1929 Fit       0.001480
 1930 Fit      -0.004187
 1931 Fit      -0.007005
 1932 Fit       0.004232
 1933 Fit       0.015057
 1934 Fit       0.013560
 1935 Fit       0.012070
 1936 Fit       0.014081
 1937 Fit       0.014558
 1938 Fit       0.014552
 1939 Fit       0.015876
 1940 Fit       0.014159
 1941 Fit       0.013353
 1942 Fit       0.013191
 1943 Fit       0.014131
 1944 Fit       0.013285
 1945 Fit       0.012678
 1946 Fit       0.012498
 1947 Fit       0.011889
 1948 Fit       0.016138
 1949 Fit       0.013860
 1950 Fit       0.013190
 1951 Fit       0.013963
 1952 Fit       0.014689
 1953 Fit       0.002859
 1954 Fit       0.007391
 1955 Fit       0.010406
 1956 Fit       0.006326
 1957 Fit       0.009660
 1958 Fit       0.003419
 1959 Fit       0.007770
 1960 Fit       0.010533
 1961 Fit       0.013140
 1962 Fit       0.008510
 1963 Fit       0.011023
 1964 Fit       0.013133
 1965 Fit       0.015376
 1966 Fit       0.012938
 1967 Fit       0.014748
 1968 Fit       0.017056
 1969 Fit      -0.002033
 1970 Fit       0.001752
 1971 Fit      -0.000523
 1972 Fit       0.002282
 1973 Fit       0.005258
 1974 Fit       0.006371
 1975 Fit       0.000533
 1976 Fit       0.005024
 1977 Fit       0.007782
 1978 Fit       0.010082
 1979 Fit      -0.016319
 1980 Fit      -0.013981
 1981 Fit      -0.009515
 1982 Fit      -0.018142
 1983 Fit      -0.014088
 1984 Fit      -0.010118
 1985 Fit      -0.004064
 1986 Fit      -0.021212
 1987 Fit      -0.018134
 1988 Fit      -0.016218
 1989 Fit      -0.014942
 1990 Fit      -0.012429
 1991 Fit      -0.006970
 1992 Fit      -0.023695
 1993 Fit      -0.018654
 1994 Fit      -0.016065
 1995 Fit      -0.015282
 1996 Fit      -0.015370
 1997 Fit      -0.015150
 1998 Fit      -0.014220
 1999 Fit      -0.010288
 2000 Fit      -0.003440
 2001 Fit      -0.018285
 2002 Fit      -0.012951
 2003 Fit      -0.010650
 2004 Fit      -0.011004
 2005 Fit      -0.012289
 2006 Fit      -0.014003
 2007 Fit      -0.013436
 2008 Fit      -0.013903
 2009 Fit      -0.011376
 2010 Fit      -0.005881
 2011 Fit      -0.010504
 2012 Fit      -0.008297
 2013 Fit      -0.010939
 2014 Fit      -0.008859
 2015 Fit      -0.010578
 2016 Fit      -0.008076
 2017 Fit      -0.001670
 2018 Fit      -0.004544
 2019 Fit      -0.001300
 2020 Fit       0.011426
 2021 Fit       0.010191
 2022 Fit       0.010248
 2023 Fit       0.010156
 2024 Fit       0.000227
 2025 Fit      -0.000687
 2026 Fit       0.011308
 2027 Fit       0.006856
 2028 Fit       0.005010
 2029 Fit       0.012644
 2030 Fit       0.009624
 2031 Fit       0.007951
 2032 Fit       0.010487
 2033 Fit       0.003378
 2034 Fit       0.007093
 2035 Fit       0.007591
 2036 Fit       0.010181
 2037 Fit       0.012592
 2038 Fit       0.013319
 2039 Fit       0.012667
 2040 Fit       0.008520
 2041 Fit       0.009845
 2042 Fit       0.011058
 2043 Fit       0.010674
 2044 Fit       0.009848
 2045 Fit       0.001046
 2046 Fit      -0.000802
 2047 Fit       0.004250
 2048 Fit       0.002610
 2049 Fit       0.002005
 2050 Fit       0.001496
 2051 Fit       0.000889
 2052 Fit       0.000607
 2053 Fit       0.001928
 2054 Fit       0.002047
 2055 Fit       0.003406
 2056 Fit       0.004453
 2057 Fit       0.007325
 2058 Fit       0.006275
 2059 Fit       0.004581
 2060 Fit       0.003644
 2061 Fit       0.002958
 2062 Fit       0.003767
 2063 Fit       0.009519
 2064 Fit       0.007774
 2065 Fit       0.006304
 2066 Fit       0.005267
 2067 Fit       0.004438
 2068 Fit       0.003823
 2069 Fit       0.005623
 2070 Fit       0.007006
 2071 Fit       0.008600
 2072 Fit       0.008175
 2073 Fit       0.006934
 2074 Fit       0.005896
 2075 Fit       0.007203
 2076 Fit      -0.006088
 2077 Fit      -0.004145
 2078 Fit      -0.001459
 2079 Fit      -0.003676
 2080 Fit      -0.000900
 2081 Fit      -0.000826
 2082 Fit       0.001213
 2083 Fit       0.000546
 2084 Fit      -0.000515
 2085 Fit       0.001181
 2086 Fit       0.002536
 2087 Fit       0.002757
 2088 Fit       0.003930
 2089 Fit       0.002166
 2090 Fit       0.003353
 2091 Fit      -0.009826
 2092 Fit      -0.007792
 2093 Fit      -0.004858
 2094 Fit      -0.002558
 2095 Fit      -0.002582
 2096 Fit      -0.004343
 2097 Fit      -0.002379
 2098 Fit      -0.000721
 2099 Fit       0.000102
 2100 Fit       0.000030
 2101 Fit      -0.000831
 2102 Fit       0.001386
 2103 Fit       0.001327
 2104 Fit       0.001006
 Job cpu time:       0 days  0 hours  4 minutes 46.6 seconds.
 Normal termination of Gaussian 16 at Sat Jul  8 22:10:13 2023.
